Membrane in water
40344
    1TMC1    C1    1   0.518   3.707  11.000  0.2981  0.2011 -0.3581
    1TMC1    C2    2   0.579   3.819  10.964  0.0179  0.6665  0.9482
    1TMC1    C3    3   0.595   3.842  10.833 -0.7833 -0.0250 -0.0849
    1TMC1    C4    4   0.464   3.615  10.913 -0.2949 -0.1307  1.5460
    1TMC1    C5    5   0.480   3.635  10.783 -0.1846  0.2844  0.3709
    1TMC1    C6    6   0.553   3.743  10.742 -0.2471  0.0381  1.2022
    1TMC1     C    7   0.488   3.685  11.139  1.1581  0.6068 -0.0748
    1TMC1     O    8   0.375   3.661  11.177 -0.5187  0.3916 -0.9689
    1TMC1     H    9   0.601   3.894  11.040 -1.7846 -0.7326  2.8475
    1TMC1    H1   10   0.416   3.532  10.964 -0.8392 -0.9224 -0.2671
    1TMC1    H2   11   0.575   3.760  10.637  2.3072 -0.1407  1.7276
    1TMC1    C7   12   0.426   3.551  10.682 -0.9824  0.3137  0.4479
    1TMC1    C8   13   0.606   3.983  10.776 -0.2947 -0.3592  0.3133
    1TMC1    O1   14   0.467   3.558  10.570 -0.3143  0.1498  0.0055
    1TMC1    O2   15   0.576   4.025  10.665  0.0278 -0.1751  0.1007
    1TMC1    O3   16   0.350   3.457  10.742 -0.5741  0.5495 -0.3028
    1TMC1    H3   17   0.304   3.485  10.824 -1.8865  1.0439 -1.1919
    1TMC1    O5   18   0.625   4.069  10.876  0.3125  0.9524 -0.3112
    1TMC1    H5   19   0.685   4.024  10.939  0.1085  1.7743  0.4743
    2MPD2     C   20   0.626   3.655  11.634 -0.3702 -0.2968  0.3551
    2MPD2    C1   21   0.504   3.694  11.578  0.2397 -0.4324 -0.2011
    2MPD2    C2   22   0.492   3.711  11.442 -0.6428 -0.8653  0.0276
    2MPD2    C3   23   0.605   3.695  11.360  0.7298  0.4326  0.8596
    2MPD2    C4   24   0.725   3.663  11.420  0.2656  0.3715  0.4512
    2MPD2    C5   25   0.735   3.651  11.552  0.2183  0.4101 -0.2462
    2MPD2     H   26   0.398   3.740  11.397 -0.9903 -0.2114  1.1674
    2MPD2    H1   27   0.815   3.643  11.363  0.6861  0.5717  1.0412
    2MPD2    H2   28   0.639   3.655  11.741  2.1834  0.4797  0.0367
    2MPD2    H3   29   0.830   3.626  11.597  0.4903 -0.8522 -1.5446
    2MPD2     N   30   0.603   3.698  11.217 -0.5215  0.8785 -0.1547
    2MPD2    H5   31   0.694   3.714  11.176  0.7470 -2.2401  1.4143
    2MPD2    N1   32   0.385   3.721  11.644 -0.1785  0.4594  0.1674
    2MPD2    H7   33   0.310   3.770  11.597  0.5089  0.7989 -0.5628
    3TMC1    C1   34   0.471   4.416  10.770  0.3525 -0.3760 -0.0095
    3TMC1    C2   35   0.604   4.387  10.788 -0.3142  0.2867  0.1026
    3TMC1    C3   36   0.675   4.337  10.679 -0.9295  0.7349 -0.0322
    3TMC1    C4   37   0.402   4.380  10.654 -0.6231  0.2780  0.7549
    3TMC1    C5   38   0.473   4.320  10.554  0.7071  0.0993  0.2030
    3TMC1    C6   39   0.607   4.301  10.563 -0.3454 -0.2802 -0.5377
    3TMC1     C   40   0.409   4.457  10.891  0.0483  0.0751 -0.4348
    3TMC1     O   41   0.459   4.427  11.001 -0.0902  0.0258 -0.3833
    3TMC1     H   42   0.657   4.420  10.876  0.5198  0.8558 -0.6103
    3TMC1    H1   43   0.294   4.372  10.651 -0.5446 -0.5671  0.0203
    3TMC1    H2   44   0.663   4.252  10.484 -1.4342 -1.2757 -0.6851
    3TMC1    C7   45   0.401   4.255  10.443  0.3336 -0.4360 -0.1770
    3TMC1    C8   46   0.824   4.311  10.705 -0.1989  0.1066 -0.1787
    3TMC1    O1   47   0.310   4.306  10.378  0.1773 -0.3428  0.4671
    3TMC1    O2   48   0.891   4.234  10.641  0.4610  0.3380 -0.3385
    3TMC1    O3   49   0.393   4.129  10.490 -0.0289 -0.1405  0.1036
    3TMC1    H3   50   0.453   4.108  10.565 -0.1077 -0.0871  0.1825
    3TMC1    O5   51   0.861   4.424  10.767 -0.1471 -0.0141  1.2411
    3TMC1    H5   52   0.789   4.489  10.778  0.2508  0.6048  0.1954
    4MPD2     C   53   4.692   4.586  11.083 -0.2031 -0.0850  0.4097
    4MPD2    C1   54   4.713   4.666  10.973 -0.6455 -0.1196 -0.2249
    4MPD2    C2   55   0.094   4.639  10.903 -0.0795  0.5820 -0.3516
    4MPD2    C3   56   0.178   4.540  10.940 -0.3271 -0.0398  0.4532
    4MPD2    C4   57   0.160   4.466  11.054  0.3609 -0.2442  0.5131
    4MPD2    C5   58   0.053   4.502  11.128 -0.0838  0.4215 -0.6790
    4MPD2     H   59   0.110   4.698  10.814  2.9421 -0.2776 -0.3674
    4MPD2    H1   60   0.225   4.389  11.094 -1.0491 -1.8489 -0.2553
    4MPD2    H2   61   4.598   4.599  11.135 -0.1287 -2.9345  1.2631
    4MPD2    H3   62   0.033   4.460  11.227 -3.1191 -0.3183 -1.6067
    4MPD2     N   63   0.286   4.520  10.858  0.0181  0.0000 -0.1754
    4MPD2    H5   64   0.277   4.568  10.769 -0.3325  1.0623  0.4461
    4MPD2    N1   65   4.626   0.027  10.925 -0.4192  0.2750  0.3442
    4MPD2    H7   66   4.653   0.076  10.841 -0.5139 -0.3270 -0.0414
    5TCq1    O1   67   0.181   1.922  11.798 -0.0302 -0.3725  0.2676
    5TCq1    C1   68   0.224   1.923  11.675 -0.7202 -0.0077  0.3106
    5TCq1    O2   69   0.341   1.902  11.653  0.4310 -0.0630 -0.1064
    5TCq1    C2   70   0.116   1.887  11.581  0.9749  0.2888  0.0067
    5TCq1    C3   71   4.719   1.938  11.605 -0.4366  0.4981  0.3259
    5TCq1    C4   72   4.633   1.925  11.506 -0.1846  0.4876 -0.4177
    5TCq1    C5   73   4.664   1.864  11.388 -0.0923  0.2404  0.8012
    5TCq1    C6   74   0.059   1.827  11.365  0.3362  0.4021 -0.1100
    5TCq1    C7   75   0.154   1.834  11.458 -0.1806  0.2590 -0.3164
    5TCq1    C8   76   0.091   1.755  11.243  0.1504  1.0716  0.3641
    5TCq1    O4   77   0.210   1.733  11.221 -0.7909 -0.1660 -0.5390
    5TCq1    C9   78   4.489   1.957  11.528  0.0215 -0.5695  0.5393
    5TCq1    O5   79   4.398   1.903  11.455  0.5000 -0.1552  0.6113
    5TCq1    O6   80   4.468   2.037  11.623  0.4941 -0.3117  0.4564
    5TCq1    H1   81   0.083   1.916  11.801  0.1202 -2.7428  0.6021
    5TCq1    H2   82   4.684   1.965  11.703 -1.6415 -0.9316  0.2956
    5TCq1    H3   83   4.583   1.851  11.317  0.3751 -0.0180  0.3186
    5TCq1    H4   84   0.255   1.798  11.441 -0.6944 -1.4587  0.2907
    6MPD2     C   85   4.573   1.638  11.004  0.2260  0.2323 -0.0839
    6MPD2    C1   86   4.702   1.645  11.051  0.2655 -0.2794  0.0052
    6MPD2    C2   87   0.074   1.595  10.976  0.3703  0.1906  0.4772
    6MPD2    C3   88   0.051   1.538  10.851 -0.3879  0.4015 -0.0755
    6MPD2    C4   89   4.661   1.531  10.804  0.5298  0.4009  0.0539
    6MPD2    C5   90   4.555   1.587  10.879  0.3844 -0.6953  0.3170
    6MPD2     H   91   0.174   1.613  11.014  0.7039  0.3236 -0.4580
    6MPD2    H1   92   4.643   1.474  10.714  0.8339 -1.5548  1.2382
    6MPD2    H2   93   4.495   1.692  11.056 -1.1856 -2.3641  0.5161
    6MPD2    H3   94   4.452   1.580  10.845  1.1961  0.0004 -2.2472
    6MPD2     N   95   0.154   1.482  10.784  0.9419  0.0607  0.0099
    6MPD2    H5   96   0.239   1.465  10.836 -0.8325 -4.2374  1.4196
    6MPD2    N1   97   4.716   1.720  11.173 -0.0129  0.2374  0.1452
    6MPD2    H7   98   4.625   1.749  11.207  1.0765  2.8790  0.8114
    7TCq1    O1   99   1.665   1.919  12.752  0.0492  0.3762 -0.0195
    7TCq1    C1  100   1.779   1.921  12.815  0.4192 -0.2587  0.0881
    7TCq1    O2  101   1.827   2.014  12.877  0.0919 -0.2179 -0.0480
    7TCq1    C2  102   1.826   1.788  12.809  0.0462  0.0189 -0.4368
    7TCq1    C3  103   1.804   1.721  12.693  0.6132  0.4674 -0.0719
    7TCq1    C4  104   1.875   1.605  12.666 -1.2380  0.5720 -0.1172
    7TCq1    C5  105   1.966   1.564  12.747  0.5308  0.8098  0.4070
    7TCq1    C6  106   1.993   1.637  12.856 -0.0848 -0.4934  0.3970
    7TCq1    C7  107   1.919   1.745  12.898  0.5084 -0.6056 -0.8074
    7TCq1    C8  108   2.092   1.576  12.949  0.3379 -0.3455  1.0259
    7TCq1    O4  109   2.117   1.454  12.946 -0.4403  0.1736  0.1378
    7TCq1    C9  110   1.849   1.544  12.535 -0.3212  0.0606 -0.5051
    7TCq1    O5  111   1.805   1.614  12.439  0.9532  0.5844  0.0641
    7TCq1    O6  112   1.890   1.430  12.521  0.3617 -0.1836  0.0653
    7TCq1    H1  113   1.645   1.826  12.726 -1.8240 -0.2133  3.5955
    7TCq1    H2  114   1.743   1.765  12.614  0.6627 -1.5492 -1.2327
    7TCq1    H3  115   2.028   1.481  12.715 -0.4507  1.1989 -2.4767
    7TCq1    H4  116   1.929   1.801  12.990 -0.2324 -3.3473  0.9793
    8MPD2     C  117   2.389   1.657  13.381  0.6109  0.0359  0.0044
    8MPD2    C1  118   2.366   1.543  13.308 -0.5636  0.4299  0.4706
    8MPD2    C2  119   2.277   1.549  13.192  0.4469  0.0228 -0.3673
    8MPD2    C3  120   2.231   1.666  13.147  0.5532 -0.7139  0.0031
    8MPD2    C4  121   2.261   1.775  13.225 -0.3876  0.0960  0.3099
    8MPD2    C5  122   2.340   1.774  13.336 -1.2554 -0.2546  0.6074
    8MPD2     H  123   2.258   1.453  13.147  0.0363 -1.4295  2.9044
    8MPD2    H1  124   2.236   1.873  13.187  1.1865  0.1595 -0.5556
    8MPD2    H2  125   2.461   1.660  13.462  1.9699  2.4034 -1.2955
    8MPD2    H3  126   2.362   1.869  13.383 -1.1071  0.3136 -0.6193
    8MPD2     N  127   2.142   1.674  13.032 -0.8696 -0.3491  0.1999
    8MPD2    H5  128   2.116   1.772  13.020  0.9695  0.3127  1.6415
    8MPD2    N1  129   2.437   1.430  13.351 -0.6348 -0.2556  0.0784
    8MPD2    H7  130   2.512   1.458  13.414 -1.1403 -1.5528  1.2613
    9TMC1    C1  131   0.818   0.706  10.963 -0.3330  0.6158  0.1051
    9TMC1    C2  132   0.866   0.587  10.911  0.0547 -0.3582  0.2650
    9TMC1    C3  133   0.853   0.567  10.774  0.2456  0.2206 -0.2179
    9TMC1    C4  134   0.759   0.794  10.879  0.0900 -0.2672 -0.2400
    9TMC1    C5  135   0.750   0.770  10.744  1.2024 -0.0591 -0.0590
    9TMC1    C6  136   0.797   0.652  10.685 -0.2737  0.1043  0.3724
    9TMC1     C  137   0.802   0.733  11.103  0.3710  0.0134  0.0078
    9TMC1     O  138   0.771   0.844  11.143  0.0196  0.0595 -0.2543
    9TMC1     H  139   0.910   0.517  10.980  2.5463 -0.2807 -1.2555
    9TMC1    H1  140   0.707   0.882  10.915 -1.0708 -1.0208 -0.0852
    9TMC1    H2  141   0.782   0.612  10.585 -1.1989  0.7300  0.2610
    9TMC1    C7  142   0.672   0.851  10.666  0.6115 -0.5245 -0.0583
    9TMC1    C8  143   0.880   0.437  10.732 -0.1760 -0.0279  0.1175
    9TMC1    O1  144   0.570   0.908  10.703 -0.2150 -0.1042  0.2475
    9TMC1    O2  145   0.820   0.384  10.634  0.1438 -0.5113  0.2611
    9TMC1    O3  146   0.729   0.846  10.544 -0.6362 -0.2469 -0.2315
    9TMC1    H3  147   0.819   0.816  10.570  0.9423  2.4330 -2.5333
    9TMC1    O5  148   0.988   0.391  10.797  0.3283  0.4670  0.2982
    9TMC1    H5  149   1.045   0.452  10.848  1.3144 -0.5622  0.4389
   10MPD2     C  150   0.774   0.702  11.411  0.2023 -0.4177 -0.1270
   10MPD2    C1  151   0.781   0.596  11.314  0.2498  1.1062  0.1955
   10MPD2    C2  152   0.748   0.468  11.356 -0.2865 -0.0819 -0.8691
   10MPD2    C3  153   0.699   0.446  11.483  0.0673  0.2184  0.2890
   10MPD2    C4  154   0.682   0.548  11.569  0.5188 -0.2212 -0.0957
   10MPD2    C5  155   0.715   0.676  11.536  0.0324 -0.0590  0.3649
   10MPD2     H  156   0.742   0.393  11.277 -1.0816 -1.2054  0.2535
   10MPD2    H1  157   0.645   0.516  11.666 -0.3156  0.1344 -0.2953
   10MPD2    H2  158   0.798   0.806  11.393  0.5795 -0.3860  0.5305
   10MPD2    H3  159   0.712   0.751  11.613  1.6050  0.2186  0.1465
   10MPD2     N  160   0.672   0.317  11.534  0.2727  0.0082  0.3383
   10MPD2    H5  161   0.641   0.310  11.631 -1.2936 -0.7603 -0.2252
   10MPD2    N1  162   0.811   0.614  11.175  0.1225 -0.0547 -0.2834
   10MPD2    H7  163   0.819   0.524  11.129  0.3073 -0.8133  1.2033
   11TCq1    O1  164   0.656   0.536  13.736  0.8951  0.0555  0.4787
   11TCq1    C1  165   0.784   0.560  13.780 -0.4153 -0.4809 -0.3055
   11TCq1    O2  166   0.860   0.650  13.749 -0.4222  0.2157 -0.5786
   11TCq1    C2  167   0.841   0.437  13.822 -0.3083  0.2167 -0.4063
   11TCq1    C3  168   0.769   0.359  13.912 -0.3171  0.0201 -0.4220
   11TCq1    C4  169   0.808   0.230  13.913 -0.2197  0.1127 -0.1093
   11TCq1    C5  170   0.899   0.169  13.828 -0.4089 -0.2249  0.4851
   11TCq1    C6  171   0.975   0.255  13.757 -0.0286  0.8456 -0.2669
   11TCq1    C7  172   0.943   0.392  13.748  0.2333  0.0852 -0.0266
   11TCq1    C8  173   1.078   0.212  13.668  0.0929 -0.2380  0.4075
   11TCq1    O4  174   1.157   0.297  13.635  0.1377  1.0762 -0.1077
   11TCq1    C9  175   0.728   0.142  14.000 -0.0150 -0.2585  0.1832
   11TCq1    O5  176   0.741   0.020  13.972 -0.3337 -0.0848  0.6554
   11TCq1    O6  177   0.648   0.205  14.080 -0.8397 -0.1448 -0.5545
   11TCq1    H1  178   0.640   0.440  13.736  1.6432 -0.0655 -0.1909
   11TCq1    H2  179   0.677   0.393  13.959  0.1547 -0.8931  1.1490
   11TCq1    H3  180   0.933   0.069  13.850  0.7101  0.1052  0.2796
   11TCq1    H4  181   0.997   0.457  13.680 -0.2418 -0.1057 -0.5891
   12MPD2     C  182   1.320   0.053  13.562  0.7644  0.5200 -0.8111
   12MPD2    C1  183   1.192   0.002  13.591  0.6693 -0.1443  0.6730
   12MPD2    C2  184   1.169   4.607  13.574  0.0761  0.7682 -0.6154
   12MPD2    C3  185   1.266   4.530  13.510  0.3710 -0.9587  0.3901
   12MPD2    C4  186   1.387   4.582  13.484  0.1963 -1.2307  0.4344
   12MPD2    C5  187   1.411   4.709  13.507 -0.4612  1.0467 -1.0367
   12MPD2     H  188   1.069   4.566  13.586  0.4862  0.3849  1.4404
   12MPD2    H1  189   1.463   4.526  13.430  2.5883 -1.6050  4.1896
   12MPD2    H2  190   1.346   0.155  13.589  1.3178 -0.4249  2.3337
   12MPD2    H3  191   1.502   0.024  13.477 -0.1284  0.5517 -0.8671
   12MPD2     N  192   1.251   4.392  13.472  0.2128 -0.2637 -0.3057
   12MPD2    H5  193   1.335   4.339  13.452  0.2864  0.0476 -0.8110
   12MPD2    N1  194   1.086   0.069  13.648 -0.1999  0.3682 -0.2191
   12MPD2    H7  195   1.010   0.009  13.680  0.6298 -0.7803 -0.4200
   13TCq1    O1  196   1.147   4.553  11.100 -0.4866  0.9670  0.4292
   13TCq1    C1  197   1.124   4.441  11.026 -0.4279  0.2352  0.0072
   13TCq1    O2  198   1.188   4.408  10.921 -0.2602  0.1671 -0.0888
   13TCq1    C2  199   1.015   4.357  11.080  0.0792  1.2047 -0.2012
   13TCq1    C3  200   1.016   4.231  11.033  0.5959 -0.6543 -0.2987
   13TCq1    C4  201   0.908   4.159  11.054 -0.0637  0.4556  0.1503
   13TCq1    C5  202   0.796   4.199  11.127 -0.2231 -0.4644 -0.4258
   13TCq1    C6  203   0.805   4.329  11.176 -0.2035 -0.6654  0.4954
   13TCq1    C7  204   0.911   4.409  11.154 -0.4454  0.2963 -0.0535
   13TCq1    C8  205   0.699   4.390  11.258 -0.2460  0.1921 -1.6105
   13TCq1    O4  206   0.704   4.513  11.276  0.1488  0.0577  1.0107
   13TCq1    C9  207   0.918   4.018  11.008 -0.6471 -0.1442 -0.1127
   13TCq1    O5  208   0.820   3.949  11.014  0.4113 -0.1829 -0.2292
   13TCq1    O6  209   1.021   3.981  10.941 -1.0620  0.0295 -0.3186
   13TCq1    H1  210   1.116   4.542  11.192 -0.3305  0.2114  0.3901
   13TCq1    H2  211   1.108   4.192  10.992  1.2624  0.3331  0.2591
   13TCq1    H3  212   0.709   4.136  11.141  0.7332 -1.5179  0.7814
   13TCq1    H4  213   0.909   4.513  11.182 -0.6400 -0.2307  1.8877
   14MPD2     C  214   0.436   4.199  11.447 -0.0795  1.0092 -0.1103
   14MPD2    C1  215   0.497   4.308  11.383  0.5035  0.7862  0.0770
   14MPD2    C2  216   0.436   4.430  11.403 -0.6394 -0.2343 -0.3088
   14MPD2    C3  217   0.319   4.445  11.478 -0.7805  0.8610  0.1608
   14MPD2    C4  218   0.258   4.331  11.529 -0.2718  0.0483  0.1608
   14MPD2    C5  219   0.319   4.212  11.517  0.6865 -0.0173 -0.2192
   14MPD2     H  220   0.469   4.519  11.350  0.2713  0.4066  1.3327
   14MPD2    H1  221   0.162   4.332  11.581  0.6982  0.3136  1.9608
   14MPD2    H2  222   0.474   4.098  11.436  1.0898  1.6135 -1.6342
   14MPD2    H3  223   0.274   4.119  11.549  1.1473 -0.4347 -0.7826
   14MPD2     N  224   0.261   4.577  11.506  0.1313  0.6364  0.7006
   14MPD2    H5  225   0.305   4.658  11.464  0.0467 -1.2731 -3.1637
   14MPD2    N1  226   0.611   4.291  11.302  0.3465  0.3049  0.2204
   14MPD2    H7  227   0.625   4.193  11.279  0.6124  0.3461  0.2093
   15TCq1    O1  228   1.797   4.323   0.770 -0.3695  0.0541 -0.1788
   15TCq1    C1  229   1.903   4.385   0.824 -0.1036 -0.1201  0.3364
   15TCq1    O2  230   1.925   4.508   0.827  0.2547  0.3898 -0.1023
   15TCq1    C2  231   2.007   4.285   0.834 -0.4743 -0.0586 -0.3158
   15TCq1    C3  232   2.130   4.331   0.877  0.1221 -0.5910  0.6803
   15TCq1    C4  233   2.235   4.243   0.875 -0.7350 -0.2575 -0.0608
   15TCq1    C5  234   2.216   4.118   0.831 -0.6464 -0.3669  0.1544
   15TCq1    C6  235   2.098   4.080   0.769 -0.1357  0.5666 -0.1620
   15TCq1    C7  236   1.989   4.159   0.779 -0.0426  0.6263  0.0417
   15TCq1    C8  237   2.092   3.942   0.728 -0.4879  0.2471 -0.0726
   15TCq1    O4  238   2.179   3.871   0.778  0.4484  0.2341 -0.3764
   15TCq1    C9  239   2.353   4.279   0.949  0.4589 -0.6227  0.0413
   15TCq1    O5  240   2.424   4.179   1.000  0.3080 -0.0384 -0.1139
   15TCq1    O6  241   2.376   4.406   0.955 -0.4808 -0.0275  0.6535
   15TCq1    H1  242   1.786   4.231   0.802 -0.9990 -0.6294 -2.3524
   15TCq1    H2  243   2.142   4.435   0.908  0.4432 -0.0554 -1.2584
   15TCq1    H3  244   2.307   4.059   0.835 -2.1257 -2.7037 -0.4598
   15TCq1    H4  245   1.894   4.126   0.739  0.0849  0.6413 -0.2670
   16MPD2     C  246   1.855   3.749   0.514  0.5134  1.0204  0.1366
   16MPD2    C1  247   1.966   3.778   0.594 -0.5203 -0.1438 -0.9643
   16MPD2    C2  248   2.055   3.669   0.625 -0.0058 -0.0042  0.0815
   16MPD2    C3  249   2.026   3.539   0.591 -0.9513  0.1552  0.2256
   16MPD2    C4  250   1.908   3.512   0.522 -0.4289 -0.0789  0.0979
   16MPD2    C5  251   1.825   3.609   0.489 -0.1662  0.1615  0.4429
   16MPD2     H  252   2.138   3.685   0.692 -0.7846  0.8003  0.8503
   16MPD2    H1  253   1.880   3.409   0.502  2.9813 -1.4458  2.4069
   16MPD2    H2  254   1.781   3.823   0.485 -0.4993  0.0762  0.3016
   16MPD2    H3  255   1.729   3.586   0.444 -1.1237  0.9686  2.0661
   16MPD2     N  256   2.106   3.443   0.654  0.2657 -0.0029  0.4406
   16MPD2    H5  257   2.186   3.476   0.707  0.8773 -0.3672 -0.2590
   16MPD2    N1  258   1.990   3.908   0.641  0.4361  0.3843  0.1028
   16MPD2    H7  259   1.925   3.981   0.611 -0.7268 -0.7768 -0.1965
   17TMC1    C1  260   4.718   3.423  10.108 -0.3816 -0.2099  0.2560
   17TMC1    C2  261   4.634   3.308  10.101  0.1499  0.0845 -0.2163
   17TMC1    C3  262   4.565   3.277  10.212 -0.0819 -0.1884 -0.2349
   17TMC1    C4  263   4.731   3.498  10.225  0.7052 -0.0523 -0.1369
   17TMC1    C5  264   4.650   3.462  10.331 -0.6745  0.1806 -0.2665
   17TMC1    C6  265   4.571   3.348  10.326  0.3018  0.3550 -0.4161
   17TMC1     C  266   0.071   3.447   9.993 -0.3424 -0.2846  0.0331
   17TMC1     O  267   0.034   3.390   9.892  0.5769  0.1553 -0.2338
   17TMC1     H  268   4.623   3.245  10.013 -0.3043 -0.6221  0.3419
   17TMC1    H1  269   0.064   3.580  10.236  0.8068 -0.2418  0.6066
   17TMC1    H2  270   4.520   3.319  10.417 -1.0161 -1.2152 -1.6409
   17TMC1    C7  271   4.702   3.487  10.459  0.4378 -0.5494  0.0681
   17TMC1    C8  272   4.480   3.157  10.215  0.0356 -0.3994 -0.2762
   17TMC1    O1  273   0.075   3.538  10.472 -0.2939  0.3822  0.2196
   17TMC1    O2  274   4.457   3.096  10.113 -0.2888 -0.4321  0.2539
   17TMC1    O3  275   4.590   3.544  10.514 -0.1964  0.2079  0.5243
   17TMC1    H3  276   4.498   3.544  10.478 -0.5754 -0.1935  1.4819
   17TMC1    O5  277   4.454   3.116  10.345  0.3124 -0.0212  0.2539
   17TMC1    H5  278   4.530   3.130  10.406  2.7884 -1.9140 -2.3629
   18MPD2     C  279   0.272   3.551   9.805 -0.7836 -0.1905  0.2199
   18MPD2    C1  280   0.291   3.550   9.941  0.0564 -0.2374  0.4135
   18MPD2    C2  281   0.410   3.590   9.993 -0.2679 -0.2536 -0.6100
   18MPD2    C3  282   0.514   3.628   9.911 -0.2974 -0.8358 -0.2384
   18MPD2    C4  283   0.491   3.645   9.776 -0.5126 -0.3897  0.4831
   18MPD2    C5  284   0.378   3.606   9.727 -0.1129 -0.0285 -0.3164
   18MPD2     H  285   0.421   3.594  10.101 -1.9523  2.2528 -0.5317
   18MPD2    H1  286   0.565   3.686   9.709  0.3882  0.4394  2.0024
   18MPD2    H2  287   0.176   3.532   9.758 -1.3786 -0.5323  1.5943
   18MPD2    H3  288   0.355   3.616   9.622 -2.8782  0.2964  0.3156
   18MPD2     N  289   0.639   3.681   9.961 -0.0563  0.5633  0.1280
   18MPD2    H5  290   0.707   3.709   9.891  0.9017 -1.5390  0.2433
   18MPD2    N1  291   0.190   3.515  10.029 -0.3452 -0.4549  0.2475
   18MPD2    H7  292   0.226   3.527  10.124 -0.1087  0.1058  0.0862
   19TMC2    C1  293   2.183   4.700  13.760 -0.2554 -0.3509 -0.3130
   19TMC2    C2  294   2.093   0.002  13.665 -0.3831 -0.3592  0.0898
   19TMC2    C3  295   1.963   0.027  13.700 -0.1685 -0.8286  0.0942
   19TMC2    C4  296   2.145   4.668  13.884 -1.0793 -0.4723 -0.1359
   19TMC2    C5  297   2.015   4.680  13.913  0.2062  0.3223  0.2442
   19TMC2    C6  298   1.925   4.728  13.826 -0.7828 -0.2130 -0.0674
   19TMC2     C  299   2.318   4.649  13.711 -0.1526  0.3321 -0.8419
   19TMC2     O  300   2.341   4.648  13.593 -0.0684 -0.0382 -0.5337
   19TMC2     H  301   2.131   0.012  13.563  0.4332 -1.0873  0.3260
   19TMC2    H1  302   2.212   4.626  13.958  0.3733  4.2217  1.2174
   19TMC2    H2  303   1.825   4.730  13.869 -1.0010 -0.2895 -0.5740
   19TMC2    C7  304   1.970   4.572  13.994  1.0411 -0.2928  0.5137
   19TMC2    C8  305   1.858   0.022  13.595 -0.2192 -0.3691 -0.0635
   19TMC2    O1  306   1.889   4.494  13.940  0.5928 -0.0130  0.4710
   19TMC2    O2  307   1.758   4.687  13.611  0.6083 -0.7478  0.1280
   19TMC2    O5  308   1.909   0.066  13.481 -0.0745  0.4243  0.1471
   19TMC2    H5  309   1.986   0.123  13.503 -0.3089  0.7345  0.1696
   20MPD2     C  310   2.601   4.547  13.677 -0.3976 -0.1115  0.2096
   20MPD2    C1  311   2.538   4.576  13.797 -0.0241  0.7279  0.3531
   20MPD2    C2  312   2.604   4.543  13.916  0.0420  0.5766  0.0318
   20MPD2    C3  313   2.734   4.498  13.914 -0.4135  0.4247  0.1184
   20MPD2    C4  314   2.789   4.473  13.792  0.1201 -0.4356  0.2701
   20MPD2    C5  315   2.723   4.488  13.673  0.2108 -0.2463  0.3725
   20MPD2     H  316   2.562   4.568  14.013 -0.0868 -1.4838  0.5042
   20MPD2    H1  317   2.888   4.429  13.786 -0.0322 -0.4551 -2.0522
   20MPD2    H2  318   2.561   4.576  13.580 -2.3289 -0.3685  0.9330
   20MPD2    H3  319   2.759   4.468  13.573 -0.0430 -0.3099  0.2940
   20MPD2     N  320   2.811   4.474  14.029  0.5203 -0.6912  0.4375
   20MPD2    H5  321   2.904   4.436  14.016  0.9165  0.6468 -0.6282
   20MPD2    N1  322   2.409   4.625  13.816  0.7539 -0.3058  0.0833
   20MPD2    H7  323   2.378   4.637  13.912  1.4460 -0.7961  0.3645
   21TMC2    C1  324   4.453   0.253  14.355  0.7143 -0.3216 -1.0694
   21TMC2    C2  325   4.511   0.133  14.388  0.5529 -0.3497  0.2965
   21TMC2    C3  326   4.436   0.053  14.476  0.3924  0.2038  0.3006
   21TMC2    C4  327   4.348   0.307  14.416  0.5499  0.1935 -0.0246
   21TMC2    C5  328   4.275   0.217  14.489 -0.5461 -0.2171 -0.4625
   21TMC2    C6  329   4.317   0.094  14.525  0.6487  0.0896 -0.0550
   21TMC2     C  330   4.540   0.333  14.271 -0.2436  0.2826  0.2665
   21TMC2     O  331   4.651   0.294  14.236 -0.5231  0.1348 -0.1129
   21TMC2     H  332   4.597   0.086  14.342 -0.7007 -1.4523 -0.9379
   21TMC2    H1  333   4.300   0.400  14.387  2.0005  1.5763  2.0470
   21TMC2    H2  334   4.254   0.026  14.579 -0.4074  1.2271  0.1389
   21TMC2    C7  335   4.161   0.270  14.559 -0.4835 -0.2955  0.1356
   21TMC2    C8  336   4.518   4.695  14.560  0.1522 -0.2417 -0.3163
   21TMC2    O1  337   4.121   0.219  14.664  0.1354 -0.2194  0.2600
   21TMC2    O2  338   4.506   4.684  14.680 -0.0712 -0.1696  0.2474
   21TMC2    O5  339   4.613   4.638  14.486  0.0409  0.3141  0.6139
   21TMC2    H5  340   4.589   4.635  14.391  0.1993  0.8908  0.5583
   22MPD2     C  341   4.689   0.799  14.096  0.1988  0.3194  0.6428
   22MPD2    C1  342   0.003   0.673  14.078  0.0521 -1.0301 -0.4839
   22MPD2    C2  343   4.677   0.558  14.123  0.2681 -0.3275 -0.3240
   22MPD2    C3  344   4.555   0.570  14.185 -0.4898 -0.1715  0.2279
   22MPD2    C4  345   4.496   0.694  14.199  0.3942 -0.7310 -0.0391
   22MPD2    C5  346   4.559   0.809  14.155 -0.0980  0.5665 -0.4072
   22MPD2     H  347   4.714   0.462  14.090  0.0843 -0.4374 -0.2066
   22MPD2    H1  348   4.406   0.703  14.258  0.2001  0.0897 -0.4721
   22MPD2    H2  349   0.004   0.882  14.050 -0.5135  0.0656 -0.5956
   22MPD2    H3  350   4.513   0.905  14.179 -1.5287 -0.8948  2.7746
   22MPD2     N  351   4.488   0.463  14.246  0.0577 -0.6121  0.1880
   22MPD2    H5  352   4.397   0.479  14.288  0.5033 -0.8777  1.2450
   22MPD2    N1  353   0.129   0.661  14.018  0.5651 -0.0516  0.3881
   22MPD2    H7  354   0.162   0.566  14.009 -1.3036 -0.6624  0.1697
   23TMC2    C1  355   0.592   1.184  14.597 -0.3584 -0.3462 -0.3277
   23TMC2    C2  356   0.631   1.127  14.474 -0.2204 -0.7024  0.7891
   23TMC2    C3  357   0.536   1.104  14.380  0.2751  0.6574  0.6184
   23TMC2    C4  358   0.458   1.210  14.625 -0.6911  0.5132 -0.5796
   23TMC2    C5  359   0.367   1.180  14.529 -0.0741 -0.9773 -0.0392
   23TMC2    C6  360   0.406   1.132  14.401  0.2345 -0.4002 -0.3467
   23TMC2     C  361   0.684   1.205  14.707  0.3505  0.0895 -0.1014
   23TMC2     O  362   0.634   1.213  14.819  0.1579 -0.2680 -0.3656
   23TMC2     H  363   0.733   1.102  14.449 -1.0321 -0.7929 -2.3749
   23TMC2    H1  364   0.424   1.246  14.722  0.7604  2.2180 -0.6956
   23TMC2    H2  365   0.334   1.093  14.330 -0.1560 -0.5023  0.1002
   23TMC2    C7  366   0.231   1.212  14.555 -0.3813  0.4581 -0.1606
   23TMC2    C8  367   0.572   1.016  14.276  0.5205 -0.3029 -0.2444
   23TMC2    O1  368   0.189   1.244  14.668  0.1235 -0.6309  0.0902
   23TMC2    O2  369   0.672   0.949  14.286 -0.1070  0.0462 -0.3735
   23TMC2    O5  370   0.524   1.073  14.164  0.0009 -0.1325 -0.0696
   23TMC2    H5  371   0.476   1.158  14.172  0.6799  0.1506  0.8543
   24MPD2     C  372   1.147   1.345  14.895 -0.4743  0.3102  0.3643
   24MPD2    C1  373   1.035   1.281  14.954  0.4893 -0.0274  0.1807
   24MPD2    C2  374   0.922   1.243  14.883  0.5518 -0.4927 -0.1794
   24MPD2    C3  375   0.916   1.268  14.748  0.1325  0.5801 -0.1681
   24MPD2    C4  376   1.024   1.323  14.691 -0.2094 -0.1672 -0.0172
   24MPD2    C5  377   1.132   1.369  14.766 -0.3921 -0.1829  0.5784
   24MPD2     H  378   0.847   1.197  14.945  0.5834  0.5515  0.6353
   24MPD2    H1  379   1.031   1.342  14.584 -1.8034 -1.1632 -0.2914
   24MPD2    H2  380   1.244   1.364  14.939 -0.9624 -0.9768  2.0122
   24MPD2    H3  381   1.213   1.426  14.722  0.6397 -1.3049  1.0510
   24MPD2     N  382   0.808   1.239  14.661 -0.5979 -0.0805 -0.5263
   24MPD2    H5  383   0.814   1.261  14.562 -0.0935  0.4991 -0.3670
   24MPD2    N1  384   1.033   1.251  15.095  0.3605  0.4467  0.1533
   24MPD2    H7  385   0.951   1.201  15.127 -0.7223  1.9602 -0.2626
   25TMC2    C1  386   4.539   3.630  11.416 -0.5746  0.7856 -0.8954
   25TMC2    C2  387   4.645   3.718  11.394 -0.0236 -0.4624  0.2823
   25TMC2    C3  388   4.669   3.798  11.502 -0.2783  0.5228 -0.2932
   25TMC2    C4  389   4.456   3.626  11.522  0.0804 -0.5140 -0.3937
   25TMC2    C5  390   4.493   3.708  11.627  1.0380 -0.3185 -0.0123
   25TMC2    C6  391   4.599   3.796  11.618  1.0273 -0.6565 -0.0420
   25TMC2     C  392   4.490   3.570  11.287 -0.0201  0.8589 -0.5640
   25TMC2     O  393   4.539   3.608  11.183 -0.0501  0.2424  0.1673
   25TMC2     H  394   4.704   3.727  11.304 -1.4349  1.0697 -0.5038
   25TMC2    H1  395   4.381   3.550  11.541  0.7607 -1.2383 -0.5814
   25TMC2    H2  396   4.618   3.866  11.698 -1.7872 -0.7416  0.6931
   25TMC2    C7  397   4.406   3.727  11.746 -0.1953  0.4664  0.2570
   25TMC2    C8  398   0.038   3.902  11.501  0.1276 -0.2294 -0.5750
   25TMC2    O1  399   4.453   3.792  11.835  0.2552 -0.6061  0.5481
   25TMC2    O2  400   0.027   4.001  11.574 -0.2026 -0.0314 -0.3310
   25TMC2    O5  401   0.151   3.835  11.497  0.3243  0.1759 -0.2214
   25TMC2    H5  402   0.140   3.757  11.439 -0.7186  0.9015 -1.0041
   26MPD2     C  403   4.196   3.274  10.993 -0.5772 -0.3059 -0.3728
   26MPD2    C1  404   4.209   3.217  11.113  0.3667  0.2208  0.6150
   26MPD2    C2  405   4.274   3.285  11.214  0.2007 -0.1685 -0.1646
   26MPD2    C3  406   4.334   3.402  11.192  0.0072  0.9214 -0.0869
   26MPD2    C4  407   4.320   3.459  11.067 -0.2268 -0.2051 -0.0045
   26MPD2    C5  408   4.252   3.398  10.969 -0.5917 -0.4759  0.2624
   26MPD2     H  409   4.264   3.253  11.317  0.0917  1.7877  0.4410
   26MPD2    H1  410   4.351   3.560  11.046 -2.1894  0.6210  1.1286
   26MPD2    H2  411   4.153   3.222  10.908  0.8587 -0.7050 -0.8561
   26MPD2    H3  412   4.236   3.446  10.873  3.6912  3.3518  1.4506
   26MPD2     N  413   4.393   3.468  11.297  0.0937  0.4849  0.2899
   26MPD2    H5  414   4.367   3.439  11.391 -0.4901 -0.6331 -0.2212
   26MPD2    N1  415   4.144   3.088  11.122  0.0472 -0.7674  0.1107
   26MPD2    H7  416   4.088   3.063  11.041  1.8141 -1.1089 -0.9944
   27TMC2    C1  417   3.540   0.784  11.897  0.5033  0.2107 -0.1082
   27TMC2    C2  418   3.659   0.817  11.841  0.4898  0.5405 -1.4193
   27TMC2    C3  419   3.696   0.943  11.818 -0.4811 -0.2515 -0.0887
   27TMC2    C4  420   3.445   0.884  11.903 -0.4467 -1.2955 -0.1599
   27TMC2    C5  421   3.487   1.011  11.895 -0.1410  0.2361 -0.3100
   27TMC2    C6  422   3.616   1.046  11.856 -0.3405  0.0446 -0.1616
   27TMC2     C  423   3.510   0.650  11.946  0.3986 -0.9215 -0.0079
   27TMC2     O  424   3.571   0.549  11.913 -0.5414  0.0710  0.2891
   27TMC2     H  425   3.737   0.744  11.822  0.4546 -0.0690  0.7998
   27TMC2    H1  426   3.339   0.870  11.919 -0.6564 -0.2317 -0.5914
   27TMC2    H2  427   3.638   1.149  11.832  1.2183  0.1951  1.8948
   27TMC2    C7  428   3.454   1.073  12.022 -0.0540 -0.0660 -0.1329
   27TMC2    C8  429   3.792   0.979  11.717 -0.3712  0.8268  0.6038
   27TMC2    O1  430   3.417   0.983  12.096  1.1075  0.0554  0.0723
   27TMC2    O2  431   3.777   1.087  11.664 -0.0534 -0.1506  0.1122
   27TMC2    O5  432   3.910   0.937  11.771 -0.5306 -0.2468  0.4562
   27TMC2    H5  433   3.912   0.857  11.828 -1.1120 -0.4745  0.1625
   28MPD2     C  434   3.244   0.385  12.294  0.1961 -0.2477 -0.1368
   28MPD2    C1  435   3.234   0.515  12.332  1.4880  0.1793 -0.4091
   28MPD2    C2  436   3.297   0.616  12.253  0.5933  0.2798  0.4532
   28MPD2    C3  437   3.360   0.574  12.136  0.2535  0.3478 -0.6091
   28MPD2    C4  438   3.376   0.440  12.110 -0.4802  0.1435  0.1728
   28MPD2    C5  439   3.316   0.347  12.182  0.0674 -0.2942  0.7281
   28MPD2     H  440   3.296   0.722  12.278  1.9428  0.4767 -0.3253
   28MPD2    H1  441   3.438   0.397  12.033 -1.5449  2.7227 -2.1096
   28MPD2    H2  442   3.186   0.315  12.352 -1.1401 -0.3687 -1.6252
   28MPD2    H3  443   3.317   0.242  12.156  1.5779 -0.1799  0.3547
   28MPD2     N  444   3.419   0.669  12.050  0.0176 -0.6637  0.4063
   28MPD2    H5  445   3.401   0.765  12.077 -2.5175 -0.3286 -2.4749
   28MPD2    N1  446   3.153   0.539  12.445  0.1673 -0.3672 -0.4763
   28MPD2    H7  447   3.122   0.465  12.506 -0.0227  0.4032  0.3591
   29TMC2    C1  448   2.934   3.475  14.248  1.0882 -0.1464 -0.1097
   29TMC2    C2  449   2.974   3.492  14.379 -0.0131 -0.0797 -0.3961
   29TMC2    C3  450   3.028   3.609  14.414  0.6002 -0.7412  0.4095
   29TMC2    C4  451   2.956   3.566  14.153  0.0810 -0.7605 -0.3962
   29TMC2    C5  452   3.011   3.687  14.189  0.0684  0.3313 -0.3423
   29TMC2    C6  453   3.042   3.713  14.320 -0.0760 -0.0738 -0.4098
   29TMC2     C  454   2.892   3.340  14.214 -0.8841 -0.4502  1.0459
   29TMC2     O  455   2.898   3.246  14.292  0.2360  0.0809 -0.3517
   29TMC2     H  456   2.937   3.423  14.453 -0.6204  0.3272 -0.3270
   29TMC2    H1  457   2.952   3.561  14.045 -1.3389 -2.6972 -0.2524
   29TMC2    H2  458   3.096   3.804  14.344 -2.4627  1.2392 -0.0200
   29TMC2    C7  459   3.053   3.777  14.079 -0.0478 -0.0571  0.3218
   29TMC2    C8  460   2.996   3.650  14.553 -0.3400  0.3530 -0.5518
   29TMC2    O1  461   3.008   3.762  13.966 -0.2598  0.0672 -0.6994
   29TMC2    O2  462   2.931   3.586  14.634  0.1981 -0.0512  0.2210
   29TMC2    O5  463   3.080   3.751  14.584 -0.4889 -0.0753 -0.2324
   29TMC2    H5  464   3.145   3.766  14.513  0.0831 -0.6691  0.1671
   30MPD2     C  465   2.739   2.992  13.876 -0.9933 -0.0270  0.6629
   30MPD2    C1  466   2.831   2.989  13.976 -0.9306  0.0180  0.2076
   30MPD2    C2  467   2.868   3.103  14.041  0.4036 -0.0926  0.4476
   30MPD2    C3  468   2.813   3.223  14.005  0.1412  0.3982 -0.6693
   30MPD2    C4  469   2.744   3.234  13.884 -0.1434 -0.0347 -0.4274
   30MPD2    C5  470   2.707   3.119  13.827  0.5416 -0.4031 -0.4119
   30MPD2     H  471   2.936   3.102  14.125  0.8035 -2.1858  0.0895
   30MPD2    H1  472   2.701   3.327  13.848 -1.6684 -0.7997 -0.5834
   30MPD2    H2  473   2.703   2.906  13.820 -2.2544  1.6612 -1.1588
   30MPD2    H3  474   2.640   3.124  13.742 -1.0469 -1.9622  0.7564
   30MPD2     N  475   2.835   3.343  14.080 -0.1804 -0.2309 -0.3805
   30MPD2    H5  476   2.809   3.427  14.029 -2.8236  0.0197  1.4079
   30MPD2    N1  477   2.884   2.869  14.028 -0.6966  0.2959  0.4372
   30MPD2    H7  478   2.965   2.874  14.088 -0.6591 -2.8551  0.6525
   31TMC2    C1  479   0.159   2.000  15.343 -1.0855 -0.1053 -0.4541
   31TMC2    C2  480   0.044   2.048  15.389 -0.1179  0.1632 -0.2233
   31TMC2    C3  481   4.735   1.978  15.497  0.6536 -0.1642 -0.6042
   31TMC2    C4  482   0.243   1.904  15.402  0.4877  0.1970 -0.4292
   31TMC2    C5  483   0.188   1.850  15.513  1.0361  0.0445  0.5820
   31TMC2    C6  484   0.071   1.889  15.569  0.5437 -0.5128  0.3061
   31TMC2     C  485   0.226   2.078  15.240  0.6278 -0.4007  0.5727
   31TMC2     O  486   0.197   2.195  15.237  0.0320  0.4099 -0.0552
   31TMC2     H  487   0.002   2.143  15.361 -1.4140  0.9079  4.2573
   31TMC2    H1  488   0.340   1.865  15.372 -0.5057 -1.3894 -1.6130
   31TMC2    H2  489   0.024   1.838  15.652 -0.2322 -0.1487  0.0934
   31TMC2    C7  490   0.290   1.792  15.602 -0.3285  0.2526  0.2045
   31TMC2    C8  491   4.613   2.012  15.561 -0.2885  0.3554 -0.2150
   31TMC2    O1  492   0.398   1.756  15.565 -0.3157 -0.1378  0.0371
   31TMC2    O2  493   4.605   2.006  15.681  0.1216  0.1905  0.2067
   31TMC2    O5  494   4.545   2.089  15.475  0.2253  0.6150 -0.0042
   31TMC2    H5  495   4.540   2.059  15.382  0.1624 -0.5934  0.3887
   32MPD2     C  496   0.469   2.101  14.788  0.4897 -0.5594  0.7833
   32MPD2    C1  497   0.453   2.193  14.884  0.1759 -0.1073  0.2350
   32MPD2    C2  498   0.392   2.163  15.006 -0.0998  0.2074 -0.3611
   32MPD2    C3  499   0.353   2.036  15.031  0.3941  0.5577 -0.7528
   32MPD2    C4  500   0.384   1.939  14.939 -0.4364  0.0320  0.6550
   32MPD2    C5  501   0.442   1.972  14.821  0.1444 -0.3512 -0.1825
   32MPD2     H  502   0.367   2.244  15.074  0.6074 -0.8983  1.2226
   32MPD2    H1  503   0.375   1.832  14.956  1.8900 -0.5895 -2.1682
   32MPD2    H2  504   0.502   2.115  14.685  0.2164 -2.3433  0.4486
   32MPD2    H3  505   0.472   1.902  14.744 -0.2113  1.3256 -1.8576
   32MPD2     N  506   0.286   1.997  15.158  0.2895 -0.2035 -0.2790
   32MPD2    H5  507   0.276   1.898  15.178  0.8398 -0.1122  0.4589
   32MPD2    N1  508   0.474   2.324  14.839  0.6678  0.6590  0.2030
   32MPD2    H7  509   0.514   2.334  14.746 -0.7955  2.1459 -0.2630
   33TMC2    C1  510   0.965   4.723   9.928  0.0982  0.1858 -0.5727
   33TMC2    C2  511   0.867   0.037   9.846 -0.0210 -0.1488  0.3616
   33TMC2    C3  512   0.866   0.170   9.815  0.5218  0.0814 -0.1270
   33TMC2    C4  513   1.050   0.076   9.992  0.5322 -0.3121 -0.2581
   33TMC2    C5  514   1.041   0.206   9.963  0.7172 -1.3077 -0.0623
   33TMC2    C6  515   0.952   0.257   9.868  0.8399  0.1580 -0.2627
   33TMC2     C  516   0.990   4.584   9.937 -0.1135  0.0264  1.0836
   33TMC2     O  517   0.886   4.515   9.931 -0.5777  0.3806  0.6783
   33TMC2     H  518   0.814   4.702   9.784 -0.2162  0.0922  0.2490
   33TMC2    H1  519   1.126   0.034  10.057 -0.3601  0.1216  1.0691
   33TMC2    H2  520   0.934   0.363   9.860 -2.2361 -0.2974  0.6628
   33TMC2    C7  521   1.130   0.301  10.021  0.5501 -0.1283  0.0344
   33TMC2    C8  522   0.751   0.212   9.740 -0.2030 -0.0284 -0.0896
   33TMC2    O1  523   1.130   0.410   9.965 -0.6320  0.0161 -0.2566
   33TMC2    O2  524   0.703   0.142   9.653 -0.0682 -0.2985 -0.7924
   33TMC2    O5  525   0.696   0.313   9.804  0.5899 -1.3423 -0.1112
   33TMC2    H5  526   0.729   0.333   9.895 -0.2376 -3.5167  0.6435
   34MPD2     C  527   1.301   4.193   9.850  0.3856 -0.1695  0.2092
   34MPD2    C1  528   1.178   4.190   9.901 -0.5824  0.6152  0.3557
   34MPD2    C2  529   1.103   4.308   9.919  0.5827  0.6935 -0.2490
   34MPD2    C3  530   1.175   4.430   9.904  0.6814  0.0948  0.6822
   34MPD2    C4  531   1.307   4.426   9.856  0.0050 -0.1132 -0.8958
   34MPD2    C5  532   1.371   4.312   9.835 -0.1780 -0.2023  0.4374
   34MPD2     H  533   1.004   4.314   9.964  1.0600  0.8764  0.7686
   34MPD2    H1  534   1.359   4.519   9.839  2.2268 -1.1839  0.1330
   34MPD2    H2  535   1.348   4.096   9.833  1.8569  1.3266 -4.2426
   34MPD2    H3  536   1.471   4.325   9.795  0.5594 -0.6855  2.1302
   34MPD2     N  537   1.125   4.556   9.924  0.2887  0.0412  0.4205
   34MPD2    H5  538   1.194   4.629   9.908 -0.4093  0.9353  1.4700
   34MPD2    N1  539   1.124   4.062   9.933 -0.4900  0.4252  0.2324
   34MPD2    H7  540   1.188   3.983   9.923 -0.2803  0.5567  0.5582
   35TMC2    C1  541   2.375   0.964  11.549  0.7058  0.5183 -0.4951
   35TMC2    C2  542   2.325   0.985  11.426 -0.0209 -0.6158  1.1059
   35TMC2    C3  543   2.252   0.886  11.371 -0.1724  0.3673 -0.1650
   35TMC2    C4  544   2.331   0.864  11.634  0.7059  0.1073 -0.5116
   35TMC2    C5  545   2.239   0.774  11.573  0.7432  0.1596 -0.6281
   35TMC2    C6  546   2.206   0.776  11.439  0.1984 -0.0378  0.0474
   35TMC2     C  547   2.470   1.063  11.597  0.4153 -0.6250  0.1437
   35TMC2     O  548   2.484   1.171  11.545 -0.2436  0.0416 -0.3820
   35TMC2     H  549   2.354   1.072  11.369 -0.8388 -1.7109 -1.0395
   35TMC2    H1  550   2.328   0.875  11.742  0.0153  1.3775 -0.6567
   35TMC2    H2  551   2.139   0.708  11.388 -0.7166  0.6706  0.3127
   35TMC2    C7  552   2.206   0.658  11.654  0.0951 -0.3158  0.6327
   35TMC2    C8  553   2.210   0.913  11.231 -0.1211 -0.9450  0.5685
   35TMC2    O1  554   2.236   0.658  11.775  0.3628  0.3899 -0.3191
   35TMC2    O2  555   2.273   0.989  11.161  0.3543  0.4297  0.3942
   35TMC2    O5  556   2.077   0.891  11.222  0.6301  0.8421 -0.7217
   35TMC2    H5  557   2.038   0.833  11.290 -1.5396  1.4245 -1.4764
   36MPD2     C  558   2.777   1.240  11.977 -0.0258 -0.8633 -1.0310
   36MPD2    C1  559   2.740   1.107  11.999  0.2353  0.6256  0.2355
   36MPD2    C2  560   2.679   1.027  11.900 -0.2809  0.5401 -0.7604
   36MPD2    C3  561   2.625   1.090  11.791  0.0273  0.4068  0.1922
   36MPD2    C4  562   2.677   1.213  11.759  1.1011  0.5221  0.5582
   36MPD2    C5  563   2.747   1.284  11.848  1.1358 -1.0959 -0.0127
   36MPD2     H  564   2.670   0.919  11.903  0.2625  0.4809 -1.2794
   36MPD2    H1  565   2.666   1.256  11.660 -0.2339  2.2117  1.4260
   36MPD2    H2  566   2.831   1.299  12.050 -0.0668 -2.0684 -0.0154
   36MPD2    H3  567   2.804   1.367  11.808 -0.8486  0.0234 -0.5475
   36MPD2     N  568   2.533   1.018  11.708  0.1237  0.0506 -0.1548
   36MPD2    H5  569   2.516   0.922  11.733  1.9242 -0.1432  0.3200
   36MPD2    N1  570   2.778   1.055  12.125  0.3299  0.2910  0.3936
   36MPD2    H7  571   2.798   1.118  12.202  1.1663  0.4941  0.0161
   37TMC2    C1  572   4.542   0.849  11.951 -0.3179 -0.1920 -0.8538
   37TMC2    C2  573   4.442   0.756  11.952 -0.0705 -0.0726  1.0152
   37TMC2    C3  574   4.459   0.649  11.869 -0.9004  0.3420  0.5188
   37TMC2    C4  575   4.663   0.846  11.878 -0.7017 -0.5469 -0.6320
   37TMC2    C5  576   4.680   0.732  11.807 -0.4240 -0.3039 -0.6278
   37TMC2    C6  577   4.578   0.637  11.802  0.3299  0.2755 -0.3841
   37TMC2     C  578   4.553   0.943  12.058 -0.0899  1.2220  0.1354
   37TMC2     O  579   4.441   0.978  12.104  0.5493 -0.4586 -0.5025
   37TMC2     H  580   4.354   0.774  12.013  0.5916  0.0057  1.9494
   37TMC2    H1  581   0.005   0.921  11.878 -2.1335  0.9430 -0.3922
   37TMC2    H2  582   4.589   0.549  11.739  0.0264 -0.8360  1.1361
   37TMC2    C7  583   0.052   0.713  11.710  0.2356  0.3762 -0.2009
   37TMC2    C8  584   4.357   0.555  11.841 -0.1880  0.1893 -0.1257
   37TMC2    O1  585   0.090   0.814  11.655 -0.0926  0.3136  0.1205
   37TMC2    O2  586   4.325   0.531  11.727  0.2348 -0.3800 -0.3361
   37TMC2    O5  587   4.286   0.536  11.959  0.3787  0.3439 -0.6903
   37TMC2    H5  588   4.350   0.553  12.031 -0.0172  1.2380 -0.5549
   38MPD2     C  589   0.103   1.254  12.358 -0.3394 -0.3764  0.0584
   38MPD2    C1  590   0.184   1.180  12.289 -0.4619  0.2918 -0.1049
   38MPD2    C2  591   0.129   1.082  12.211 -0.7748  0.5727  0.1545
   38MPD2    C3  592   4.730   1.059  12.185  0.0540  0.3351 -0.3145
   38MPD2    C4  593   4.649   1.147  12.250  0.4056 -1.0644  0.5014
   38MPD2    C5  594   4.705   1.237  12.333  0.1831 -0.6593 -0.2415
   38MPD2     H  595   0.206   1.026  12.159  1.0381  0.0719  3.3686
   38MPD2    H1  596   4.541   1.154  12.237  0.5241 -1.1613 -0.5116
   38MPD2    H2  597   0.135   1.339  12.418  0.4726  0.4550 -1.5595
   38MPD2    H3  598   4.642   1.309  12.384  1.8298 -0.3310  1.3593
   38MPD2     N  599   4.687   0.958  12.095  0.1046 -0.3129  0.1207
   38MPD2    H5  600   0.024   0.907  12.048  1.7020  2.1733 -0.1207
   38MPD2    N1  601   0.326   1.175  12.309 -0.1322 -0.4927 -0.0021
   38MPD2    H7  602   0.384   1.112  12.254  0.5003  0.1490 -0.0615
   39TMC2    C1  603   2.543   3.017   1.249 -0.4331 -0.2530  0.2462
   39TMC2    C2  604   2.504   3.029   1.379 -0.3106 -0.1997 -0.1105
   39TMC2    C3  605   2.583   3.089   1.469  0.7733  0.0442 -0.6445
   39TMC2    C4  606   2.666   3.065   1.201  0.3728  0.2383  0.0598
   39TMC2    C5  607   2.744   3.120   1.296  0.0495  0.2164  0.5379
   39TMC2    C6  608   2.708   3.137   1.430 -0.2289  0.3492 -0.1048
   39TMC2     C  609   2.441   2.966   1.160 -0.5936  0.8896 -0.5489
   39TMC2     O  610   2.324   2.989   1.190  0.1984  0.6440  0.4582
   39TMC2     H  611   2.411   2.986   1.412 -0.8104  0.3205 -0.8352
   39TMC2    H1  612   2.696   3.064   1.097 -0.0218 -1.4679 -0.0353
   39TMC2    H2  613   2.775   3.185   1.500  1.0022  1.6272 -2.1587
   39TMC2    C7  614   2.863   3.190   1.247 -0.5627 -0.0402  0.3117
   39TMC2    C8  615   2.532   3.094   1.610 -0.7053  0.2845 -0.2003
   39TMC2    O1  616   2.895   3.151   1.138  0.1942 -0.0437  0.6335
   39TMC2    O2  617   2.604   3.086   1.707 -0.2059 -0.3159  0.7211
   39TMC2    O5  618   2.432   3.186   1.600 -0.2635 -0.6248  0.1613
   39TMC2    H5  619   2.419   3.204   1.504 -1.1211  1.1148  0.6150
   40MPD2     C  620   2.452   2.760   0.869  0.5335  0.4535  0.0744
   40MPD2    C1  621   2.403   2.858   0.948  0.2240 -0.4874  0.1295
   40MPD2    C2  622   2.272   2.890   0.935 -0.0617  0.5652  0.0140
   40MPD2    C3  623   2.194   2.831   0.842 -0.0699  0.6602 -0.0935
   40MPD2    C4  624   2.236   2.721   0.778  0.2646 -0.1586  0.0836
   40MPD2    C5  625   2.368   2.695   0.783  0.2928 -0.2532 -0.4158
   40MPD2     H  626   2.233   2.971   0.995  1.6239 -0.6905  2.8129
   40MPD2    H1  627   2.173   2.689   0.695 -1.6996  2.0000  0.7442
   40MPD2    H2  628   2.557   2.735   0.871  0.5472  0.5177  0.2108
   40MPD2    H3  629   2.415   2.627   0.713  0.6265  1.1114 -1.5130
   40MPD2     N  630   2.063   2.868   0.820  0.0115  0.2434 -0.3923
   40MPD2    H5  631   2.021   2.807   0.750 -2.0001  0.9435  0.2081
   40MPD2    N1  632   2.491   2.915   1.041  0.0972 -0.0420  0.0320
   40MPD2    H7  633   2.589   2.888   1.038  0.3040  0.6376  0.4921
   41TMC2    C1  634   1.664   1.551  13.455 -0.5096 -0.1415  0.1082
   41TMC2    C2  635   1.734   1.645  13.521 -0.1119  0.2421 -0.1599
   41TMC2    C3  636   1.736   1.774  13.470 -0.3685 -0.2240  0.5786
   41TMC2    C4  637   1.604   1.587  13.337 -0.7400 -0.2290 -0.2617
   41TMC2    C5  638   1.606   1.720  13.286  0.7276  0.1266  0.2646
   41TMC2    C6  639   1.671   1.812  13.358  0.2831  0.1422  0.2697
   41TMC2     C  640   1.665   1.413  13.491 -0.6903  0.1980 -0.1446
   41TMC2     O  641   1.681   1.329  13.402  0.5105 -0.0206 -0.2504
   41TMC2     H  642   1.783   1.615  13.613 -1.0875 -1.6258 -0.2338
   41TMC2    H1  643   1.570   1.495  13.291 -1.8935 -0.4591  1.0969
   41TMC2    H2  644   1.677   1.918  13.333 -0.0028  0.3545  1.1196
   41TMC2    C7  645   1.562   1.750  13.149 -0.2490 -0.1833  0.6001
   41TMC2    C8  646   1.831   1.858  13.538  0.3277  0.5105 -0.3485
   41TMC2    O1  647   1.539   1.867  13.130 -0.0417 -0.4455  0.3865
   41TMC2    O2  648   1.847   1.841  13.657  0.1659  0.4714 -0.0101
   41TMC2    O5  649   1.924   1.900  13.451 -0.2481 -0.7753  0.3083
   41TMC2    H5  650   1.890   1.887  13.359  5.1432 -1.0275 -1.6660
   42MPD2     C  651   1.675   1.151  13.650  0.3332  0.4478  0.2147
   42MPD2    C1  652   1.661   1.278  13.704 -0.0157  0.0359  0.2967
   42MPD2    C2  653   1.650   1.286  13.836  0.2654  0.3329  0.2295
   42MPD2    C3  654   1.641   1.176  13.928 -1.0542  0.4587 -0.6364
   42MPD2    C4  655   1.662   1.053  13.859  0.1091 -0.0051 -0.4658
   42MPD2    C5  656   1.682   1.039  13.722  0.6399  0.2147 -0.9606
   42MPD2     H  657   1.632   1.383  13.880 -0.4618  0.9257 -1.3474
   42MPD2    H1  658   1.691   0.967  13.917 -0.6449  1.1268  1.5925
   42MPD2    H2  659   1.684   1.146  13.542  0.2863  1.9536  0.1425
   42MPD2    H3  660   1.713   0.946  13.675  2.4870  0.5655 -0.4207
   42MPD2     N  661   1.640   1.178  14.072  0.4078 -0.1681 -0.0168
   42MPD2    H5  662   1.640   1.092  14.126  3.1453 -0.6731 -0.8603
   42MPD2    N1  663   1.658   1.399  13.630  0.0162  0.9097 -0.9044
   42MPD2    H7  664   1.656   1.481  13.690  0.4031 -0.9544  1.6208
   43TMC2    C1  665   2.747   4.573   0.453 -0.0484  0.0151  0.0446
   43TMC2    C2  666   2.633   4.642   0.442  0.2292 -0.0340 -0.2307
   43TMC2    C3  667   2.616   4.732   0.542  0.3206  0.4480  0.6056
   43TMC2    C4  668   2.832   4.590   0.560 -0.3603 -0.4185 -0.3214
   43TMC2    C5  669   2.813   4.690   0.653  0.6079 -0.7627  0.4251
   43TMC2    C6  670   2.701   0.033   0.633  0.1316 -0.5994  0.0280
   43TMC2     C  671   2.797   4.495   0.344 -0.8110  0.3522 -0.0010
   43TMC2     O  672   2.918   4.482   0.350  0.3015  0.0828  0.1965
   43TMC2     H  673   2.555   4.631   0.368 -0.4424  0.1496  0.4501
   43TMC2    H1  674   2.909   4.515   0.573  1.3323  1.3501 -0.1430
   43TMC2    H2  675   2.688   0.125   0.688 -0.2359  1.2811 -3.2145
   43TMC2    C7  676   2.934   0.012   0.714  0.3813 -0.2048  0.2865
   43TMC2    C8  677   2.498   0.074   0.543  0.0177  0.1543 -0.4520
   43TMC2    O1  678   3.037   4.707   0.663  0.6693 -0.1742 -0.1603
   43TMC2    O2  679   2.433   0.097   0.443 -0.1796 -0.1945 -0.1058
   43TMC2    O5  680   2.458   0.093   0.672 -0.0925 -0.0001 -0.0056
   43TMC2    H5  681   2.506   0.042   0.741 -0.1416  0.5441  0.4336
   44MPD2     C  682   2.776   4.294  17.624  0.3765  0.2033 -0.1318
   44MPD2    C1  683   2.882   4.318  17.715  0.8577 -0.2071  0.0291
   44MPD2    C2  684   2.850   4.357   0.100 -0.3202 -0.4525  0.2625
   44MPD2    C3  685   2.725   4.398   0.131  0.1767 -0.1543 -0.0074
   44MPD2    C4  686   2.621   4.386   0.036  0.4078  0.3764 -0.1538
   44MPD2    C5  687   2.646   4.325  17.661 -0.1393  0.2611  0.4905
   44MPD2     H  688   2.935   4.370   0.166 -0.5969  0.0845  0.5107
   44MPD2    H1  689   2.518   4.401   0.065  0.6225 -1.7294  1.6357
   44MPD2    H2  690   2.773   4.240  17.530 -0.4974  0.4521 -0.2541
   44MPD2    H3  691   2.561   4.302  17.598 -1.4219  1.1453  1.8862
   44MPD2     N  692   2.702   4.458   0.251  0.2544 -0.5526  0.2596
   44MPD2    H5  693   2.606   4.483   0.269 -0.2981 -1.6240 -1.1290
   44MPD2    N1  694   3.012   4.282  17.677  0.1000  0.1502 -0.2042
   44MPD2    H7  695   3.091   4.309  17.735 -0.1795 -0.5120  0.4740
   45TMC2    C1  696   4.493   1.103   9.780 -0.3287  0.0858  0.1592
   45TMC2    C2  697   4.631   1.112   9.754  0.0356  0.1092 -0.1025
   45TMC2    C3  698   4.698   1.224   9.791  0.2319  0.2879  0.0617
   45TMC2    C4  699   4.432   1.210   9.834  0.0702 -0.0328  0.0813
   45TMC2    C5  700   4.504   1.319   9.865  0.4689  0.2285 -0.2512
   45TMC2    C6  701   4.642   1.334   9.858 -0.0069  0.1021  0.6312
   45TMC2     C  702   4.418   0.978   9.734  0.6062 -0.1695 -0.0378
   45TMC2     O  703   4.484   0.878   9.701 -0.0372  0.0215  0.6556
   45TMC2     H  704   4.678   1.040   9.688  0.2744  0.1391  0.0349
   45TMC2    H1  705   4.331   1.193   9.869  0.0286 -1.8806 -0.9370
   45TMC2    H2  706   4.695   1.427   9.874  2.1259 -1.3118  1.8762
   45TMC2    C7  707   4.426   1.439   9.905 -0.3588  0.5620  0.0407
   45TMC2    C8  708   0.093   1.249   9.737  0.8180 -0.5463  0.3406
   45TMC2    O1  709   4.323   1.417   9.969 -0.2964 -0.1476 -0.2873
   45TMC2    O2  710   0.128   1.365   9.714 -0.1921 -0.2325 -0.1955
   45TMC2    O5  711   0.164   1.137   9.731  0.0279  0.0203  0.0090
   45TMC2    H5  712   0.106   1.067   9.769 -0.5570  0.2274 -0.5039
   46MPD2     C  713   4.212   0.763   9.709 -0.3976  0.3591  0.4211
   46MPD2    C1  714   4.183   0.892   9.723  0.3501  0.4609 -0.8337
   46MPD2    C2  715   4.044   0.932   9.718 -0.6094  0.3123  0.7396
   46MPD2    C3  716   3.937   0.839   9.709 -0.9959 -0.0946  0.2667
   46MPD2    C4  717   3.972   0.707   9.713 -0.0855  0.4526  0.0504
   46MPD2    C5  718   4.109   0.671   9.709  0.4941  0.7697 -0.1641
   46MPD2     H  719   4.009   1.034   9.733  0.7067  0.9816 -0.7724
   46MPD2    H1  720   3.900   0.630   9.687  0.4468 -0.2193  0.5361
   46MPD2    H2  721   4.316   0.733   9.705 -0.5415 -0.5032  2.9204
   46MPD2    H3  722   4.136   0.566   9.706  0.6495  0.7500  1.9474
   46MPD2     N  723   3.805   0.899   9.700 -0.0127  0.4396 -0.1725
   46MPD2    H5  724   3.801   0.999   9.715  0.7636  0.3248  0.8204
   46MPD2    N1  725   4.280   0.996   9.738 -0.3350 -0.1319  0.0272
   46MPD2    H7  726   4.243   1.090   9.753 -1.0172 -0.6985  1.8632
   47TMC2    C1  727   1.023   2.243   9.065 -0.0967  0.2013  1.0951
   47TMC2    C2  728   0.970   2.363   9.016 -0.1817 -0.4943 -0.4054
   47TMC2    C3  729   0.894   2.434   9.099  0.1079 -0.2565  0.3807
   47TMC2    C4  730   0.989   2.190   9.189  0.3223 -0.2206  0.2961
   47TMC2    C5  731   0.912   2.275   9.267 -0.0919 -0.6150  0.1065
   47TMC2    C6  732   0.873   2.400   9.229 -0.7640  0.1823  0.2638
   47TMC2     C  733   1.134   2.188   8.986 -0.1180 -0.5537  0.4975
   47TMC2     O  734   1.154   2.242   8.881 -0.1079  0.4396 -0.3845
   47TMC2     H  735   0.996   2.389   8.914  1.2469 -0.1875  0.0384
   47TMC2    H1  736   1.017   2.090   9.221  0.4613 -0.4681 -0.5974
   47TMC2    H2  737   0.828   2.462   9.306 -0.6651 -2.0487  2.1035
   47TMC2    C7  738   0.862   2.230   9.391 -0.7235  0.6381  0.4415
   47TMC2    C8  739   0.875   2.570   9.057  0.3153  0.9416 -0.3255
   47TMC2    O1  740   0.764   2.283   9.439 -0.1163  0.2428  0.3974
   47TMC2    O2  741   0.943   2.610   8.964  0.5093 -0.2622 -0.6703
   47TMC2    O5  742   0.769   2.626   9.115  0.0319 -0.1077 -0.0514
   47TMC2    H5  743   0.722   2.565   9.176 -1.4787 -0.8300 -1.9473
   48MPD2     C  744   1.343   2.030   8.849 -0.2607  0.7525  0.3008
   48MPD2    C1  745   1.295   1.995   8.976 -0.2987 -0.4066  0.0146
   48MPD2    C2  746   1.342   1.881   9.040  0.1125  0.3608  0.2471
   48MPD2    C3  747   1.424   1.793   8.971  0.2155  0.5513 -0.1459
   48MPD2    C4  748   1.455   1.829   8.837 -0.0598 -0.6917 -0.6740
   48MPD2    C5  749   1.418   1.945   8.778 -0.2909  0.0652 -0.4945
   48MPD2     H  750   1.293   1.853   9.132 -0.2635 -1.2977 -0.4563
   48MPD2    H1  751   1.520   1.773   8.772 -0.0597 -0.3022 -1.0110
   48MPD2    H2  752   1.300   2.109   8.788 -1.7360 -1.0828 -1.0282
   48MPD2    H3  753   1.456   1.961   8.678 -2.0550 -0.7846 -1.2907
   48MPD2     N  754   1.484   1.681   9.034 -0.2315 -0.5903  0.2070
   48MPD2    H5  755   1.439   1.656   9.122 -2.9578  0.7557 -0.7880
   48MPD2    N1  756   1.204   2.080   9.044 -0.1043  0.5297 -0.2330
   48MPD2    H7  757   1.177   2.051   9.137  0.8284 -1.4099 -0.5754
   49TMC2    C1  758   4.500   3.667   9.861  0.3806 -0.0197  0.0521
   49TMC2    C2  759   4.459   3.632   9.731 -0.1139 -0.4859 -0.8185
   49TMC2    C3  760   4.341   3.565   9.712  0.4226  0.5245  0.2702
   49TMC2    C4  761   4.428   3.607   9.961 -0.3707 -0.2120 -0.8488
   49TMC2    C5  762   4.319   3.523   9.938 -0.4343 -0.2944  0.0645
   49TMC2    C6  763   4.280   3.497   9.809  0.1348  0.0446 -0.2477
   49TMC2     C  764   4.635   3.718   9.879 -0.9701  0.1798  0.5532
   49TMC2     O  765   4.710   3.712   9.783 -0.2011 -0.1087 -0.1256
   49TMC2     H  766   4.504   3.689   9.651 -0.1452 -1.5108 -1.5698
   49TMC2    H1  767   4.459   3.605  10.065 -2.2449 -0.8208 -0.2937
   49TMC2    H2  768   4.187   3.453   9.777  0.3272 -0.4357 -0.1486
   49TMC2    C7  769   4.260   3.456  10.051  0.5343 -0.2125 -0.7571
   49TMC2    C8  770   4.298   3.543   9.578  0.3200 -0.2925 -0.1754
   49TMC2    O1  771   4.256   3.525  10.153  0.3062 -0.2312 -0.0505
   49TMC2    O2  772   4.242   3.441   9.545  0.6232  0.1670 -0.2862
   49TMC2    O5  773   4.335   3.651   9.502 -0.2429  0.3453  0.4712
   49TMC2    H5  774   4.367   3.726   9.556 -0.2084  1.3795 -0.9551
   50MPD2     C  775   0.156   3.855   9.970 -0.3800  0.0109 -0.8026
   50MPD2    C1  776   0.042   3.842  10.045  0.3709  0.0365 -0.2646
   50MPD2    C2  777   0.033   3.907  10.165 -0.2085 -0.9934  0.6059
   50MPD2    C3  778   0.133   3.967  10.224 -0.0235 -0.3284 -0.5368
   50MPD2    C4  779   0.252   3.964  10.154  0.6121 -0.0791  0.4280
   50MPD2    C5  780   0.264   3.916  10.029  0.2650 -0.3792  0.2604
   50MPD2     H  781   4.681   3.898  10.226  0.0126  1.3670  1.2984
   50MPD2    H1  782   0.342   4.014  10.187  1.7754 -0.5534 -2.0048
   50MPD2    H2  783   0.163   3.823   9.867  0.0835 -0.2722 -0.6812
   50MPD2    H3  784   0.357   3.944   9.982 -0.1191  0.2326 -0.1434
   50MPD2     N  785   0.130   4.020  10.358  0.7205 -0.2695  0.3089
   50MPD2    H5  786   0.216   4.063  10.390  1.0517 -0.3989 -0.3955
   50MPD2    N1  787   4.661   3.773  10.001  0.5297  0.2455  0.5535
   50MPD2    H7  788   4.583   3.773  10.066 -1.2004  3.3479 -1.4860
   51TMC2    C1  789   1.813   2.623   1.593 -0.3157 -0.0391 -0.3464
   51TMC2    C2  790   1.952   2.649   1.587 -0.9580  0.2226  0.2377
   51TMC2    C3  791   1.989   2.777   1.586  0.7597 -0.3784  0.3721
   51TMC2    C4  792   1.724   2.726   1.595  0.2019 -0.3712 -0.0870
   51TMC2    C5  793   1.768   2.858   1.583 -0.1297  0.0700 -0.5417
   51TMC2    C6  794   1.903   2.883   1.584 -0.0777 -0.3725 -0.5311
   51TMC2     C  795   1.757   2.489   1.565 -0.8208  0.1836 -0.9821
   51TMC2     O  796   1.645   2.501   1.520 -0.1473  0.4306  0.2840
   51TMC2     H  797   2.026   2.571   1.595  0.7927  1.9018  0.3222
   51TMC2    H1  798   1.618   2.703   1.599 -0.5690  2.8645 -2.1223
   51TMC2    H2  799   1.942   2.984   1.579 -1.3663  0.0831 -1.4356
   51TMC2    C7  800   1.669   2.963   1.578 -0.4551  0.8969 -0.4722
   51TMC2    C8  801   2.132   2.805   1.564  0.0475 -0.3866 -0.7957
   51TMC2    O1  802   1.559   2.923   1.553  0.0867 -0.3746  0.4830
   51TMC2    O2  803   2.207   2.711   1.581  0.2260  0.1051 -0.3509
   51TMC2    O5  804   2.169   2.931   1.527  0.4219 -0.3366  0.0080
   51TMC2    H5  805   2.100   2.993   1.494  0.3073 -0.6190 -0.2889
   52MPD2     C  806   1.752   1.981   1.476  0.5461  0.6127  0.4706
   52MPD2    C1  807   1.662   2.077   1.427 -0.5835  0.5081 -0.6201
   52MPD2    C2  808   1.692   2.211   1.467 -0.0672 -0.1047 -0.3397
   52MPD2    C3  809   1.803   2.248   1.538 -1.0584 -0.0376  0.7620
   52MPD2    C4  810   1.903   2.153   1.533 -0.2993  0.2398 -0.2477
   52MPD2    C5  811   1.878   2.017   1.509 -0.1892  0.0787 -0.2993
   52MPD2     H  812   1.624   2.289   1.435 -0.6472  0.0709  1.3457
   52MPD2    H1  813   2.007   2.180   1.546  0.6279 -3.4583 -0.1373
   52MPD2    H2  814   1.739   1.877   1.447 -3.5488  0.6243  2.1547
   52MPD2    H3  815   1.954   1.940   1.508 -1.7666 -1.5032  0.7005
   52MPD2     N  816   1.843   2.380   1.574  0.1191  0.3092  0.2078
   52MPD2    H5  817   1.936   2.397   1.612 -0.3137  0.5364  1.1645
   52MPD2    N1  818   1.536   2.053   1.361 -0.3803 -0.2893  0.3771
   52MPD2    H7  819   1.466   2.126   1.356  0.5836  0.5856 -0.2401
   53TMC2    C1  820   0.405   0.701  11.072  0.5822  0.0592 -0.0799
   53TMC2    C2  821   0.327   0.696  10.963 -0.3451 -0.5111  0.1042
   53TMC2    C3  822   0.297   0.808  10.894 -0.0947 -0.3062 -0.4001
   53TMC2    C4  823   0.466   0.815  11.121  0.4682  0.5280 -0.6704
   53TMC2    C5  824   0.453   0.925  11.040 -0.0520 -0.5372  0.3302
   53TMC2    C6  825   0.365   0.928  10.938  0.3764  0.3268 -0.1945
   53TMC2     C  826   0.389   0.586  11.161  0.0827  0.0512  0.3556
   53TMC2     O  827   0.393   0.469  11.124 -0.1763 -0.2801 -0.3065
   53TMC2     H  828   0.272   0.604  10.948 -0.4813 -0.4969  0.5114
   53TMC2    H1  829   0.535   0.810  11.204  0.0209  0.7701 -0.2856
   53TMC2    H2  830   0.341   1.026  10.898  2.2017  0.8814  0.0537
   53TMC2    C7  831   0.450   1.044  11.125  0.0682  0.0339 -0.4230
   53TMC2    C8  832   0.240   0.782  10.768 -0.0051 -0.0858 -0.4232
   53TMC2    O1  833   0.348   1.111  11.116 -0.4742 -0.6391  0.3031
   53TMC2    O2  834   0.239   0.676  10.705  0.3138 -0.0073 -0.0525
   53TMC2    O5  835   0.231   0.904  10.709 -0.1739  0.0811 -0.2800
   53TMC2    H5  836   0.227   0.975  10.777 -1.1889  0.7360 -1.0166
   54MPD2     C  837   0.348   0.424  11.425  0.5236  0.4921  0.6775
   54MPD2    C1  838   0.308   0.551  11.400  0.2135 -0.0697  0.5387
   54MPD2    C2  839   0.234   0.604  11.498 -0.0752  0.6432  0.7677
   54MPD2    C3  840   0.187   0.535  11.607 -0.5504  0.0672 -0.1543
   54MPD2    C4  841   0.224   0.412  11.622  0.2422 -0.5715 -0.4524
   54MPD2    C5  842   0.299   0.354  11.526  0.1451 -0.6195 -0.3674
   54MPD2     H  843   0.187   0.700  11.483 -2.0150 -0.4929 -0.4249
   54MPD2    H1  844   0.203   0.353  11.710  1.8866 -0.1518  0.2245
   54MPD2    H2  845   0.410   0.365  11.358 -0.5096  1.0576 -0.7639
   54MPD2    H3  846   0.335   0.253  11.535  3.6374  0.7388  1.0076
   54MPD2     N  847   0.090   0.584  11.690 -0.1935 -0.0430 -0.4257
   54MPD2    H5  848   0.055   0.514  11.755  1.7097 -1.3926 -0.8498
   54MPD2    N1  849   0.331   0.626  11.278 -0.6649  0.5371  0.2200
   54MPD2    H7  850   0.295   0.721  11.288  2.3715  1.5182  1.7100
   55TMC2    C1  851   1.358   4.645   0.484 -0.2261  0.0367 -0.1090
   55TMC2    C2  852   1.429   4.704   0.579  0.0643  0.0866  0.2517
   55TMC2    C3  853   1.543   4.649   0.625  0.0035 -0.3922  0.3434
   55TMC2    C4  854   1.380   4.519   0.437  0.1908 -0.6168 -0.3763
   55TMC2    C5  855   1.493   4.462   0.492  0.7872 -0.2943  0.2515
   55TMC2    C6  856   1.574   4.523   0.586 -0.1642  0.1940 -0.0822
   55TMC2     C  857   1.232   4.710   0.434  0.0139 -0.6094 -0.3603
   55TMC2     O  858   1.136   4.638   0.399  0.2893  0.7138 -0.0642
   55TMC2     H  859   1.391   0.060   0.619 -2.0848  0.2218 -2.1153
   55TMC2    H1  860   1.316   4.477   0.360 -0.6586  0.4986 -0.2931
   55TMC2    H2  861   1.650   4.469   0.641  0.4182  1.6997  0.5722
   55TMC2    C7  862   1.503   4.317   0.479 -0.7512  0.3332 -0.3366
   55TMC2    C8  863   1.608   4.711   0.741 -0.0415  0.0169 -0.4994
   55TMC2    O1  864   1.607   4.262   0.515 -0.0580 -0.2641  0.9599
   55TMC2    O2  865   1.589   0.094   0.768  0.0970 -0.0339 -0.2718
   55TMC2    O5  866   1.628   4.612   0.833  0.0913  0.5316 -0.6248
   55TMC2    H5  867   1.576   4.530   0.820  1.0595 -0.1363 -0.2588
   56MPD2     C  868   1.167   0.314   0.314  0.3072  0.3468  0.4048
   56MPD2    C1  869   1.141   0.188   0.370  0.0205  0.3400 -0.1291
   56MPD2    C2  870   1.009   0.147   0.382  0.5565 -0.1155  0.1765
   56MPD2    C3  871   0.907   0.229   0.340 -0.2542  0.5255 -0.1911
   56MPD2    C4  872   0.942   0.346   0.280  0.4736 -0.3152  0.2366
   56MPD2    C5  873   1.064   0.397   0.276 -0.6602  0.3427  0.5987
   56MPD2     H  874   0.984   0.058   0.439 -1.0461 -2.1434 -3.7085
   56MPD2    H1  875   0.866   0.418   0.251  0.2751 -0.0969  1.2908
   56MPD2    H2  876   1.269   0.349   0.321  0.1704  0.2653  2.6398
   56MPD2    H3  877   1.082   0.501   0.254  2.7650 -0.3517  0.0804
   56MPD2     N  878   0.776   0.190   0.377 -0.1476 -0.7718 -0.1387
   56MPD2    H5  879   0.767   0.099   0.421  1.0947 -0.2543  1.1880
   56MPD2    N1  880   1.248   0.111   0.430  0.3336  0.0662  0.4542
   56MPD2    H7  881   1.343   0.148   0.435  0.6768 -0.9731  1.6654
   57TMC2    C1  882   0.525   4.633  13.482 -0.2749 -0.6651 -0.0315
   57TMC2    C2  883   0.538   4.491  13.479 -0.2708 -0.0453  0.2754
   57TMC2    C3  884   0.649   4.436  13.442 -0.4919  0.4701 -0.4577
   57TMC2    C4  885   0.633   4.699  13.433  0.8513  0.9169 -0.8412
   57TMC2    C5  886   0.752   4.640  13.399  0.2026  0.2614 -0.0403
   57TMC2    C6  887   0.758   4.503  13.395 -0.8444 -0.3809  0.3593
   57TMC2     C  888   0.415   4.699  13.538  0.9905 -0.7152  0.9480
   57TMC2     O  889   0.428   0.082  13.559  0.1162  0.1107  0.2381
   57TMC2     H  890   0.455   4.428  13.506 -2.8896  2.1640 -2.5483
   57TMC2    H1  891   0.629   0.069  13.416 -0.6646  0.8163 -1.0705
   57TMC2    H2  892   0.843   4.444  13.361  0.2073  0.2216  1.9386
   57TMC2    C7  893   0.854   4.725  13.333  0.5260  0.0112 -0.4674
   57TMC2    C8  894   0.661   4.295  13.441  0.3147 -0.3803  1.1537
   57TMC2    O1  895   0.838   0.110  13.314  0.2617 -0.0304 -0.2557
   57TMC2    O2  896   0.739   4.239  13.365 -0.3656 -0.4316 -0.9728
   57TMC2    O5  897   0.614   4.244  13.561 -0.5723 -0.5611  0.2314
   57TMC2    H5  898   0.558   4.302  13.616  0.9575  2.0424 -0.9507
   58MPD2     C  899   4.712   4.677  13.801  0.4739  0.2374 -0.2448
   58MPD2    C1  900   0.041   0.054  13.754  0.3843 -0.2164  0.0475
   58MPD2    C2  901   0.161   0.029  13.684  0.1268  0.0901  0.4619
   58MPD2    C3  902   0.213   4.641  13.664 -0.3634 -0.2066 -0.5495
   58MPD2    C4  903   0.141   4.531  13.713 -0.1442  0.8426 -0.1591
   58MPD2    C5  904   0.030   4.557  13.790 -0.6042  0.1961  0.1387
   58MPD2     H  905   0.223   0.111  13.650 -1.2809  1.1362  0.4304
   58MPD2    H1  906   0.180   4.430  13.704  0.2591  0.7037  3.1579
   58MPD2    H2  907   4.625   4.685  13.865  1.8083  0.7169  1.4948
   58MPD2    H3  908   4.730   4.472  13.845 -0.7049 -0.9687 -1.7280
   58MPD2     N  909   0.328   4.610  13.599 -0.0104  0.2914 -0.7459
   58MPD2    H5  910   0.347   4.510  13.588 -1.1265 -0.1664  1.5899
   58MPD2    N1  911   4.721   0.187  13.765  0.4975  0.1461  0.4093
   58MPD2    H7  912   0.039   0.262  13.724  1.0985 -0.2748  0.4354
   59TMC2    C1  913   2.730   4.617  12.868  0.4544  0.1059 -0.6084
   59TMC2    C2  914   2.659   4.506  12.863 -0.4149  0.4449 -0.2586
   59TMC2    C3  915   2.654   4.440  12.742  0.3768 -0.0937  0.1079
   59TMC2    C4  916   2.783   4.681  12.757  0.3226 -0.2365  0.4011
   59TMC2    C5  917   2.767   4.613  12.643 -0.1450  0.1048  0.4847
   59TMC2    C6  918   2.707   4.490  12.628  0.2509 -0.9851  0.5689
   59TMC2     C  919   2.738   4.688  12.990  0.0513 -0.8005 -0.0946
   59TMC2     O  920   2.659   4.666  13.082  0.0832  0.6624 -0.2871
   59TMC2     H  921   2.624   4.464  12.957  3.0804 -0.2376  0.7236
   59TMC2    H1  922   2.815   0.048  12.758  0.7694 -0.3641 -1.2159
   59TMC2    H2  923   2.712   4.430  12.538  0.4078 -0.0769 -0.0249
   59TMC2    C7  924   2.830   4.665  12.524 -0.3066  0.6461  0.4134
   59TMC2    C8  925   2.587   4.317  12.728  0.6014 -0.1819 -0.1026
   59TMC2    O1  926   2.871   4.578  12.447 -0.5569 -0.6655  0.0160
   59TMC2    O2  927   2.613   4.220  12.660 -0.4743 -0.6048  0.0269
   59TMC2    O5  928   2.485   4.328  12.818  0.6089 -0.3398 -0.2900
   59TMC2    H5  929   2.459   4.420  12.841  2.4317  0.2471 -0.6154
   60MPD2     C  930   2.815   0.132  13.212 -0.2019 -0.3274  0.4854
   60MPD2    C1  931   2.899   0.098  13.107  0.5897 -0.4121  0.3527
   60MPD2    C2  932   3.031   0.151  13.107 -0.2450  0.2172 -0.1958
   60MPD2    C3  933   3.077   0.226  13.207 -0.1967  0.2198 -0.2077
   60MPD2    C4  934   2.992   0.255  13.309 -0.4313  0.7976 -0.1611
   60MPD2    C5  935   2.862   0.218  13.305 -0.3873 -0.3522 -0.5280
   60MPD2     H  936   3.095   0.126  13.023  0.4807  0.8110  0.1811
   60MPD2    H1  937   3.020   0.328  13.385 -2.1122  1.8009 -0.5110
   60MPD2    H2  938   2.716   0.090  13.218 -0.2276 -0.0829  1.6878
   60MPD2    H3  939   2.799   0.242  13.389  0.9262  1.2994 -0.0140
   60MPD2     N  940   3.199   0.300  13.206  0.1420 -0.4887 -0.6610
   60MPD2    H5  941   3.214   0.362  13.285  0.2369 -2.1288  0.6196
   60MPD2    N1  942   2.862   0.014  12.997 -0.0001  0.0436 -0.3496
   60MPD2    H7  943   2.919   0.002  12.914  1.3111  1.9351  0.2816
   61TMC2    C1  944   1.636   2.016  15.318 -0.5804  0.6715 -0.0546
   61TMC2    C2  945   1.504   1.989  15.352 -0.1520  0.5312  0.0969
   61TMC2    C3  946   1.421   2.100  15.337 -0.2580 -0.2748  0.2736
   61TMC2    C4  947   1.680   2.134  15.268  0.3738 -0.3119  0.2022
   61TMC2    C5  948   1.588   2.227  15.234 -0.5767  0.0070  0.3535
   61TMC2    C6  949   1.454   2.210  15.269 -0.4511 -0.0063 -0.6949
   61TMC2     C  950   1.724   1.906  15.363 -0.3980  0.0031 -0.0568
   61TMC2     O  951   1.699   1.839  15.464 -0.1098 -0.1794  0.4057
   61TMC2     H  952   1.471   1.896  15.397 -2.2015  0.9950 -0.4400
   61TMC2    H1  953   1.786   2.154  15.252 -0.2945  1.9280 -1.3414
   61TMC2    H2  954   1.372   2.278  15.246  0.3814  0.6276 -1.8182
   61TMC2    C7  955   1.630   2.351  15.171 -0.2769 -0.1701  0.1370
   61TMC2    C8  956   1.282   2.089  15.370  0.3999  0.5136  0.0612
   61TMC2    O1  957   1.750   2.386  15.180  0.7302  0.4498 -0.3461
   61TMC2    O2  958   1.202   2.180  15.385  0.3212 -0.4958  0.5452
   61TMC2    O5  959   1.242   1.976  15.302 -0.2589  0.7384 -0.2951
   61TMC2    H5  960   1.309   1.915  15.265  2.4224  3.7453 -0.4065
   62MPD2     C  961   1.986   1.761  15.419  0.6596 -0.7912  0.4844
   62MPD2    C1  962   1.962   1.849  15.317  0.1481 -0.5997 -0.1915
   62MPD2    C2  963   2.067   1.871  15.231 -0.6909 -1.0271  0.3178
   62MPD2    C3  964   2.195   1.820  15.255 -0.0820  0.0610  0.1243
   62MPD2    C4  965   2.216   1.740  15.367 -0.2971 -0.0495 -0.4554
   62MPD2    C5  966   2.113   1.714  15.449  0.1489  0.1271  0.0071
   62MPD2     H  967   2.060   1.927  15.139 -1.0869 -1.7962 -0.1200
   62MPD2    H1  968   2.310   1.685  15.378 -1.6021 -1.9476  1.2128
   62MPD2    H2  969   1.908   1.730  15.488  0.7667 -0.4355  0.7652
   62MPD2    H3  970   2.126   1.649  15.534  3.1819  0.2014 -0.4120
   62MPD2     N  971   2.298   1.860  15.167 -0.2112  0.1233 -0.6484
   62MPD2    H5  972   2.278   1.932  15.098  2.5815  3.3945  1.9416
   62MPD2    N1  973   1.837   1.906  15.285  0.4322 -0.8569  0.7490
   62MPD2    H7  974   1.838   1.968  15.204 -2.0354 -2.3719 -0.4480
   63TMC2    C1  975   1.666   1.488  10.913 -0.0335 -0.7827  0.1825
   63TMC2    C2  976   1.721   1.524  11.033 -0.0268 -0.0947  0.0683
   63TMC2    C3  977   1.838   1.599  11.024  0.4821  0.2011  0.0934
   63TMC2    C4  978   1.727   1.510  10.796 -0.3485  0.8442 -0.4142
   63TMC2    C5  979   1.836   1.597  10.800 -0.2313 -0.5711 -0.1951
   63TMC2    C6  980   1.891   1.639  10.914  0.7455 -0.3135 -0.0102
   63TMC2     C  981   1.550   1.411  10.922  0.6042 -0.3060  0.2208
   63TMC2     O  982   1.468   1.432  11.010 -0.3509  0.0337  0.0333
   63TMC2     H  983   1.669   1.516  11.128 -1.7890 -2.2798 -1.0801
   63TMC2    H1  984   1.690   1.478  10.700  2.1329  0.0483 -1.1100
   63TMC2    H2  985   1.980   1.700  10.919  1.5526 -1.5334  0.5219
   63TMC2    C7  986   1.890   1.652  10.672  0.6174  0.1076  0.2851
   63TMC2    C8  987   1.937   1.586  11.135 -0.7617  0.1270  0.0386
   63TMC2    O1  988   1.817   1.628  10.574 -0.9281 -0.4007 -0.4903
   63TMC2    O2  989   2.056   1.618  11.123  0.4863 -0.7197  0.3376
   63TMC2    O5  990   1.881   1.531  11.251  0.4352 -0.3829  0.3338
   63TMC2    H5  991   1.787   1.503  11.253  0.6846 -1.3183 -1.1348
   64MPD2     C  992   1.264   1.008  10.803  0.9536 -0.4881  0.1200
   64MPD2    C1  993   1.385   1.001  10.733  0.4070  0.3219  0.3755
   64MPD2    C2  994   1.472   1.106  10.742 -0.3136  0.0415  0.6317
   64MPD2    C3  995   1.446   1.212  10.818 -0.1386 -0.3537  0.0570
   64MPD2    C4  996   1.322   1.219  10.880  0.3148 -0.4041 -0.1348
   64MPD2    C5  997   1.227   1.121  10.872 -0.4501 -0.2198  0.4356
   64MPD2     H  998   1.568   1.095  10.692 -0.3404 -0.8701  0.7738
   64MPD2    H1  999   1.302   1.299  10.950 -1.5975 -1.0101  0.0258
   64MPD2    H2 1000   1.187   0.933  10.793  1.3953 -0.5630 -2.8219
   64MPD2    H3 1001   1.131   1.138  10.920  0.0479 -0.6639  1.5771
   64MPD2     N 1002   1.546   1.313  10.826 -0.1613 -0.0570 -0.5080
   64MPD2    H5 1003   1.629   1.301  10.769  0.3651 -0.5389  0.3433
   64MPD2    N1 1004   1.433   0.893  10.657 -0.0920  0.4484  0.6181
   64MPD2    H7 1005   1.531   0.898  10.632 -0.0988  1.7431  0.8055
   65TMC2    C1 1006   2.699   1.524  15.312 -0.1094 -0.5070  0.4142
   65TMC2    C2 1007   2.752   1.469  15.198  0.0902 -0.0601  0.0762
   65TMC2    C3 1008   2.831   1.538  15.119 -0.1295  0.6573  0.2489
   65TMC2    C4 1009   2.745   1.640  15.364  0.3395 -0.5147 -0.0561
   65TMC2    C5 1010   2.849   1.698  15.289 -0.0180  0.3825  0.0345
   65TMC2    C6 1011   2.895   1.650  15.162 -0.0773  0.1213 -0.6967
   65TMC2     C 1012   2.597   1.445  15.388  0.3268 -0.2307 -0.6594
   65TMC2     O 1013   2.551   1.509  15.482  0.2871 -0.9462 -0.5948
   65TMC2     H 1014   2.707   1.379  15.158 -0.1999  1.5913 -3.2548
   65TMC2    H1 1015   2.724   1.664  15.468  0.0161 -0.2054 -0.1948
   65TMC2    H2 1016   2.971   1.711  15.114 -1.0773  1.2892 -0.7888
   65TMC2    C7 1017   2.868   1.845  15.305 -0.1374 -0.7502  0.2003
   65TMC2    C8 1018   2.864   1.481  14.994 -0.5704  0.2609  0.5364
   65TMC2    O1 1019   2.962   1.886  15.238 -0.2095 -0.0539  0.2112
   65TMC2    O2 1020   2.971   1.503  14.935 -0.1492  0.1883 -0.2054
   65TMC2    O5 1021   2.749   1.448  14.928  0.1267 -0.0179 -0.3600
   65TMC2    H5 1022   2.668   1.457  14.982  0.5518  0.5624  0.1748
   66MPD2     C 1023   2.359   1.284  15.474 -0.2384  0.1728 -0.1516
   66MPD2    C1 1024   2.478   1.232  15.420 -0.2418 -0.0889 -0.4850
   66MPD2    C2 1025   2.501   1.095  15.428  0.7414 -0.7710  0.2759
   66MPD2    C3 1026   2.416   1.012  15.498  0.5831  0.5429 -0.2921
   66MPD2    C4 1027   2.309   1.069  15.563  0.2477 -0.2626  0.2751
   66MPD2    C5 1028   2.274   1.202  15.547 -0.1656 -0.1053  0.2875
   66MPD2     H 1029   2.585   1.052  15.374 -1.0528 -2.7056 -0.9986
   66MPD2    H1 1030   2.248   0.997  15.618 -1.4939  2.5099  1.9813
   66MPD2    H2 1031   2.336   1.390  15.469  1.7613  0.5956 -0.5042
   66MPD2    H3 1032   2.183   1.243  15.590  0.1354 -0.1272  0.9393
   66MPD2     N 1033   2.425   0.871  15.503 -0.5706  0.0015 -0.3060
   66MPD2    H5 1034   2.355   0.824  15.559  0.5687 -1.9687 -0.5526
   66MPD2    N1 1035   2.577   1.306  15.353 -0.3544 -0.1583 -0.3576
   66MPD2    H7 1036   2.646   1.248  15.306 -0.0004 -1.2721  1.5712
   67TMC2    C1 1037   2.793   0.997  14.164  0.2572 -0.1564 -0.6557
   67TMC2    C2 1038   2.709   1.093  14.213 -0.7279 -0.1964  0.2330
   67TMC2    C3 1039   2.713   1.129  14.347  0.3863  0.0681  0.0775
   67TMC2    C4 1040   2.881   0.931  14.247 -0.1088  0.8910  0.7763
   67TMC2    C5 1041   2.885   0.965  14.381  0.4698 -0.2309 -0.2546
   67TMC2    C6 1042   2.802   1.061  14.432 -0.4023  0.2013  0.2451
   67TMC2     C 1043   2.754   0.919  14.044 -0.3332  0.5302  0.2440
   67TMC2     O 1044   2.824   0.819  14.029  0.3363 -0.4355 -0.0079
   67TMC2     H 1045   2.620   1.121  14.158 -0.2722  1.4118  0.3167
   67TMC2    H1 1046   2.948   0.853  14.214  1.9961  2.4696  1.3216
   67TMC2    H2 1047   2.794   1.080  14.539 -2.2484  0.3133  0.0912
   67TMC2    C7 1048   2.984   0.907  14.471  0.5117 -0.9595  0.1470
   67TMC2    C8 1049   2.597   1.211  14.392 -0.1057  1.4115 -0.4501
   67TMC2    O1 1050   3.075   0.838  14.423  0.1010 -0.7297 -0.0265
   67TMC2    O2 1051   2.517   1.249  14.303  0.1561 -0.2867 -0.1185
   67TMC2    O5 1052   2.618   1.274  14.509 -0.0953  0.1092  0.0285
   67TMC2    H5 1053   2.700   1.263  14.562  0.5521  0.4172 -0.9061
   68MPD2     C 1054   2.661   0.817  13.788 -0.1821  0.2415 -0.1450
   68MPD2    C1 1055   2.620   0.942  13.840 -0.1099  0.1405  0.0898
   68MPD2    C2 1056   2.524   1.007  13.776 -0.1732  0.9313 -0.1758
   68MPD2    C3 1057   2.468   0.965  13.654 -0.0425  0.1610  0.6150
   68MPD2    C4 1058   2.516   0.854  13.597 -0.7671 -0.2688 -0.7037
   68MPD2    C5 1059   2.607   0.778  13.666 -0.1366 -0.3904 -0.4830
   68MPD2     H 1060   2.476   1.088  13.831  3.4577  2.7115  0.3902
   68MPD2    H1 1061   2.476   0.815  13.504 -1.3690 -1.0678 -0.1110
   68MPD2    H2 1062   2.714   0.743  13.845 -1.5298 -0.2341  0.4952
   68MPD2    H3 1063   2.624   0.674  13.638 -0.5292 -0.8448  0.9467
   68MPD2     N 1064   2.360   1.030  13.588 -0.5975 -0.7924 -0.0214
   68MPD2    H5 1065   2.333   0.983  13.502  1.9395 -0.6790 -0.8885
   68MPD2    N1 1066   2.663   0.990  13.965  0.3513 -0.1123  0.0766
   68MPD2    H7 1067   2.639   1.085  13.992 -0.9241 -0.0992 -1.0918
   69TMC2    C1 1068   4.474   1.930  12.263  0.5766 -0.1937 -0.0512
   69TMC2    C2 1069   4.335   1.916  12.259 -0.1265 -0.1736 -0.3012
   69TMC2    C3 1070   4.272   1.867  12.153  0.4693 -0.1137 -0.5461
   69TMC2    C4 1071   4.537   1.888  12.151 -0.3971  0.2353  0.6512
   69TMC2    C5 1072   4.468   1.860  12.036  0.3595 -0.6912 -0.2510
   69TMC2    C6 1073   4.333   1.847  12.030  1.2808  0.5828 -0.2112
   69TMC2     C 1074   4.538   1.903  12.385  0.4565 -0.4544 -0.0457
   69TMC2     O 1075   4.473   1.824  12.454 -0.2389  0.1774  0.4252
   69TMC2     H 1076   4.285   1.932  12.354 -0.5990  1.9179 -0.8978
   69TMC2    H1 1077   4.644   1.877  12.139 -0.6776 -2.4411  0.5120
   69TMC2    H2 1078   4.277   1.847  11.937 -0.8110  4.2757  1.0998
   69TMC2    C7 1079   4.556   1.809  11.927  0.2751 -0.1284 -0.6710
   69TMC2    C8 1080   4.129   1.856  12.162  0.8314 -0.2022  0.5275
   69TMC2    O1 1081   4.665   1.859  11.924  0.0774 -0.5335 -0.2359
   69TMC2    O2 1082   4.052   1.916  12.235  0.0696  0.3623 -0.3351
   69TMC2    O5 1083   4.094   1.766  12.068  0.0597 -0.2255  0.2066
   69TMC2    H5 1084   4.171   1.715  12.036 -0.3175 -0.4833 -0.2852
   70MPD2     C 1085   0.166   1.942  12.464  0.0977 -0.2591  0.5204
   70MPD2    C1 1086   0.041   1.876  12.462 -0.3143 -0.3757 -0.4617
   70MPD2    C2 1087   0.025   1.762  12.535  0.0661 -0.1988  0.1084
   70MPD2    C3 1088   0.137   1.695  12.585  0.3438 -0.4616 -0.1853
   70MPD2    C4 1089   0.256   1.759  12.583 -0.0894  0.3729 -0.0611
   70MPD2    C5 1090   0.270   1.881  12.517 -0.3867 -0.0650 -0.4620
   70MPD2     H 1091   4.665   1.714  12.549  0.3777 -0.1919  2.3639
   70MPD2    H1 1092   0.342   1.710  12.626 -2.5717 -3.1507  0.9315
   70MPD2    H2 1093   0.188   2.032  12.408  0.5216 -0.2543  0.6999
   70MPD2    H3 1094   0.367   1.925  12.497  0.8474 -1.3483  2.6724
   70MPD2     N 1095   0.137   1.563  12.637 -0.1402  0.3440  0.7273
   70MPD2    H5 1096   0.227   1.518  12.654 -0.6585 -0.6504  0.7958
   70MPD2    N1 1097   4.675   1.939  12.390 -0.0995  0.1912  0.1067
   70MPD2    H7 1098   4.702   2.021  12.336  0.4338 -1.0151 -1.4624
   71TMC2    C1 1099   2.670   1.703   1.204  0.2776 -0.5043 -0.5798
   71TMC2    C2 1100   2.758   1.618   1.256  0.1288 -0.0594 -0.1013
   71TMC2    C3 1101   2.723   1.539   1.366 -0.2694  0.6061  0.8310
   71TMC2    C4 1102   2.544   1.711   1.252  0.0392  0.7873 -0.5174
   71TMC2    C5 1103   2.511   1.632   1.361  0.3591 -0.8702 -0.0869
   71TMC2    C6 1104   2.597   1.541   1.427  0.0200 -0.3186 -0.9213
   71TMC2     C 1105   2.688   1.749   1.066 -0.5943  0.1235 -0.0298
   71TMC2     O 1106   2.591   1.761   0.990 -0.2565 -0.7141  0.2763
   71TMC2     H 1107   2.852   1.611   1.203 -0.0249  3.0869 -0.8024
   71TMC2    H1 1108   2.476   1.783   1.206  0.5970  1.6636  0.0231
   71TMC2    H2 1109   2.559   1.477   1.506 -2.3830  0.4003 -1.4686
   71TMC2    C7 1110   2.367   1.593   1.352 -0.2519 -0.2240 -0.4848
   71TMC2    C8 1111   2.839   1.474   1.420  0.1231 -0.6694  0.7527
   71TMC2    O1 1112   2.340   1.482   1.388 -0.1444 -0.0896  0.6691
   71TMC2    O2 1113   2.949   1.462   1.370 -0.0897  0.0726  0.0844
   71TMC2    O5 1114   2.806   1.423   1.536 -0.3477  0.1400  0.4568
   71TMC2    H5 1115   2.721   1.453   1.574 -1.5744 -1.1414 -1.3155
   72MPD2     C 1116   2.980   1.961   0.702  0.5145  0.5222 -0.3648
   72MPD2    C1 1117   2.846   1.957   0.714  0.3004  0.6698 -0.5655
   72MPD2    C2 1118   2.797   1.885   0.822 -0.1162 -0.4451  0.3513
   72MPD2    C3 1119   2.876   1.842   0.929  0.0975 -0.5924  0.3620
   72MPD2    C4 1120   3.014   1.863   0.913 -0.0778 -0.0253  0.0857
   72MPD2    C5 1121   3.061   1.911   0.799  0.5473 -0.4805  0.2869
   72MPD2     H 1122   2.689   1.875   0.817  0.0502 -1.7011 -0.9223
   72MPD2    H1 1123   3.080   1.826   0.990  0.8900  1.6402  0.0711
   72MPD2    H2 1124   3.032   2.015   0.624  0.4382  0.8203 -0.2087
   72MPD2    H3 1125   3.168   1.923   0.788  0.1520  2.2607 -0.6253
   72MPD2     N 1126   2.821   1.779   1.045  0.7582 -0.8398 -0.4413
   72MPD2    H5 1127   2.890   1.769   1.119  0.6896  0.9202 -0.1298
   72MPD2    N1 1128   2.752   2.005   0.617  0.4559  0.0775 -0.0907
   72MPD2    H7 1129   2.653   1.983   0.623  0.5260 -0.3113 -0.3873
   73TMC2    C1 1130   2.179   4.000  13.662 -0.3034 -0.2621 -0.8174
   73TMC2    C2 1131   2.136   4.115  13.725 -0.3010 -0.1857  0.0460
   73TMC2    C3 1132   2.196   4.158  13.838 -0.5329  0.1835 -0.3593
   73TMC2    C4 1133   2.262   3.917  13.722 -0.1625 -0.2656  0.7472
   73TMC2    C5 1134   2.336   3.967  13.817 -0.8434  0.0781  0.3357
   73TMC2    C6 1135   2.316   4.089  13.874  0.0354  0.3142 -0.3404
   73TMC2     C 1136   2.235   4.016  13.530  0.0290 -1.0407  0.0122
   73TMC2     O 1137   2.307   3.928  13.479  0.4195  0.5601  0.7087
   73TMC2     H 1138   2.052   4.170  13.684  0.8075  1.4612 -0.0220
   73TMC2    H1 1139   2.296   3.825  13.676  1.7966 -0.0098  1.6977
   73TMC2    H2 1140   2.384   4.143  13.939 -0.8179 -0.9339  1.5769
   73TMC2    C7 1141   2.482   3.944  13.798 -0.2796 -0.2768  0.0068
   73TMC2    C8 1142   2.196   4.298  13.837 -0.1575 -0.6892 -0.0880
   73TMC2    O1 1143   2.554   3.993  13.881 -0.1667 -0.0800 -0.5345
   73TMC2    O2 1144   2.174   4.355  13.733  0.5678  0.1116 -0.2064
   73TMC2    O5 1145   2.257   4.344  13.945  0.3940  0.0645 -0.4081
   73TMC2    H5 1146   2.274   4.281  14.018  0.3905 -1.6316 -1.8921
   74MPD2     C 1147   2.469   4.377  13.255  0.4626 -0.0110  0.6911
   74MPD2    C1 1148   2.467   4.238  13.234 -0.7277  0.0834 -0.3562
   74MPD2    C2 1149   2.386   4.159  13.317 -0.0371 -0.4140 -0.1170
   74MPD2    C3 1150   2.310   4.220  13.414 -0.6279  0.0595  0.2987
   74MPD2    C4 1151   2.299   4.359  13.424  0.2152  0.0113  0.4839
   74MPD2    C5 1152   2.383   4.437  13.346  0.3394 -0.2766  0.5802
   74MPD2     H 1153   2.386   4.051  13.307  0.2607 -0.3323 -0.9874
   74MPD2    H1 1154   2.241   4.407  13.502  1.0538  1.8924 -0.0445
   74MPD2    H2 1155   2.542   4.430  13.195  0.7679  0.2522  1.2895
   74MPD2    H3 1156   2.384   4.544  13.361  1.6206 -0.5254  2.1765
   74MPD2     N 1157   2.234   4.151  13.510  0.8171  0.2745  0.1708
   74MPD2    H5 1158   2.193   4.207  13.584  2.3097 -0.5081  1.5848
   74MPD2    N1 1159   2.540   4.180  13.130  0.0735  0.4119 -0.4332
   74MPD2    H7 1160   2.586   4.251  13.075  0.8729 -0.8181 -1.3289
   75TMC2    C1 1161   2.193   1.183  13.549  0.2732  0.4794  1.0318
   75TMC2    C2 1162   2.167   1.315  13.545  0.4546 -0.1895  0.0920
   75TMC2    C3 1163   2.061   1.362  13.468 -0.6567 -0.5900  0.5280
   75TMC2    C4 1164   2.115   1.088  13.487  0.1733 -0.1263 -0.2258
   75TMC2    C5 1165   2.015   1.139  13.413 -0.0163 -0.6415 -0.4890
   75TMC2    C6 1166   1.988   1.273  13.394  0.5166  0.1360  0.4282
   75TMC2     C 1167   2.313   1.152  13.618 -0.2418  0.3195  0.5201
   75TMC2     O 1168   2.371   1.243  13.678 -0.3995 -0.0312  0.1283
   75TMC2     H 1169   2.232   1.389  13.590  0.7365 -0.5179  0.2314
   75TMC2    H1 1170   2.127   0.983  13.509 -0.3911  0.1987  1.6574
   75TMC2    H2 1171   1.912   1.312  13.327  1.3494 -0.4552 -0.8706
   75TMC2    C7 1172   1.931   1.041  13.357  0.9261  0.6639  0.0321
   75TMC2    C8 1173   2.042   1.508  13.438 -0.1832  0.1195 -0.2703
   75TMC2    O1 1174   1.946   0.919  13.383 -0.1351 -0.0228  0.0167
   75TMC2    O2 1175   1.967   1.549  13.352  0.2492  0.1617 -0.1413
   75TMC2    O5 1176   2.088   1.588  13.534 -0.2060 -0.5023 -0.3037
   75TMC2    H5 1177   2.118   1.560  13.623 -0.0444  2.4810  0.5917
   76TMC2    C1 1178   0.970   0.719  11.880 -0.6412  0.1885 -0.2907
   76TMC2    C2 1179   0.987   0.635  11.776  0.6552 -0.4685 -0.3473
   76TMC2    C3 1180   1.010   0.501  11.810 -0.0697 -0.0902  0.3980
   76TMC2    C4 1181   0.999   0.679  12.009  0.2842  0.1563  0.0707
   76TMC2    C5 1182   1.041   0.550  12.037 -0.1613  0.4749  0.0755
   76TMC2    C6 1183   1.034   0.459  11.941 -0.0718  0.0034 -0.1002
   76TMC2     C 1184   0.924   0.858  11.858 -0.0887 -0.2081  0.7438
   76TMC2     O 1185   0.878   0.887  11.746 -0.0121  0.0724  0.6020
   76TMC2     H 1186   0.964   0.660  11.673  1.2035 -0.9576 -0.5869
   76TMC2    H1 1187   0.984   0.747  12.092  0.6675  1.4705 -0.9347
   76TMC2    H2 1188   1.040   0.354  11.970 -1.9074  0.3259  1.4393
   76TMC2    C7 1189   1.098   0.520  12.168 -1.0169  0.0371  0.1427
   76TMC2    C8 1190   0.978   0.391  11.721  0.5854  0.4208 -0.5728
   76TMC2    O1 1191   1.072   0.405  12.206 -0.0120 -0.1377 -0.4349
   76TMC2    O2 1192   0.974   0.273  11.758 -0.6637 -0.4692 -0.4717
   76TMC2    O5 1193   1.026   0.423  11.601 -0.7550 -0.1092 -0.2406
   76TMC2    H5 1194   1.031   0.518  11.577  0.0501 -0.4608 -1.4729
   77MPD2     C 1195   0.856   1.340  12.039 -0.2046 -0.2467 -0.2605
   77MPD2    C1 1196   0.826   1.289  11.913 -0.3432 -0.2175  0.0329
   77MPD2    C2 1197   0.869   1.160  11.884 -0.1683 -0.1479  0.7434
   77MPD2    C3 1198   0.919   1.082  11.986  0.0188 -0.4001  0.0263
   77MPD2    C4 1199   0.943   1.130  12.106 -0.1804 -0.0455  0.0996
   77MPD2    C5 1200   0.918   1.260  12.133  0.3589 -0.3019  0.6349
   77MPD2     H 1201   0.851   1.133  11.781 -0.3933  3.0355 -0.0553
   77MPD2    H1 1202   0.979   1.068  12.187 -0.2019 -0.6163 -0.3198
   77MPD2    H2 1203   0.847   1.446  12.058 -1.7098 -0.1922 -1.2707
   77MPD2    H3 1204   0.929   1.292  12.235 -1.3489 -1.0000  1.0364
   77MPD2     N 1205   0.950   0.944  11.965 -0.1095  0.6896  0.2801
   77MPD2    H5 1206   1.001   0.898  12.040  0.9694 -0.0966 -0.9450
   77MPD2    N1 1207   0.759   1.369  11.812 -0.5243  0.6377 -0.0268
   77MPD2    H7 1208   0.753   1.345  11.714 -0.4658  0.5883 -0.0181
   78TMC2    C1 1209   2.044   1.487   0.986 -0.1580 -0.7049 -0.2735
   78TMC2    C2 1210   1.977   1.370   0.994 -0.6587 -0.3387 -0.2377
   78TMC2    C3 1211   2.051   1.253   1.026 -1.3206  0.2334 -0.1206
   78TMC2    C4 1212   2.177   1.495   1.022 -0.0774 -0.2733  0.4219
   78TMC2    C5 1213   2.240   1.382   1.061  0.6154  0.0857 -0.4898
   78TMC2    C6 1214   2.179   1.260   1.063  0.7516  0.0104 -0.0483
   78TMC2     C 1215   1.976   1.600   0.917  0.3603 -0.5445  0.2781
   78TMC2     O 1216   1.857   1.589   0.887  0.7947  0.6262  0.0277
   78TMC2     H 1217   1.870   1.371   0.975 -0.5986 -2.0594 -0.6697
   78TMC2    H1 1218   2.241   1.582   1.014  0.4256 -0.7150 -0.3631
   78TMC2    H2 1219   2.229   1.170   1.097 -0.6031 -0.6948  0.0732
   78TMC2    C7 1220   2.386   1.392   1.086  0.1815 -0.1973 -0.5094
   78TMC2    C8 1221   1.999   1.127   0.998  0.1045  0.1825 -0.4379
   78TMC2    O1 1222   2.432   1.480   1.021  0.2189 -0.0982  0.1046
   78TMC2    O2 1223   2.046   1.017   1.020 -0.0815  0.2707  0.3999
   78TMC2    O5 1224   1.886   1.149   0.921 -0.4110  0.2759 -0.0158
   78TMC2    H5 1225   1.850   1.077   0.866 -0.1749 -1.1237  1.6385
   79MPD1     C 1226   2.014   1.966   0.566  0.0108 -0.0762 -0.5954
   79MPD1    C1 1227   1.906   1.914   0.629  0.4868  0.1388 -0.0887
   79MPD1    C2 1228   1.918   1.825   0.735 -0.5378  0.1309 -0.4150
   79MPD1    C3 1229   2.045   1.783   0.767 -0.3260 -0.9356 -0.0969
   79MPD1    C4 1230   2.150   1.835   0.698  0.5809  0.2924 -0.0874
   79MPD1    C5 1231   2.139   1.934   0.599 -0.0316 -0.0586  0.6025
   79MPD1     H 1232   1.832   1.783   0.785 -0.5775 -1.7158 -2.0148
   79MPD1    H1 1233   2.250   1.807   0.729  0.3187  2.1867  2.4316
   79MPD1    H2 1234   1.996   2.038   0.487  1.4424 -0.7681 -1.5426
   79MPD1    H3 1235   2.219   1.978   0.541  1.1021 -1.3935  1.1572
   79MPD1     N 1236   2.066   1.688   0.868 -0.1146 -0.0193  0.1013
   79MPD1    H5 1237   2.164   1.673   0.891 -0.3569  2.9047  2.9955
   79MPD1    N1 1238   1.773   1.947   0.585  1.3817 -0.0600 -0.0738
   79MPD1    H6 1239   1.688   1.944   0.640  2.6182 -0.8521  1.8206
   79MPD1    H7 1240   1.776   2.032   0.530 -0.5212  0.0839  0.0567
   80TMC2    C1 1241   0.659   0.227  12.029  0.5594 -0.0566 -0.6338
   80TMC2    C2 1242   0.745   0.132  11.972 -0.4724 -0.5282 -0.0201
   80TMC2    C3 1243   0.725   0.006  12.021 -0.5495  0.0982  0.6843
   80TMC2    C4 1244   0.562   0.202  12.127 -0.3738  0.2070 -0.2530
   80TMC2    C5 1245   0.550   0.071  12.163 -0.2776 -0.9132 -0.3538
   80TMC2    C6 1246   0.622   4.711  12.108 -0.3318 -0.2396  0.1273
   80TMC2     C 1247   0.636   0.349  11.954 -1.0505 -0.0823 -0.4241
   80TMC2     O 1248   0.608   0.339  11.836  0.5236  0.3727  0.3132
   80TMC2     H 1249   0.814   0.158  11.893 -0.1934 -0.3351  0.2849
   80TMC2    H1 1250   0.496   0.276  12.169  0.6417  0.4595  0.9160
   80TMC2    H2 1251   0.614   4.612  12.152 -1.3599  0.4495  1.4763
   80TMC2    C7 1252   0.429   0.033  12.240 -0.0278 -0.0116 -0.2093
   80TMC2    C8 1253   0.815   4.642  11.975 -0.6947 -0.7058 -0.6497
   80TMC2    O1 1254   0.385   4.657  12.229 -0.4099 -0.4804 -0.1688
   80TMC2    O2 1255   0.776   4.536  11.924 -0.1378 -0.1524 -0.2293
   80TMC2    O5 1256   0.937   4.686  12.001  0.5376  0.3295 -0.4853
   80TMC2    H5 1257   0.929   0.029  12.058  1.0074  0.8900 -1.2048
   81MPD2     C 1258   0.537   0.618  11.885  0.5515  0.0795 -0.5866
   81MPD2    C1 1259   0.606   0.590  11.999  0.7081  0.7102 -0.3732
   81MPD2    C2 1260   0.638   0.695  12.081 -0.6296 -0.5650  0.1421
   81MPD2    C3 1261   0.593   0.826  12.055 -0.8605  0.1079  0.2085
   81MPD2    C4 1262   0.531   0.851  11.933  0.2500  0.0492  0.2648
   81MPD2    C5 1263   0.495   0.750  11.850  0.1781 -0.8406 -0.5507
   81MPD2     H 1264   0.694   0.677  12.172  1.4522 -3.2014 -1.6646
   81MPD2    H1 1265   0.502   0.951  11.902 -0.8973  0.1949  1.8159
   81MPD2    H2 1266   0.519   0.541  11.811  1.4325 -0.2447 -0.4610
   81MPD2    H3 1267   0.443   0.774  11.758  1.0239  0.7755 -0.6307
   81MPD2     N 1268   0.627   0.934  12.136 -0.6088  0.7018 -0.2434
   81MPD2    H5 1269   0.560   1.010  12.131  1.0887  2.1625 -0.3586
   81MPD2    N1 1270   0.642   0.459  12.035 -0.0193  0.4985  0.7395
   81MPD2    H7 1271   0.674   0.438  12.129  0.8170  0.6927  0.5008
   82TMC2    C1 1272   3.056   0.311  10.661  0.3591  0.3034 -0.5608
   82TMC2    C2 1273   3.114   0.383  10.764 -0.3090 -0.1265  0.3630
   82TMC2    C3 1274   3.221   0.320  10.829 -0.2435 -0.3944  0.0615
   82TMC2    C4 1275   3.090   0.184  10.635  0.4010  0.1503 -0.3933
   82TMC2    C5 1276   3.190   0.129  10.706 -0.3951  0.2290 -0.0508
   82TMC2    C6 1277   3.257   0.194  10.811  0.0110  0.8739  0.6166
   82TMC2     C 1278   2.945   0.373  10.590  0.2849  0.5222 -0.6310
   82TMC2     O 1279   2.846   0.411  10.647 -0.3738 -0.3329  0.1936
   82TMC2     H 1280   3.093   0.489  10.775  1.3630  0.1829  0.6094
   82TMC2    H1 1281   3.029   0.129  10.565  0.1869  1.5098 -1.2734
   82TMC2    H2 1282   3.345   0.147  10.854 -1.2292 -0.6186  1.5153
   82TMC2    C7 1283   3.198   4.721  10.703 -0.1946  0.3030  0.4430
   82TMC2    C8 1284   3.316   0.405  10.907 -0.8459 -0.0352 -0.4506
   82TMC2    O1 1285   3.163   4.663  10.602 -0.2657 -0.1169 -0.2114
   82TMC2    O2 1286   3.343   0.519  10.886 -0.1853  0.1581 -0.2886
   82TMC2    O5 1287   3.297   0.355  11.035 -0.2541 -0.2726  0.6330
   82TMC2    H5 1288   3.258   0.265  11.025  2.7128 -1.6913  2.0329
   83MPD2     C 1289   2.759   0.533  10.145  0.2549  0.5204 -0.2762
   83MPD2    C1 1290   2.698   0.541  10.266 -0.3350 -0.5636 -0.3485
   83MPD2    C2 1291   2.774   0.497  10.371 -0.4514  1.1553 -0.6619
   83MPD2    C3 1292   2.904   0.440  10.355 -0.1869  0.5247 -0.0489
   83MPD2    C4 1293   2.957   0.437  10.229 -0.1469  0.1350  0.5826
   83MPD2    C5 1294   2.880   0.483  10.124  0.8939  0.4477  0.5227
   83MPD2     H 1295   2.738   0.494  10.473 -0.1766  0.4344 -0.5844
   83MPD2    H1 1296   3.058   0.403  10.209 -0.1635  0.0534  0.6414
   83MPD2    H2 1297   2.705   0.560  10.055  0.1974 -2.0347 -1.0109
   83MPD2    H3 1298   2.919   0.463  10.025 -0.8023 -0.7469  0.0846
   83MPD2     N 1299   2.987   0.384  10.464  0.7873  0.5927  0.4315
   83MPD2    H5 1300   3.078   0.341  10.452  1.2369  1.7165 -0.2027
   83MPD2    N1 1301   2.575   0.600  10.282 -0.0762  0.2739  0.3006
   83MPD2    H7 1302   2.537   0.622  10.191 -0.6550  0.3621  0.5644
   84TMC2    C1 1303   4.697   4.211  10.739  0.6311  0.4663 -0.1622
   84TMC2    C2 1304   0.044   4.163  10.830  0.0551  0.3503 -0.3527
   84TMC2    C3 1305   0.122   4.061  10.785  0.3936 -0.6566  0.2452
   84TMC2    C4 1306   4.699   4.184  10.606 -0.8840 -0.2473  0.5965
   84TMC2    C5 1307   0.053   4.099  10.564  0.0835  0.2236 -0.3974
   84TMC2    C6 1308   0.132   4.032  10.654 -0.4611  1.0125  0.6359
   84TMC2     C 1309   4.604   4.314  10.786 -0.4131 -0.3253  0.5316
   84TMC2     O 1310   4.554   4.303  10.896  0.0925 -0.3629  0.0221
   84TMC2     H 1311   0.033   4.193  10.933  2.8213 -0.8963  0.3049
   84TMC2    H1 1312   4.627   4.221  10.534 -1.5262  0.9138  1.8474
   84TMC2    H2 1313   0.211   3.966  10.620  0.2502  1.9873  0.3821
   84TMC2    C7 1314   0.021   4.028  10.444 -0.7828 -0.0747 -0.0270
   84TMC2    C8 1315   0.225   4.002  10.867  0.3760 -0.5758  0.2214
   84TMC2    O1 1316   4.645   4.005  10.414  0.1273 -0.2987 -0.0628
   84TMC2    O2 1317   0.262   4.050  10.974 -0.3505 -0.0121  0.4122
   84TMC2    O5 1318   0.262   3.879  10.821 -0.1239 -0.4996 -0.5427
   84TMC2    H5 1319   0.188   3.846  10.767 -0.0430 -1.8310  0.1541
   85TMC2    C1 1320   0.249   2.642  15.803  0.2011 -0.0220 -0.2786
   85TMC2    C2 1321   0.234   2.766  15.739 -0.4027 -0.2518  0.2200
   85TMC2    C3 1322   0.327   2.790  15.640  0.3805 -0.1293 -0.2155
   85TMC2    C4 1323   0.338   2.540  15.767  0.1072 -0.5041 -0.1396
   85TMC2    C5 1324   0.422   2.578  15.666 -1.1298  0.1562 -0.2443
   85TMC2    C6 1325   0.421   2.700  15.607  0.9473  0.8203  0.0257
   85TMC2     C 1326   0.182   2.632  15.931 -0.1841  0.7355 -0.4784
   85TMC2     O 1327   0.161   2.737  15.988 -0.0896 -0.2153 -0.0747
   85TMC2     H 1328   0.174   2.845  15.782  2.7703  1.7699  0.9525
   85TMC2    H1 1329   0.370   2.466  15.840 -2.5415 -1.2329  0.2702
   85TMC2    H2 1330   0.492   2.721  15.528 -0.3404  0.1576 -1.3041
   85TMC2    C7 1331   0.519   2.484  15.631  0.0276 -0.4325 -0.5561
   85TMC2    C8 1332   0.360   2.921  15.622  0.2599 -0.9375  1.0613
   85TMC2    O1 1333   0.546   2.402  15.719  0.3237  0.0446 -0.6124
   85TMC2    O2 1334   0.476   2.967  15.614 -0.5091 -0.6097  0.7217
   85TMC2    O5 1335   0.250   2.988  15.582  0.9541  0.8285  0.1344
   85TMC2    H5 1336   0.171   2.930  15.576  0.8599  0.9716  0.0261
   86MPD2     C 1337   4.709   2.373  16.320  0.8001 -0.1952  0.0244
   86MPD2    C1 1338   4.709   2.285  16.206 -0.3138 -0.2454 -0.2666
   86MPD2    C2 1339   0.033   2.328  16.090  0.3560 -1.1033  0.3567
   86MPD2    C3 1340   0.089   2.455  16.089 -0.1473 -0.3804 -1.1214
   86MPD2    C4 1341   0.080   2.539  16.196 -0.0278  0.4552  0.9209
   86MPD2    C5 1342   0.028   2.496  16.313 -0.4155  0.6233  0.0068
   86MPD2     H 1343   0.036   2.255  16.009 -1.2379  1.3194 -1.8712
   86MPD2    H1 1344   0.116   2.641  16.188  0.2571  0.2732 -0.1134
   86MPD2    H2 1345   4.658   2.336  16.408  0.4114  0.7608  0.1991
   86MPD2    H3 1346   0.009   2.558  16.400  0.9484 -1.0007  1.4450
   86MPD2     N 1347   0.155   2.498  15.963  0.2535  0.3442  0.4974
   86MPD2    H5 1348   0.173   2.436  15.884 -0.2138 -0.4328  0.9907
   86MPD2    N1 1349   4.652   2.152  16.216 -0.1138  0.7923 -0.9695
   86MPD2    H7 1350   4.663   2.089  16.138  2.1650 -0.3814  0.2977
   87TMC2    C1 1351   2.599   0.626   0.724 -0.8851 -0.5868  0.4593
   87TMC2    C2 1352   2.695   0.723   0.718  0.3386 -0.5998  0.2533
   87TMC2    C3 1353   2.674   0.832   0.793 -0.1727 -0.1795  0.6931
   87TMC2    C4 1354   2.480   0.645   0.783 -0.5279  0.7091 -0.6130
   87TMC2    C5 1355   2.462   0.752   0.866 -0.0149  0.4305 -0.4664
   87TMC2    C6 1356   2.561   0.853   0.874  0.4741  0.1271  0.0866
   87TMC2     C 1357   2.622   0.523   0.630  0.0447  0.3933 -0.5634
   87TMC2     O 1358   2.529   0.470   0.572 -0.2845 -0.0678 -0.1563
   87TMC2     H 1359   2.783   0.727   0.653 -0.0182  0.4255 -0.1632
   87TMC2    H1 1360   2.423   0.553   0.788  1.1503 -0.2117  1.7942
   87TMC2    H2 1361   2.555   0.926   0.954 -0.4043 -0.8477  0.9163
   87TMC2    C7 1362   2.336   0.803   0.892 -0.1862 -0.4522  0.8718
   87TMC2    C8 1363   2.766   0.944   0.787  0.9441  0.0382  0.8212
   87TMC2    O1 1364   2.344   0.914   0.941  0.7322 -0.0047 -0.4810
   87TMC2    O2 1365   2.882   0.913   0.765 -0.1328  0.7782  0.5193
   87TMC2    O5 1366   2.702   1.050   0.738  0.3399 -0.1031 -0.3473
   87TMC2    H5 1367   2.616   1.057   0.784 -0.0353  0.9379 -1.2096
   88MPD2     C 1368   2.064   0.755   0.657  0.4722  0.4883 -0.7891
   88MPD2    C1 1369   2.154   0.824   0.729 -0.2993 -0.6089 -0.0923
   88MPD2    C2 1370   2.148   0.961   0.733 -0.4372 -0.4343 -0.8638
   88MPD2    C3 1371   2.070   1.031   0.649 -0.1179 -0.1558  0.3230
   88MPD2    C4 1372   1.983   0.966   0.566  0.4009 -0.2227 -0.0503
   88MPD2    C5 1373   1.985   0.826   0.574  0.2380 -0.2414 -0.0805
   88MPD2     H 1374   2.199   1.022   0.806 -1.2812 -1.9535  1.0010
   88MPD2    H1 1375   1.927   1.019   0.491 -0.0954 -0.1156  0.3967
   88MPD2    H2 1376   2.073   0.647   0.656  1.6156  0.5861 -1.9460
   88MPD2    H3 1377   1.919   0.776   0.505 -0.1854  0.3017 -0.0711
   88MPD2     N 1378   2.056   1.174   0.645 -1.1131 -0.7043  0.3157
   88MPD2    H5 1379   1.977   1.206   0.590 -0.1255  0.6992 -0.2744
   88MPD2    N1 1380   2.245   0.750   0.809  0.6809 -0.4477 -0.3177
   88MPD2    H7 1381   2.249   0.649   0.793  1.5298 -0.5997  0.8696
   89TMC2    C1 1382   3.182   3.952   1.384 -0.2075 -0.1647  0.3055
   89TMC2    C2 1383   3.161   3.946   1.518 -0.0602  0.2797  0.2425
   89TMC2    C3 1384   3.165   4.060   1.595  0.0125 -0.3988  0.0254
   89TMC2    C4 1385   3.207   4.073   1.319 -0.6047  0.0628  0.0693
   89TMC2    C5 1386   3.173   4.185   1.401  0.2812  0.1691 -0.5515
   89TMC2    C6 1387   3.162   4.180   1.538  0.3229  0.5154 -0.1925
   89TMC2     C 1388   3.211   3.830   1.316 -0.0701  0.0126  0.7674
   89TMC2     O 1389   3.281   3.845   1.218  0.5220 -0.0584  0.2117
   89TMC2     H 1390   3.148   3.852   1.570 -0.7063  0.1775 -0.1103
   89TMC2    H1 1391   3.209   4.093   1.212 -1.3341 -0.4485 -0.0445
   89TMC2    H2 1392   3.143   4.266   1.601 -0.9957 -0.6911  1.0387
   89TMC2    C7 1393   3.170   4.318   1.346  0.0875 -0.7273 -0.0209
   89TMC2    C8 1394   3.104   4.051   1.722 -0.0397  0.2067  0.5173
   89TMC2    O1 1395   3.086   4.399   1.388  0.1297  0.1110 -0.3351
   89TMC2    O2 1396   3.022   3.968   1.751  0.0777  0.3865 -0.0751
   89TMC2    O5 1397   3.176   4.123   1.810  0.0885 -0.2296  0.3516
   89TMC2    H5 1398   3.261   4.164   1.780 -0.3941 -0.0813 -0.8259
   90MPD2     C 1399   3.095   3.352   1.192  0.2390 -1.3284  0.0410
   90MPD2    C1 1400   2.990   3.396   1.273 -0.4321 -0.2838 -0.0378
   90MPD2    C2 1401   2.994   3.523   1.323 -0.3698  0.7899 -0.8180
   90MPD2    C3 1402   3.101   3.609   1.283 -0.5080 -0.1673 -0.4593
   90MPD2    C4 1403   3.196   3.576   1.188 -0.7122 -0.3399 -0.0483
   90MPD2    C5 1404   3.194   3.443   1.150 -0.2513 -0.7700  0.1908
   90MPD2     H 1405   2.928   3.561   1.400  0.9599  0.9814  0.2385
   90MPD2    H1 1406   3.269   3.644   1.147  1.1288 -1.6555  1.0619
   90MPD2    H2 1407   3.095   3.249   1.157 -0.1548 -1.4296  0.3370
   90MPD2    H3 1408   3.264   3.403   1.078  0.9174  1.2310  0.2351
   90MPD2     N 1409   3.124   3.733   1.351  0.2123  0.0069  0.1408
   90MPD2    H5 1410   3.064   3.751   1.431  0.4527 -0.2575  0.3824
   90MPD2    N1 1411   2.886   3.306   1.310  0.5990 -0.2563 -0.2509
   90MPD2    H7 1412   2.824   3.334   1.385  1.9703  3.0518 -0.3826
   91TMC2    C1 1413   0.010   3.424  16.023 -0.5379  0.7382  0.4700
   91TMC2    C2 1414   0.053   3.419  16.157  0.0239  0.9248  0.8401
   91TMC2    C3 1415   4.711   3.353  16.247 -0.2466  0.7340  0.1119
   91TMC2    C4 1416   4.623   3.385  15.986 -0.6406 -0.0570  0.5309
   91TMC2    C5 1417   4.550   3.318  16.084  0.1631 -1.0061 -0.6561
   91TMC2    C6 1418   4.589   3.301  16.209 -0.2301 -0.1544 -0.2046
   91TMC2     C 1419   0.085   3.500  15.934 -0.2618 -0.4249  0.5495
   91TMC2     O 1420   0.021   3.569  15.861 -0.2690  0.0126 -0.2259
   91TMC2     H 1421   0.157   3.442  16.178  0.3564 -2.4615  2.7711
   91TMC2    H1 1422   4.597   3.379  15.881  0.2840 -1.6230  0.3838
   91TMC2    H2 1423   4.529   3.249  16.282 -0.0801  1.0847  0.8040
   91TMC2    C7 1424   4.419   3.274  16.041 -0.3724  0.2766 -0.0079
   91TMC2    C8 1425   0.038   3.313  16.374 -0.1744  0.0258  0.0794
   91TMC2    O1 1426   4.381   3.169  16.094 -0.1799 -0.1948  0.1238
   91TMC2    O2 1427   4.724   3.227  16.443 -0.2469 -1.0376  0.1564
   91TMC2    O5 1428   0.141   3.389  16.408 -0.5511 -0.0527 -0.0967
   91TMC2    H5 1429   0.138   3.468  16.350 -3.2835  0.2582  0.4593
   92MPD2     C 1430   0.298   3.662  15.795  0.3651 -0.0545  0.0657
   92MPD2    C1 1431   0.316   3.566  15.886  0.2267  0.0175 -0.5062
   92MPD2    C2 1432   0.449   3.542  15.909  0.2436 -0.3292 -1.3193
   92MPD2    C3 1433   0.552   3.612  15.853 -1.2694 -0.3803 -1.0097
   92MPD2    C4 1434   0.526   3.713  15.766  0.0373  0.5393 -0.5558
   92MPD2    C5 1435   0.396   3.736  15.736  0.7866  0.2864 -0.4235
   92MPD2     H 1436   0.472   3.479  15.994 -1.0312  1.8397  0.6527
   92MPD2    H1 1437   0.595   3.785  15.725  0.4682  0.4127 -0.0521
   92MPD2    H2 1438   0.196   3.687  15.765  0.5060  0.9505  0.4340
   92MPD2    H3 1439   0.371   3.821  15.673 -0.8361 -0.4591 -0.7924
   92MPD2     N 1440   0.679   3.592  15.906  0.2463 -0.1639  0.1327
   92MPD2    H5 1441   0.692   3.500  15.946  0.4605  0.7257  2.1314
   92MPD2    N1 1442   0.224   3.491  15.957  0.7039 -0.0376 -0.8149
   92MPD2    H7 1443   0.263   3.413  16.010 -0.1773 -0.7524 -1.2209
   93TMC2    C1 1444   2.446   3.418  13.549  0.4784 -0.0616  0.1266
   93TMC2    C2 1445   2.452   3.458  13.680  0.4224  0.2169  0.7365
   93TMC2    C3 1446   2.569   3.522  13.719  0.1409  0.3532 -0.1686
   93TMC2    C4 1447   2.557   3.416  13.472 -0.2353  0.2617 -0.0210
   93TMC2    C5 1448   2.669   3.479  13.517  0.0434 -0.0496 -0.5963
   93TMC2    C6 1449   2.674   3.518  13.645 -0.6505  0.3248 -0.3468
   93TMC2     C 1450   2.344   3.323  13.503 -0.0179 -0.4486  0.1466
   93TMC2     O 1451   2.366   3.246  13.410  0.0444 -0.5589 -0.1876
   93TMC2     H 1452   2.364   3.458  13.744  0.1618  0.4900  0.3811
   93TMC2    H1 1453   2.559   3.387  13.367  0.1289  0.8263 -0.1642
   93TMC2    H2 1454   2.769   3.562  13.675 -1.4152  2.2896 -0.7643
   93TMC2    C7 1455   2.797   3.469  13.448  0.2904 -0.1332 -0.2571
   93TMC2    C8 1456   2.595   3.551  13.861  0.0086 -0.0919  0.3655
   93TMC2    O1 1457   2.897   3.494  13.514  0.1974  0.0948  0.8136
   93TMC2    O2 1458   2.711   3.547  13.899  0.2427 -0.1220 -0.0068
   93TMC2    O5 1459   2.497   3.503  13.935 -0.4509 -0.1883 -0.5425
   93TMC2    H5 1460   2.407   3.522  13.900 -0.8456  1.3063  1.3252
   94MPD2     C 1461   2.098   3.152  13.463  0.1782 -0.1627  0.0640
   94MPD2    C1 1462   2.102   3.270  13.529  0.2119 -0.3070  0.2103
   94MPD2    C2 1463   1.984   3.324  13.555  0.0768  0.7914 -0.2422
   94MPD2    C3 1464   1.857   3.263  13.527 -0.2546 -0.4163 -0.1505
   94MPD2    C4 1465   1.863   3.136  13.463 -0.3199 -0.0673  0.9613
   94MPD2    C5 1466   1.985   3.089  13.420 -0.6338  0.2194 -0.1691
   94MPD2     H 1467   1.998   3.424  13.596  0.4883 -0.2450  2.1146
   94MPD2    H1 1468   1.774   3.081  13.433  0.5511 -2.6819  3.0975
   94MPD2    H2 1469   2.188   3.107  13.423  0.8321  1.8949 -0.8139
   94MPD2    H3 1470   1.994   2.998  13.362  0.1567 -0.4012  0.9567
   94MPD2     N 1471   1.731   3.325  13.556 -0.1956 -0.4921 -0.1129
   94MPD2    H5 1472   1.648   3.276  13.523  0.9716 -0.4818 -3.0197
   94MPD2    N1 1473   2.221   3.346  13.554  0.4533 -0.2369 -0.2426
   94MPD2    H7 1474   2.214   3.431  13.609  0.8451  0.0811 -0.6850
   95TMC2    C1 1475   1.978   0.598  16.272  0.1065 -0.8763  0.7894
   95TMC2    C2 1476   1.941   0.507  16.374  0.1099 -0.5554  0.2829
   95TMC2    C3 1477   1.919   0.552  16.495 -0.1335 -0.1316  0.5717
   95TMC2    C4 1478   1.980   0.726  16.293  1.0352  0.5027 -1.0071
   95TMC2    C5 1479   1.946   0.771  16.417 -0.5306 -0.6526  0.1999
   95TMC2    C6 1480   1.920   0.683  16.517 -0.0509  0.6779  0.2542
   95TMC2     C 1481   2.016   0.551  16.144 -0.3233 -0.2980  1.0407
   95TMC2     O 1482   2.078   0.629  16.074  0.4311  0.4953 -0.2854
   95TMC2     H 1483   1.940   0.399  16.364 -0.8159 -0.3962 -1.3365
   95TMC2    H1 1484   1.978   0.797  16.212  0.5547  0.1454 -1.3101
   95TMC2    H2 1485   1.900   0.728  16.614  0.5639 -0.8994  1.1112
   95TMC2    C7 1486   1.960   0.914  16.447  0.3853  1.0960  0.2581
   95TMC2    C8 1487   1.876   0.454  16.595 -0.2074  0.1947  0.8801
   95TMC2    O1 1488   1.904   0.951  16.549 -0.2489  0.2531 -0.3193
   95TMC2    O2 1489   1.949   0.384  16.667 -0.0837 -0.5047 -0.1047
   95TMC2    O5 1490   1.743   0.466  16.601 -0.5345 -0.1383  0.5101
   95TMC2    H5 1491   1.704   0.539  16.548 -0.3042 -0.4110 -0.0329
   96MPD2     C 1492   2.059   0.203  15.788  1.0135 -0.3370 -0.2780
   96MPD2    C1 1493   2.125   0.316  15.807  0.7557 -0.1588  0.0442
   96MPD2    C2 1494   2.093   0.392  15.917 -0.9598 -0.5566 -0.1407
   96MPD2    C3 1495   1.987   0.356  15.997  0.4901 -0.0179  0.3258
   96MPD2    C4 1496   1.917   0.243  15.973  0.7016  0.3610  0.0571
   96MPD2    C5 1497   1.954   0.163  15.868  0.2915  0.5304 -0.4346
   96MPD2     H 1498   2.153   0.480  15.933  0.5028 -1.6954  0.6492
   96MPD2    H1 1499   1.836   0.212  16.038  1.1220  1.9698  1.3600
   96MPD2    H2 1500   2.094   0.124  15.722  0.9197 -1.3555  0.8667
   96MPD2    H3 1501   1.905   0.067  15.851  2.5592 -0.3374 -1.9315
   96MPD2     N 1502   1.956   0.431  16.112 -1.1856  0.1774 -0.0323
   96MPD2    H5 1503   1.895   0.393  16.184  0.6652 -1.2639  0.7635
   96MPD2    N1 1504   2.231   0.353  15.718  0.8240  0.3314  0.0536
   96MPD2    H7 1505   2.242   0.297  15.634  2.2635 -0.3785  0.7368
   97TMC2    C1 1506   4.264   3.040  17.477  0.6819  0.0967  0.1397
   97TMC2    C2 1507   4.244   2.962  17.365 -0.1160  0.0048  0.1599
   97TMC2    C3 1508   4.235   3.034  17.246 -0.0658 -0.4123 -0.1685
   97TMC2    C4 1509   4.280   3.176  17.482 -0.2274  0.2598 -0.1308
   97TMC2    C5 1510   4.269   3.235  17.357  0.0415 -0.2047  0.7283
   97TMC2    C6 1511   4.255   3.173  17.236  0.4870  0.6241 -0.1023
   97TMC2     C 1512   4.254   2.976  17.606  0.5723 -0.0825  0.1395
   97TMC2     O 1513   4.205   2.866  17.617  0.3820 -0.7078  0.3428
   97TMC2     H 1514   4.220   2.858  17.383  3.9776 -1.1866 -1.2281
   97TMC2    H1 1515   4.282   3.239  17.570 -0.1630  3.0594 -2.1416
   97TMC2    H2 1516   4.269   3.216  17.137  2.8424  1.8705  0.7846
   97TMC2    C7 1517   4.294   3.376  17.355 -0.2831  0.0388  0.1741
   97TMC2    C8 1518   4.205   2.958  17.125  0.2692 -0.1847  0.2189
   97TMC2    O1 1519   4.360   3.426  17.448  0.2221 -0.4821 -0.0593
   97TMC2    O2 1520   4.241   3.005  17.019  0.1916 -0.0257 -0.7007
   97TMC2    O5 1521   4.083   2.909  17.152 -0.2986  0.0018  0.3686
   97TMC2    H5 1522   4.054   2.897  17.245 -2.1507  0.3237 -0.1822
   98MPD2     C 1523   4.316   2.994   0.366  0.3031  0.1047  1.0236
   98MPD2    C1 1524   4.239   2.914   0.289  0.2166  1.2445 -0.0069
   98MPD2    C2 1525   4.233   2.930   0.152  0.5476  0.0088 -0.0274
   98MPD2    C3 1526   4.330   3.013   0.092 -0.7885  0.1123  0.6426
   98MPD2    C4 1527   4.411   3.090   0.170 -0.0181 -0.1384 -0.4786
   98MPD2    C5 1528   4.407   3.074   0.307 -0.3275  0.7559  0.4872
   98MPD2     H 1529   4.147   2.892   0.097 -0.6316  1.8154  0.6060
   98MPD2    H1 1530   4.474   3.170   0.133  1.5284 -0.3046  1.7713
   98MPD2    H2 1531   4.313   2.999   0.474 -0.7957  1.3721  0.9352
   98MPD2    H3 1532   4.465   3.149   0.360 -0.3359  0.5417  0.7971
   98MPD2     N 1533   4.336   3.040  17.701 -0.2489  0.1667  0.9063
   98MPD2    H5 1534   4.401   3.115  17.686 -1.4009  0.8398 -0.6788
   98MPD2    N1 1535   4.160   2.827   0.359 -0.3346  0.8654  0.6828
   98MPD2    H7 1536   4.155   2.847   0.458 -0.7977 -2.3360  1.3124
   99TMC2    C1 1537   3.080   0.475   1.404  0.7323  0.3261 -0.2235
   99TMC2    C2 1538   3.181   0.513   1.489 -0.0708 -0.1491  0.3638
   99TMC2    C3 1539   3.140   0.539   1.616  0.2984 -0.0683 -0.2412
   99TMC2    C4 1540   2.944   0.480   1.430 -0.0034 -0.0419 -0.0041
   99TMC2    C5 1541   2.912   0.511   1.561  0.0367  0.0225  0.4097
   99TMC2    C6 1542   3.007   0.537   1.658  0.1241  0.4413 -0.6531
   99TMC2     C 1543   3.125   0.451   1.269 -0.1363 -0.2005  0.2020
   99TMC2     O 1544   3.233   0.500   1.248  0.1251 -0.7260 -0.4742
   99TMC2     H 1545   3.286   0.497   1.466  0.5006  0.1887  2.7148
   99TMC2    H1 1546   2.864   0.470   1.357 -0.8488  0.1676  0.9018
   99TMC2    H2 1547   2.977   0.558   1.760  0.0834 -0.7724 -0.4138
   99TMC2    C7 1548   2.777   0.534   1.596  0.2326  0.2168  0.5510
   99TMC2    C8 1549   3.253   0.521   1.709  0.3664  0.0600 -0.6372
   99TMC2    O1 1550   2.750   0.616   1.685 -0.9061 -0.0559  0.5942
   99TMC2    O2 1551   3.370   0.561   1.682  0.0133  0.5287 -0.3511
   99TMC2    O5 1552   3.209   0.486   1.828  0.1696  0.0615  0.1905
   99TMC2    H5 1553   3.118   0.450   1.823  0.7510 -1.6151  2.0494
  100MPD2     C 1554   3.208   0.322   1.008  0.1655 -0.0329  0.2497
  100MPD2    C1 1555   3.083   0.309   1.068  1.0717  0.5906  0.4240
  100MPD2    C2 1556   2.986   0.230   1.003 -0.8265 -0.6538 -0.5369
  100MPD2    C3 1557   3.020   0.169   0.878 -0.1406  0.4800  0.2157
  100MPD2    C4 1558   3.148   0.185   0.820 -0.0576 -0.4324 -0.0579
  100MPD2    C5 1559   3.242   0.264   0.889  0.6101  0.6410  0.0006
  100MPD2     H 1560   2.883   0.229   1.035 -0.9032  0.0666 -0.7469
  100MPD2    H1 1561   3.172   0.140   0.725  0.5325  3.0863 -1.5610
  100MPD2    H2 1562   3.286   0.379   1.056  0.4607 -0.9005  0.8073
  100MPD2    H3 1563   3.347   0.259   0.863  0.1469  0.6540 -1.8920
  100MPD2     N 1564   2.918   0.100   0.814  0.4198 -0.1484 -0.4161
  100MPD2    H5 1565   2.825   0.108   0.853 -0.3358 -2.6712 -1.6697
  100MPD2    N1 1566   3.047   0.371   1.190  0.2535 -0.0800 -0.2238
  100MPD2    H7 1567   2.958   0.334   1.220  0.1505  0.8081  0.5744
  101TMC2    C1 1568   3.861   1.238  12.515  0.1288 -0.2514 -0.1646
  101TMC2    C2 1569   3.814   1.351  12.574  0.0730  0.4847 -0.2943
  101TMC2    C3 1570   3.892   1.460  12.551  0.1489  0.1700  0.4192
  101TMC2    C4 1571   3.983   1.227  12.440  0.2137  0.0156 -0.4314
  101TMC2    C5 1572   4.058   1.340  12.427  0.1387 -0.0513  0.4531
  101TMC2    C6 1573   4.020   1.453  12.497  0.1039 -0.5166  0.3941
  101TMC2     C 1574   3.794   1.111  12.563 -0.2497  0.5524  0.0574
  101TMC2     O 1575   3.688   1.123  12.627  0.0262  0.3051  0.2179
  101TMC2     H 1576   3.722   1.355  12.632 -1.1806  6.3106 -2.6905
  101TMC2    H1 1577   4.004   1.137  12.383 -0.9273 -1.3399  1.3318
  101TMC2    H2 1578   4.083   1.541  12.501 -0.1646 -0.2476 -1.4742
  101TMC2    C7 1579   4.178   1.333  12.345 -0.2715  0.1044 -0.1900
  101TMC2    C8 1580   3.896   1.548  12.661 -0.3032  0.2719  0.0423
  101TMC2    O1 1581   4.185   1.245  12.259  0.2843  0.2989  0.3080
  101TMC2    O2 1582   3.912   1.501  12.775  0.1593  0.0812  0.0082
  101TMC2    O5 1583   3.799   1.634  12.626  0.2794  0.3786 -0.0054
  101TMC2    H5 1584   3.818   1.654  12.532  2.2953 -2.0165 -0.1067
  102MPD2     C 1585   3.950   0.785  12.551 -0.7807 -0.0970 -0.2659
  102MPD2    C1 1586   3.858   0.878  12.594 -0.0590 -0.1715 -0.2645
  102MPD2    C2 1587   3.772   0.850  12.698  0.2381  0.0918  0.6707
  102MPD2    C3 1588   3.766   0.722  12.759 -0.2008 -0.1405  0.4916
  102MPD2    C4 1589   3.863   0.632  12.714 -0.6809 -0.4849 -0.3892
  102MPD2    C5 1590   3.955   0.664  12.612 -0.2249  0.2556 -0.1944
  102MPD2     H 1591   3.705   0.929  12.730  1.3343  1.2213  0.1581
  102MPD2    H1 1592   3.875   0.534  12.758  2.1791 -0.2836 -0.7344
  102MPD2    H2 1593   4.017   0.806  12.468  3.3953  0.8506  3.3305
  102MPD2    H3 1594   4.029   0.591  12.582 -1.5661 -0.2134 -2.3677
  102MPD2     N 1595   3.669   0.696  12.853  0.8553  0.0470 -0.1538
  102MPD2    H5 1596   3.617   0.772  12.898 -2.0028 -0.9911 -1.6900
  102MPD2    N1 1597   3.871   1.003  12.535 -0.2172  0.3640  0.0138
  102MPD2    H7 1598   3.950   1.028  12.476  0.8658 -2.9385  0.0607
  103TMC2    C1 1599   1.668   1.004  12.495 -0.6770 -0.8194  0.5083
  103TMC2    C2 1600   1.744   1.066  12.399 -0.0043  0.1749  0.7180
  103TMC2    C3 1601   1.738   1.199  12.380  0.7585 -0.3606 -0.8568
  103TMC2    C4 1602   1.593   1.075  12.585 -0.2476  0.2645  0.0380
  103TMC2    C5 1603   1.582   1.207  12.550  0.0080  0.4571  0.3247
  103TMC2    C6 1604   1.649   1.274  12.446  0.1238 -0.3063  0.2401
  103TMC2     C 1605   1.588   0.902  12.435 -0.7474  0.2443 -0.7570
  103TMC2     O 1606   1.593   0.889  12.313 -0.5257 -0.5119  0.1548
  103TMC2     H 1607   1.802   1.000  12.335  0.9599  0.8306  0.9070
  103TMC2    H1 1608   1.514   1.035  12.648  1.9369 -0.1623  2.4983
  103TMC2    H2 1609   1.625   1.376  12.418  1.2671  0.4708  2.0680
  103TMC2    C7 1610   1.549   1.287  12.666  0.2057  0.3227 -0.2536
  103TMC2    C8 1611   1.789   1.246  12.253  0.5125  0.2126 -0.4554
  103TMC2    O1 1612   1.565   1.236  12.776  0.4858 -0.9680 -0.4185
  103TMC2    O2 1613   1.784   1.162  12.164  0.1794 -0.0428  0.2627
  103TMC2    O5 1614   1.873   1.349  12.274  0.2835  0.0382  1.2810
  103TMC2    H5 1615   1.871   1.385  12.365 -0.0858 -0.2504  1.3843
  104MPD2     C 1616   1.359   0.656  12.593 -0.2864 -0.2609 -0.7917
  104MPD2    C1 1617   1.409   0.734  12.488 -0.9327 -0.4004  0.0625
  104MPD2    C2 1618   1.354   0.722  12.361  0.1325 -0.6074  0.4845
  104MPD2    C3 1619   1.248   0.630  12.338 -0.6306  0.7139 -0.3015
  104MPD2    C4 1620   1.201   0.561  12.446 -0.3737  0.1023 -0.6356
  104MPD2    C5 1621   1.256   0.578  12.569 -1.4756  0.4599 -0.0366
  104MPD2     H 1622   1.381   0.793  12.283  1.7005 -1.1412  0.5439
  104MPD2    H1 1623   1.119   0.490  12.448 -1.2829  1.1555 -0.9550
  104MPD2    H2 1624   1.395   0.663  12.695  0.2308  0.7629 -1.0466
  104MPD2    H3 1625   1.217   0.508  12.642 -0.7622 -0.8930 -0.9530
  104MPD2     N 1626   1.187   0.620  12.209 -0.7726  0.0065 -0.1269
  104MPD2    H5 1627   1.210   0.696  12.145 -1.4470 -0.8655 -1.3962
  104MPD2    N1 1628   1.510   0.828  12.523  0.1799  0.0568  0.5088
  104MPD2    H7 1629   1.543   0.847  12.617 -1.5044  0.7926  0.9468
  105TMC2    C1 1630   2.646   4.718  17.570 -0.4299 -0.5148  0.4892
  105TMC2    C2 1631   2.518   4.691  17.600  0.4473  0.0804 -0.2475
  105TMC2    C3 1632   2.478   4.730  17.721 -0.4594 -0.6800 -0.3126
  105TMC2    C4 1633   2.732   0.033  17.657 -0.1314  0.4442  0.5278
  105TMC2    C5 1634   2.694   0.067   0.037  0.5167  1.1790  0.0653
  105TMC2    C6 1635   2.560   0.049   0.066  0.5373 -0.6604  0.4475
  105TMC2     C 1636   2.696   4.715  17.431 -0.4097 -0.4410  0.1415
  105TMC2     O 1637   2.652   4.619  17.367 -0.0153 -0.2901 -0.0758
  105TMC2     H 1638   2.458   4.638  17.528 -0.3727  1.5188 -0.6195
  105TMC2    H1 1639   2.838   0.036  17.638 -0.6001 -0.9474 -2.2856
  105TMC2    H2 1640   2.525   0.082   0.164  1.6259  1.6901  0.0516
  105TMC2    C7 1641   2.793   0.137   0.128 -0.4256  0.0013  0.3849
  105TMC2    C8 1642   2.341   4.704   0.021 -0.2108 -0.2159  0.7584
  105TMC2    O1 1643   2.905   0.106   0.095  0.0813  0.1245 -0.3746
  105TMC2    O2 1644   2.308   4.698   0.140  0.4070 -0.0923 -0.7087
  105TMC2    O5 1645   2.264   4.670  17.663 -0.2288 -0.2383 -0.6337
  105TMC2    H5 1646   2.287   4.703  17.574 -3.2946  0.4660 -1.1645
  106MPD2     C 1647   3.096   0.059  17.129  0.2069  0.1051  0.9481
  106MPD2    C1 1648   3.078   0.175  17.204 -0.2482  0.1421  0.1270
  106MPD2    C2 1649   2.979   0.175  17.299 -0.1042  0.1079 -0.7831
  106MPD2    C3 1650   2.893   0.064  17.310  0.5287  0.7042  0.2319
  106MPD2    C4 1651   2.908   4.695  17.229 -0.0151  0.7532 -0.0968
  106MPD2    C5 1652   3.011   4.693  17.136  0.1773  0.1523 -0.5816
  106MPD2     H 1653   2.960   0.260  17.364 -1.1243 -0.4581 -0.3470
  106MPD2    H1 1654   2.840   4.611  17.229 -1.1217  1.6435  1.0262
  106MPD2    H2 1655   3.170   0.050  17.050 -2.4126  3.6725 -1.9701
  106MPD2    H3 1656   3.038   4.606  17.077 -1.3003  0.4236 -1.6733
  106MPD2     N 1657   2.788   0.076  17.403 -0.5698 -0.3671  0.0228
  106MPD2    H5 1658   2.785   0.154  17.468  0.7851  0.8401 -1.3895
  106MPD2    N1 1659   3.165   0.285  17.197  0.0168 -0.1402  0.3327
  106MPD2    H7 1660   3.149   0.366  17.256 -0.7880 -0.0598  0.0019
  107TMC2    C1 1661   3.924   4.662  11.134  0.4174  0.0692  0.4434
  107TMC2    C2 1662   3.799   4.661  11.084  0.6988  0.4195 -0.3217
  107TMC2    C3 1663   3.778   4.712  10.954  0.3035  1.0795 -1.0891
  107TMC2    C4 1664   4.031   4.683  11.058  0.3890 -0.0977  0.0467
  107TMC2    C5 1665   4.007   4.736  10.934 -1.0235 -0.5937 -0.0044
  107TMC2    C6 1666   3.882   0.018  10.886  0.1746  0.7240  0.1441
  107TMC2     C 1667   3.946   4.630  11.278  0.0697 -0.3217  0.4416
  107TMC2     O 1668   3.853   4.651  11.351  0.9438  0.3274 -0.5412
  107TMC2     H 1669   3.713   4.637  11.145  0.6730  1.5510  0.0739
  107TMC2    H1 1670   4.133   4.694  11.095  0.4665 -0.7462  0.0249
  107TMC2    H2 1671   3.880   0.058  10.786  0.0743  2.0246  0.6666
  107TMC2    C7 1672   4.121   0.027  10.846  0.2173 -0.2365 -0.4788
  107TMC2    C8 1673   3.640   0.008  10.917 -0.1099 -0.0982  0.3079
  107TMC2    O1 1674   4.100   0.106  10.754  0.3362 -0.2988 -0.5639
  107TMC2    O2 1675   3.546   4.688  10.975  0.5338 -0.4505  0.1159
  107TMC2    O5 1676   3.636   0.126  10.852  0.0445 -0.3471 -0.2310
  107TMC2    H5 1677   3.726   0.160  10.832 -0.5804  0.9051 -0.9417
  108MPD2     C 1678   4.251   4.477  11.418 -0.7902 -0.0276 -0.2503
  108MPD2    C1 1679   4.129   4.534  11.421  0.6135 -0.2697 -0.2456
  108MPD2    C2 1680   4.067   4.561  11.541  0.4490  0.5219 -0.3920
  108MPD2    C3 1681   4.125   4.520  11.657 -0.3045  0.4007 -0.2897
  108MPD2    C4 1682   4.255   4.469  11.650  0.0658 -0.4935 -0.3170
  108MPD2    C5 1683   4.310   4.442  11.535  0.2127 -0.0412  0.7116
  108MPD2     H 1684   3.974   4.616  11.538  0.3130  0.3159  0.0246
  108MPD2    H1 1685   4.320   4.436  11.730  0.4236  0.6143 -0.1552
  108MPD2    H2 1686   4.310   4.466  11.328  0.9874 -0.4743  0.9753
  108MPD2    H3 1687   4.414   4.416  11.544  0.0712 -1.4911 -1.6927
  108MPD2     N 1688   4.072   4.552  11.781 -0.8829  0.5193 -0.2859
  108MPD2    H5 1689   4.143   4.562  11.854 -0.7792 -0.4767 -0.2418
  108MPD2    N1 1690   4.073   4.575  11.298 -0.0568  0.2957  0.6766
  108MPD2    H7 1691   4.125   4.546  11.216  0.6896  2.5919  0.3463
  109TMC2    C1 1692   3.366   1.700  17.617  0.8326 -0.0812  0.3580
  109TMC2    C2 1693   3.428   1.637  17.516  0.6690  0.2100 -1.2184
  109TMC2    C3 1694   3.558   1.662  17.498 -0.0357  0.1413  0.0304
  109TMC2    C4 1695   3.423   1.810  17.680  0.0995 -0.0387 -0.1259
  109TMC2    C5 1696   3.560   1.828  17.655 -0.0916 -0.2133 -0.7602
  109TMC2    C6 1697   3.629   1.752  17.567 -0.4878 -0.4017 -0.3637
  109TMC2     C 1698   3.239   1.646  17.658 -0.3203 -0.3074  0.1285
  109TMC2     O 1699   3.176   1.583  17.579 -0.4258  0.3108  0.8142
  109TMC2     H 1700   3.389   1.554  17.458  2.4810 -2.0942  0.8243
  109TMC2    H1 1701   3.374   1.882  17.744  1.4642  1.9800 -1.3387
  109TMC2    H2 1702   3.736   1.744  17.553 -0.7515 -1.8204 -1.5689
  109TMC2    C7 1703   3.625   1.945  17.720 -0.0956 -0.2039  0.1450
  109TMC2    C8 1704   3.629   1.588  17.399  0.0457  0.0777  0.3115
  109TMC2    O1 1705   3.577   1.982   0.080  0.2358 -0.6675  0.3826
  109TMC2    O2 1706   3.728   1.621  17.334  0.6102  0.3304 -0.0899
  109TMC2    O5 1707   3.621   1.469  17.453 -0.2760  0.0163  0.1462
  109TMC2    H5 1708   3.549   1.457  17.518  1.3437 -0.2677  1.8962
  110MPD2     C 1709   3.003   1.424   0.301 -0.6905  0.1409 -0.2088
  110MPD2    C1 1710   3.083   1.518   0.356  0.5889 -0.2443  0.0992
  110MPD2    C2 1711   3.149   1.611   0.268 -0.0207  0.2306  0.8778
  110MPD2    C3 1712   3.134   1.593   0.130 -0.1857 -0.4476  0.8535
  110MPD2    C4 1713   3.030   1.510   0.079  0.6820 -0.0338  0.0258
  110MPD2    C5 1714   2.965   1.430   0.167  0.3194 -0.1222 -0.6141
  110MPD2     H 1715   3.243   1.658   0.296 -0.5226  1.0175  1.2243
  110MPD2    H1 1716   3.006   1.505  17.719  1.0220  2.5598 -0.1653
  110MPD2    H2 1717   2.937   1.361   0.360 -1.7884  0.0580 -1.5242
  110MPD2    H3 1718   2.880   1.370   0.136 -0.6225 -0.4595  2.6160
  110MPD2     N 1719   3.220   1.668   0.044  1.0553  0.3874  0.3652
  110MPD2    H5 1720   3.281   1.732   0.095 -2.0849  3.7984 -0.1166
  110MPD2    N1 1721   3.095   1.512   0.494 -0.3637 -0.1797 -0.0231
  110MPD2    H7 1722   3.049   1.438   0.545 -0.0924 -0.3319  0.0009
  111TMC2    C1 1723   3.799   0.621  11.353  0.9721 -0.0596 -0.2968
  111TMC2    C2 1724   3.797   0.549  11.464  0.1235 -0.3062  0.3464
  111TMC2    C3 1725   3.908   0.479  11.496  0.4696 -0.5746  0.3881
  111TMC2    C4 1726   3.914   0.629  11.284 -0.6187 -0.0266  0.6190
  111TMC2    C5 1727   4.030   0.568  11.321  0.0103  0.8582 -0.6907
  111TMC2    C6 1728   4.027   0.492  11.433  0.6400  0.7381 -0.3155
  111TMC2     C 1729   3.742   0.753  11.357 -0.0126  1.1470  0.6613
  111TMC2     O 1730   3.787   0.836  11.279  0.0692  0.7154 -0.6983
  111TMC2     H 1731   3.712   0.532  11.530  0.2848  0.5349  0.7809
  111TMC2    H1 1732   3.910   0.683  11.189  1.9082  1.3201  1.2732
  111TMC2    H2 1733   4.119   0.468  11.485  0.5061 -0.3311 -0.5600
  111TMC2    C7 1734   4.145   0.652  11.312  0.0467  0.4552  0.0969
  111TMC2    C8 1735   3.921   0.475  11.644 -0.2378 -0.4874 -0.4247
  111TMC2    O1 1736   4.126   0.774  11.306  0.6246  0.1050 -0.0537
  111TMC2    O2 1737   3.882   0.564  11.716  0.5463 -0.4305  0.3981
  111TMC2    O5 1738   4.023   0.390  11.666  0.3407  0.1524  0.6032
  111TMC2    H5 1739   4.034   0.336  11.586 -1.1576  0.6212  0.0746
  112MPD2     C 1740   3.396   1.100  11.537  0.1358 -0.0950  0.8002
  112MPD2    C1 1741   3.499   1.122  11.443  0.1225 -0.1970 -0.1458
  112MPD2    C2 1742   3.576   1.013  11.415 -0.5056 -0.7135 -0.0651
  112MPD2    C3 1743   3.560   0.886  11.473 -0.1977  0.0879  0.3651
  112MPD2    C4 1744   3.465   0.870  11.564 -0.3340 -0.0260  0.4160
  112MPD2    C5 1745   3.387   0.974  11.588 -0.1436  0.0553 -0.5207
  112MPD2     H 1746   3.653   1.017  11.339 -1.6315  0.2885 -1.1624
  112MPD2    H1 1747   3.432   0.787  11.625  2.7422 -0.1748  1.8775
  112MPD2    H2 1748   3.326   1.177  11.566 -0.2630 -0.6657  1.3626
  112MPD2    H3 1749   3.321   0.973  11.674  0.3126  0.6469 -0.1658
  112MPD2     N 1750   3.636   0.769  11.445 -0.5565 -0.1076 -0.0500
  112MPD2    H5 1751   3.606   0.691  11.503  1.2434 -1.3723 -0.8023
  112MPD2    N1 1752   3.523   1.245  11.372 -0.2576 -0.0196 -0.2886
  112MPD2    H7 1753   3.595   1.241  11.301  0.2221 -2.0963  0.3315
  113TMC2    C1 1754   1.431   0.469   1.051 -0.4744 -0.0493 -0.1784
  113TMC2    C2 1755   1.361   0.550   1.135  0.3448 -0.4214 -0.4502
  113TMC2    C3 1756   1.226   0.532   1.146 -0.3750 -0.0062 -0.3848
  113TMC2    C4 1757   1.373   0.376   0.971  0.3357  0.0652 -0.2355
  113TMC2    C5 1758   1.237   0.367   0.982  0.7201  0.2305  0.0917
  113TMC2    C6 1759   1.159   0.447   1.063 -0.0404 -0.0082 -0.1208
  113TMC2     C 1760   1.576   0.477   1.060  0.7921 -0.0555  0.7706
  113TMC2     O 1761   1.629   0.586   1.081  0.3150  0.1331 -0.0104
  113TMC2     H 1762   1.412   0.612   1.208 -0.7728  0.0392 -0.0617
  113TMC2    H1 1763   1.429   0.332   0.889  2.2635  0.1408  1.0176
  113TMC2    H2 1764   1.053   0.429   1.078  0.2024 -1.0571  0.3434
  113TMC2    C7 1765   1.165   0.270   0.895  0.2472 -0.0419 -0.6881
  113TMC2    C8 1766   1.153   0.633   1.224 -0.4231 -0.0003  0.1077
  113TMC2    O1 1767   1.046   0.283   0.908 -0.2294 -0.4284  0.2944
  113TMC2    O2 1768   1.194   0.743   1.251 -0.2155 -0.2463  0.1547
  113TMC2    O5 1769   1.048   0.566   1.276  0.5799 -0.3831 -0.4801
  113TMC2    H5 1770   1.048   0.475   1.239  1.5791 -0.4153 -0.4001
  114MPD2     C 1771   2.054   0.285   1.056  0.6073 -1.2319  0.0277
  114MPD2    C1 1772   2.008   0.408   1.096 -0.4315 -0.2804 -0.4398
  114MPD2    C2 1773   1.873   0.423   1.104  0.1196  0.1515  0.7192
  114MPD2    C3 1774   1.783   0.338   1.051  0.3976  0.0406 -0.7815
  114MPD2    C4 1775   1.833   0.220   0.994 -0.2415 -0.2312 -0.4368
  114MPD2    C5 1776   1.968   0.190   1.008  0.6764 -0.6095  0.6835
  114MPD2     H 1777   1.839   0.509   1.161  0.8596  0.0016  1.3736
  114MPD2    H1 1778   1.769   0.150   0.941 -0.8285  0.6833 -0.9358
  114MPD2    H2 1779   2.158   0.258   1.053  0.5448 -1.4945  0.2691
  114MPD2    H3 1780   2.018   0.096   0.987  0.8102 -0.4211  0.1363
  114MPD2     N 1781   1.640   0.355   1.039  0.9586  0.3057 -0.1035
  114MPD2    H5 1782   1.587   0.272   1.012  0.0015  0.7755  0.3318
  114MPD2    N1 1783   2.081   0.517   1.150 -0.1776 -0.3296 -0.0409
  114MPD2    H7 1784   2.032   0.602   1.176  0.7550  0.7937 -1.9019
  115TMC2    C1 1785   2.837   2.640  17.518  0.0161  0.2581  0.1485
  115TMC2    C2 1786   2.967   2.595  17.525  0.0630 -0.5225  0.1936
  115TMC2    C3 1787   3.061   2.684  17.564  0.1320 -0.3693  0.3797
  115TMC2    C4 1788   2.811   2.763  17.561  0.7429 -0.4561  0.4819
  115TMC2    C5 1789   2.911   2.853  17.584 -0.2146 -0.5781 -0.0664
  115TMC2    C6 1790   3.039   2.818  17.587 -0.3658 -0.1243 -0.7658
  115TMC2     C 1791   2.732   2.547  17.460  0.1989 -0.2624 -0.8474
  115TMC2     O 1792   2.768   2.455  17.382  0.0065  0.0058  0.1878
  115TMC2     H 1793   2.986   2.494  17.493 -1.4480 -0.8704  0.4079
  115TMC2    H1 1794   2.713   2.810  17.555 -0.3421 -2.8224 -0.1985
  115TMC2    H2 1795   3.113   2.883  17.632 -0.2885 -0.6414 -0.1436
  115TMC2    C7 1796   2.877   2.986  17.607  0.2436  0.0264 -0.1963
  115TMC2    C8 1797   3.193   2.631  17.583  0.0614  0.0500  0.0786
  115TMC2    O1 1798   2.795   3.005  17.693  0.2733  0.3072  0.4336
  115TMC2    O2 1799   3.279   2.705  17.623  0.2118 -0.1750  0.2954
  115TMC2    O5 1800   3.199   2.493  17.582 -0.4770  0.0709 -0.0380
  115TMC2    H5 1801   3.113   2.460  17.548 -1.1419  2.1714 -0.4042
  116MPD2     C 1802   2.243   2.423  17.402 -0.2138 -0.8575 -0.1666
  116MPD2    C1 1803   2.351   2.364  17.364 -0.8896  0.0022 -0.1903
  116MPD2    C2 1804   2.474   2.417  17.396 -0.2960 -0.2162 -0.4088
  116MPD2    C3 1805   2.490   2.540  17.456  0.3386 -0.2609 -0.7245
  116MPD2    C4 1806   2.374   2.593  17.508 -0.3802 -0.0735 -0.0148
  116MPD2    C5 1807   2.255   2.535  17.479  0.7751 -0.1089 -0.9960
  116MPD2     H 1808   2.559   2.363  17.357  1.2268  2.9820 -1.4821
  116MPD2    H1 1809   2.386   2.686  17.562  0.6318 -0.0884 -0.2017
  116MPD2    H2 1810   2.145   2.391  17.367 -0.0881  0.8315 -2.0536
  116MPD2    H3 1811   2.164   2.578  17.521  2.1263  1.7668 -0.0027
  116MPD2     N 1812   2.614   2.593  17.496 -0.0676 -0.1172  0.8385
  116MPD2    H5 1813   2.615   2.676  17.554  0.0305  1.2879 -1.1444
  116MPD2    N1 1814   2.338   2.236  17.304 -0.8268  0.1983  0.0683
  116MPD2    H7 1815   2.244   2.200  17.290 -0.9832  0.0927  1.4628
  117TMC2    C1 1816   1.875   3.697  13.990  0.4946  0.1850 -0.0522
  117TMC2    C2 1817   2.001   3.639  13.990  0.0193 -0.0609 -0.1403
  117TMC2    C3 1818   2.108   3.720  14.015  0.0335  1.3223 -0.0448
  117TMC2    C4 1819   1.850   3.825  14.029 -0.3794  0.2817  0.4378
  117TMC2    C5 1820   1.965   3.892  14.064 -0.6666  0.9285 -0.4026
  117TMC2    C6 1821   2.089   3.837  14.070  0.8634 -0.0094 -0.4058
  117TMC2     C 1822   1.758   3.625  13.954 -0.4412  0.5105 -0.7059
  117TMC2     O 1823   1.753   3.510  14.000 -0.2990  0.3395 -0.0103
  117TMC2     H 1824   2.022   3.539  13.955 -0.4778  0.1140 -0.9568
  117TMC2    H1 1825   1.749   3.864  14.032  0.2864  2.0164  0.4548
  117TMC2    H2 1826   2.172   3.906  14.085  1.9063 -1.4686  0.5031
  117TMC2    C7 1827   1.942   4.036  14.082  0.3701 -0.0308  0.8932
  117TMC2    C8 1828   2.240   3.668  13.989  0.0122 -0.7113  0.8227
  117TMC2    O1 1829   1.932   4.091  13.975  0.7112  0.7004  0.2832
  117TMC2    O2 1830   2.261   3.578  13.910 -0.1976  0.2579 -0.0964
  117TMC2    O5 1831   2.331   3.734  14.067 -0.0472 -0.1552 -0.3315
  117TMC2    H5 1832   2.292   3.780  14.144 -2.4979  1.1358 -2.3570
  118MPD2     C 1833   2.016   4.240  14.375 -0.0319  0.1491 -0.3369
  118MPD2    C1 1834   1.981   4.221  14.241  0.4304 -0.1987 -0.4949
  118MPD2    C2 1835   1.987   4.328  14.152 -0.0242 -0.2950  0.0832
  118MPD2    C3 1836   2.023   4.453  14.197  0.5858 -0.5217  0.1752
  118MPD2    C4 1837   2.068   4.468  14.330 -0.7574  0.2087 -1.0492
  118MPD2    C5 1838   2.053   4.363  14.417  0.2377  0.1188 -0.0494
  118MPD2     H 1839   1.973   4.307  14.046 -0.0542 -0.3153  0.0913
  118MPD2    H1 1840   2.103   4.562  14.372  0.6412 -0.6637 -0.2461
  118MPD2    H2 1841   2.012   4.163  14.451 -0.6650  1.2856  0.7832
  118MPD2    H3 1842   2.088   4.384  14.518 -0.7094  3.1032 -0.3587
  118MPD2     N 1843   2.032   4.564  14.112  0.6060  0.7637  0.0615
  118MPD2    H5 1844   2.076   4.651  14.141  1.9579 -0.4617  1.6544
  118MPD2    N1 1845   1.965   4.082  14.207  0.3359  0.1064 -0.1648
  118MPD2    H7 1846   1.971   4.020  14.288  1.0328 -1.6479 -1.5616
  119TMC2    C1 1847   4.515   0.226  13.282  0.2958  0.5955  0.1554
  119TMC2    C2 1848   4.584   0.170  13.173 -0.4152 -0.0175 -0.4852
  119TMC2    C3 1849   4.517   0.130  13.067  0.4866  0.3745 -0.0949
  119TMC2    C4 1850   4.377   0.234  13.279 -0.0483  0.2580 -0.1837
  119TMC2    C5 1851   4.314   0.191  13.169  0.1647  0.7138  0.3686
  119TMC2    C6 1852   4.379   0.144  13.056  0.5444 -0.3001  0.2683
  119TMC2     C 1853   4.589   0.285  13.387  0.4973  0.6953 -0.0294
  119TMC2     O 1854   4.526   0.355  13.465 -0.1722  0.0821 -0.2198
  119TMC2     H 1855   4.692   0.176  13.169 -0.4778 -0.5476 -2.9057
  119TMC2    H1 1856   4.320   0.235  13.372 -0.0455 -1.2260 -0.1666
  119TMC2    H2 1857   4.319   0.110  12.972 -0.8533  1.5536  0.5239
  119TMC2    C7 1858   4.167   0.188  13.155 -0.3046 -0.3138 -0.0665
  119TMC2    C8 1859   4.588   0.086  12.951  0.1582  0.6263  0.3960
  119TMC2    O1 1860   4.128   0.205  13.041  0.0366  0.1077  0.5738
  119TMC2    O2 1861   4.693   0.128  12.912 -0.3594  0.3939  0.0681
  119TMC2    O5 1862   4.505   0.001  12.890  0.2148  0.2992 -0.1614
  119TMC2    H5 1863   4.440   4.699  12.952  3.1395 -1.9010  1.4932
  120MPD2     C 1864   0.297   0.498  13.569  0.1009 -0.4009 -0.1060
  120MPD2    C1 1865   0.161   0.529  13.569  0.0574  0.8280  0.6316
  120MPD2    C2 1866   0.061   0.457  13.502  0.6031 -0.4818 -0.2729
  120MPD2    C3 1867   0.092   0.342  13.439 -1.2988  0.0333  0.4076
  120MPD2    C4 1868   0.225   0.302  13.432 -0.6160 -0.3355  0.3871
  120MPD2    C5 1869   0.325   0.382  13.498  0.4537 -0.0295 -0.9961
  120MPD2     H 1870   4.696   0.495  13.494 -0.5369 -3.4946 -0.4074
  120MPD2    H1 1871   0.248   0.206  13.385  0.4917 -0.0238  0.2835
  120MPD2    H2 1872   0.379   0.551  13.615  1.9684 -3.0367 -0.3667
  120MPD2    H3 1873   0.431   0.359  13.492 -0.0779 -3.0702  0.9958
  120MPD2     N 1874   4.724   0.265  13.377 -0.2583  0.9385 -0.7088
  120MPD2    H5 1875   0.010   0.170  13.347  2.2567  1.7875 -1.4976
  120MPD2    N1 1876   0.123   0.637  13.653  0.7785  0.3418 -0.3593
  120MPD2    H7 1877   0.195   0.705  13.676  0.9874 -0.8864  2.6800
  121TMC2    C1 1878   1.093   2.508  14.289  0.2270  0.2077 -0.7738
  121TMC2    C2 1879   1.226   2.496  14.324 -0.4161 -0.9088  0.2593
  121TMC2    C3 1880   1.264   2.379  14.388 -0.4098 -0.0789  0.5221
  121TMC2    C4 1881   0.998   2.421  14.326  0.3032  0.2365 -0.1953
  121TMC2    C5 1882   1.038   2.310  14.398 -0.1781 -0.3552  0.1883
  121TMC2    C6 1883   1.166   2.292  14.430  0.5204 -0.2094  0.0011
  121TMC2     C 1884   1.047   2.602  14.198  0.8921  0.3514  1.2174
  121TMC2     O 1885   0.938   2.656  14.219 -0.3205 -0.3137 -0.6048
  121TMC2     H 1886   1.300   2.568  14.289 -1.9133  0.6681  0.3409
  121TMC2    H1 1887   0.902   2.424  14.276  1.0445 -3.4699 -1.8245
  121TMC2    H2 1888   1.191   2.207  14.493 -0.2808 -1.0771 -0.8628
  121TMC2    C7 1889   0.942   2.215  14.440 -0.4204  0.3095  0.2921
  121TMC2    C8 1890   1.386   2.373  14.465  0.0825 -0.3143 -0.5785
  121TMC2    O1 1891   0.990   2.134  14.523  0.3194  0.2315  0.6065
  121TMC2    O2 1892   1.404   2.289  14.555 -0.4005  0.6294  0.3332
  121TMC2    O5 1893   1.462   2.483  14.455 -0.5637  0.8772  0.9100
  121TMC2    H5 1894   1.431   2.550  14.391 -0.5477 -0.5191 -0.5603
  122MPD2     C 1895   1.027   2.807  13.987  0.2151 -0.0581 -0.1205
  122MPD2    C1 1896   1.112   2.695  13.973 -0.0974  0.0329  0.8695
  122MPD2    C2 1897   1.178   2.687  13.853 -0.2176 -0.6776 -0.0020
  122MPD2    C3 1898   1.155   2.774  13.748  0.1187 -0.2698  0.9839
  122MPD2    C4 1899   1.072   2.880  13.766 -0.1438  0.5814 -0.3764
  122MPD2    C5 1900   1.008   2.897  13.890 -0.2288  0.1954 -0.4345
  122MPD2     H 1901   1.237   2.599  13.829  3.0126  1.5174 -0.1547
  122MPD2    H1 1902   1.021   2.932  13.686  0.4213  2.9004  0.7773
  122MPD2    H2 1903   0.959   2.827  14.068 -0.7973 -0.0338 -0.9766
  122MPD2    H3 1904   0.923   2.964  13.900  0.4118  1.1023 -1.0319
  122MPD2     N 1905   1.217   2.756  13.621  0.0294  0.5714  0.2045
  122MPD2    H5 1906   1.193   2.817  13.543 -0.4469 -2.0437 -1.6880
  122MPD2    N1 1907   1.120   2.597  14.073  0.6613  0.3284  0.1613
  122MPD2    H7 1908   1.192   2.525  14.070 -0.4374 -0.7603 -0.2517
  123TMC2    C1 1909   0.547   4.545  10.194 -0.6228  0.5981  0.3405
  123TMC2    C2 1910   0.664   4.541  10.266  0.3097 -0.0664 -0.1768
  123TMC2    C3 1911   0.745   4.435  10.223  0.1597  0.3827  0.5814
  123TMC2    C4 1912   0.511   4.456  10.100  0.4372  0.1680  0.2690
  123TMC2    C5 1913   0.594   4.349  10.071  0.1008  0.4578 -0.4947
  123TMC2    C6 1914   0.715   4.337  10.137  0.5703 -0.2901 -0.5810
  123TMC2     C 1915   0.457   4.657  10.216 -0.4697 -0.5224 -0.1349
  123TMC2     O 1916   0.506   0.026  10.249  0.1516 -0.0246  0.0936
  123TMC2     H 1917   0.689   4.613  10.343  0.4132  0.1229 -0.3860
  123TMC2    H1 1918   0.422   4.474  10.041 -0.4026  0.1297  1.5224
  123TMC2    H2 1919   0.784   4.259  10.109 -1.2577 -1.7302 -1.0808
  123TMC2    C7 1920   0.532   4.248   9.995  0.7721 -0.5364  0.3391
  123TMC2    C8 1921   0.872   4.416  10.279 -1.2032  0.0931  0.1098
  123TMC2    O1 1922   0.411   4.240  10.005  0.7316  0.1727 -0.6310
  123TMC2    O2 1923   0.917   4.306  10.313 -0.8338 -0.1173  0.2525
  123TMC2    O5 1924   0.937   4.533  10.295  0.7941  0.3889 -0.3323
  123TMC2    H5 1925   0.880   4.611  10.276 -3.7944 -2.8619 -0.1431
  124MPD2     C 1926   4.711   0.101  10.250 -0.1746 -0.5752  0.0832
  124MPD2    C1 1927   4.713   4.700  10.231 -0.0151 -0.7468  0.3202
  124MPD2    C2 1928   0.100   4.629  10.231 -0.3148 -0.4746  0.2211
  124MPD2    C3 1929   0.221   4.696  10.237 -0.4503  0.3011  0.3855
  124MPD2    C4 1930   0.217   0.094  10.260 -0.2447  0.1063 -0.2542
  124MPD2    C5 1931   0.094   0.163  10.264 -0.2572 -0.2293  0.3085
  124MPD2     H 1932   0.102   4.521  10.230 -0.3724 -0.4410 -2.8315
  124MPD2    H1 1933   0.308   0.152  10.272 -0.6230  0.7167 -0.3222
  124MPD2    H2 1934   4.621   0.161  10.258 -0.7348 -1.1873 -1.6639
  124MPD2    H3 1935   0.103   0.269  10.286  2.7291  0.1287 -2.5546
  124MPD2     N 1936   0.333   4.615  10.220  0.7796  0.4857 -0.3141
  124MPD2    H5 1937   0.305   4.519  10.202 -0.2807  0.9013 -0.9059
  124MPD2    N1 1938   4.588   4.634  10.213  0.4146  0.7084  0.2136
  124MPD2    H7 1939   4.507   4.695  10.211 -1.2549 -1.5381 -2.6314
  125TMC2    C1 1940   0.394   2.380  10.041  0.9810  0.2523  0.0370
  125TMC2    C2 1941   0.319   2.344  10.146 -0.1110  0.2898  0.5427
  125TMC2    C3 1942   0.354   2.228  10.207 -0.0825  0.3124 -0.2587
  125TMC2    C4 1943   0.483   2.293   9.967  0.4457 -0.0713  0.0195
  125TMC2    C5 1944   0.496   2.164  10.024  0.0677 -0.2895 -0.0442
  125TMC2    C6 1945   0.425   2.129  10.139  0.2882  0.0517 -0.3340
  125TMC2     C 1946   0.345   2.501   9.974  0.3217 -0.3703  0.8589
  125TMC2     O 1947   0.253   2.564  10.030 -0.4654 -0.2429  0.2978
  125TMC2     H 1948   0.240   2.400  10.195  1.4311 -0.0329  3.3987
  125TMC2    H1 1949   0.555   2.335   9.898 -0.8209  0.8097 -0.7670
  125TMC2    H2 1950   0.439   2.029  10.179  1.3155  0.6072  0.6932
  125TMC2    C7 1951   0.622   2.087   9.985 -0.2149 -0.1731  0.0252
  125TMC2    C8 1952   0.273   2.185  10.317 -0.4291  0.1262  0.2300
  125TMC2    O1 1953   0.658   1.995  10.058  0.5595 -0.1959 -0.7666
  125TMC2    O2 1954   0.177   2.239  10.366  0.1058  0.0940 -0.0685
  125TMC2    O5 1955   0.335   2.088  10.387  0.0935  0.4194  0.3813
  125TMC2    H5 1956   0.428   2.065  10.364  0.8609  1.9996  1.9289
  126MPD1     C 1957   0.191   2.672   9.514  0.1817 -0.3122 -0.1499
  126MPD1    C1 1958   0.329   2.670   9.511  0.3478  0.0774 -0.5625
  126MPD1    C2 1959   0.402   2.628   9.627 -0.1289  0.3264 -1.2995
  126MPD1    C3 1960   0.334   2.591   9.746 -0.6264 -1.0465 -0.8746
  126MPD1    C4 1961   0.194   2.611   9.749 -0.4661 -0.0072 -0.5387
  126MPD1    C5 1962   0.132   2.651   9.634 -0.2461 -0.1525  0.3730
  126MPD1     H 1963   0.510   2.627   9.627 -0.1056  2.6559  0.0155
  126MPD1    H1 1964   0.128   2.588   9.832  1.9131  0.4673  1.4672
  126MPD1    H2 1965   0.133   2.699   9.427  1.5958  0.3015 -0.9049
  126MPD1    H3 1966   0.024   2.658   9.647 -0.3820 -1.9250  0.2566
  126MPD1     N 1967   0.404   2.523   9.847  0.0853  0.0065  0.1008
  126MPD1    H5 1968   0.501   2.494   9.839  0.2004  0.1162  1.0865
  126MPD1    N1 1969   0.398   2.690   9.391 -0.5080  0.0055 -0.7517
  126MPD1    H6 1970   0.344   2.748   9.327  1.1630  1.3835 -0.9288
  126MPD1    H7 1971   0.492   2.728   9.399 -1.3204  2.2016 -1.3959
  127TMC2    C1 1972   1.731   0.926   9.946 -0.0290  0.1492 -0.7417
  127TMC2    C2 1973   1.821   1.003  10.021 -0.2853  0.1582 -0.1256
  127TMC2    C3 1974   1.862   0.950  10.139 -0.2004 -0.6209 -0.2336
  127TMC2    C4 1975   1.691   0.796   9.988  0.7255  0.3981 -0.2089
  127TMC2    C5 1976   1.736   0.754  10.110  0.6228 -0.2427 -0.2345
  127TMC2    C6 1977   1.829   0.825  10.186  0.4484 -0.2522 -1.0149
  127TMC2     C 1978   1.672   0.989   9.831 -0.8097  0.7217  0.0030
  127TMC2     O 1979   1.703   1.107   9.810  0.0820  0.5409  0.2460
  127TMC2     H 1980   1.847   1.101   9.983 -0.1704 -0.5226 -1.8109
  127TMC2    H1 1981   1.619   0.734   9.937  1.0760 -0.0304 -0.1854
  127TMC2    H2 1982   1.879   0.778  10.270 -0.5738  1.3582  0.5067
  127TMC2    C7 1983   1.687   0.632  10.172 -0.5658  0.1784 -0.9929
  127TMC2    C8 1984   1.935   1.037  10.229 -0.1902 -0.6323 -0.3676
  127TMC2    O1 1985   1.770   0.588  10.247 -0.4330  0.1652  0.2906
  127TMC2    O2 1986   1.934   1.025  10.354 -0.7319  0.4831  0.2926
  127TMC2    O5 1987   2.004   1.131  10.163 -0.0149 -0.2895 -0.1542
  127TMC2    H5 1988   1.997   1.134  10.065 -0.4156  2.8806 -0.0132
  128MPD2     C 1989   1.378   0.896   9.628  0.1990 -0.3255  0.0559
  128MPD2    C1 1990   1.500   0.952   9.658 -0.2422 -0.6406  0.4040
  128MPD2    C2 1991   1.557   1.042   9.571  0.0302 -0.6612  0.2612
  128MPD2    C3 1992   1.501   1.073   9.450  0.3281  0.0377  0.1476
  128MPD2    C4 1993   1.373   1.016   9.424  0.1103  0.1062 -0.0819
  128MPD2    C5 1994   1.318   0.926   9.511 -0.2785 -0.4095  0.1979
  128MPD2     H 1995   1.653   1.087   9.593 -0.7613  0.7742  0.7572
  128MPD2    H1 1996   1.319   1.024   9.331  2.4233 -0.5436 -1.4702
  128MPD2    H2 1997   1.331   0.825   9.696  1.6378 -1.5717 -0.2366
  128MPD2    H3 1998   1.225   0.879   9.482  0.9052 -1.5714 -1.7283
  128MPD2     N 1999   1.567   1.171   9.372  0.4837 -0.0661  0.0187
  128MPD2    H5 2000   1.664   1.186   9.400  0.3511 -1.2272  1.1337
  128MPD2    N1 2001   1.567   0.919   9.776  0.0264 -0.0912  0.0910
  128MPD2    H7 2002   1.535   0.843   9.836 -0.0170 -0.6007 -0.5801
  129TMC2    C1 2003   0.506   1.254   1.306  0.1256  0.1168  0.2820
  129TMC2    C2 2004   0.487   1.363   1.379 -0.1061  0.3245  0.3176
  129TMC2    C3 2005   0.372   1.370   1.450  0.3227  0.2406 -0.7595
  129TMC2    C4 2006   0.416   1.153   1.310 -0.0517  0.0600 -0.1352
  129TMC2    C5 2007   0.316   1.151   1.399  0.0932 -0.4181  0.0025
  129TMC2    C6 2008   0.280   1.270   1.458  0.3728 -0.7108  0.1141
  129TMC2     C 2009   0.614   1.246   1.207  0.2497  0.1485 -0.0696
  129TMC2     O 2010   0.612   1.150   1.130  0.6081  0.2298  0.2252
  129TMC2     H 2011   0.542   1.456   1.373  1.7567 -0.7496  0.4344
  129TMC2    H1 2012   0.457   1.067   1.258 -0.8938 -0.3504 -0.1215
  129TMC2    H2 2013   0.202   1.285   1.532  0.3000  0.5406 -0.2133
  129TMC2    C7 2014   0.214   1.061   1.380 -0.7413 -0.0494  0.3223
  129TMC2    C8 2015   0.344   1.489   1.525  0.1254  0.2555 -0.1275
  129TMC2    O1 2016   0.098   1.086   1.415 -0.3355 -0.5073  0.0772
  129TMC2    O2 2017   0.228   1.518   1.558  0.4226  0.6718 -0.5681
  129TMC2    O5 2018   0.448   1.520   1.607 -0.0977 -0.1651  0.4453
  129TMC2    H5 2019   0.537   1.487   1.585 -0.4646 -0.1973 -1.0032
  130MPD2     C 2020   0.847   1.292   1.038  0.6090  0.5194  0.1031
  130MPD2    C1 2021   0.806   1.382   1.139 -0.6981  0.3505 -0.7338
  130MPD2    C2 2022   0.872   1.505   1.150 -0.7857  0.5317  0.0450
  130MPD2    C3 2023   0.992   1.525   1.080  0.0310 -0.0700 -0.2811
  130MPD2    C4 2024   1.029   1.432   0.987  0.4444 -0.0410  0.4671
  130MPD2    C5 2025   0.948   1.332   0.955 -0.5443  0.1700 -0.4680
  130MPD2     H 2026   0.840   1.567   1.234 -1.9913 -1.0099  0.7219
  130MPD2    H1 2027   1.114   1.437   0.919  0.6285  2.3328  0.8447
  130MPD2    H2 2028   0.801   1.199   1.011 -2.1664  1.5091  1.4129
  130MPD2    H3 2029   0.998   1.268   0.882  1.9214  0.7254  0.7219
  130MPD2     N 2030   1.061   1.645   1.110 -0.1461  0.2284 -0.5024
  130MPD2    H5 2031   1.007   1.714   1.161  1.3061  1.5621 -0.7653
  130MPD2    N1 2032   0.694   1.356   1.212  0.1716  0.0758 -0.2440
  130MPD2    H7 2033   0.672   1.427   1.281 -4.1070 -0.6040 -0.9402
  131TMC2    C1 2034   4.101   0.643  10.092 -0.8156  0.2878 -0.4743
  131TMC2    C2 2035   3.980   0.709  10.086 -0.1493 -0.4037 -0.3171
  131TMC2    C3 2036   3.991   0.847  10.071  0.1137 -0.5369 -0.2674
  131TMC2    C4 2037   4.218   0.710  10.116 -0.4374  0.1384 -0.1814
  131TMC2    C5 2038   4.221   0.845  10.122  0.3689  0.1833 -0.4345
  131TMC2    C6 2039   4.108   0.915  10.096 -0.2823 -0.1753 -0.3866
  131TMC2     C 2040   4.106   0.496  10.080  0.5056 -0.2706 -0.0512
  131TMC2     O 2041   4.215   0.444  10.087  0.0222  0.1676 -0.0040
  131TMC2     H 2042   3.882   0.665  10.080  0.4183 -1.4666 -1.8278
  131TMC2    H1 2043   4.310   0.653  10.122  0.1265  0.7852 -2.5712
  131TMC2    H2 2044   4.119   1.023  10.087 -1.5932 -0.0824 -0.8816
  131TMC2    C7 2045   4.354   0.914  10.109 -0.2644  0.2290  0.0861
  131TMC2    C8 2046   3.878   0.921  10.101  0.2860 -0.0483  0.4855
  131TMC2    O1 2047   4.435   0.853  10.043  0.0940 -0.2153 -0.1320
  131TMC2    O2 2048   3.837   1.021  10.039  0.2052 -0.4867 -0.4638
  131TMC2    O5 2049   3.866   0.916  10.238 -0.1362 -0.7046  0.3089
  131TMC2    H5 2050   3.921   0.848  10.283  1.4412  1.7111  2.0592
  132MPD2     C 2051   3.847   0.253   9.971  0.0354  0.1058 -0.5317
  132MPD2    C1 2052   3.970   0.299  10.016  0.0231 -0.5352  0.3174
  132MPD2    C2 2053   4.058   0.204  10.062 -0.4201 -0.0741  0.0487
  132MPD2    C3 2054   4.031   0.070  10.069  0.3595  0.6782 -0.3823
  132MPD2    C4 2055   3.913   0.029  10.018 -0.0719 -0.3178 -0.1623
  132MPD2    C5 2056   3.821   0.117   9.966 -0.2299  0.4637 -0.5761
  132MPD2     H 2057   4.139   0.240  10.124  0.4625 -1.2981 -0.3882
  132MPD2    H1 2058   3.890   4.660  10.007  0.5395 -0.3554 -1.0834
  132MPD2    H2 2059   3.767   0.309   9.924  0.2462  1.0889  0.2586
  132MPD2    H3 2060   3.732   0.084   9.915 -2.0489  2.8151  1.0679
  132MPD2     N 2061   4.131   4.727  10.132 -0.1912  0.3772 -0.5847
  132MPD2    H5 2062   4.216   0.042  10.152 -2.1890  1.9541  3.8038
  132MPD2    N1 2063   3.988   0.440  10.037 -0.3605 -0.4700 -0.2923
  132MPD2    H7 2064   3.923   0.503   9.992  0.0569  0.1877  0.0207
  133TMC2    C1 2065   3.596   1.819   9.777  0.5340  0.0547  0.7583
  133TMC2    C2 2066   3.547   1.943   9.745  0.0687  0.2153  0.0550
  133TMC2    C3 2067   3.602   2.046   9.819  0.1184  0.3746  0.0148
  133TMC2    C4 2068   3.689   1.791   9.875 -0.1181  0.1395 -0.2091
  133TMC2    C5 2069   3.744   1.902   9.938 -0.1155 -0.4913  0.0260
  133TMC2    C6 2070   3.687   2.025   9.922 -0.5860  0.2838  0.2761
  133TMC2     C 2071   3.557   1.709   9.698 -1.1114  0.2958 -0.6100
  133TMC2     O 2072   3.635   1.617   9.680  0.5366 -0.0699 -0.1566
  133TMC2     H 2073   3.489   1.967   9.657 -2.0083 -1.3596  0.9899
  133TMC2    H1 2074   3.728   1.693   9.900 -0.0524 -0.2203 -1.7501
  133TMC2    H2 2075   3.717   2.101   9.993  1.1163 -0.4505  0.3534
  133TMC2    C7 2076   3.817   1.878  10.056  0.3497  0.6770 -0.0378
  133TMC2    C8 2077   3.515   2.157   9.819  0.0581  0.3991  0.1074
  133TMC2    O1 2078   3.784   1.949  10.149  0.1073 -0.2703 -0.0898
  133TMC2    O2 2079   3.407   2.161   9.759 -0.0052 -0.1134  0.5500
  133TMC2    O5 2080   3.548   2.248   9.911 -0.2625  0.7897 -0.1735
  133TMC2    H5 2081   3.629   2.244   9.965  0.0713  0.6729 -0.6873
  134MPD2     C 2082   3.279   1.683   9.458  0.2001  0.3348 -0.4227
  134MPD2    C1 2083   3.389   1.647   9.530  0.6859 -0.1034  0.0473
  134MPD2    C2 2084   3.424   1.509   9.517 -0.6497  1.0978 -0.4630
  134MPD2    C3 2085   3.358   1.416   9.433 -0.3494  0.2438 -0.7703
  134MPD2    C4 2086   3.247   1.464   9.367 -0.2385 -0.5662  0.3933
  134MPD2    C5 2087   3.225   1.598   9.366  0.0951  0.2909  0.5026
  134MPD2     H 2088   3.499   1.469   9.584 -1.1961  2.5225  0.9933
  134MPD2    H1 2089   3.198   1.406   9.290 -1.9411 -0.1245  1.1506
  134MPD2    H2 2090   3.240   1.784   9.463  3.0711  1.4657 -0.5937
  134MPD2    H3 2091   3.136   1.632   9.313  1.5337  2.4034 -0.5755
  134MPD2     N 2092   3.391   1.277   9.417 -0.3135  0.5629 -0.1001
  134MPD2    H5 2093   3.328   1.220   9.362 -0.6238 -1.0050  1.8726
  134MPD2    N1 2094   3.443   1.741   9.627  0.7386 -0.0204  0.2314
  134MPD2    H7 2095   3.388   1.824   9.649 -0.2046 -0.6020  0.0983
  135TMC2    C1 2096   1.023   2.408   9.781 -0.5266  0.0230 -0.2024
  135TMC2    C2 2097   1.121   2.328   9.833 -0.1541  0.1518  0.9114
  135TMC2    C3 2098   1.100   2.289   9.969 -0.2801  0.6282 -0.1907
  135TMC2    C4 2099   0.914   2.456   9.851  0.4204 -0.5515 -0.3504
  135TMC2    C5 2100   0.896   2.415   9.981 -0.2885 -0.3682  0.1249
  135TMC2    C6 2101   0.992   2.332  10.037  0.2903  0.5169  0.0819
  135TMC2     C 2102   1.047   2.488   9.662  0.2416  0.4726 -0.3974
  135TMC2     O 2103   0.980   2.590   9.644  0.2532 -0.2734 -0.0610
  135TMC2     H 2104   1.211   2.300   9.779 -1.4951 -0.2751 -1.0891
  135TMC2    H1 2105   0.848   2.512   9.787 -1.0177 -3.1688 -1.1426
  135TMC2    H2 2106   0.979   2.294  10.138 -1.6012  1.3744  0.1671
  135TMC2    C7 2107   0.772   2.456  10.048  0.2693 -0.0699 -0.3113
  135TMC2    C8 2108   1.191   2.184  10.023 -0.1227 -0.3563  0.2465
  135TMC2    O1 2109   0.692   2.530   9.988 -0.2698 -0.5979 -0.5033
  135TMC2    O2 2110   1.257   2.114   9.945  0.2349  0.2813 -0.1851
  135TMC2    O5 2111   1.207   2.196  10.154 -0.0625 -0.6210  0.1177
  135TMC2    H5 2112   1.153   2.273  10.184  0.7782 -0.2783  0.7556
  136MPD2     C 2113   1.097   2.574   9.383  0.0062  0.7510  0.0189
  136MPD2    C1 2114   1.158   2.463   9.442 -0.3242  0.0871 -0.0638
  136MPD2    C2 2115   1.246   2.383   9.374 -1.1302  0.5208  0.3191
  136MPD2    C3 2116   1.286   2.413   9.245  0.0169  0.0846 -0.3558
  136MPD2    C4 2117   1.233   2.529   9.187 -0.1305  0.1217 -0.0249
  136MPD2    C5 2118   1.138   2.602   9.256 -0.4238  0.0224 -0.0741
  136MPD2     H 2119   1.290   2.297   9.423 -2.2319  0.4560  1.1836
  136MPD2    H1 2120   1.261   2.567   9.090 -0.3341  2.0153  0.6499
  136MPD2    H2 2121   1.035   2.648   9.433 -0.3824  1.6607 -1.8063
  136MPD2    H3 2122   1.122   2.697   9.205 -0.1871  0.2314  0.2434
  136MPD2     N 2123   1.390   2.341   9.177  0.0798  0.3954  0.8008
  136MPD2    H5 2124   1.410   2.382   9.087  1.0599 -0.9659  0.4185
  136MPD2    N1 2125   1.130   2.417   9.577 -0.3337  0.4412  0.5284
  136MPD2    H7 2126   1.174   2.332   9.611 -1.0377  0.3913  1.3380
  137TMC2    C1 2127   0.672   1.697   9.659  0.2058 -0.7053 -0.2239
  137TMC2    C2 2128   0.738   1.718   9.546  0.1326 -0.0318  0.6395
  137TMC2    C3 2129   0.693   1.813   9.461  0.3106  0.4400  0.9076
  137TMC2    C4 2130   0.559   1.770   9.688 -1.0226  0.1715 -0.2753
  137TMC2    C5 2131   0.518   1.860   9.602  0.8041  0.1521  0.0562
  137TMC2    C6 2132   0.580   1.886   9.481 -0.8039 -0.0472 -0.1828
  137TMC2     C 2133   0.695   1.570   9.727  0.0081 -0.0438  0.0859
  137TMC2     O 2134   0.810   1.526   9.731  0.3667 -0.1372 -0.0639
  137TMC2     H 2135   0.827   1.657   9.538  0.8160  1.1847 -0.9377
  137TMC2    H1 2136   0.523   1.755   9.789  0.7980 -0.5790  0.2720
  137TMC2    H2 2137   0.547   1.972   9.424 -1.2083  1.2866  2.0534
  137TMC2    C7 2138   0.435   1.968   9.656 -0.0256  0.1381 -0.2698
  137TMC2    C8 2139   0.781   1.858   9.355  0.9765  0.4734 -0.0556
  137TMC2    O1 2140   0.459   2.077   9.606 -0.6212 -0.1931 -0.5836
  137TMC2    O2 2141   0.889   1.804   9.327 -0.4167 -0.2611  0.4374
  137TMC2    O5 2142   0.735   1.943   9.258  0.5956 -0.0630  0.0969
  137TMC2    H5 2143   0.645   1.972   9.285  0.1065 -1.5882  0.0811
  138MPD2     C 2144   0.432   1.384   9.912 -1.0952  0.1326 -0.0409
  138MPD2    C1 2145   0.564   1.427   9.878 -0.0742  0.1110  0.3977
  138MPD2    C2 2146   0.672   1.379   9.952  0.1187  0.4624 -0.2620
  138MPD2    C3 2147   0.650   1.291  10.059 -0.0036 -0.7701 -0.3284
  138MPD2    C4 2148   0.526   1.255  10.095 -0.2435 -0.3282  0.4848
  138MPD2    C5 2149   0.416   1.300  10.024 -0.1699  0.3206  0.1380
  138MPD2     H 2150   0.771   1.418   9.936  0.1508  0.6488  0.3987
  138MPD2    H1 2151   0.508   1.183  10.174  1.8493  0.3797  1.5965
  138MPD2    H2 2152   0.346   1.434   9.869 -2.0181 -0.7635  0.7538
  138MPD2    H3 2153   0.316   1.268  10.053 -0.4787  0.0767 -1.2198
  138MPD2     N 2154   0.760   1.257  10.137 -0.5925  0.5931  0.2909
  138MPD2    H5 2155   0.848   1.299  10.108 -0.3566 -0.1284 -0.0211
  138MPD2    N1 2156   0.579   1.523   9.777  0.4815  0.3110 -0.3513
  138MPD2    H7 2157   0.491   1.570   9.762  0.1200 -0.4678 -0.6660
  139TMC2    C1 2158   2.134   0.108  13.222 -0.1329 -0.4121  0.2242
  139TMC2    C2 2159   2.260   0.175  13.223  0.5623 -0.5607 -0.0319
  139TMC2    C3 2160   2.254   0.310  13.210  0.6097  0.4118 -0.3860
  139TMC2    C4 2161   2.016   0.179  13.206  0.6133 -0.1875  0.1562
  139TMC2    C5 2162   2.025   0.320  13.196  0.3471  0.6028  0.2775
  139TMC2    C6 2163   2.141   0.388  13.203 -0.6167  0.6815 -0.5840
  139TMC2     C 2164   2.140   4.705  13.176 -0.5689  0.7551 -0.0398
  139TMC2     O 2165   2.252   4.669  13.140 -0.0678 -0.0624 -0.8538
  139TMC2     H 2166   2.354   0.122  13.235  0.2216 -1.0277  0.5894
  139TMC2    H1 2167   1.919   0.132  13.194 -0.3719  1.4375  1.8192
  139TMC2    H2 2168   2.142   0.495  13.191 -1.7614  0.6191 -1.2635
  139TMC2    C7 2169   1.901   0.406  13.194 -0.3773  0.5981  0.0785
  139TMC2    C8 2170   2.383   0.376  13.203  0.1100 -0.1530 -0.0551
  139TMC2    O1 2171   1.920   0.525  13.221  0.5576 -0.3435 -0.6193
  139TMC2    O2 2172   2.398   0.491  13.163 -0.0444 -0.4466 -0.8441
  139TMC2    O5 2173   2.465   0.316  13.293  0.0922 -0.0800  0.3129
  139TMC2    H5 2174   2.448   0.228  13.334 -1.0808  0.8412  1.8210
  140MPD2     C 2175   1.899   4.452  13.289 -0.0359 -0.5289  0.1979
  140MPD2    C1 2176   1.999   4.506  13.208  0.9050 -0.3523 -0.0242
  140MPD2    C2 2177   2.070   4.421  13.130  0.6402 -0.2586  0.5066
  140MPD2    C3 2178   2.057   4.282  13.140 -0.4562 -0.0191 -0.3413
  140MPD2    C4 2179   1.971   4.232  13.238  0.6767  0.3852  0.9071
  140MPD2    C5 2180   1.884   4.314  13.310 -0.1609 -0.5020 -0.1205
  140MPD2     H 2181   2.130   4.457  13.047 -0.1701  1.6519  0.7370
  140MPD2    H1 2182   1.969   4.124  13.251 -0.6730  0.3534  0.4976
  140MPD2    H2 2183   1.834   4.514  13.350 -0.6246  0.3783 -1.3651
  140MPD2    H3 2184   1.804   4.276  13.373 -0.7223 -1.2461 -1.3022
  140MPD2     N 2185   2.145   4.198  13.066  0.3317 -0.0584  0.1638
  140MPD2    H5 2186   2.203   4.252  13.002 -1.4335 -1.9410 -3.0242
  140MPD2    N1 2187   2.023   4.644  13.209  0.3584 -0.1004  0.5658
  140MPD2    H7 2188   1.964   4.692  13.276  0.7690  0.2325  0.6923
  141TMC2    C1 2189   1.632   1.266  14.292  0.0803 -0.5487  0.4325
  141TMC2    C2 2190   1.639   1.142  14.342 -0.0140  0.8670 -0.4728
  141TMC2    C3 2191   1.710   1.122  14.457 -0.4794 -0.5204  0.4997
  141TMC2    C4 2192   1.707   1.368  14.351  0.4746  0.4735 -0.0230
  141TMC2    C5 2193   1.774   1.346  14.461 -0.2771  0.4819  0.3804
  141TMC2    C6 2194   1.771   1.223  14.516  0.4942  0.0196 -0.0676
  141TMC2     C 2195   1.615   1.288  14.149  0.3874  0.2633 -0.1918
  141TMC2     O 2196   1.582   1.403  14.115  0.7344 -0.1010  0.3177
  141TMC2     H 2197   1.598   1.052  14.298 -0.8361  0.2047  1.6066
  141TMC2    H1 2198   1.716   1.463  14.300 -1.2986  0.3481 -0.5632
  141TMC2    H2 2199   1.838   1.205  14.600  0.5359  0.6174  0.0234
  141TMC2    C7 2200   1.862   1.450  14.518 -0.0600  0.3144 -0.4330
  141TMC2    C8 2201   1.743   0.984  14.490 -0.7128 -0.5752  0.4002
  141TMC2    O1 2202   1.922   1.424  14.621  0.3261 -0.3511  0.2409
  141TMC2    O2 2203   1.732   0.879  14.425  0.3655  0.1100  0.1345
  141TMC2    O5 2204   1.785   0.991  14.613 -0.3922 -0.3499  0.0531
  141TMC2    H5 2205   1.771   1.080  14.650  0.3934  0.0599 -0.6354
  142TMC2    C1 2206   4.566   3.989   9.602  0.6316  0.2574  0.7318
  142TMC2    C2 2207   4.558   3.964   9.466 -0.2487 -0.0462 -0.0882
  142TMC2    C3 2208   4.676   3.974   9.398 -0.1727  0.1583  0.3578
  142TMC2    C4 2209   4.679   4.021   9.671 -0.3181 -0.3796  0.3016
  142TMC2    C5 2210   0.057   4.002   9.601  0.4241  0.4367 -0.2264
  142TMC2    C6 2211   0.057   3.994   9.468 -0.4440 -0.0861  0.4027
  142TMC2     C 2212   4.447   3.972   9.681  0.5910 -0.0091  0.2112
  142TMC2     O 2213   4.365   3.895   9.637 -0.1346  0.2727 -0.1202
  142TMC2     H 2214   4.467   3.928   9.418  0.1869 -0.1721 -0.8185
  142TMC2    H1 2215   4.689   4.039   9.778  0.0836  1.9976 -0.1307
  142TMC2    H2 2216   0.144   3.988   9.403 -1.3100 -0.0307 -0.7607
  142TMC2    C7 2217   0.180   4.049   9.654  0.7229  0.5232  0.2704
  142TMC2    C8 2218   4.691   3.908   9.279  0.6497 -0.2600  0.1635
  142TMC2    O1 2219   0.175   4.134   9.743  0.6293 -0.0287 -0.5535
  142TMC2    O2 2220   0.048   3.834   9.242  0.1424 -0.5625  0.1913
  142TMC2    O5 2221   4.584   3.931   9.197 -0.1392  0.6438 -0.0830
  142TMC2    H5 2222   4.526   4.006   9.225 -1.8095 -1.1576  1.2589
  143MPD2     C 2223   4.182   3.985  10.121  0.9443 -0.7402  0.1912
  143MPD2    C1 2224   4.154   3.912  10.003 -0.2062  0.2139 -0.3484
  143MPD2    C2 2225   4.240   3.940   9.898  0.0421 -0.5711 -0.1666
  143MPD2    C3 2226   4.354   4.027   9.908  0.2445 -0.5195  0.2598
  143MPD2    C4 2227   4.375   4.084  10.033 -0.4691  0.2240 -0.1244
  143MPD2    C5 2228   4.291   4.069  10.138 -0.4536 -0.0919  0.2001
  143MPD2     H 2229   4.228   3.884   9.806 -2.6119 -1.6651  0.8322
  143MPD2    H1 2230   4.466   4.143  10.043  0.6401 -1.1752 -1.9023
  143MPD2    H2 2231   4.119   3.971  10.208  1.1438  1.0518  0.6201
  143MPD2    H3 2232   4.312   4.112  10.235 -2.8359 -0.0902  0.7059
  143MPD2     N 2233   4.450   4.037   9.804  0.2622 -0.1216  0.3666
  143MPD2    H5 2234   4.524   4.102   9.828  2.7354 -3.3283  1.3609
  143MPD2    N1 2235   4.044   3.816   9.997 -0.3538 -0.7210 -0.2185
  143MPD2    H7 2236   3.996   3.802  10.085  0.9382 -2.4393  0.2075
  144TMC2    C1 2237   2.484   3.737   0.805  0.5002  0.4773 -0.1720
  144TMC2    C2 2238   2.591   3.823   0.800  0.2928 -0.4112  0.2123
  144TMC2    C3 2239   2.612   3.913   0.900  0.6791  0.2551  0.2653
  144TMC2    C4 2240   2.404   3.729   0.920 -0.2464  0.0798  1.3280
  144TMC2    C5 2241   2.427   3.827   1.017 -0.1978  0.5202 -0.2680
  144TMC2    C6 2242   2.534   3.919   1.011 -0.1567  0.0906 -0.4547
  144TMC2     C 2243   2.426   3.700   0.682 -0.4758 -0.1743 -0.0138
  144TMC2     O 2244   2.391   3.584   0.681  0.6761  0.6027 -0.4729
  144TMC2     H 2245   2.642   3.826   0.704  1.0468 -0.8396  0.6020
  144TMC2    H1 2246   2.326   3.656   0.933 -1.7278  1.4939  0.3721
  144TMC2    H2 2247   2.556   3.989   1.091  2.1083 -0.4255 -0.6364
  144TMC2    C7 2248   2.318   3.843   1.120  0.2247  0.0643  0.5476
  144TMC2    C8 2249   2.714   4.018   0.890  0.1716  0.3780 -0.0796
  144TMC2    O1 2250   2.259   3.739   1.132  0.4601  0.0988 -0.5385
  144TMC2    O2 2251   2.834   4.000   0.870 -0.2778 -0.1283  0.6023
  144TMC2    O5 2252   2.663   4.133   0.925 -0.0709  0.2322 -0.5401
  144TMC2    H5 2253   2.569   4.134   0.955  0.0095 -0.0259 -0.2781
  145MPD2     C 2254   2.163   3.802   0.271 -0.0351  0.2801 -1.5666
  145MPD2    C1 2255   2.225   3.683   0.309 -0.7636  0.3087 -0.1303
  145MPD2    C2 2256   2.309   3.680   0.417 -0.7369  0.4109  0.3636
  145MPD2    C3 2257   2.329   3.801   0.485 -0.1208 -0.2245  0.2631
  145MPD2    C4 2258   2.281   3.924   0.437 -0.0915  0.1706  0.0245
  145MPD2    C5 2259   2.197   3.921   0.326 -1.2945  0.4817  0.3327
  145MPD2     H 2260   2.348   3.583   0.446 -0.3726  0.4542  0.0087
  145MPD2    H1 2261   2.302   4.019   0.485  0.9322  0.0922 -0.2695
  145MPD2    H2 2262   2.097   3.814   0.186 -1.8239 -1.4379 -0.4176
  145MPD2    H3 2263   2.152   4.010   0.286 -0.7145  0.7624  0.3005
  145MPD2     N 2264   2.408   3.804   0.600  0.2309 -0.2924 -0.8037
  145MPD2    H5 2265   2.428   3.898   0.633  0.3401 -0.3475 -0.7095
  145MPD2    N1 2266   2.199   3.565   0.247 -0.7628  0.5350 -0.3629
  145MPD2    H7 2267   2.255   3.481   0.261  0.2342  1.2624  0.0165
  146TMC2    C1 2268   4.237   2.864  12.550 -0.3656 -0.4566  0.1392
  146TMC2    C2 2269   4.237   2.960  12.454 -0.1295  0.1319 -0.1782
  146TMC2    C3 2270   4.343   2.969  12.367  0.6014 -0.5151 -0.5329
  146TMC2    C4 2271   4.336   2.767  12.551  0.2495 -0.7739  0.1877
  146TMC2    C5 2272   4.436   2.776  12.461  0.4055 -0.2620  0.2016
  146TMC2    C6 2273   4.444   2.880  12.375  0.4861  0.3160  0.4294
  146TMC2     C 2274   4.121   2.846  12.635  0.4267 -0.2621 -0.4030
  146TMC2     O 2275   4.040   2.932  12.632 -0.0538 -0.5135 -0.4002
  146TMC2     H 2276   4.164   3.039  12.443 -0.2550  0.2916  1.7555
  146TMC2    H1 2277   4.330   2.685  12.621  0.0788 -1.9440 -1.1927
  146TMC2    H2 2278   4.517   2.871  12.295 -0.9552  0.3209 -0.8972
  146TMC2    C7 2279   4.557   2.704  12.476  0.4296  0.4741  0.2612
  146TMC2    C8 2280   4.322   3.055  12.251  0.4248 -0.7909 -0.7057
  146TMC2    O1 2281   4.656   2.750  12.426  0.9673 -0.7163  0.0172
  146TMC2    O2 2282   4.221   3.102  12.200 -0.4217 -0.8008 -0.3627
  146TMC2    O5 2283   4.445   3.091  12.214  0.2508 -0.1510  0.6933
  146TMC2    H5 2284   4.513   3.055  12.276  3.0340  1.7205 -1.2752
  147MPD2     C 2285   0.069   2.259  12.570  0.0422 -0.7272 -0.4960
  147MPD2    C1 2286   4.678   2.251  12.626  0.2532 -0.2856 -0.0098
  147MPD2    C2 2287   4.591   2.359  12.609 -0.2609 -0.4399 -0.6570
  147MPD2    C3 2288   4.626   2.472  12.540  0.7361 -0.8381 -0.6017
  147MPD2    C4 2289   0.022   2.483  12.488 -0.1689 -0.1736  0.6374
  147MPD2    C5 2290   0.108   2.372  12.501  0.0619  0.3613 -0.2620
  147MPD2     H 2291   4.496   2.351  12.661  0.1381  0.8052  0.2406
  147MPD2    H1 2292   0.048   2.567  12.426  0.8132 -1.9834 -1.3907
  147MPD2    H2 2293   0.134   2.173  12.573  1.5124  0.4210  0.4394
  147MPD2    H3 2294   0.208   2.372  12.459  0.2252 -0.1762  0.1351
  147MPD2     N 2295   4.531   2.578  12.525  0.4930  0.3025 -0.2158
  147MPD2    H5 2296   4.438   2.548  12.550  0.5132  0.1924 -0.2750
  147MPD2    N1 2297   4.642   2.136  12.701 -0.3677  0.0620 -0.0468
  147MPD2    H7 2298   4.713   2.064  12.697 -0.2200  0.2369 -0.4746
  148TMC2    C1 2299   4.409   1.241  10.762  0.1974  0.0573 -0.1599
  148TMC2    C2 2300   4.523   1.240  10.840  0.1392 -0.1475 -0.6214
  148TMC2    C3 2301   4.628   1.171  10.785 -0.2663 -0.0831 -0.0823
  148TMC2    C4 2302   4.399   1.187  10.633 -0.0964  0.0930  0.4329
  148TMC2    C5 2303   4.498   1.101  10.595  0.9195 -0.5196 -0.2595
  148TMC2    C6 2304   4.610   1.098  10.670 -0.2912 -0.0249  0.1331
  148TMC2     C 2305   4.289   1.276  10.829 -0.4318  0.0256  0.5323
  148TMC2     O 2306   4.308   1.368  10.910 -0.4164 -0.0609  0.2747
  148TMC2     H 2307   4.533   1.292  10.935  3.4527 -0.8568 -0.6153
  148TMC2    H1 2308   4.308   1.190  10.574  0.7359  2.4269 -0.7351
  148TMC2    H2 2309   4.683   1.024  10.639  1.1612  1.6226 -0.3662
  148TMC2    C7 2310   4.435   0.977  10.559 -1.0585 -0.9482 -0.3646
  148TMC2    C8 2311   4.736   1.139  10.879  0.8960  0.3241  0.7407
  148TMC2    O1 2312   4.324   0.960  10.609 -0.5484  0.0884 -0.1327
  148TMC2    O2 2313   0.116   1.118  10.846 -0.2666 -0.0155 -0.4695
  148TMC2    O5 2314   4.672   1.080  10.982  0.2079  0.2882  0.1237
  148TMC2    H5 2315   4.575   1.091  10.993 -0.2842 -3.2580 -0.7282
  149MPD2     C 2316   3.996   1.337  10.868  0.3332 -0.3115 -0.3387
  149MPD2    C1 2317   4.041   1.239  10.781 -0.1659 -0.4996 -0.0898
  149MPD2    C2 2318   3.948   1.160  10.706 -0.3326  0.3328  0.5345
  149MPD2    C3 2319   3.808   1.173  10.725 -0.0744  0.4663  0.0969
  149MPD2    C4 2320   3.766   1.269  10.805 -0.3538  0.5098 -0.4674
  149MPD2    C5 2321   3.858   1.346  10.881  0.4975  0.1597  0.0110
  149MPD2     H 2322   3.990   1.104  10.624  0.0353  1.9210 -0.3654
  149MPD2    H1 2323   3.659   1.283  10.803 -0.5660 -0.3921  3.6118
  149MPD2    H2 2324   4.056   1.399  10.933 -1.5826  1.8019 -0.5669
  149MPD2    H3 2325   3.822   1.430  10.938  2.2235  1.7044 -1.1670
  149MPD2     N 2326   3.710   1.105  10.647  0.8828 -0.6016  0.5842
  149MPD2    H5 2327   3.612   1.127  10.664  0.6293 -0.4157 -1.0857
  149MPD2    N1 2328   4.180   1.214  10.772  0.4099 -0.4407  0.1008
  149MPD2    H7 2329   4.214   1.141  10.710 -0.9222 -1.6604  0.8048
  150TMC2    C1 2330   1.253   4.006  11.292 -0.6213 -1.1170 -0.8629
  150TMC2    C2 2331   1.266   3.942  11.172 -0.0016 -0.3553  0.3160
  150TMC2    C3 2332   1.320   4.012  11.064 -0.2562  0.0188 -0.2982
  150TMC2    C4 2333   1.307   4.131  11.318 -0.5153 -0.1260 -0.4488
  150TMC2    C5 2334   1.368   4.188  11.206  0.7925 -0.2643 -0.3144
  150TMC2    C6 2335   1.372   4.133  11.081 -0.7775  0.4118  0.2404
  150TMC2     C 2336   1.127   3.973  11.351 -0.1197  0.4040  0.7675
  150TMC2     O 2337   1.068   3.874  11.314  0.1747 -0.2795  0.3232
  150TMC2     H 2338   1.220   3.845  11.154 -3.1057  1.3952 -1.1520
  150TMC2    H1 2339   1.317   4.173  11.418 -0.0535  0.9478 -0.9518
  150TMC2    H2 2340   1.417   4.185  10.997 -1.4596 -0.0829 -0.4296
  150TMC2    C7 2341   1.396   4.327  11.214  0.9300 -0.1208  0.3544
  150TMC2    C8 2342   1.335   3.961  10.930  0.3207 -0.8173  0.6424
  150TMC2    O1 2343   1.429   4.379  11.106  0.2223 -0.4434  0.0582
  150TMC2    O2 2344   1.449   3.968  10.887 -0.2670  0.3331  0.4512
  150TMC2    O5 2345   1.254   3.857  10.921 -0.1002  0.0433 -0.0554
  150TMC2    H5 2346   1.164   3.879  10.955  0.4061  2.8822 -0.5185
  151MPD2     C 2347   0.696   4.123  11.591 -0.0919  0.1818 -0.3023
  151MPD2    C1 2348   0.779   4.235  11.582  0.1084 -0.3596  0.3181
  151MPD2    C2 2349   0.905   4.216  11.527 -0.4489  0.7173  0.6289
  151MPD2    C3 2350   0.952   4.087  11.482 -0.0513 -0.1989 -0.4285
  151MPD2    C4 2351   0.868   3.980  11.497  0.8854  0.0650  0.3591
  151MPD2    C5 2352   0.739   4.001  11.542 -0.8585 -0.0495  0.0128
  151MPD2     H 2353   0.971   4.302  11.523  1.7528 -0.9269  1.8411
  151MPD2    H1 2354   0.897   3.882  11.459  0.5228  0.1906 -0.2438
  151MPD2    H2 2355   0.597   4.131  11.635  0.3280  0.7904  0.5331
  151MPD2    H3 2356   0.669   3.918  11.548 -0.1441 -0.7205 -0.8955
  151MPD2     N 2357   1.080   4.078  11.422 -0.7425 -0.0254  0.2090
  151MPD2    H5 2358   1.138   4.161  11.423  1.2825 -1.4068 -1.8639
  151MPD2    N1 2359   0.730   4.367  11.615  0.6776  0.1877 -1.0198
  151MPD2    H7 2360   0.636   4.363  11.653  1.1059 -1.1045 -0.1074
  152TMC2    C1 2361   1.035   4.593  12.751  0.5269  0.0134 -0.6877
  152TMC2    C2 2362   1.127   4.507  12.796  0.3635 -0.1477  0.0566
  152TMC2    C3 2363   1.233   4.490  12.720 -0.0975  0.1028  0.5425
  152TMC2    C4 2364   1.052   4.654  12.626 -0.2218 -0.3841 -0.1914
  152TMC2    C5 2365   1.155   4.615  12.544  0.2380 -0.1896 -0.2311
  152TMC2    C6 2366   1.257   4.550  12.605  0.4035  0.3611  0.2431
  152TMC2     C 2367   0.907   4.611  12.825  0.1730 -0.6155  0.1104
  152TMC2     O 2368   0.831   4.697  12.788 -0.5647  0.0559 -0.2909
  152TMC2     H 2369   1.120   4.460  12.894 -0.1074  2.1482  1.1103
  152TMC2    H1 2370   0.971   4.706  12.576  1.8521  0.8642 -2.2740
  152TMC2    H2 2371   1.334   4.509  12.541  1.4922  1.0686  1.0961
  152TMC2    C7 2372   1.192   4.715  12.448 -0.2582  0.1985 -0.2671
  152TMC2    C8 2373   1.335   4.391  12.762  0.1219  0.1840  0.4906
  152TMC2    O1 2374   1.097   0.022  12.385  0.9467 -0.0842  0.1967
  152TMC2    O2 2375   1.457   4.413  12.772 -0.3225  0.3718 -0.0115
  152TMC2    O5 2376   1.267   4.272  12.787  0.0737  0.3578 -0.5058
  152TMC2    H5 2377   1.171   4.276  12.771 -0.0101  1.7931  0.3389
  153MPD2     C 2378   0.725   4.393  13.047  0.2779  0.2217  0.1206
  153MPD2    C1 2379   0.766   4.513  13.000  0.5864 -0.1079 -0.5686
  153MPD2    C2 2380   0.696   4.628  13.030  0.0512  0.2578 -0.5782
  153MPD2    C3 2381   0.583   4.625  13.104 -0.3917 -0.3145  0.1330
  153MPD2    C4 2382   0.527   4.501  13.140  0.2298 -0.0236  0.1121
  153MPD2    C5 2383   0.605   4.389  13.117  1.1679  0.2750 -0.3989
  153MPD2     H 2384   0.726   4.729  13.005 -0.4711  0.9659  1.5973
  153MPD2    H1 2385   0.435   4.498  13.198  0.1033 -0.4108 -0.1136
  153MPD2    H2 2386   0.771   4.296  13.032 -1.7114 -0.6467 -0.3690
  153MPD2    H3 2387   0.562   4.297  13.155  0.8166 -0.2036 -1.9668
  153MPD2     N 2388   0.512   0.015  13.121 -0.2575  0.1385  0.2626
  153MPD2    H5 2389   0.566   0.098  13.100  0.0924  0.0381  0.7434
  153MPD2    N1 2390   0.882   4.517  12.918  0.2817 -0.2165 -0.3687
  153MPD2    H7 2391   0.943   4.439  12.939  2.0765  1.1579 -0.4751
  154TMC2    C1 2392   1.815   0.380   0.640  0.2846 -0.2659 -0.2917
  154TMC2    C2 2393   1.933   0.411   0.694 -0.6238  0.8145  0.0575
  154TMC2    C3 2394   2.033   0.319   0.675 -0.1788  0.2199 -0.0184
  154TMC2    C4 2395   1.791   0.266   0.567 -0.2468  0.4920 -0.4227
  154TMC2    C5 2396   1.902   0.180   0.553 -0.5672  0.2420  0.0799
  154TMC2    C6 2397   2.025   0.200   0.609 -0.2780  0.0791  0.2662
  154TMC2     C 2398   1.699   0.467   0.678  0.0880  0.0121 -0.3100
  154TMC2     O 2399   1.731   0.546   0.766 -0.8723  0.1813 -0.0650
  154TMC2     H 2400   1.954   0.504   0.745 -1.1437  0.2065  1.3817
  154TMC2    H1 2401   1.692   0.243   0.532 -0.5633 -0.8525  1.3368
  154TMC2    H2 2402   2.107   0.128   0.607  1.1789  1.7967 -1.1702
  154TMC2    C7 2403   1.870   0.066   0.478 -0.3859 -0.2168  0.7292
  154TMC2    C8 2404   2.168   0.355   0.719  0.3708  0.0002 -0.0748
  154TMC2    O1 2405   1.772   0.072   0.397 -0.2498 -0.0943 -0.3804
  154TMC2    O2 2406   2.195   0.474   0.749  0.1361 -0.0198 -0.4660
  154TMC2    O5 2407   2.215   0.246   0.788 -0.4355  0.6156  0.2779
  154TMC2    H5 2408   2.156   0.168   0.778 -0.6878  0.9537 -0.8304
  155MPD2     C 2409   1.337   0.438   0.607  0.1358 -0.4095  0.1643
  155MPD2    C1 2410   1.451   0.497   0.657 -0.6186  0.1695 -0.2807
  155MPD2    C2 2411   1.444   0.608   0.740  0.2312  0.6288  0.0827
  155MPD2    C3 2412   1.319   0.652   0.779 -0.4109 -0.0769 -0.3621
  155MPD2    C4 2413   1.201   0.590   0.736  0.1667  0.0262  0.3510
  155MPD2    C5 2414   1.216   0.487   0.651 -0.9968  0.0558  0.0917
  155MPD2     H 2415   1.530   0.668   0.767  2.6086 -2.0039 -1.7308
  155MPD2    H1 2416   1.102   0.616   0.772 -0.8906 -1.7694 -1.2941
  155MPD2    H2 2417   1.342   0.361   0.532  2.7382  2.2142 -2.3129
  155MPD2    H3 2418   1.122   0.442   0.622 -0.0325 -1.2337 -1.0480
  155MPD2     N 2419   1.320   0.768   0.863 -0.3359  0.2510 -0.1650
  155MPD2    H5 2420   1.411   0.807   0.884 -0.8371  0.4157  1.6870
  155MPD2    N1 2421   1.578   0.436   0.623 -0.1851  0.0144 -0.0221
  155MPD2    H7 2422   1.579   0.356   0.561 -3.4451  0.4792 -0.6863
  156TMC2    C1 2423   0.513   2.467  11.994 -0.1286 -0.3451 -0.2472
  156TMC2    C2 2424   0.404   2.405  12.052 -0.1569 -0.2545  0.1048
  156TMC2    C3 2425   0.288   2.472  12.037 -0.2950  1.0396 -1.8326
  156TMC2    C4 2426   0.507   2.584  11.923 -0.1138 -0.4284  0.1672
  156TMC2    C5 2427   0.379   2.642  11.915  0.5321 -0.1744 -0.2381
  156TMC2    C6 2428   0.264   2.593  11.973  0.3670 -0.1460  0.3882
  156TMC2     C 2429   0.649   2.412  12.004 -0.0091  0.2282  0.0521
  156TMC2     O 2430   0.741   2.488  11.978  0.2210 -0.2452 -0.7255
  156TMC2     H 2431   0.417   2.316  12.112  0.8766 -0.1973 -0.0215
  156TMC2    H1 2432   0.591   2.619  11.864 -0.2142 -1.9828 -0.8839
  156TMC2    H2 2433   0.163   2.630  11.963  0.8113  0.8760 -0.3499
  156TMC2    C7 2434   0.372   2.750  11.818  0.3009  0.3653 -0.0110
  156TMC2    C8 2435   0.162   2.409  12.090  0.7468  0.3934 -0.7609
  156TMC2    O1 2436   0.483   2.789  11.784  0.6013  0.0287 -0.1001
  156TMC2    O2 2437   0.140   2.291  12.071 -0.2653 -0.3062 -0.0473
  156TMC2    O5 2438   0.164   2.462  12.212 -0.1534 -0.1082  0.3681
  156TMC2    H5 2439   0.188   2.556  12.205 -1.0854  0.1878  1.0896
  157MPD2     C 2440   0.765   2.083  12.109  0.6490 -0.3178 -0.4787
  157MPD2    C1 2441   0.767   2.221  12.094  0.0985 -0.0398 -0.0308
  157MPD2    C2 2442   0.877   2.306  12.136 -0.1638  0.0061  0.2379
  157MPD2    C3 2443   0.994   2.245  12.173  0.6193  0.7709  0.0000
  157MPD2    C4 2444   0.996   2.101  12.183  0.4329 -0.4163 -0.3564
  157MPD2    C5 2445   0.886   2.024  12.160  1.0421  0.5914  0.4519
  157MPD2     H 2446   0.877   2.414  12.133  3.1968 -0.0601 -2.8278
  157MPD2    H1 2447   1.096   2.063  12.200  0.9295  0.0370 -2.2674
  157MPD2    H2 2448   0.674   2.032  12.081 -1.2879  2.5055  0.6824
  157MPD2    H3 2449   0.891   1.916  12.164 -2.0875  0.4516  1.0749
  157MPD2     N 2450   1.109   2.325  12.194  0.1712  0.1528 -0.0192
  157MPD2    H5 2451   1.111   2.422  12.164 -0.8704  0.2166  0.1155
  157MPD2    N1 2452   0.651   2.280  12.044 -0.3864  0.7247 -0.0891
  157MPD2    H7 2453   0.573   2.216  12.031 -0.3655  0.5348  0.6801
  158TMC2    C1 2454   1.293   1.926  14.108  0.4837  1.1054 -0.4452
  158TMC2    C2 2455   1.270   2.062  14.099 -0.2920  0.1203  0.0013
  158TMC2    C3 2456   1.208   2.112  13.996 -0.4077  1.1614  0.1907
  158TMC2    C4 2457   1.255   1.846  14.004 -0.2463 -0.3087 -0.1330
  158TMC2    C5 2458   1.195   1.904  13.899  0.4871 -0.0193 -0.0539
  158TMC2    C6 2459   1.157   2.036  13.897  0.9064  0.6865 -0.8482
  158TMC2     C 2460   1.361   1.877  14.231 -0.1546  0.2765 -0.2918
  158TMC2     O 2461   1.418   1.960  14.305  0.5831 -0.5008  0.3953
  158TMC2     H 2462   1.274   2.129  14.184 -1.5843 -1.4452  1.2785
  158TMC2    H1 2463   1.293   1.744  14.001 -0.9346 -0.6153  1.8298
  158TMC2    H2 2464   1.108   2.089  13.816  0.0277  0.5499 -0.3997
  158TMC2    C7 2465   1.193   1.847  13.768  0.1084 -0.2601  0.1581
  158TMC2    C8 2466   1.168   2.255  13.996  0.9918 -0.1751  0.4447
  158TMC2    O1 2467   1.130   1.904  13.678  0.4171 -0.1309 -0.5253
  158TMC2    O2 2468   1.254   2.338  14.031  0.1193 -0.1390  0.0939
  158TMC2    O5 2469   1.056   2.250  14.063 -0.2297  0.1427  0.2084
  158TMC2    H5 2470   1.003   2.184  14.014  0.6017 -0.3122 -0.0812
  159MPD2     C 2471   1.477   1.512  14.565 -0.0139  0.1273  0.0222
  159MPD2    C1 2472   1.387   1.452  14.483  0.1078  0.1110  0.1115
  159MPD2    C2 2473   1.344   1.534  14.372 -0.0367 -0.1038  0.0356
  159MPD2    C3 2474   1.370   1.667  14.361 -0.5112  0.1720  0.6030
  159MPD2    C4 2475   1.423   1.729  14.475 -0.6463 -0.6056 -0.4586
  159MPD2    C5 2476   1.497   1.648  14.562  0.5679  0.3352 -0.6486
  159MPD2     H 2477   1.296   1.487  14.286 -0.6355 -1.2520  0.9973
  159MPD2    H1 2478   1.420   1.833  14.503 -2.1004 -0.6686 -0.4012
  159MPD2    H2 2479   1.531   1.453  14.638 -1.9137  0.1028  1.4274
  159MPD2    H3 2480   1.557   1.703  14.633 -1.8915  0.9442  0.9827
  159MPD2     N 2481   1.328   1.746  14.249 -0.3074  0.0363 -0.3197
  159MPD2    H5 2482   1.274   1.697  14.178 -2.2839  0.4830  0.8738
  159MPD2    N1 2483   1.369   1.316  14.491 -0.1164  0.8009  0.3036
  159MPD2    H7 2484   1.417   1.277  14.571 -0.5812  0.0276  0.2088
  160TMC2    C1 2485   0.472   3.700   1.157  0.1255 -0.1209  1.4196
  160TMC2    C2 2486   0.432   3.618   1.255  0.1018  0.1394  0.3884
  160TMC2    C3 2487   0.526   3.585   1.355 -0.4175 -0.3874 -0.0169
  160TMC2    C4 2488   0.600   3.751   1.145 -0.1366  0.6792 -0.1375
  160TMC2    C5 2489   0.689   3.710   1.244 -0.5879 -0.1703 -0.1510
  160TMC2    C6 2490   0.650   3.630   1.345  0.2677 -0.3036 -0.8069
  160TMC2     C 2491   0.375   3.709   1.054  0.3239  0.0630  0.3625
  160TMC2     O 2492   0.289   3.623   1.029 -0.1472  0.1747 -0.0755
  160TMC2     H 2493   0.325   3.605   1.262 -0.0726  0.1614 -1.9736
  160TMC2    H1 2494   0.625   3.813   1.060 -0.1298  0.8764  0.0084
  160TMC2    H2 2495   0.713   3.618   1.432  0.2645 -2.4436 -1.1055
  160TMC2    C7 2496   0.818   3.769   1.259  0.2378 -1.0160 -0.7266
  160TMC2    C8 2497   0.469   3.558   1.492  0.1951  0.1318 -0.1091
  160TMC2    O1 2498   0.891   3.724   1.344  0.6437  0.1176  0.3600
  160TMC2    O2 2499   0.546   3.565   1.585  0.2151 -0.8076  0.1319
  160TMC2    O5 2500   0.407   3.438   1.468 -0.6744  0.6374 -0.2780
  160TMC2    H5 2501   0.368   3.417   1.380 -1.4644 -0.6890  0.3955
  161MPD2     C 2502   0.249   3.794   0.793 -0.5809  0.1474  0.4269
  161MPD2    C1 2503   0.306   3.878   0.881  0.6836 -0.1209 -0.0055
  161MPD2    C2 2504   0.290   4.014   0.858 -0.2647 -0.1560  0.4274
  161MPD2    C3 2505   0.218   4.071   0.751 -0.0353 -0.4057 -0.4010
  161MPD2    C4 2506   0.163   3.977   0.662  0.1822 -0.0177  0.0852
  161MPD2    C5 2507   0.174   3.845   0.690 -0.6831  0.8200 -0.1090
  161MPD2     H 2508   0.336   4.070   0.939  1.4067 -0.3401 -0.3975
  161MPD2    H1 2509   0.095   3.994   0.580 -1.3593 -2.1442  0.9332
  161MPD2    H2 2510   0.255   3.687   0.811  0.7820  0.2619  0.7080
  161MPD2    H3 2511   0.125   3.770   0.629 -1.5022  0.4445  1.0017
  161MPD2     N 2512   0.215   4.213   0.723  0.1911 -0.2222 -1.0002
  161MPD2    H5 2513   0.167   4.238   0.637 -0.4430  0.0382 -0.5640
  161MPD2    N1 2514   0.378   3.833   0.998  0.2528  0.4346 -0.0931
  161MPD2    H7 2515   0.425   3.903   1.055  1.4549 -1.5345  1.3128
  162TMC2    C1 2516   3.527   1.389   1.191 -0.6507 -0.1133 -0.4813
  162TMC2    C2 2517   3.443   1.461   1.271  0.2005 -0.1957 -0.9380
  162TMC2    C3 2518   3.510   1.533   1.364 -0.5951  0.8741  0.0413
  162TMC2    C4 2519   3.664   1.386   1.203 -0.2123  0.3713 -0.2904
  162TMC2    C5 2520   3.717   1.467   1.300  1.4632 -0.2992 -0.3338
  162TMC2    C6 2521   3.642   1.543   1.377 -0.1560  0.9582 -0.3620
  162TMC2     C 2522   3.484   1.320   1.068 -0.4645 -0.0663 -0.2555
  162TMC2     O 2523   3.559   1.334   0.973 -0.4878 -0.2436  0.1805
  162TMC2     H 2524   3.335   1.453   1.262 -0.1824  2.1330  1.2820
  162TMC2    H1 2525   3.733   1.331   1.140 -0.2136 -1.6355  1.4476
  162TMC2    H2 2526   3.680   1.613   1.451 -1.2495 -0.2586  1.3318
  162TMC2    C7 2527   3.856   1.464   1.335 -0.5706 -0.2678 -0.7905
  162TMC2    C8 2528   3.440   1.628   1.450  0.6884 -0.7041 -0.0826
  162TMC2    O1 2529   3.896   1.556   1.406 -0.2216 -0.4628 -0.0423
  162TMC2    O2 2530   3.482   1.651   1.561  0.6480 -0.7118  0.3321
  162TMC2    O5 2531   3.352   1.702   1.387 -0.1198 -0.3859 -0.5116
  162TMC2    H5 2532   3.360   1.711   1.290 -0.2828 -0.8474 -0.5669
  163MPD2     C 2533   3.136   1.125   0.764 -0.1715 -0.3619  0.1720
  163MPD2    C1 2534   3.244   1.203   0.735 -0.3309  0.0958  0.3385
  163MPD2    C2 2535   3.314   1.257   0.846 -0.0126  0.0551 -0.8443
  163MPD2    C3 2536   3.283   1.221   0.974 -0.4173 -0.1547 -0.0356
  163MPD2    C4 2537   3.178   1.135   0.994  0.3319 -0.5723  0.0487
  163MPD2    C5 2538   3.107   1.094   0.892  0.1459  0.0899 -0.3598
  163MPD2     H 2539   3.389   1.332   0.825  2.2400 -1.5556  1.4524
  163MPD2    H1 2540   3.152   1.104   1.095  1.2495 -0.0312  0.4453
  163MPD2    H2 2541   3.080   1.088   0.678 -1.1796 -0.0150  0.6809
  163MPD2    H3 2542   3.020   1.033   0.913  0.8026 -0.4198  0.8692
  163MPD2     N 2543   3.357   1.269   1.083  0.5156 -0.3040 -0.3500
  163MPD2    H5 2544   3.333   1.248   1.180 -1.0486  1.9206 -0.2430
  163MPD2    N1 2545   3.281   1.225   0.596 -0.5014 -0.6659 -0.0389
  163MPD2    H7 2546   3.213   1.200   0.525 -1.3395  1.8136 -0.1040
  164TMC2    C1 2547   4.452   0.186  10.922 -0.1063 -0.2462  0.0258
  164TMC2    C2 2548   4.516   0.246  10.818 -0.2145 -0.8652 -0.5429
  164TMC2    C3 2549   4.449   0.349  10.756  0.6764  0.0776 -0.2871
  164TMC2    C4 2550   4.331   0.240  10.964  0.5066 -0.0127 -0.3090
  164TMC2    C5 2551   4.267   0.353  10.897  0.2438  0.1649  0.1336
  164TMC2    C6 2552   4.323   0.401  10.788  0.3647 -0.0532 -0.5227
  164TMC2     C 2553   4.519   0.072  10.988  1.0401 -0.9812 -1.6807
  164TMC2     O 2554   4.459   0.036  11.089  0.7703 -0.3538  0.1239
  164TMC2     H 2555   4.614   0.212  10.787  0.0797 -1.1090  0.6551
  164TMC2    H1 2556   4.292   0.202  11.057  0.6560  0.9504  0.1499
  164TMC2    H2 2557   4.284   0.480  10.724  1.0014  1.5511  1.0588
  164TMC2    C7 2558   4.131   0.388  10.930 -0.1910  0.8462  0.9381
  164TMC2    C8 2559   4.513   0.379  10.626 -0.2309 -0.5716 -0.4968
  164TMC2    O1 2560   4.075   0.433  10.832  0.3888  0.0878 -0.1463
  164TMC2    O2 2561   4.564   0.285  10.566  0.2076  0.4886  0.8119
  164TMC2    O5 2562   4.577   0.494  10.647  0.3205  0.1635  0.1216
  164TMC2    H5 2563   4.528   0.567  10.692  0.0966 -0.0717  0.2636
  165TMC2    C1 2564   1.080   3.233   1.546 -0.4334 -0.4934 -0.1027
  165TMC2    C2 2565   0.993   3.150   1.609  1.1664 -0.6010  0.1052
  165TMC2    C3 2566   0.871   3.139   1.548 -0.7412 -0.1298  0.3588
  165TMC2    C4 2567   1.057   3.289   1.426  0.1314 -0.2299 -0.1422
  165TMC2    C5 2568   0.927   3.284   1.377  0.0713  0.7452 -0.4995
  165TMC2    C6 2569   0.835   3.200   1.435 -0.2771  0.0752  0.6261
  165TMC2     C 2570   1.219   3.211   1.588 -0.7702  0.0970 -0.1243
  165TMC2     O 2571   1.239   3.103   1.641 -0.3095  0.5557 -0.1015
  165TMC2     H 2572   1.021   3.104   1.703  1.5009 -0.9933 -0.1854
  165TMC2    H1 2573   1.141   3.338   1.378  0.7027 -1.0765 -0.0052
  165TMC2    H2 2574   0.742   3.193   1.380 -1.0733  2.3161  1.6973
  165TMC2    C7 2575   0.894   3.339   1.244 -0.4842  0.3896  0.2507
  165TMC2    C8 2576   0.782   3.051   1.624 -0.2188  0.1589 -0.0231
  165TMC2    O1 2577   0.782   3.317   1.199  0.1149  0.4615 -0.1961
  165TMC2    O2 2578   0.831   2.953   1.687 -0.1904 -0.0881 -0.2782
  165TMC2    O5 2579   0.655   3.076   1.599  0.4034 -0.2678 -0.3554
  165TMC2    H5 2580   0.643   3.172   1.583 -1.4230 -0.5607 -0.7553
  166MPD2     C 2581   1.704   3.337   1.553  0.4018  0.1203 -0.1110
  166MPD2    C1 2582   1.644   3.214   1.566  0.3948  0.1702 -0.0139
  166MPD2    C2 2583   1.512   3.213   1.594  0.5316 -0.3414 -0.4792
  166MPD2    C3 2584   1.430   3.325   1.559  0.2052  0.2859 -0.3741
  166MPD2    C4 2585   1.490   3.441   1.524 -0.2950  0.6951 -0.3666
  166MPD2    C5 2586   1.627   3.447   1.530 -0.0749  0.0003 -0.1570
  166MPD2     H 2587   1.461   3.124   1.628  0.7504  0.1789  1.2253
  166MPD2    H1 2588   1.438   3.533   1.502  0.3684  0.7279 -1.7970
  166MPD2    H2 2589   1.812   3.348   1.546  0.3099  2.1203  1.6734
  166MPD2    H3 2590   1.670   3.542   1.504 -2.4227  1.2200  0.3948
  166MPD2     N 2591   1.296   3.317   1.554  0.2021 -0.4444  0.5519
  166MPD2    H5 2592   1.251   3.399   1.512  1.0882 -0.2114  0.0588
  166MPD2    N1 2593   1.717   3.093   1.589 -0.1684 -0.2119  0.9530
  166MPD2    H7 2594   1.814   3.116   1.612  0.1123  2.0159 -2.4145
  167TMC2    C1 2595   3.334   1.182  12.727  0.1283  0.0217 -0.0257
  167TMC2    C2 2596   3.252   1.219  12.829 -0.2754 -0.1621  0.2346
  167TMC2    C3 2597   3.187   1.120  12.906 -0.1557  0.1451 -0.1214
  167TMC2    C4 2598   3.348   1.053  12.689  0.3400 -0.3036  0.0509
  167TMC2    C5 2599   3.284   0.958  12.766 -0.1820  0.5100 -0.2366
  167TMC2    C6 2600   3.195   0.987  12.871  0.4177 -0.5501 -0.0284
  167TMC2     C 2601   3.368   1.285  12.628 -0.1164  1.0009  0.3872
  167TMC2     O 2602   3.379   1.402  12.665 -0.3482  0.2291 -0.4248
  167TMC2     H 2603   3.243   1.325  12.854 -1.8588 -0.1482 -0.4355
  167TMC2    H1 2604   3.424   1.028  12.616  1.4482 -2.6009  2.0303
  167TMC2    H2 2605   3.133   0.914  12.922  0.2465 -0.9013 -0.7390
  167TMC2    C7 2606   3.318   0.812  12.758  0.3290 -0.0999 -0.0910
  167TMC2    C8 2607   3.080   1.147  13.001  0.0794 -0.3088  0.2465
  167TMC2    O1 2608   3.271   0.741  12.848 -0.4935  0.5971  0.5060
  167TMC2    O2 2609   3.020   1.063  13.069  0.2178 -0.0957 -0.3028
  167TMC2    O5 2610   3.038   1.271  12.977  0.2759 -0.3173  0.0953
  167TMC2    H5 2611   3.054   1.304  12.886  0.9239  0.0190  0.3317
  168MPD2     C 2612   3.449   1.442  12.380  0.7574 -0.3420  0.0174
  168MPD2    C1 2613   3.409   1.304  12.381  0.0510 -0.7403 -0.0015
  168MPD2    C2 2614   3.412   1.225  12.266  0.3018 -0.4991 -0.1261
  168MPD2    C3 2615   3.448   1.285  12.146  0.5382 -0.5457 -0.6605
  168MPD2    C4 2616   3.461   1.417  12.140 -0.1951 -0.2145 -0.3997
  168MPD2    C5 2617   3.473   1.496  12.257  0.4119  0.7872  0.1182
  168MPD2     H 2618   3.405   1.118  12.279 -1.2097 -0.8372 -3.8122
  168MPD2    H1 2619   3.490   1.467  12.048  0.9517  0.5125  0.3457
  168MPD2    H2 2620   3.450   1.505  12.467 -0.7835  0.6712 -0.6963
  168MPD2    H3 2621   3.504   1.599  12.250  0.4438  0.7562 -0.2341
  168MPD2     N 2622   3.481   1.211  12.029 -0.2277 -0.0444 -0.3501
  168MPD2    H5 2623   3.503   1.255  11.940  1.2390  0.0553  0.0601
  168MPD2    N1 2624   3.375   1.236  12.499 -0.8406 -0.1023  0.1190
  168MPD2    H7 2625   3.353   1.142  12.470  0.1545 -0.4856  0.5891
  169MPD1     C 2626   0.137   4.586   9.890 -0.3322  0.0175 -0.6142
  169MPD1    C1 2627   0.189   4.715   9.870 -1.2954  0.2642  0.4796
  169MPD1    C2 2628   0.285   4.728   9.767 -0.4916 -0.7274 -0.8549
  169MPD1    C3 2629   0.351   4.617   9.714  0.2951 -0.6800  0.5651
  169MPD1    C4 2630   0.316   4.491   9.754 -0.4848  0.5887  0.1431
  169MPD1    C5 2631   0.210   4.480   9.839 -0.1956  0.1591 -0.3530
  169MPD1     H 2632   0.319   0.091   9.742  0.2637 -0.8820 -0.4676
  169MPD1    H1 2633   0.365   4.402   9.716  0.3877  0.9721  0.3849
  169MPD1    H2 2634   0.065   4.556   9.966 -0.9718  0.4217 -1.0595
  169MPD1    H3 2635   0.171   4.381   9.861 -2.5909  1.1066 -0.3274
  169MPD1     N 2636   0.448   4.634   9.605  0.6307  0.1960 -0.3020
  169MPD1    H5 2637   0.470   4.729   9.578  0.4141  0.2175 -0.4026
  169MPD1    N1 2638   0.118   0.093   9.919 -0.1885  0.0004 -0.0839
  169MPD1    H6 2639   0.172   0.177   9.936  0.5558 -0.6248  0.6826
  169MPD1    H7 2640   0.088   0.061  10.011  0.3357 -0.2540  0.0021
  170MPD1     C 2641   0.234   3.498  12.925  0.0248  0.6582 -0.1306
  170MPD1    C1 2642   0.104   3.464  12.927 -0.6439 -0.0848 -0.1617
  170MPD1    C2 2643   0.042   3.463  13.054 -0.5772 -0.1293  0.0588
  170MPD1    C3 2644   0.113   3.475  13.172 -0.8190  0.1258 -0.4803
  170MPD1    C4 2645   0.249   3.502  13.157  0.4567 -0.5242 -0.2436
  170MPD1    C5 2646   0.309   3.518  13.033  0.4013 -0.3350  0.1759
  170MPD1     H 2647   4.671   3.460  13.062 -0.4162 -0.0540  2.2588
  170MPD1    H1 2648   0.305   3.530  13.246  0.1066 -1.0908  0.1513
  170MPD1    H2 2649   0.281   3.515  12.829 -1.5428  0.7884 -0.8777
  170MPD1    H3 2650   0.416   3.523  13.016  0.0137  0.7356 -1.9333
  170MPD1     N 2651   0.047   3.466  13.298 -0.3044  0.1090 -0.6317
  170MPD1    H5 2652   4.684   3.448  13.297  0.2753 -3.1602  0.1719
  170MPD1    N1 2653   0.035   3.456  12.809 -0.3146  0.9762 -0.2620
  170MPD1    H6 2654   4.676   3.428  12.832 -0.6372  0.9680 -1.5912
  170MPD1    H7 2655   0.021   3.549  12.770  1.6559  1.5967  0.4913
  171MPD1     C 2656   2.919   4.596  15.289 -0.1078  0.1921 -0.3927
  171MPD1    C1 2657   2.927   4.474  15.230  0.1618 -0.2885 -0.0893
  171MPD1    C2 2658   3.006   4.379  15.283 -0.4290  0.1142  0.1322
  171MPD1    C3 2659   3.079   4.409  15.397  0.3767 -0.4594  0.3718
  171MPD1    C4 2660   3.077   4.536  15.451  0.0977  0.2469  0.2237
  171MPD1    C5 2661   2.997   4.630  15.393  0.9072  0.6143  0.4055
  171MPD1     H 2662   3.012   4.278  15.245  2.6295 -0.1769  1.3634
  171MPD1    H1 2663   3.137   4.557  15.539 -1.8213 -0.8196  1.7643
  171MPD1    H2 2664   2.855   4.674  15.249 -0.8615  0.3363  1.0982
  171MPD1    H3 2665   2.983   4.729  15.433  1.5721  1.4092 -1.3596
  171MPD1     N 2666   3.166   4.325  15.464 -1.1437 -0.1414 -0.0533
  171MPD1    H5 2667   3.226   4.366  15.535  0.4904  1.6038 -2.4287
  171MPD1    N1 2668   2.832   4.447  15.131  0.7027 -0.1948 -0.0376
  171MPD1    H6 2669   2.772   4.524  15.100 -1.0230 -1.1576  0.9427
  171MPD1    H7 2670   2.874   4.393  15.056 -0.6524  0.5999 -1.3558
  172MPD1     C 2671   2.617   3.191   0.138  0.3817  0.3859 -0.7689
  172MPD1    C1 2672   2.564   3.247   0.025 -0.8484  0.3965 -0.7731
  172MPD1    C2 2673   2.543   3.386   0.029  0.1458  0.6508  0.3101
  172MPD1    C3 2674   2.575   3.459   0.143  0.2803 -0.2929 -0.2632
  172MPD1    C4 2675   2.640   3.393   0.246  0.5104  0.8262 -0.6217
  172MPD1    C5 2676   2.668   3.263   0.241  0.1859  0.2008 -0.6441
  172MPD1     H 2677   2.513   3.441  17.686  1.5659  1.9766  0.6402
  172MPD1    H1 2678   2.691   3.448   0.325 -1.7460  0.6129  0.9887
  172MPD1    H2 2679   2.625   3.083   0.140  2.3504  0.5915  1.5336
  172MPD1    H3 2680   2.736   3.223   0.315 -3.1232 -1.3387  1.5503
  172MPD1     N 2681   2.561   3.594   0.150  0.3526  0.1681 -0.3456
  172MPD1    H5 2682   2.602   3.636   0.233 -3.4413  2.6700  0.2649
  172MPD1    N1 2683   2.520   3.172  17.668 -0.2948 -0.3456 -0.6096
  172MPD1    H6 2684   2.578   3.089  17.673  1.0758  0.6806  0.1989
  172MPD1    H7 2685   2.543   3.223  17.583  2.7815  1.5731  1.3842
  173MPD1     C 2686   3.649   3.641  13.411  0.3168  1.2506  0.3909
  173MPD1    C1 2687   3.763   3.610  13.481 -0.1531  0.6520 -0.4323
  173MPD1    C2 2688   3.745   3.530  13.594 -0.2929 -0.7399  0.4910
  173MPD1    C3 2689   3.616   3.489  13.637 -0.3185  0.3138 -0.4729
  173MPD1    C4 2690   3.511   3.515  13.555 -0.1089  1.2097  0.1657
  173MPD1    C5 2691   3.523   3.590  13.445 -0.3552  0.0065 -0.4189
  173MPD1     H 2692   3.834   3.503  13.649  1.3935 -2.3234 -2.9784
  173MPD1    H1 2693   3.414   3.470  13.570  0.6205 -0.0822  1.0357
  173MPD1    H2 2694   3.663   3.702  13.322  4.7911 -0.4909 -0.1451
  173MPD1    H3 2695   3.437   3.611  13.382  0.0260  2.3573 -0.1634
  173MPD1     N 2696   3.616   3.399  13.753  0.1261 -0.5094 -0.1226
  173MPD1    H5 2697   3.705   3.380  13.797  0.6396 -0.4472 -1.1413
  173MPD1    N1 2698   3.891   3.660  13.445  0.0004 -0.3086  0.2250
  173MPD1    H6 2699   3.967   3.610  13.492  2.1303  2.4088 -0.2681
  173MPD1    H7 2700   3.903   3.677  13.346 -1.7847 -0.3131  0.0161
  174MPD1     C 2701   4.202   2.932  14.086 -0.0562  0.2788  0.3096
  174MPD1    C1 2702   4.108   2.888  14.175  0.2989 -0.3541 -0.8726
  174MPD1    C2 2703   3.984   2.958  14.173 -0.4449 -0.3560  0.1886
  174MPD1    C3 2704   3.950   3.050  14.078 -0.8972 -0.4961 -0.3557
  174MPD1    C4 2705   4.047   3.091  13.993  0.9617  0.2848  0.8780
  174MPD1    C5 2706   4.172   3.035  14.002  0.5791 -0.0927  0.0930
  174MPD1     H 2707   3.908   2.911  14.235 -1.5160  0.2475 -0.6887
  174MPD1    H1 2708   4.022   3.159  13.912 -2.4402 -0.8565  0.9304
  174MPD1    H2 2709   4.294   2.876  14.072 -1.5068 -2.3546  1.2917
  174MPD1    H3 2710   4.252   3.080  13.944 -0.1192 -1.5273 -1.9747
  174MPD1     N 2711   3.818   3.094  14.052 -0.3528  0.4138  0.0184
  174MPD1    H5 2712   3.810   3.161  13.977  3.2338 -0.2668 -0.9979
  174MPD1    N1 2713   4.142   2.794  14.272  0.5879 -0.4840 -0.2269
  174MPD1    H6 2714   4.220   2.737  14.241  1.5460  0.9910 -0.5284
  174MPD1    H7 2715   4.066   2.731  14.297  0.7003 -1.1709 -1.6202
  175MPD1     C 2716   2.047   4.736  15.212  0.0411  0.4414  0.5273
  175MPD1    C1 2717   1.951   0.040  15.301  0.2621  0.2630  0.0109
  175MPD1    C2 2718   1.898   4.679  15.381 -0.3070  0.0028  0.0408
  175MPD1    C3 2719   1.933   4.542  15.377 -0.6776 -0.8140  0.1001
  175MPD1    C4 2720   2.041   4.506  15.300 -0.2458 -0.4117  0.0460
  175MPD1    C5 2721   2.087   4.602  15.215  0.4412  0.4961 -0.0151
  175MPD1     H 2722   1.828   4.714  15.456  0.9187 -0.1350  1.2485
  175MPD1    H1 2723   2.090   4.410  15.298 -0.5384 -0.5298 -1.0642
  175MPD1    H2 2724   2.102   0.060  15.141  0.1564  1.3206  1.3647
  175MPD1    H3 2725   2.164   4.569  15.145 -0.3323 -0.6960 -0.2944
  175MPD1     N 2726   1.871   4.452  15.460  0.2928  0.4836  0.0760
  175MPD1    H5 2727   1.912   4.360  15.449 -1.4532 -0.1940 -0.6173
  175MPD1    N1 2728   1.924   0.175  15.312 -0.3592  0.6875  0.5185
  175MPD1    H6 2729   1.830   0.191  15.349 -1.1321 -0.4723 -0.9403
  175MPD1    H7 2730   1.920   0.223  15.222 -0.4612 -2.2639 -1.0517
  176MPD1     C 2731   3.111   1.942  17.511 -0.1291  0.2766 -0.0784
  176MPD1    C1 2732   3.167   2.013  17.616 -0.7022  0.1280 -0.0193
  176MPD1    C2 2733   3.284   2.086  17.589 -0.8327  1.6952  0.4247
  176MPD1    C3 2734   3.341   2.081  17.459  1.0570 -0.1328  0.1598
  176MPD1    C4 2735   3.292   1.987  17.371  0.0544 -0.3839 -0.3444
  176MPD1    C5 2736   3.170   1.929  17.390  0.7614 -0.3807 -0.5609
  176MPD1     H 2737   3.324   2.143  17.672  1.4289 -0.8852  1.1103
  176MPD1    H1 2738   3.343   1.951  17.282  1.6158  1.5540 -0.2402
  176MPD1    H2 2739   3.010   1.902  17.514 -0.5564  1.5251  2.4626
  176MPD1    H3 2740   3.121   1.869  17.315  1.2496  0.3965 -1.4930
  176MPD1     N 2741   3.470   2.138  17.446 -0.1883  0.1155  0.0006
  176MPD1    H5 2742   3.488   2.205  17.520 -0.9281 -0.1554  0.4263
  176MPD1    N1 2743   3.100   2.025  17.738 -0.3396  0.6648 -0.1649
  176MPD1    H6 2744   3.163   2.042   0.071 -0.9272  0.9383  0.2461
  176MPD1    H7 2745   3.032   1.954   0.018  1.6879 -1.6272 -1.0918
  177MPD1     C 2746   2.386   1.304   8.829 -0.0559 -0.4143 -0.2086
  177MPD1    C1 2747   2.294   1.357   8.745 -0.4723  0.9491 -0.0435
  177MPD1    C2 2748   2.170   1.377   8.803 -0.0638 -0.6288 -0.4108
  177MPD1    C3 2749   2.141   1.354   8.934  0.0076 -0.1066  0.7424
  177MPD1    C4 2750   2.237   1.304   9.013 -0.1118 -0.0773 -0.2617
  177MPD1    C5 2751   2.355   1.275   8.960  0.6403  0.1955 -0.7847
  177MPD1     H 2752   2.101   1.439   8.747 -1.1966 -3.5131 -2.2073
  177MPD1    H1 2753   2.230   1.298   9.121  0.9164 -0.4253 -0.2151
  177MPD1    H2 2754   2.487   1.292   8.791  0.6908  1.6731  1.1402
  177MPD1    H3 2755   2.443   1.246   9.016 -1.2392 -2.6279  0.7299
  177MPD1     N 2756   2.011   1.388   8.987  0.1121  0.2027  0.7645
  177MPD1    H5 2757   1.954   1.439   8.920  1.5992  1.2219  0.2700
  177MPD1    N1 2758   2.333   1.393   8.620  0.2045 -0.4693  0.9990
  177MPD1    H6 2759   2.255   1.410   8.557 -0.4004  0.3213  1.9670
  177MPD1    H7 2760   2.411   1.344   8.577 -1.4010 -1.5228 -0.6880
  178MPD1     C 2761   0.049   2.364   0.374  0.2021  0.2202  0.2274
  178MPD1    C1 2762   4.689   2.283   0.313  0.1978  0.7697  0.5592
  178MPD1    C2 2763   4.668   2.299   0.176  0.2244 -0.1710 -0.0084
  178MPD1    C3 2764   4.718   2.409   0.110 -0.0627 -1.1002  0.0109
  178MPD1    C4 2765   0.059   2.497   0.174 -1.0859 -0.4153 -0.6641
  178MPD1    C5 2766   0.097   2.476   0.307 -0.0907 -0.4419  0.4339
  178MPD1     H 2767   4.608   2.227   0.122 -1.5250  1.1015  0.2174
  178MPD1    H1 2768   0.109   2.576   0.118  0.2443 -0.8024 -0.0184
  178MPD1    H2 2769   0.077   2.349   0.478  0.5749  0.6373  0.1898
  178MPD1    H3 2770   0.164   2.542   0.359 -1.0748  0.2191  0.8596
  178MPD1     N 2771   4.699   2.428  17.717 -0.4070  0.2628 -0.2276
  178MPD1    H5 2772   4.732   2.514  17.675  1.6193  0.1473  1.1795
  178MPD1    N1 2773   4.648   2.169   0.379 -0.7926  0.5399  0.1939
  178MPD1    H6 2774   4.568   2.130   0.329 -0.4678  1.4516 -1.0333
  178MPD1    H7 2775   4.615   2.193   0.472 -0.7675 -0.4884  0.4681
  179MPD1     C 2776   4.060   1.131  15.703  0.0651 -0.4806 -0.5233
  179MPD1    C1 2777   3.960   1.080  15.782  0.1675  0.6105 -0.2671
  179MPD1    C2 2778   3.942   0.941  15.794  0.0164  0.3098  0.3697
  179MPD1    C3 2779   4.031   0.854  15.731  0.1382 -0.6666  0.6661
  179MPD1    C4 2780   4.134   0.906  15.658 -0.1744 -0.4763 -0.0971
  179MPD1    C5 2781   4.138   1.040  15.641 -0.0615  0.2909 -0.6991
  179MPD1     H 2782   3.862   0.906  15.859 -0.2121  1.9781  1.0043
  179MPD1    H1 2783   4.198   0.844  15.596 -1.0806  0.8917 -2.4282
  179MPD1    H2 2784   4.095   1.233  15.691  0.0067 -0.2377  1.3990
  179MPD1    H3 2785   4.223   1.080  15.587 -0.4467  1.6359 -0.3015
  179MPD1     N 2786   4.030   0.714  15.741 -0.3607 -0.2384 -0.3864
  179MPD1    H5 2787   4.113   0.667  15.706 -0.5233 -1.6395  1.1101
  179MPD1    N1 2788   3.856   1.161  15.822 -0.0575  0.1877 -0.9444
  179MPD1    H6 2789   3.890   1.243  15.873 -1.0566  0.7392 -1.1671
  179MPD1    H7 2790   3.790   1.112  15.882  1.4833  0.9714  1.4135
  180MPD1     C 2791   2.693   1.855  13.988 -0.3976  0.1894  0.5451
  180MPD1    C1 2792   2.665   1.721  13.972 -0.3152 -0.3797  0.1750
  180MPD1    C2 2793   2.772   1.644  13.928  1.1396 -0.4652  0.7315
  180MPD1    C3 2794   2.898   1.696  13.908  0.4729  0.7805 -0.7430
  180MPD1    C4 2795   2.920   1.832  13.922 -0.3383  0.1038 -0.2513
  180MPD1    C5 2796   2.817   1.907  13.961 -0.4231 -0.4865  0.7507
  180MPD1     H 2797   2.757   1.540  13.905 -2.0817  0.7956 -2.8385
  180MPD1    H1 2798   3.013   1.885  13.904 -0.2931 -0.3470 -1.3735
  180MPD1    H2 2799   2.622   1.928  14.025 -1.2114  0.8308 -2.2377
  180MPD1    H3 2800   2.832   2.015  13.958  0.8167 -0.6990 -0.5255
  180MPD1     N 2801   2.998   1.604  13.867 -0.2315  0.0625  0.2382
  180MPD1    H5 2802   2.964   1.508  13.858 -0.4574  0.2429 -0.8428
  180MPD1    N1 2803   2.530   1.676  13.961 -0.8184  0.7721 -0.3468
  180MPD1    H6 2804   2.471   1.728  14.025  1.1548  0.7071  1.5185
  180MPD1    H7 2805   2.530   1.579  13.993 -0.7183  1.0682  0.5605
  181MPD1     C 2806   0.396   2.835  10.032  0.0805 -0.6781 -0.6666
  181MPD1    C1 2807   0.445   2.892   9.918  0.4520  0.4564  0.6542
  181MPD1    C2 2808   0.549   2.979   9.932 -0.3735  0.4749  0.7480
  181MPD1    C3 2809   0.612   3.009  10.050  0.4832 -0.2975  0.6834
  181MPD1    C4 2810   0.572   2.936  10.165  0.2026  0.3598  0.3324
  181MPD1    C5 2811   0.464   2.855  10.150  0.0132 -0.2116  0.4240
  181MPD1     H 2812   0.587   3.019   9.838 -0.9084 -4.1024 -1.4117
  181MPD1    H1 2813   0.615   2.953  10.263 -0.3116  1.9581  0.2744
  181MPD1    H2 2814   0.300   2.785  10.038  0.0000 -0.6373 -1.7126
  181MPD1    H3 2815   0.422   2.812  10.240 -0.4860 -0.1255  0.2282
  181MPD1     N 2816   0.714   3.114  10.065  0.5065 -0.3875  0.4337
  181MPD1    H5 2817   0.776   3.119  10.145  2.5638 -0.9943 -1.1129
  181MPD1    N1 2818   0.367   2.887   9.800 -0.6769  0.0512  0.4781
  181MPD1    H6 2819   0.424   2.896   9.716 -1.6934  2.2145  0.0164
  181MPD1    H7 2820   0.303   2.808   9.792  0.6552 -1.1874  2.0952
  182MPD1     C 2821   2.136   2.237   0.919  0.3287  0.2786 -0.1521
  182MPD1    C1 2822   2.134   2.374   0.929  0.2843  0.5006 -0.7416
  182MPD1    C2 2823   2.014   2.442   0.894 -0.1129  0.9839 -0.3224
  182MPD1    C3 2824   1.905   2.380   0.844  0.4828  0.7605 -0.1200
  182MPD1    C4 2825   1.923   2.247   0.816  0.2722  0.6729  0.0831
  182MPD1    C5 2826   2.037   2.176   0.851 -0.9217 -0.2262 -0.3459
  182MPD1     H 2827   2.015   2.549   0.910 -2.3396  0.8347  0.9600
  182MPD1    H1 2828   1.840   2.188   0.777 -0.6149  0.2001  2.7094
  182MPD1    H2 2829   2.220   2.183   0.962 -0.2573 -1.0487 -0.6799
  182MPD1    H3 2830   2.047   2.069   0.837 -0.0261 -0.3389  1.1676
  182MPD1     N 2831   1.777   2.438   0.816  0.2447 -0.1046  0.3717
  182MPD1    H5 2832   1.698   2.385   0.782  0.0177 -0.6540  1.7589
  182MPD1    N1 2833   2.233   2.430   1.003 -0.0094 -0.3713  0.6427
  182MPD1    H6 2834   2.243   2.531   1.006 -2.8325 -0.0821 -0.0750
  182MPD1    H7 2835   2.324   2.405   0.966 -0.6143 -0.7487 -0.5905
  183MPD1     C 2836   1.948   2.585   8.627  0.5688  0.7065  0.7927
  183MPD1    C1 2837   1.871   2.700   8.614 -0.4303  0.5710  0.1760
  183MPD1    C2 2838   1.861   2.780   8.727  0.1382  0.2062  0.2532
  183MPD1    C3 2839   1.901   2.730   8.847 -0.1865  0.1831 -0.6446
  183MPD1    C4 2840   1.970   2.609   8.854 -0.1282  0.5424 -0.7022
  183MPD1    C5 2841   1.984   2.532   8.746 -0.0645  0.6999 -0.1454
  183MPD1     H 2842   1.814   2.878   8.732  3.0439  1.6868 -0.9170
  183MPD1    H1 2843   1.986   2.558   8.948  0.8567  2.3399  0.0993
  183MPD1    H2 2844   1.967   2.523   8.540  0.9633  1.7278  0.1462
  183MPD1    H3 2845   2.015   2.428   8.744 -0.5548  0.5213  1.7836
  183MPD1     N 2846   1.876   2.806   8.956 -0.0726 -1.2129  0.1437
  183MPD1    H5 2847   1.807   2.878   8.941  1.1462 -0.6241 -2.5550
  183MPD1    N1 2848   1.841   2.754   8.483 -0.5487 -0.2163 -0.0620
  183MPD1    H6 2849   1.931   2.757   8.435 -1.0040  3.2505 -0.6921
  183MPD1    H7 2850   1.800   2.847   8.487  2.0152  0.9664 -0.9000
  184MPD1     C 2851   1.291   0.826  10.295  0.8875 -0.0569  0.6517
  184MPD1    C1 2852   1.171   0.865  10.230 -0.6463 -0.7431 -0.7425
  184MPD1    C2 2853   1.197   0.934  10.111 -0.3087 -0.0348  0.0485
  184MPD1    C3 2854   1.315   0.996  10.078 -0.3316  0.2630 -0.5290
  184MPD1    C4 2855   1.423   0.970  10.152  0.0932  0.0425  0.1799
  184MPD1    C5 2856   1.411   0.885  10.261 -0.2636  0.0026  0.3132
  184MPD1     H 2857   1.111   0.956  10.050  0.0413  0.3494 -0.3064
  184MPD1    H1 2858   1.522   1.009  10.128 -0.3445  1.7290  1.0834
  184MPD1    H2 2859   1.286   0.750  10.372 -0.7204 -1.1842 -0.5592
  184MPD1    H3 2860   1.498   0.865  10.323  1.5945  0.3408 -2.2038
  184MPD1     N 2861   1.339   1.078   9.966 -0.1380 -0.2677 -0.4628
  184MPD1    H5 2862   1.424   1.134   9.964 -1.1645  1.2128 -2.7765
  184MPD1    N1 2863   1.045   0.807  10.252  0.1512 -0.3335  0.2657
  184MPD1    H6 2864   1.048   0.785  10.351  1.0227 -0.1652  0.2799
  184MPD1    H7 2865   0.960   0.861  10.240  0.0798 -1.0025 -2.3254
  185MPD1     C 2866   0.620   1.404   9.357 -0.1952 -0.1059 -0.3278
  185MPD1    C1 2867   0.724   1.466   9.297 -0.0495 -0.0782  0.4376
  185MPD1    C2 2868   0.846   1.448   9.360 -0.3461 -0.5517 -0.8259
  185MPD1    C3 2869   0.871   1.351   9.454 -0.1672  0.2152 -0.2648
  185MPD1    C4 2870   0.764   1.279   9.495  0.3601 -0.1733  0.0494
  185MPD1    C5 2871   0.641   1.313   9.450  1.0598 -0.9441 -0.0671
  185MPD1     H 2872   0.928   1.507   9.320  0.0660 -1.4334 -1.2782
  185MPD1    H1 2873   0.767   1.219   9.586 -0.8413 -0.5573 -0.1665
  185MPD1    H2 2874   0.520   1.423   9.320 -0.7600 -0.9897  0.7211
  185MPD1    H3 2875   0.554   1.271   9.499  0.3239  2.2884  1.3860
  185MPD1     N 2876   0.990   1.330   9.536 -0.1572  0.3004 -0.3486
  185MPD1    H5 2877   0.971   1.278   9.621  0.6166 -0.0831 -0.4077
  185MPD1    N1 2878   0.713   1.539   9.176  0.2356 -0.4900  0.4800
  185MPD1    H6 2879   0.796   1.592   9.150  0.0105  0.1433  1.0451
  185MPD1    H7 2880   0.633   1.602   9.168  0.7171 -0.0551 -0.9491
  186MPD1     C 2881   4.625   0.602  15.783 -0.6554 -0.7692 -0.0859
  186MPD1    C1 2882   4.511   0.545  15.831  0.0980 -0.4606 -0.5254
  186MPD1    C2 2883   4.423   0.631  15.896  0.4633 -0.2461 -0.3481
  186MPD1    C3 2884   4.463   0.758  15.927  0.3099 -0.5135  0.2052
  186MPD1    C4 2885   4.590   0.807  15.888  0.6950  0.4892 -0.7078
  186MPD1    C5 2886   4.666   0.727  15.808 -0.1368 -0.4203  0.2307
  186MPD1     H 2887   4.326   0.595  15.929 -0.3694  1.4355 -0.9398
  186MPD1    H1 2888   4.619   0.902  15.933  2.1545  0.1938 -1.0112
  186MPD1    H2 2889   4.693   0.547  15.719  0.3045  0.9142 -0.5086
  186MPD1    H3 2890   0.028   0.767  15.787 -0.3808  0.4083  0.6468
  186MPD1     N 2891   4.385   0.837  16.017 -0.5105  1.4710  0.4222
  186MPD1    H5 2892   4.430   0.925  16.037 -1.2585  1.7797  0.7328
  186MPD1    N1 2893   4.473   0.416  15.790  0.6278 -0.1411 -0.5247
  186MPD1    H6 2894   4.553   0.357  15.769  1.4268  0.8952 -0.3575
  186MPD1    H7 2895   4.409   0.374  15.857 -0.9036 -1.6053 -2.8694
  187MPD1     C 2896   3.369   3.583  17.737  0.2540  0.6836 -0.0003
  187MPD1    C1 2897   3.278   3.505  17.667  0.9364  0.0491 -0.0645
  187MPD1    C2 2898   3.315   3.442  17.551  0.2111 -0.0003  0.1805
  187MPD1    C3 2899   3.448   3.456  17.507  0.6814  0.0324 -0.0217
  187MPD1    C4 2900   3.540   3.520  17.585  0.5641 -0.7060  0.9181
  187MPD1    C5 2901   3.496   3.576  17.699  0.2930 -0.1472 -0.9224
  187MPD1     H 2902   3.232   3.404  17.492 -0.9333  2.2996  0.2838
  187MPD1    H1 2903   3.647   3.516  17.569 -0.0492 -0.2504 -3.3221
  187MPD1    H2 2904   3.342   3.639   0.081  1.7386  0.6889  0.4492
  187MPD1    H3 2905   3.574   3.622   0.013  0.0268  0.8531 -1.3553
  187MPD1     N 2906   3.497   3.410  17.378  0.5864 -0.4369  0.3881
  187MPD1    H5 2907   3.595   3.412  17.354 -0.1047 -2.1518 -2.6491
  187MPD1    N1 2908   3.145   3.498  17.718  0.3455 -0.3926  0.6214
  187MPD1    H6 2909   3.134   3.508   0.074 -0.3407 -0.8557  0.5892
  187MPD1    H7 2910   3.081   3.430  17.679 -0.8478  0.6836  0.6843
  188MPD1     C 2911   3.332   2.596  11.089 -0.2339  0.4835 -0.4547
  188MPD1    C1 2912   3.267   2.628  10.973 -0.0028 -0.4678  0.3638
  188MPD1    C2 2913   3.317   2.563  10.855 -0.6865  0.5195 -0.0037
  188MPD1    C3 2914   3.439   2.494  10.861 -0.1390 -0.5049 -0.1256
  188MPD1    C4 2915   3.517   2.499  10.974 -0.2579  0.2423 -0.0306
  188MPD1    C5 2916   3.453   2.535  11.086 -0.1451  0.5737 -0.1768
  188MPD1     H 2917   3.263   2.564  10.761  0.8941  0.9142 -0.9032
  188MPD1    H1 2918   3.602   2.433  10.984 -0.2719  0.3465  0.7610
  188MPD1    H2 2919   3.302   2.630  11.187  2.0498 -0.3863  0.5414
  188MPD1    H3 2920   3.512   2.533  11.177 -1.0990 -0.1096  0.4275
  188MPD1     N 2921   3.471   2.393  10.767  0.1951 -0.2003  0.3628
  188MPD1    H5 2922   3.553   2.337  10.786  1.5179  0.9673 -1.8609
  188MPD1    N1 2923   3.140   2.683  10.986 -0.5644 -0.0774 -0.0789
  188MPD1    H6 2924   3.126   2.764  11.046  1.3986 -0.7336  1.2527
  188MPD1    H7 2925   3.108   2.709  10.893 -0.3228 -0.3038 -0.2238
  189MPD1     C 2926   0.638   3.829   0.140 -0.3556 -0.0838 -0.5424
  189MPD1    C1 2927   0.627   3.958   0.098 -0.4408  0.5276 -0.1228
  189MPD1    C2 2928   0.516   3.990   0.027  0.2154 -0.0530 -0.2886
  189MPD1    C3 2929   0.423   3.898  17.725 -0.3654  0.1756  0.3922
  189MPD1    C4 2930   0.448   3.764   0.017 -0.2081 -0.0903  0.1490
  189MPD1    C5 2931   0.558   3.729   0.094  0.4621 -1.2477 -0.1231
  189MPD1     H 2932   0.506   4.094  17.742 -1.0286  0.0707  0.5287
  189MPD1    H1 2933   0.379   3.682  17.745 -1.3309  1.3020 -2.0556
  189MPD1    H2 2934   0.713   3.817   0.217 -2.1589 -0.7886  1.0953
  189MPD1    H3 2935   0.565   3.630   0.137  1.2897 -0.3098  1.9160
  189MPD1     N 2936   0.307   3.946  17.656 -0.5756 -0.1669 -0.5453
  189MPD1    H5 2937   0.304   4.047  17.655  2.3504 -0.0833 -0.6411
  189MPD1    N1 2938   0.705   4.057   0.153  0.1621  0.1866 -0.4056
  189MPD1    H6 2939   0.799   4.018   0.157  1.5022  3.3541 -1.0833
  189MPD1    H7 2940   0.708   4.138   0.092  0.7395  0.7231  0.3261
  190MPD1     C 2941   3.586   1.396  16.139 -0.0533  0.4967  0.6837
  190MPD1    C1 2942   3.689   1.430  16.221 -0.2795  0.5572  0.0988
  190MPD1    C2 2943   3.799   1.493  16.164 -0.0986 -0.1863  0.5916
  190MPD1    C3 2944   3.808   1.507  16.026  0.8301  0.1473 -0.3294
  190MPD1    C4 2945   3.713   1.452  15.948  0.0974 -0.5340 -0.5944
  190MPD1    C5 2946   3.600   1.405  16.005  0.3774 -0.2793 -0.4692
  190MPD1     H 2947   3.867   1.535  16.237 -2.3842  1.9083  1.5230
  190MPD1    H1 2948   3.719   1.461  15.840  0.6318 -0.3470 -0.5474
  190MPD1    H2 2949   3.500   1.351  16.186  1.5518  0.0567  3.2069
  190MPD1    H3 2950   3.527   1.367  15.935  2.1344 -1.3236 -1.7402
  190MPD1     N 2951   3.920   1.585  15.977  0.1442 -0.1509 -0.2043
  190MPD1    H5 2952   3.986   1.624  16.044 -0.8277  0.4812  0.3807
  190MPD1    N1 2953   3.665   1.440  16.356 -0.2543  0.1499  0.3432
  190MPD1    H6 2954   3.610   1.361  16.390 -0.5620  0.9118  1.6371
  190MPD1    H7 2955   3.759   1.446  16.394 -0.1821 -0.5834  0.2774
  191MPD1     C 2956   3.325   4.403  12.461 -0.1793 -0.1476 -0.2686
  191MPD1    C1 2957   3.314   4.305  12.356 -0.1554  0.2179 -0.5739
  191MPD1    C2 2958   3.420   4.291  12.268  1.0775 -0.4961  0.2168
  191MPD1    C3 2959   3.529   4.376  12.279 -0.1847 -0.4076  0.5460
  191MPD1    C4 2960   3.533   4.470  12.383  0.0013 -0.3354  0.0695
  191MPD1    C5 2961   3.434   4.482  12.476  0.3300  0.6734 -0.2555
  191MPD1     H 2962   3.419   4.219  12.187 -1.5038  2.0051 -1.9636
  191MPD1    H1 2963   3.616   4.537  12.404 -1.8695  1.7739  0.7198
  191MPD1    H2 2964   3.236   4.415  12.522 -0.5194  0.7864 -0.9450
  191MPD1    H3 2965   3.446   4.551  12.559  1.0323 -0.6024  0.7130
  191MPD1     N 2966   3.637   4.358  12.187  0.2633  0.2102 -0.4979
  191MPD1    H5 2967   3.611   4.307  12.103  0.6984  1.2072 -1.2445
  191MPD1    N1 2968   3.198   4.228  12.337  0.2137 -0.5579 -0.4181
  191MPD1    H6 2969   3.213   4.132  12.307  0.3421 -0.5387 -0.4122
  191MPD1    H7 2970   3.148   4.223  12.426 -1.9750  1.0619 -1.5816
  192MPD1     C 2971   3.877   4.050  11.280  0.7208  0.1218  0.1728
  192MPD1    C1 2972   3.785   4.012  11.375  0.3470 -0.5100 -0.2924
  192MPD1    C2 2973   3.808   4.047  11.505 -0.2297  0.1337 -0.5306
  192MPD1    C3 2974   3.913   4.124  11.542  0.1034 -0.5317 -0.3583
  192MPD1    C4 2975   4.013   4.150  11.446 -0.1618 -0.1275 -0.4504
  192MPD1    C5 2976   3.992   4.110  11.316  0.5878 -0.4839  0.5188
  192MPD1     H 2977   3.739   4.018  11.583  1.9946 -1.6397  0.7845
  192MPD1    H1 2978   4.101   4.204  11.476 -0.4296  1.6908 -2.9431
  192MPD1    H2 2979   3.870   4.018  11.176 -1.1238 -0.5542  0.5061
  192MPD1    H3 2980   4.070   4.133  11.244 -1.1267  1.1190 -0.8299
  192MPD1     N 2981   3.926   4.182  11.667  0.1647  0.2155  0.2219
  192MPD1    H5 2982   4.021   4.215  11.685  1.3664 -0.9883 -3.8266
  192MPD1    N1 2983   3.685   3.919  11.344 -0.2457  0.0454 -0.4916
  192MPD1    H6 2984   3.655   3.935  11.248  1.2504 -0.5438 -1.0578
  192MPD1    H7 2985   3.609   3.928  11.411  0.4401 -0.2553  0.3220
  193MPD1     C 2986   3.075   3.950  15.788 -0.2397  0.7800 -0.5925
  193MPD1    C1 2987   3.016   4.054  15.852  0.1087  0.2858  1.1072
  193MPD1    C2 2988   3.059   4.084  15.980  0.5376  0.1035 -0.4604
  193MPD1    C3 2989   3.152   4.011  16.045  0.3987 -0.0086  1.2443
  193MPD1    C4 2990   3.197   3.898  15.988 -0.3260 -0.2380 -0.4733
  193MPD1    C5 2991   3.159   3.866  15.860 -0.4493 -0.8367  0.3721
  193MPD1     H 2992   3.011   4.172  16.021 -2.7343 -0.6255 -2.6851
  193MPD1    H1 2993   3.273   3.842  16.042  0.1310  0.7825 -0.0698
  193MPD1    H2 2994   3.058   3.925  15.684  1.4867  0.0456 -0.6958
  193MPD1    H3 2995   3.207   3.786  15.805  0.9570  1.9770 -2.5076
  193MPD1     N 2996   3.220   4.052  16.169  0.0378  0.4433  0.1348
  193MPD1    H5 2997   3.289   3.988  16.207 -1.2075 -1.8657 -1.4574
  193MPD1    N1 2998   2.934   4.155  15.791  0.1409 -0.4980 -0.1572
  193MPD1    H6 2999   2.878   4.118  15.715 -0.8099 -1.6991  1.1275
  193MPD1    H7 3000   2.879   4.207  15.858 -1.4294 -2.2153 -0.1160
  194MPD1     C 3001   0.948   1.595  17.116 -0.5143  0.6485  0.1898
  194MPD1    C1 3002   0.846   1.516  17.064  0.1223 -0.0830  0.1276
  194MPD1    C2 3003   0.868   1.375  17.058 -0.0509 -1.0602 -0.0065
  194MPD1    C3 3004   0.985   1.316  17.096 -0.2007 -0.3760  0.0725
  194MPD1    C4 3005   1.081   1.399  17.149  0.2427  0.0799  0.5206
  194MPD1    C5 3006   1.057   1.531  17.169  0.6654 -0.3648 -0.1489
  194MPD1     H 3007   0.785   1.314  17.025 -0.6171 -0.2987  0.0060
  194MPD1    H1 3008   1.165   1.356  17.201  0.8421 -0.1946 -0.6617
  194MPD1    H2 3009   0.949   1.701  17.141  0.6268  0.3905  1.2158
  194MPD1    H3 3010   1.134   1.593  17.214 -0.7154  0.1121  1.5739
  194MPD1     N 3011   1.008   1.176  17.102 -0.5364  0.7042 -0.2616
  194MPD1    H5 3012   1.091   1.142  17.149 -2.2880 -0.0240  2.3319
  194MPD1    N1 3013   0.726   1.570  17.022 -0.1748 -0.2426  0.2904
  194MPD1    H6 3014   0.691   1.523  16.939  0.5168  3.3694 -2.0633
  194MPD1    H7 3015   0.742   1.669  17.003  0.7783 -0.4648 -0.0649
  195MPD1     C 3016   3.053   3.643   0.419 -0.2553  1.0332  0.8887
  195MPD1    C1 3017   2.993   3.546   0.495  0.4807 -0.0767 -0.1152
  195MPD1    C2 3018   3.024   3.412   0.470  0.0435  0.3003 -0.5798
  195MPD1    C3 3019   3.102   3.369   0.362  0.4052  0.7205  0.1800
  195MPD1    C4 3020   3.174   3.466   0.303  0.6804  0.1407 -0.1546
  195MPD1    C5 3021   3.146   3.602   0.328 -0.9563 -0.8385 -1.0976
  195MPD1     H 3022   2.962   3.341   0.524  1.7432 -0.5752  0.2138
  195MPD1    H1 3023   3.258   3.443   0.238 -0.2596 -2.1751 -0.5567
  195MPD1    H2 3024   3.031   3.749   0.430 -1.1204  0.9354  0.1208
  195MPD1    H3 3025   3.202   3.674   0.270 -1.7624  0.8419  0.1860
  195MPD1     N 3026   3.130   3.234   0.338 -0.3835 -0.0988 -0.7798
  195MPD1    H5 3027   3.216   3.211   0.290  0.6361 -0.4638  1.2116
  195MPD1    N1 3028   2.894   3.585   0.577  0.7014  0.0001 -0.3734
  195MPD1    H6 3029   2.894   3.685   0.593  0.2295 -0.2482  1.2607
  195MPD1    H7 3030   2.884   3.528   0.661 -0.5526  0.5948 -0.1209
  196MPD1     C 3031   1.831   2.050   0.182 -0.3387  0.0742  0.1161
  196MPD1    C1 3032   1.934   1.956   0.168 -0.1717 -0.0636  0.1304
  196MPD1    C2 3033   2.061   1.999   0.193  0.2028 -0.5988 -0.1844
  196MPD1    C3 3034   2.091   2.120   0.248 -0.0309  0.9486 -0.7613
  196MPD1    C4 3035   1.987   2.204   0.266  0.0556  0.0822 -0.4991
  196MPD1    C5 3036   1.855   2.179   0.232  0.5424 -0.0798  0.3648
  196MPD1     H 3037   2.147   1.934   0.182 -1.6463 -2.9318 -0.8939
  196MPD1    H1 3038   2.011   2.302   0.307 -2.3237  1.0989 -1.4779
  196MPD1    H2 3039   1.726   2.026   0.167 -0.7254  1.3471  0.8105
  196MPD1    H3 3040   1.775   2.247   0.259  0.2753 -0.4435  0.4905
  196MPD1     N 3041   2.221   2.160   0.296  0.7102  0.2470  0.3301
  196MPD1    H5 3042   2.219   2.255   0.331  3.6760 -0.3784  2.1990
  196MPD1    N1 3043   1.906   1.828   0.123 -0.6023 -0.7041 -0.2197
  196MPD1    H6 3044   1.808   1.804   0.142 -0.4002  0.1713  1.8954
  196MPD1    H7 3045   1.957   1.750   0.162  2.5173  0.1017 -2.7088
  197MPD1     C 3046   1.871   3.590  17.251  0.8527 -0.0736 -0.5366
  197MPD1    C1 3047   1.975   3.662  17.305 -0.2703 -0.3028  0.1393
  197MPD1    C2 3048   2.003   3.782  17.251  0.0749 -0.3697 -0.2421
  197MPD1    C3 3049   1.941   3.821  17.130  0.7782 -0.5619  0.3459
  197MPD1    C4 3050   1.853   3.737  17.069  0.5370 -0.5641  0.3360
  197MPD1    C5 3051   1.816   3.623  17.131  0.1369  0.4791 -0.1865
  197MPD1     H 3052   2.077   3.845  17.300 -0.7130  1.4807 -1.4314
  197MPD1    H1 3053   1.815   3.766  16.972  0.5623  0.4229  0.6235
  197MPD1    H2 3054   1.835   3.496  17.292  1.3494 -0.4570 -0.9773
  197MPD1    H3 3055   1.743   3.559  17.083  0.6158  1.7789 -2.6433
  197MPD1     N 3056   1.967   3.942  17.070 -0.2969  0.1104 -0.1809
  197MPD1    H5 3057   1.920   3.947  16.980  1.4460  0.7809 -1.0476
  197MPD1    N1 3058   2.036   3.617  17.422  0.2131 -0.3673  0.1180
  197MPD1    H6 3059   2.012   3.524  17.454  1.0074 -0.9445 -0.9844
  197MPD1    H7 3060   2.136   3.635  17.420 -0.1674  1.5732 -2.2718
  198MPD1     C 3061   4.049   3.300  14.462 -0.1498  0.3417  0.1435
  198MPD1    C1 3062   4.168   3.353  14.503  0.3394 -0.1074  0.0835
  198MPD1    C2 3063   4.179   3.390  14.630  0.1785  0.2683 -0.2813
  198MPD1    C3 3064   4.080   3.357  14.725 -0.1371  0.3358  0.1080
  198MPD1    C4 3065   3.962   3.307  14.678  0.0334  0.3290 -0.2016
  198MPD1    C5 3066   3.945   3.281  14.546 -1.1370  0.5370  0.1444
  198MPD1     H 3067   4.275   3.432  14.657  1.9400 -3.1324 -1.2771
  198MPD1    H1 3068   3.886   3.281  14.751 -0.5568  0.2816 -0.8355
  198MPD1    H2 3069   4.027   3.267  14.361 -0.5877  0.3932  0.2213
  198MPD1    H3 3070   3.847   3.249  14.511 -1.3775  0.1430  1.1733
  198MPD1     N 3071   4.106   3.389  14.864 -0.5257 -0.1793 -0.3693
  198MPD1    H5 3072   4.197   3.430  14.883 -2.1656  3.0767  0.4261
  198MPD1    N1 3073   4.269   3.383  14.415  0.0785  0.7512 -0.8002
  198MPD1    H6 3074   4.270   3.319  14.336  0.2921 -0.6254  0.3265
  198MPD1    H7 3075   4.361   3.398  14.457  0.5959 -0.4251 -1.5305
  199MPD1     C 3076   1.160   3.021   9.729 -0.0710 -0.1723  0.4653
  199MPD1    C1 3077   1.213   3.140   9.683 -0.3220  0.0074 -0.1112
  199MPD1    C2 3078   1.124   3.230   9.621 -0.4696 -0.2740 -0.0745
  199MPD1    C3 3079   0.983   3.219   9.614  0.1318 -0.6012 -0.4406
  199MPD1    C4 3080   0.933   3.100   9.663 -0.3419  0.4119  0.4588
  199MPD1    C5 3081   1.025   3.008   9.711 -0.7562 -0.2417  0.0785
  199MPD1     H 3082   1.180   3.314   9.581 -0.8710 -0.2165 -0.5119
  199MPD1    H1 3083   0.835   3.070   9.628 -0.3567 -0.0685  0.9109
  199MPD1    H2 3084   1.214   2.934   9.766 -0.3181  0.1980  1.6716
  199MPD1    H3 3085   0.982   2.909   9.727  2.2707 -1.5224  0.2369
  199MPD1     N 3086   0.896   3.318   9.563 -0.2763  0.0943 -0.2422
  199MPD1    H5 3087   0.795   3.312   9.565 -0.2253 -0.0745  1.4437
  199MPD1    N1 3088   1.353   3.164   9.676 -0.5701  0.0722 -0.2323
  199MPD1    H6 3089   1.412   3.108   9.737  1.4446  1.4357 -0.9593
  199MPD1    H7 3090   1.370   3.263   9.689 -0.3029 -0.1580  1.2172
  200MPD1     C 3091   4.589   4.359  15.017  0.0683 -0.0466  0.4103
  200MPD1    C1 3092   4.572   4.424  14.895  0.0975  0.3708 -0.1810
  200MPD1    C2 3093   4.687   4.437  14.818  0.4268  0.2192  0.5582
  200MPD1    C3 3094   0.074   4.415  14.878 -0.7313 -0.5056 -0.0695
  200MPD1    C4 3095   0.086   4.355  15.002  0.1566  1.0930  0.4265
  200MPD1    C5 3096   4.711   4.321  15.066  0.2937  0.4865  0.6176
  200MPD1     H 3097   4.681   4.470  14.715 -0.4028 -2.5699 -0.2791
  200MPD1    H1 3098   0.182   4.324  15.041  0.4712 -0.5227 -1.5983
  200MPD1    H2 3099   4.497   4.329  15.066 -0.9326 -0.0411 -1.4659
  200MPD1    H3 3100   4.718   4.260  15.155  1.1784  1.8315  1.4663
  200MPD1     N 3101   0.180   4.444  14.794 -0.4606  0.0061  0.4610
  200MPD1    H5 3102   0.149   4.459  14.698 -0.9423 -1.0127  0.4637
  200MPD1    N1 3103   4.444   4.446  14.841 -0.3915 -0.1716 -0.6738
  200MPD1    H6 3104   4.378   4.483  14.909 -0.5789  1.1201 -1.5566
  200MPD1    H7 3105   4.459   4.520  14.773 -1.3258  3.3099  2.9018
  201MPD1     C 3106   2.946   2.951  12.839  0.8548  0.2323  0.2070
  201MPD1    C1 3107   2.990   3.022  12.955  0.1737 -0.0104 -0.0534
  201MPD1    C2 3108   2.979   2.952  13.076 -0.1135 -0.0248 -0.0964
  201MPD1    C3 3109   2.923   2.829  13.082 -0.2694 -0.3030  0.2727
  201MPD1    C4 3110   2.887   2.756  12.969  0.0244  0.6036  0.0056
  201MPD1    C5 3111   2.901   2.820  12.851  0.4792  0.2034  0.3960
  201MPD1     H 3112   2.998   2.992  13.175  1.0586 -4.0732  1.3138
  201MPD1    H1 3113   2.853   2.653  12.966  1.8946 -0.0486  1.1000
  201MPD1    H2 3114   2.953   2.994  12.740 -1.2699 -1.2808 -0.6098
  201MPD1    H3 3115   2.888   2.763  12.760  0.3066 -0.8690  1.1031
  201MPD1     N 3116   2.897   2.791  13.213 -0.2940 -0.5452 -0.4674
  201MPD1    H5 3117   2.922   2.852  13.289 -2.7606 -1.3266  0.9670
  201MPD1    N1 3118   3.014   3.158  12.943  0.1528 -0.0036  0.2911
  201MPD1    H6 3119   3.071   3.189  13.022  1.9594 -0.0090 -1.0165
  201MPD1    H7 3120   3.060   3.181  12.856 -0.5934 -0.9284 -0.3555
  202MPD1     C 3121   2.276   2.184   8.988  0.5324  0.1875 -0.4331
  202MPD1    C1 3122   2.294   2.060   9.051  0.4471  0.3200  0.3806
  202MPD1    C2 3123   2.339   2.066   9.187 -0.0599 -0.2000 -0.4903
  202MPD1    C3 3124   2.341   2.185   9.258 -0.1588 -0.2246 -0.2125
  202MPD1    C4 3125   2.310   2.308   9.190 -0.6055  0.3845  0.5079
  202MPD1    C5 3126   2.278   2.295   9.059 -0.5502 -0.3816  1.2434
  202MPD1     H 3127   2.379   1.974   9.228 -0.0067 -0.1553 -0.4414
  202MPD1    H1 3128   2.324   2.401   9.244 -0.9172  1.0046 -0.4642
  202MPD1    H2 3129   2.248   2.184   8.883 -0.4300 -0.0990 -0.1845
  202MPD1    H3 3130   2.261   2.390   9.011  1.6971 -1.4202 -1.5987
  202MPD1     N 3131   2.380   2.196   9.395 -0.1696  0.0342  0.0143
  202MPD1    H5 3132   2.384   2.291   9.428 -2.5248 -0.1049  0.6832
  202MPD1    N1 3133   2.330   1.951   8.971 -0.0017  0.3250 -0.4474
  202MPD1    H6 3134   2.279   1.962   8.883 -0.8824  0.1573  0.0431
  202MPD1    H7 3135   2.317   1.859   9.013  3.8021  0.6404  1.4101
  203MPD1     C 3136   1.609   3.832  11.999 -0.0745 -0.2493 -0.1095
  203MPD1    C1 3137   1.581   3.710  11.942 -0.0643  0.5804 -0.8022
  203MPD1    C2 3138   1.570   3.604  12.027 -0.2684 -0.6456  1.0049
  203MPD1    C3 3139   1.574   3.626  12.163 -0.7298 -0.0579 -0.3374
  203MPD1    C4 3140   1.609   3.742  12.219  0.4471  0.2918  0.4877
  203MPD1    C5 3141   1.620   3.857  12.136  0.2368  0.4473 -0.4488
  203MPD1     H 3142   1.550   3.504  11.991 -0.8944  0.5543 -1.9990
  203MPD1    H1 3143   1.621   3.755  12.326 -1.6262  1.4311  0.5907
  203MPD1    H2 3144   1.621   3.923  11.942  0.8227  0.3974  1.1135
  203MPD1    H3 3145   1.657   3.953  12.170 -1.8191  0.8252  0.7317
  203MPD1     N 3146   1.553   3.505  12.241 -0.1631  0.1502 -0.2513
  203MPD1    H5 3147   1.528   3.418  12.195 -0.9895 -0.2964  1.0386
  203MPD1    N1 3148   1.587   3.690  11.798 -0.2476  0.1812 -0.1146
  203MPD1    H6 3149   1.685   3.679  11.772  0.3602  0.1625  2.1337
  203MPD1    H7 3150   1.538   3.606  11.770 -4.3655  2.0280  1.4692
  204MPD1     C 3151   1.189   0.445  17.427 -0.7122 -0.2098 -0.0764
  204MPD1    C1 3152   1.111   0.379  17.335 -0.2981 -0.2168  0.7084
  204MPD1    C2 3153   1.135   0.246  17.318  0.0492  0.1675  0.1740
  204MPD1    C3 3154   1.218   0.167  17.396  0.4308 -0.4971 -0.3232
  204MPD1    C4 3155   1.294   0.237  17.482 -0.3012 -0.3437 -0.1402
  204MPD1    C5 3156   1.276   0.372  17.498  0.6088  0.0027 -0.4555
  204MPD1     H 3157   1.076   0.188  17.248  0.3848  0.2022 -0.1396
  204MPD1    H1 3158   1.363   0.178  17.542 -0.6067  0.4537  0.9980
  204MPD1    H2 3159   1.171   0.544  17.467  3.5573 -0.1211  1.5987
  204MPD1    H3 3160   1.337   0.425  17.571  0.7717 -0.8285  0.0050
  204MPD1     N 3161   1.223   0.028  17.376  0.2068 -0.5388 -0.2329
  204MPD1    H5 3162   1.162   4.727  17.304 -0.3576  0.4848 -0.2934
  204MPD1    N1 3163   1.026   0.451  17.246  0.3231 -0.2473 -0.0866
  204MPD1    H6 3164   0.973   0.396  17.179  0.4590  1.5696 -1.6859
  204MPD1    H7 3165   0.972   0.526  17.289 -0.0545  0.4393 -1.7531
  205MPD1     C 3166   1.852   2.906   0.229 -0.4914 -0.1241  0.7531
  205MPD1    C1 3167   1.850   3.022   0.308 -0.6543 -0.1669 -0.4723
  205MPD1    C2 3168   1.755   3.115   0.287  0.6453 -0.3239 -0.7534
  205MPD1    C3 3169   1.645   3.084   0.196 -0.4678  0.0877  0.1883
  205MPD1    C4 3170   1.643   2.964   0.134 -0.6346 -0.2448  0.5252
  205MPD1    C5 3171   1.748   2.875   0.143  0.5670  0.2977 -1.0120
  205MPD1     H 3172   1.750   3.201   0.352  1.0786  0.0350 -1.1935
  205MPD1    H1 3173   1.568   2.927   0.067 -4.0391  0.0909  4.1479
  205MPD1    H2 3174   1.931   2.835   0.247  0.0232  0.1968 -0.3000
  205MPD1    H3 3175   1.751   2.776   0.101 -0.1371  0.0188 -0.4103
  205MPD1     N 3176   1.550   3.175   0.153 -0.1595  0.2409 -0.4590
  205MPD1    H5 3177   1.485   3.137   0.085  0.7917 -3.4129  0.6299
  205MPD1    N1 3178   1.961   3.054   0.392  0.1450 -0.1727  0.2124
  205MPD1    H6 3179   2.008   2.972   0.430  0.0342  0.3655  1.5166
  205MPD1    H7 3180   1.946   3.123   0.465  1.4958  0.6189 -0.2702
  206MPD1     C 3181   1.119   1.646  16.812 -0.0671 -0.0090 -0.8361
  206MPD1    C1 3182   1.105   1.521  16.756 -0.0148 -0.4110 -0.4216
  206MPD1    C2 3183   1.096   1.516  16.619  0.2290 -0.5566 -0.4298
  206MPD1    C3 3184   1.073   1.626  16.547 -0.1979  0.6752 -0.3101
  206MPD1    C4 3185   1.071   1.749  16.607 -0.4362 -0.6156 -0.0493
  206MPD1    C5 3186   1.085   1.763  16.741  0.3360  0.1880  0.2021
  206MPD1     H 3187   1.075   1.419  16.575  1.4816 -0.6658 -0.7762
  206MPD1    H1 3188   1.056   1.833  16.540 -0.8172 -1.6144 -1.2094
  206MPD1    H2 3189   1.140   1.650  16.918 -0.8111  1.0057 -0.7239
  206MPD1    H3 3190   1.100   1.861  16.786 -0.2957  0.0873  0.6389
  206MPD1     N 3191   1.054   1.620  16.402 -0.4783 -0.4705  0.1785
  206MPD1    H5 3192   1.059   1.708  16.351  1.8320 -0.5962  0.1640
  206MPD1    N1 3193   1.140   1.408  16.836  0.4258  0.0880 -0.0029
  206MPD1    H6 3194   1.108   1.424  16.931  1.9829 -1.0408  0.7023
  206MPD1    H7 3195   1.114   1.318  16.797  2.0282  0.4366 -1.8923
  207MPD1     C 3196   3.169   3.493   9.563 -0.2481 -0.3058 -0.1807
  207MPD1    C1 3197   3.284   3.497   9.497 -0.7674 -0.5666 -0.2337
  207MPD1    C2 3198   3.400   3.486   9.571 -0.8300 -0.2852  0.2754
  207MPD1    C3 3199   3.400   3.471   9.712  1.0299  0.1557  0.1435
  207MPD1    C4 3200   3.275   3.475   9.770 -0.0213 -0.1028  0.9790
  207MPD1    C5 3201   3.158   3.480   9.694 -0.1531 -0.0001 -0.1251
  207MPD1     H 3202   3.490   3.486   9.511 -1.4238  3.9484 -0.5876
  207MPD1    H1 3203   3.263   3.476   9.878 -0.8579 -0.5926  0.8871
  207MPD1    H2 3204   3.073   3.504   9.513 -0.0088  0.6777 -0.4322
  207MPD1    H3 3205   3.064   3.486   9.748 -0.5888  0.6134 -0.9451
  207MPD1     N 3206   3.513   3.457   9.788 -0.3381  0.2580 -0.4626
  207MPD1    H5 3207   3.501   3.445   9.888  2.5982 -0.4713 -0.1999
  207MPD1    N1 3208   3.287   3.539   9.358  0.2289  0.3826 -0.8499
  207MPD1    H6 3209   3.376   3.501   9.324  0.7520  1.5160 -0.7566
  207MPD1    H7 3210   3.210   3.494   9.310 -0.6255  0.5149  0.4004
  208MPD1     C 3211   1.240   1.875  17.157 -0.8785  0.1018  0.0496
  208MPD1    C1 3212   1.231   2.005  17.118  0.3887 -0.2993 -0.6039
  208MPD1    C2 3213   1.192   2.105  17.209 -0.5981 -0.7302  0.3180
  208MPD1    C3 3214   1.176   2.072  17.346  0.0368 -0.0219 -0.0301
  208MPD1    C4 3215   1.203   1.940  17.382  0.2425  0.3206  0.9643
  208MPD1    C5 3216   1.236   1.842  17.295  0.0456  0.7602 -0.1958
  208MPD1     H 3217   1.176   2.208  17.181 -0.9245 -1.2847 -1.4795
  208MPD1    H1 3218   1.182   1.905  17.483 -0.3055  1.8350  1.3795
  208MPD1    H2 3219   1.260   1.792  17.089 -0.2138  0.0310  0.3281
  208MPD1    H3 3220   1.239   1.735  17.311 -3.4742  1.3070  3.9354
  208MPD1     N 3221   1.124   2.164  17.435  0.0962  0.0847 -0.1308
  208MPD1    H5 3222   1.110   2.258  17.400 -0.9965  0.2735  0.8325
  208MPD1    N1 3223   1.227   2.026  16.981 -0.6976 -1.0640 -0.3423
  208MPD1    H6 3224   1.248   2.120  16.948 -1.0236  0.5363  4.0304
  208MPD1    H7 3225   1.287   1.961  16.930 -0.9115 -1.8857  0.4514
  209MPD1     C 3226   3.704   2.908  11.462 -0.7860 -0.3331  0.0863
  209MPD1    C1 3227   3.664   2.899  11.333  0.4997 -0.2658 -0.8811
  209MPD1    C2 3228   3.713   2.999  11.249  0.0446 -0.3944 -0.1176
  209MPD1    C3 3229   3.783   3.108  11.291 -0.2931 -0.3868  0.5772
  209MPD1    C4 3230   3.807   3.119  11.427  0.6991 -0.1565  0.0047
  209MPD1    C5 3231   3.768   3.017  11.512  0.2592 -0.1396 -0.2600
  209MPD1     H 3232   3.707   2.987  11.141 -0.6786  0.8774 -0.2088
  209MPD1    H1 3233   3.863   3.195  11.480  0.7871  0.6753 -1.2863
  209MPD1    H2 3234   3.680   2.826  11.528 -3.9851  2.3797  2.3203
  209MPD1    H3 3235   3.787   3.021  11.618 -2.9510 -3.5029  0.4364
  209MPD1     N 3236   3.818   3.204  11.193 -0.0980 -0.3402 -0.8207
  209MPD1    H5 3237   3.795   3.174  11.099 -0.2974 -3.3634  0.1811
  209MPD1    N1 3238   3.610   2.786  11.286  0.0107  0.2615 -0.1454
  209MPD1    H6 3239   3.558   2.809  11.202  0.0702 -1.0007 -0.5206
  209MPD1    H7 3240   3.544   2.746  11.352 -3.0375  2.3857 -1.9165
  210MPD1     C 3241   4.408   3.988  11.374 -0.0544 -0.1307 -0.0335
  210MPD1    C1 3242   4.428   3.958  11.242 -0.1580  0.1659 -0.0033
  210MPD1    C2 3243   4.326   3.876  11.189  0.0090 -0.2958 -0.4518
  210MPD1    C3 3244   4.217   3.825  11.259  0.2969 -0.0023 -0.6241
  210MPD1    C4 3245   4.201   3.867  11.388  0.2350  0.3054 -0.1237
  210MPD1    C5 3246   4.297   3.941  11.443  0.2523 -0.1429 -0.5021
  210MPD1     H 3247   4.335   3.852  11.084 -1.0296  0.1153 -0.6321
  210MPD1    H1 3248   4.113   3.843  11.447  0.0186 -2.0916 -1.4466
  210MPD1    H2 3249   4.474   4.059  11.423  0.2448 -0.6449  0.3137
  210MPD1    H3 3250   4.296   3.977  11.546 -1.2513  2.1762 -1.3276
  210MPD1     N 3251   4.119   3.739  11.199  0.4186 -0.9322  0.1452
  210MPD1    H5 3252   4.042   3.710  11.258  0.9827 -1.6636  0.5267
  210MPD1    N1 3253   4.526   4.027  11.165 -0.1570  0.2158 -0.8453
  210MPD1    H6 3254   4.560   3.972  11.086 -3.3909 -1.5702 -0.9949
  210MPD1    H7 3255   4.602   4.062  11.223 -0.0626 -1.9108  0.3044
  211MPD1     C 3256   0.933   2.814  15.781 -0.2651  0.0382  0.1059
  211MPD1    C1 3257   0.818   2.889  15.766  0.0427  0.2764  0.0373
  211MPD1    C2 3258   0.814   3.006  15.831 -0.1932  0.6323  0.4768
  211MPD1    C3 3259   0.926   3.058  15.893  0.3339  0.1293  0.2590
  211MPD1    C4 3260   1.041   2.982  15.903  0.4321 -0.2452  0.2304
  211MPD1    C5 3261   1.037   2.853  15.856 -0.8010  0.7615  0.0952
  211MPD1     H 3262   0.727   3.070  15.825 -1.3010 -0.8199  0.8470
  211MPD1    H1 3263   1.139   3.004  15.944  0.3989 -2.3261  1.4197
  211MPD1    H2 3264   0.927   2.712  15.745 -0.1021 -0.0510  0.3330
  211MPD1    H3 3265   1.124   2.788  15.858 -1.9611 -0.7792  0.4383
  211MPD1     N 3266   0.920   3.190  15.946  0.2460 -0.2331 -0.3274
  211MPD1    H5 3267   0.833   3.236  15.921  0.2558 -0.7193 -1.2586
  211MPD1    N1 3268   0.707   2.829  15.714 -0.6191 -0.1424 -1.0650
  211MPD1    H6 3269   0.724   2.766  15.636 -0.3769 -2.5501  0.9448
  211MPD1    H7 3270   0.629   2.888  15.687  0.7458  2.4889  0.7099
  212MPD1     C 3271   0.754   1.851  16.490  0.4330 -0.0291 -0.2143
  212MPD1    C1 3272   0.732   1.823  16.616  0.2425  0.0280  0.4699
  212MPD1    C2 3273   0.652   1.717  16.650  0.4530  0.1504  0.2298
  212MPD1    C3 3274   0.594   1.635  16.561 -0.0654 -0.0131 -0.6311
  212MPD1    C4 3275   0.625   1.660  16.430  0.9939  0.2642  0.3294
  212MPD1    C5 3276   0.703   1.769  16.394 -0.5431  1.1764  0.0451
  212MPD1     H 3277   0.630   1.714  16.757  1.1203 -0.3793  0.3505
  212MPD1    H1 3278   0.582   1.598  16.351  1.5919  0.8082 -0.4244
  212MPD1    H2 3279   0.797   1.946  16.459 -2.0624  0.9211 -0.7366
  212MPD1    H3 3280   0.723   1.802  16.293 -1.4219  2.2964  0.2333
  212MPD1     N 3281   0.502   1.533  16.597 -0.0387  0.2752  0.0941
  212MPD1    H5 3282   0.466   1.469  16.527 -0.9689  0.1815  0.6677
  212MPD1    N1 3283   0.777   1.914  16.712  0.3589 -0.0277 -0.0908
  212MPD1    H6 3284   0.788   1.873  16.804  0.9309 -0.6894 -0.4491
  212MPD1    H7 3285   0.864   1.964  16.693 -0.7809  1.8626 -0.3344
  213MPD1     C 3286   4.346   2.410  15.569  0.6215  0.6401  0.4223
  213MPD1    C1 3287   4.220   2.411  15.630 -0.0689  0.1711 -0.0616
  213MPD1    C2 3288   4.109   2.424  15.546  0.1641  0.0674 -0.0090
  213MPD1    C3 3289   4.126   2.461  15.414  0.4659  0.5287 -0.6217
  213MPD1    C4 3290   4.254   2.486  15.366 -0.6091 -0.0278  0.0660
  213MPD1    C5 3291   4.360   2.450  15.439  0.2215 -0.1376  0.3127
  213MPD1     H 3292   4.011   2.421  15.590  0.7933 -0.5437  1.3426
  213MPD1    H1 3293   4.283   2.508  15.264 -2.8120 -1.4614 -0.8851
  213MPD1    H2 3294   4.434   2.389  15.629  0.9150 -0.0846 -0.2608
  213MPD1    H3 3295   4.455   2.435  15.390  1.5756  0.1976  2.8053
  213MPD1     N 3296   4.018   2.487  15.337 -0.5354 -0.0880 -0.4510
  213MPD1    H5 3297   3.928   2.481  15.383  1.3702 -0.0053  3.3073
  213MPD1    N1 3298   4.199   2.347  15.747  0.2005 -0.9390 -0.1800
  213MPD1    H6 3299   4.108   2.370  15.789  0.8173  0.2423  0.5180
  213MPD1    H7 3300   4.281   2.353  15.807 -0.3856 -0.1590  0.5535
  214MPD1     C 3301   3.191   1.996  14.926  0.5514  0.3129 -0.0009
  214MPD1    C1 3302   3.214   2.065  15.045 -0.2529 -0.1093  0.9907
  214MPD1    C2 3303   3.335   2.129  15.054 -0.2681 -0.0028 -0.2643
  214MPD1    C3 3304   3.435   2.131  14.954 -0.0870 -0.1593 -0.0554
  214MPD1    C4 3305   3.405   2.070  14.836 -0.0507  0.3794  0.9576
  214MPD1    C5 3306   3.286   2.003  14.831  0.6318 -0.5472 -0.4557
  214MPD1     H 3307   3.346   2.189  15.143 -0.9328  0.8654 -0.7705
  214MPD1    H1 3308   3.468   2.064  14.749 -1.8217  0.2940 -0.3215
  214MPD1    H2 3309   3.092   1.956  14.907 -0.0825  1.0844  1.7311
  214MPD1    H3 3310   3.275   1.949  14.737 -1.5788 -0.9448  0.0411
  214MPD1     N 3311   3.551   2.217  14.964  0.5742 -0.2521 -0.1089
  214MPD1    H5 3312   3.617   2.202  14.889 -0.1510  2.8531 -1.3797
  214MPD1    N1 3313   3.116   2.088  15.143  0.1479 -0.4339  0.6048
  214MPD1    H6 3314   3.058   2.009  15.171  0.6465 -1.2395 -0.5828
  214MPD1    H7 3315   3.160   2.109  15.232 -0.1979 -0.4476  0.7793
  215MPD1     C 3316   3.084   2.638  11.385  0.4920 -0.1691 -0.7372
  215MPD1    C1 3317   3.198   2.630  11.457 -0.8205  0.5524  0.2031
  215MPD1    C2 3318   3.276   2.738  11.467  0.1838  0.4600  0.3413
  215MPD1    C3 3319   3.249   2.852  11.396  0.0151  0.0906  0.4840
  215MPD1    C4 3320   3.132   2.865  11.332 -0.1991 -0.3292  0.2403
  215MPD1    C5 3321   3.051   2.757  11.321 -0.2117  0.9961  0.0127
  215MPD1     H 3322   3.368   2.726  11.524  1.3477 -0.3706 -1.7165
  215MPD1    H1 3323   3.099   2.955  11.282 -0.4525 -0.5790 -0.0466
  215MPD1    H2 3324   3.019   2.555  11.362 -1.2115  1.4928 -1.9752
  215MPD1    H3 3325   2.960   2.764  11.262 -0.7469  3.0748  1.0896
  215MPD1     N 3326   3.342   2.954  11.408  0.1377 -0.4000 -0.4181
  215MPD1    H5 3327   3.408   2.940  11.484  0.4877 -1.9698 -1.0026
  215MPD1    N1 3328   3.233   2.510  11.519 -0.5949  0.0632 -0.8805
  215MPD1    H6 3329   3.333   2.513  11.536 -0.5571 -0.4275 -1.0016
  215MPD1    H7 3330   3.199   2.421  11.483 -1.7909 -0.2001  0.9336
  216MPD1     C 3331   0.418   1.892  17.211  0.1848 -0.4305  0.2530
  216MPD1    C1 3332   0.410   1.793  17.121  0.6609  0.7581  0.0278
  216MPD1    C2 3333   0.371   1.668  17.173 -1.3346  0.2370 -0.0455
  216MPD1    C3 3334   0.348   1.645  17.304 -0.5417  0.1033  0.7028
  216MPD1    C4 3335   0.346   1.757  17.386 -0.5713 -0.1546  0.3824
  216MPD1    C5 3336   0.375   1.879  17.339  0.2725  0.2920  0.3279
  216MPD1     H 3337   0.371   1.580  17.109 -1.5045  0.7749 -0.7883
  216MPD1    H1 3338   0.315   1.751  17.490 -0.0489 -2.3239  0.4184
  216MPD1    H2 3339   0.456   1.989  17.180  2.5066 -0.3407  3.4296
  216MPD1    H3 3340   0.374   1.968  17.401  0.7206  0.2482  0.3982
  216MPD1     N 3341   0.317   1.517  17.351 -0.3006 -0.1895  0.2234
  216MPD1    H5 3342   0.307   1.447  17.278  1.1631  0.6796 -0.8119
  216MPD1    N1 3343   0.438   1.806  16.986 -0.1404 -0.2285 -0.2174
  216MPD1    H6 3344   0.494   1.887  16.959  1.7666 -0.1602  3.8064
  216MPD1    H7 3345   0.466   1.721  16.938  0.0205  0.8250 -1.9637
  217MPD1     C 3346   1.826   2.261   8.302  0.1419 -0.0421 -0.2802
  217MPD1    C1 3347   1.787   2.361   8.382 -0.1443 -0.5157 -0.4357
  217MPD1    C2 3348   1.750   2.324   8.509  0.0029 -0.3554  1.0874
  217MPD1    C3 3349   1.769   2.194   8.558  0.2525 -0.6511 -0.6827
  217MPD1    C4 3350   1.812   2.096   8.468 -0.4038 -0.0912 -0.4768
  217MPD1    C5 3351   1.841   2.133   8.346  0.2880  0.0583  0.4945
  217MPD1     H 3352   1.711   2.405   8.570  0.4892  0.6418  0.0497
  217MPD1    H1 3353   1.832   1.993   8.496  3.1777  1.0717  1.3533
  217MPD1    H2 3354   1.839   2.283   8.196 -2.7253  1.7440 -0.2574
  217MPD1    H3 3355   1.882   2.058   8.279  0.4202 -1.1269  1.8920
  217MPD1     N 3356   1.729   2.166   8.693  0.1305  0.2171 -0.3370
  217MPD1    H5 3357   1.744   2.071   8.727 -1.7069  0.0005 -0.1716
  217MPD1    N1 3358   1.753   2.489   8.333 -0.3176 -0.1381 -0.3043
  217MPD1    H6 3359   1.771   2.558   8.406 -0.9541 -1.4697  1.1163
  217MPD1    H7 3360   1.796   2.530   8.250 -0.4047  0.8681  0.1463
  218MPD1     C 3361   3.592   3.987  12.049  0.7521  0.3116 -0.0524
  218MPD1    C1 3362   3.603   3.873  11.971 -0.9460 -0.0202  0.0672
  218MPD1    C2 3363   3.606   3.751  12.035 -0.7719 -1.3023 -0.5161
  218MPD1    C3 3364   3.597   3.742  12.174  0.3085  0.7609  0.9459
  218MPD1    C4 3365   3.591   3.856  12.249 -0.2072 -0.2491  0.3463
  218MPD1    C5 3366   3.595   3.978  12.184 -0.0633 -0.0774 -0.6835
  218MPD1     H 3367   3.618   3.664  11.972 -1.6501 -1.4378 -0.4935
  218MPD1    H1 3368   3.571   3.853  12.355 -2.0101  0.6887  0.0304
  218MPD1    H2 3369   3.591   4.087  12.007  2.3381  0.1154 -0.5473
  218MPD1    H3 3370   3.610   4.065  12.246  1.4562 -0.6247 -0.2756
  218MPD1     N 3371   3.587   3.616  12.238 -0.1726 -0.7490  0.5148
  218MPD1    H5 3372   3.605   3.534  12.181  2.8485  1.0781 -1.1425
  218MPD1    N1 3373   3.592   3.887  11.833 -1.1750 -0.1558  0.2197
  218MPD1    H6 3374   3.654   3.964  11.809 -0.7690 -0.9912 -1.4200
  218MPD1    H7 3375   3.632   3.807  11.785  1.6709  2.3556 -1.6159
  219MPD1     C 3376   3.353   2.707  11.970  0.1639  0.0591 -0.1033
  219MPD1    C1 3377   3.292   2.828  11.946 -0.1485  1.5238 -0.2501
  219MPD1    C2 3378   3.331   2.938  12.021  0.7885 -0.6862 -0.3386
  219MPD1    C3 3379   3.405   2.913  12.138  0.6019  0.0762 -0.2599
  219MPD1    C4 3380   3.436   2.786  12.178  0.4888  0.3528 -0.4058
  219MPD1    C5 3381   3.421   2.683  12.090 -1.1436 -0.6728  0.6733
  219MPD1     H 3382   3.292   3.038  12.003  0.4132 -0.1890  3.1407
  219MPD1    H1 3383   3.488   2.774  12.272  1.0819  1.0749 -0.6404
  219MPD1    H2 3384   3.340   2.628  11.896  1.0658 -1.2842  1.1909
  219MPD1    H3 3385   3.444   2.586  12.131  0.3219  0.1255  1.7066
  219MPD1     N 3386   3.436   3.013  12.232 -0.4706  0.0516 -0.2673
  219MPD1    H5 3387   3.476   2.996  12.324  0.4062 -0.9656 -0.8375
  219MPD1    N1 3388   3.232   2.842  11.821  0.6199 -0.0853  0.0595
  219MPD1    H6 3389   3.192   2.759  11.777 -1.7211  0.0668  1.8555
  219MPD1    H7 3390   3.166   2.919  11.817  1.6912  0.8708  0.5812
  220MPD1     C 3391   3.733   3.966   9.825 -0.5597  0.6973  0.1779
  220MPD1    C1 3392   3.659   3.854   9.797  0.0700 -0.4317 -0.7440
  220MPD1    C2 3393   3.585   3.794   9.896  0.0719  0.4105  0.5434
  220MPD1    C3 3394   3.599   3.834  10.026 -0.0106 -0.2835  0.5478
  220MPD1    C4 3395   3.692   3.937  10.059  0.2092 -0.0731  0.2976
  220MPD1    C5 3396   3.754   3.994   9.958  0.3314 -0.3840 -0.9078
  220MPD1     H 3397   3.518   3.716   9.862 -0.7424  2.7685 -3.2892
  220MPD1    H1 3398   3.690   3.986  10.156 -0.3158 -1.1274  0.8227
  220MPD1    H2 3399   3.782   4.030   9.753 -2.2968  1.0836 -0.6545
  220MPD1    H3 3400   3.804   4.088   9.980 -0.4507 -0.0434 -0.6026
  220MPD1     N 3401   3.547   3.773  10.143 -0.0032  0.3816  0.0324
  220MPD1    H5 3402   3.574   3.808  10.234 -1.5452  1.4014  0.0933
  220MPD1    N1 3403   3.620   3.834   9.667  0.2456 -0.8249  0.5166
  220MPD1    H6 3404   3.592   3.741   9.637 -1.4061  0.3658 -1.6570
  220MPD1    H7 3405   3.683   3.874   9.597  2.4156 -1.0213  2.3641
  221MPD1     C 3406   0.520   3.384  16.417 -0.8626 -0.6577 -0.0391
  221MPD1    C1 3407   0.485   3.249  16.386 -0.2643 -0.5157  0.1061
  221MPD1    C2 3408   0.591   3.162  16.346  0.3279  0.2072  0.1674
  221MPD1    C3 3409   0.719   3.211  16.326  0.0574 -0.3770 -0.0099
  221MPD1    C4 3410   0.751   3.337  16.374 -0.2560  0.5190  0.0823
  221MPD1    C5 3411   0.654   3.422  16.416  0.7028 -0.3208 -0.2411
  221MPD1     H 3412   0.566   3.060  16.318  1.6638  0.4578 -1.9776
  221MPD1    H1 3413   0.856   3.363  16.371 -0.5935  1.7103 -1.6312
  221MPD1    H2 3414   0.446   3.462  16.433 -1.4506 -0.8842 -1.5929
  221MPD1    H3 3415   0.669   3.526  16.442  3.7476 -0.9304  0.4574
  221MPD1     N 3416   0.827   3.125  16.301 -0.5455 -0.9419 -0.0485
  221MPD1    H5 3417   0.920   3.163  16.312 -1.5145  1.0878  1.2217
  221MPD1    N1 3418   0.354   3.202  16.392  0.5296 -0.1196 -0.5776
  221MPD1    H6 3419   0.287   3.270  16.426  1.0268 -0.0684  0.3006
  221MPD1    H7 3420   0.351   3.114  16.443 -3.2959 -0.4300 -1.3077
  222MPD1     C 3421   0.575   2.427  17.042 -0.7832  0.5527  0.8886
  222MPD1    C1 3422   0.458   2.352  17.035 -0.7158  0.1146 -0.4552
  222MPD1    C2 3423   0.406   2.296  17.154 -0.0684 -0.6022 -0.2471
  222MPD1    C3 3424   0.461   2.328  17.279  0.4277  0.1819  0.1969
  222MPD1    C4 3425   0.569   2.416  17.279 -0.1286  0.1031  1.0762
  222MPD1    C5 3426   0.633   2.458  17.160 -0.0186 -0.1519  0.0457
  222MPD1     H 3427   0.324   2.226  17.155  0.1262 -0.8392 -0.9125
  222MPD1    H1 3428   0.612   2.451  17.372 -2.7983  2.1821  1.5049
  222MPD1    H2 3429   0.616   2.459  16.948  0.1406 -1.0865  0.7311
  222MPD1    H3 3430   0.721   2.521  17.164 -0.7561  0.7900  1.4535
  222MPD1     N 3431   0.402   2.287  17.399 -0.1728  0.0833  0.1240
  222MPD1    H5 3432   0.443   2.316  17.488 -0.3553 -3.2676  1.2885
  222MPD1    N1 3433   0.422   2.296  16.909  0.4299 -0.1516  0.6628
  222MPD1    H6 3434   0.452   2.362  16.838 -3.7614  2.4542  1.3026
  222MPD1    H7 3435   0.322   2.274  16.905  1.2099 -2.8494 -3.1670
  223MPD1     C 3436   4.399   1.722   0.257 -0.7566 -0.0345 -0.0541
  223MPD1    C1 3437   4.499   1.779   0.339 -0.0124 -0.8294  0.0924
  223MPD1    C2 3438   4.607   1.842   0.275 -0.0399 -0.1574  0.3160
  223MPD1    C3 3439   4.608   1.857   0.138  0.6873  0.6215  0.0267
  223MPD1    C4 3440   4.506   1.802   0.059 -0.0410  0.3198 -0.5224
  223MPD1    C5 3441   4.403   1.737   0.120 -1.0881  0.2218  0.6296
  223MPD1     H 3442   4.684   1.883   0.339 -0.4654  1.2509 -0.0862
  223MPD1    H1 3443   4.509   1.798  17.696 -0.4348  0.7347 -0.5483
  223MPD1    H2 3444   4.312   1.675   0.302 -0.8239 -0.1102 -0.2655
  223MPD1    H3 3445   4.325   1.692   0.060 -0.0216 -0.9175  0.0776
  223MPD1     N 3446   4.715   1.927   0.088 -0.8854  0.8002 -0.2722
  223MPD1    H5 3447   0.046   1.961   0.156 -1.4555 -2.5128  1.9492
  223MPD1    N1 3448   4.495   1.756   0.475  0.4274  0.3090 -0.4310
  223MPD1    H6 3449   4.404   1.767   0.518  0.5433 -0.4538  0.0024
  223MPD1    H7 3450   4.552   1.813   0.539  0.5421  0.7144 -0.8935
  224MPD1     C 3451   1.543   2.667   8.923  0.7832 -0.2485  0.3274
  224MPD1    C1 3452   1.456   2.726   9.012  0.9387  0.4140 -0.3939
  224MPD1    C2 3453   1.485   2.719   9.147  0.8815 -0.1294  1.2962
  224MPD1    C3 3454   1.591   2.642   9.198 -0.2031  0.2801  0.4209
  224MPD1    C4 3455   1.661   2.563   9.109  0.2814 -0.5809  0.2934
  224MPD1    C5 3456   1.642   2.584   8.972  0.1763  0.3625  0.0019
  224MPD1     H 3457   1.429   2.780   9.216 -1.5134  0.7053 -1.3765
  224MPD1    H1 3458   1.744   2.505   9.147  0.4969 -2.4782 -3.0703
  224MPD1    H2 3459   1.522   2.665   8.816  0.7653 -1.9060  0.3601
  224MPD1    H3 3460   1.711   2.539   8.901 -0.8384 -0.4354 -0.4776
  224MPD1     N 3461   1.631   2.644   9.333 -0.0504 -0.4609  0.2240
  224MPD1    H5 3462   1.698   2.572   9.357  0.0808 -0.1354  0.8369
  224MPD1    N1 3463   1.357   2.813   8.961  0.5578 -0.4669 -0.4563
  224MPD1    H6 3464   1.294   2.768   8.896 -0.5044  1.9288 -1.0660
  224MPD1    H7 3465   1.294   2.845   9.034 -1.0037 -0.8520 -1.6484
  225MPD1     C 3466   2.258   0.464  12.373 -0.1652  0.0143  0.4522
  225MPD1    C1 3467   2.270   0.341  12.443  0.4848  0.3054 -0.4840
  225MPD1    C2 3468   2.348   0.242  12.384  0.0308 -0.0633  1.0120
  225MPD1    C3 3469   2.436   0.279  12.288 -0.0493 -0.4557  0.1408
  225MPD1    C4 3470   2.436   0.401  12.232  0.4028 -0.2952 -0.4488
  225MPD1    C5 3471   2.349   0.500  12.275  1.0090 -0.0034  0.4185
  225MPD1     H 3472   2.336   0.140  12.420  0.1407  0.0455  1.3535
  225MPD1    H1 3473   2.516   0.431  12.166 -0.3833  2.3728 -0.2021
  225MPD1    H2 3474   2.187   0.538  12.408  1.2458  1.2169  0.7875
  225MPD1    H3 3475   2.354   0.605  12.250  1.3101  0.6390  3.1326
  225MPD1     N 3476   2.518   0.182  12.225  0.3774 -0.6734 -0.0336
  225MPD1    H5 3477   2.564   0.221  12.143  0.5174 -2.3531 -0.7438
  225MPD1    N1 3478   2.169   0.308  12.532 -0.3281  0.5689  0.6482
  225MPD1    H6 3479   2.190   0.231  12.594 -1.7620  0.2940  0.7949
  225MPD1    H7 3480   2.126   0.385  12.584 -1.0324 -0.0869  1.0277
  226MPD1     C 3481   0.416   4.061   8.996 -0.6111  0.4603  0.1991
  226MPD1    C1 3482   0.445   3.929   9.038  0.1934  0.1104 -0.2394
  226MPD1    C2 3483   0.568   3.876   9.015  0.2101 -0.1029  0.2290
  226MPD1    C3 3484   0.665   3.952   8.960 -0.9251  0.0642 -0.0678
  226MPD1    C4 3485   0.637   4.079   8.921 -0.5726  0.1491 -0.0863
  226MPD1    C5 3486   0.515   4.137   8.945 -0.0926  0.3565 -0.6717
  226MPD1     H 3487   0.578   3.769   9.027  0.8369  0.0557  1.1464
  226MPD1    H1 3488   0.708   4.146   8.873  0.5619 -1.0456 -0.0823
  226MPD1    H2 3489   0.318   4.103   9.012 -1.1987 -1.2085  1.0363
  226MPD1    H3 3490   0.495   4.241   8.923 -2.7445  0.2571  1.2088
  226MPD1     N 3491   0.794   3.882   8.941 -0.0539 -0.1712 -0.7518
  226MPD1    H5 3492   0.790   3.781   8.948  1.6013 -0.1091  1.0030
  226MPD1    N1 3493   0.342   3.842   9.062  0.1643 -0.4219  0.0237
  226MPD1    H6 3494   0.268   3.885   9.118  0.5562 -0.0080  0.2248
  226MPD1    H7 3495   0.378   3.774   9.128 -1.6591  0.0272  1.4891
  227MPD1     C 3496   1.644   4.085   8.379 -0.1997  0.0944  0.7822
  227MPD1    C1 3497   1.532   4.163   8.404  0.4807  0.3318 -0.4896
  227MPD1    C2 3498   1.444   4.120   8.501 -0.5942  0.4308  1.5029
  227MPD1    C3 3499   1.438   3.994   8.544  0.0542  0.6427  0.9536
  227MPD1    C4 3500   1.542   3.917   8.517  0.0362 -0.2315  0.0598
  227MPD1    C5 3501   1.643   3.957   8.430  0.2928 -0.5035 -0.3019
  227MPD1     H 3502   1.370   4.194   8.526  0.8553  2.0087  1.0812
  227MPD1    H1 3503   1.542   3.820   8.566 -0.2885 -0.7707 -0.9894
  227MPD1    H2 3504   1.717   4.115   8.305 -0.5877  0.0468  0.3772
  227MPD1    H3 3505   1.721   3.886   8.404  0.0228 -0.0092 -2.5163
  227MPD1     N 3506   1.332   3.945   8.618 -0.3613  0.3611  0.3676
  227MPD1    H5 3507   1.256   4.011   8.628 -1.4320 -0.5814 -1.4180
  227MPD1    N1 3508   1.532   4.292   8.357  0.3553  0.3474  0.2140
  227MPD1    H6 3509   1.439   4.333   8.355  0.2750  0.1524 -0.0400
  227MPD1    H7 3510   1.582   4.310   8.271 -0.9773 -0.7535 -0.7946
  228MPD1     C 3511   0.560   1.712  13.027 -0.1289 -0.6767 -0.0939
  228MPD1    C1 3512   0.531   1.828  12.958 -0.0477  0.4900 -0.2658
  228MPD1    C2 3513   0.395   1.861  12.935  0.3259 -0.0264 -0.1662
  228MPD1    C3 3514   0.294   1.775  12.964  0.0900  0.0812 -0.5597
  228MPD1    C4 3515   0.320   1.654  13.027  0.1443  0.4298  0.2288
  228MPD1    C5 3516   0.453   1.624  13.044  0.1436 -0.1739  0.7107
  228MPD1     H 3517   0.365   1.959  12.900  0.3344 -0.5545 -1.6502
  228MPD1    H1 3518   0.248   1.575  13.045  0.0902 -0.0398 -2.1051
  228MPD1    H2 3519   0.656   1.676  13.062  0.1981 -2.0544 -2.4169
  228MPD1    H3 3520   0.471   1.526  13.087 -0.3269 -0.9677 -0.9146
  228MPD1     N 3521   0.162   1.820  12.926  0.3938 -0.1728  0.2369
  228MPD1    H5 3522   0.161   1.904  12.867 -1.6587 -1.5187 -1.6555
  228MPD1    N1 3523   0.635   1.916  12.940 -0.6295 -0.2145 -0.6444
  228MPD1    H6 3524   0.605   1.976  12.863 -2.0503  1.2590  1.0605
  228MPD1    H7 3525   0.725   1.873  12.919 -1.0367 -1.4636  0.1868
  229MPD1     C 3526   3.786   1.253  14.293 -0.0644 -1.1437 -0.5249
  229MPD1    C1 3527   3.765   1.264  14.430  0.8429  0.1476  0.5842
  229MPD1    C2 3528   3.826   1.166  14.506  0.5482 -0.9846  0.5272
  229MPD1    C3 3529   3.911   1.064  14.454  0.0857  0.3373  0.0500
  229MPD1    C4 3530   3.913   1.048  14.319 -0.3868 -0.3938  0.5328
  229MPD1    C5 3531   3.857   1.149  14.245  1.0541  0.5393  0.0887
  229MPD1     H 3532   3.809   1.185  14.611  0.2558  1.4160  0.0688
  229MPD1    H1 3533   3.971   0.965  14.280  1.3383  0.6494  0.9012
  229MPD1    H2 3534   3.750   1.329  14.224  2.2181  0.7613  0.3984
  229MPD1    H3 3535   3.878   1.148  14.139  3.9659  1.2130  0.6614
  229MPD1     N 3536   3.960   0.957  14.540  0.3999  0.6741  0.0488
  229MPD1    H5 3537   4.005   0.880  14.493 -0.0852  0.2707  0.2448
  229MPD1    N1 3538   3.698   1.370  14.491  0.0041 -0.6504 -0.3982
  229MPD1    H6 3539   3.610   1.380  14.442 -0.1165  0.5376  0.0669
  229MPD1    H7 3540   3.684   1.353  14.591 -0.1360  0.8172 -0.1668
  230MPD1     C 3541   4.495   0.703  15.462 -0.4750  0.1452 -0.0128
  230MPD1    C1 3542   4.513   0.597  15.380  0.2825 -0.3584 -0.1084
  230MPD1    C2 3543   4.448   0.612  15.257 -0.8870 -0.0160  0.1738
  230MPD1    C3 3544   4.369   0.723  15.223  0.0459 -0.2552  0.3928
  230MPD1    C4 3545   4.355   0.822  15.319  0.4884 -0.2419  1.1462
  230MPD1    C5 3546   4.419   0.810  15.433 -0.0380 -0.5075  0.9094
  230MPD1     H 3547   4.466   0.530  15.188 -0.0681  0.6431 -0.4034
  230MPD1    H1 3548   4.288   0.904  15.299 -0.6763 -1.9029 -1.6717
  230MPD1    H2 3549   4.531   0.710  15.565  1.8630 -1.1335 -0.7440
  230MPD1    H3 3550   4.413   0.897  15.496  1.0158 -0.2823  0.7113
  230MPD1     N 3551   4.315   0.723  15.097 -0.0250  0.2847 -0.5508
  230MPD1    H5 3552   4.326   0.633  15.051  0.9733  1.0160 -1.7581
  230MPD1    N1 3553   4.559   0.471  15.429 -0.8768 -0.3973  0.5810
  230MPD1    H6 3554   4.612   0.469  15.515  0.7183  1.4514 -0.3598
  230MPD1    H7 3555   4.597   0.407  15.360  0.8966  0.4441  0.7897
  231MPD1     C 3556   2.333   2.384  15.130 -0.3471 -0.4056  0.1317
  231MPD1    C1 3557   2.435   2.295  15.146  0.2857 -0.0089  0.3264
  231MPD1    C2 3558   2.561   2.338  15.090  0.0932  0.3245  0.3574
  231MPD1    C3 3559   2.581   2.462  15.038  0.6323  0.0335  0.3817
  231MPD1    C4 3560   2.468   2.539  15.025 -0.0935  0.0503  0.2056
  231MPD1    C5 3561   2.347   2.506  15.072  0.0273  0.1097 -0.0772
  231MPD1     H 3562   2.640   2.263  15.093 -0.3989 -0.2263 -0.4796
  231MPD1    H1 3563   2.473   2.636  14.976  0.2309  2.5374  5.1395
  231MPD1    H2 3564   2.233   2.361  15.165 -1.0658  1.4504 -0.6548
  231MPD1    H3 3565   2.274   2.586  15.075  0.0801  0.1849 -0.8295
  231MPD1     N 3566   2.714   2.499  14.995 -0.0265 -0.4625 -0.5647
  231MPD1    H5 3567   2.789   2.432  15.011  0.4493  0.1172 -0.3789
  231MPD1    N1 3568   2.426   2.160  15.178  0.3844  0.3827 -0.0617
  231MPD1    H6 3569   2.350   2.147  15.245  0.4206  0.9367  0.0833
  231MPD1    H7 3570   2.513   2.119  15.211  0.9359  1.8746  0.3197
  232MPD1     C 3571   4.555   0.693   0.241 -0.7795  0.4314 -0.2347
  232MPD1    C1 3572   4.434   0.750   0.268  0.4458 -0.5034  0.1386
  232MPD1    C2 3573   4.320   0.692   0.214 -0.4234 -0.0442  0.0893
  232MPD1    C3 3574   4.321   0.574   0.148  0.4106 -0.2155  0.1872
  232MPD1    C4 3575   4.443   0.505   0.130  0.2471 -0.3648 -0.5889
  232MPD1    C5 3576   4.555   0.566   0.188  0.2247 -0.2117 -0.0152
  232MPD1     H 3577   4.225   0.739   0.234 -0.2673 -0.5225  1.9479
  232MPD1    H1 3578   4.452   0.402   0.097  0.7407 -0.5757  0.1966
  232MPD1    H2 3579   4.643   0.727   0.293 -1.7905  1.0446  1.0713
  232MPD1    H3 3580   4.647   0.510   0.186 -0.0372 -0.6575  0.5548
  232MPD1     N 3581   4.200   0.530   0.086  0.3995  0.0205  0.5372
  232MPD1    H5 3582   4.116   0.585   0.100  0.1509 -0.1393 -0.2784
  232MPD1    N1 3583   4.414   0.877   0.317  0.0472 -0.2378 -0.4213
  232MPD1    H6 3584   4.319   0.894   0.349  1.1978  2.0593  1.8774
  232MPD1    H7 3585   4.488   0.906   0.381 -0.7067 -1.9869  1.2503
  233MPD1     C 3586   0.763   2.856   1.141  0.4039  0.4547  0.2183
  233MPD1    C1 3587   0.854   2.832   1.241  0.0948 -0.3490 -0.1721
  233MPD1    C2 3588   0.973   2.903   1.251  0.3213  0.6398 -0.8719
  233MPD1    C3 3589   1.006   3.001   1.152  0.2532  0.1538 -0.5254
  233MPD1    C4 3590   0.915   3.028   1.053  0.4085  0.2995  0.2241
  233MPD1    C5 3591   0.797   2.952   1.045  0.1865 -0.1165 -0.0776
  233MPD1     H 3592   1.045   2.867   1.323 -1.5160  0.4900  0.9160
  233MPD1    H1 3593   0.927   3.107   0.979  3.0293  1.3711  1.7952
  233MPD1    H2 3594   0.680   2.788   1.126 -0.1591  1.4869 -1.3630
  233MPD1    H3 3595   0.732   2.967   0.960  1.6235 -1.4173 -1.3917
  233MPD1     N 3596   1.127   3.079   1.152  0.5978  0.3492  0.0506
  233MPD1    H5 3597   1.141   3.160   1.092  2.4866 -1.2576 -1.7024
  233MPD1    N1 3598   0.829   2.726   1.324 -0.1806 -0.0585  0.0301
  233MPD1    H6 3599   0.735   2.698   1.354 -0.2640  3.0879  2.6973
  233MPD1    H7 3600   0.888   2.730   1.407 -0.4409 -0.0316  0.2131
  234MPD1     C 3601   2.483   1.061   9.683 -0.0452  0.0945 -0.6005
  234MPD1    C1 3602   2.556   1.133   9.590 -0.3110  0.7047  0.6435
  234MPD1    C2 3603   2.534   1.271   9.592  0.2421 -0.1317  0.1894
  234MPD1    C3 3604   2.467   1.332   9.694 -0.2593 -0.1570 -0.4759
  234MPD1    C4 3605   2.404   1.252   9.793 -0.1828  0.1464  0.1695
  234MPD1    C5 3606   2.418   1.115   9.789 -0.1680 -0.0754 -0.6620
  234MPD1     H 3607   2.579   1.335   9.517  1.1849 -0.2930  0.6152
  234MPD1    H1 3608   2.333   1.292   9.865  0.6545 -0.5856  1.3970
  234MPD1    H2 3609   2.484   0.953   9.684 -2.2550  0.0989  0.0980
  234MPD1    H3 3610   2.365   1.044   9.852  0.8510 -0.8227 -0.6383
  234MPD1     N 3611   2.448   1.468   9.680 -0.9673  0.1135 -0.6444
  234MPD1    H5 3612   2.470   1.516   9.593  2.4918  2.6944  1.6476
  234MPD1    N1 3613   2.626   1.076   9.486  0.2100  0.2611  0.2547
  234MPD1    H6 3614   2.672   0.990   9.516 -0.1751  0.1632  0.5555
  234MPD1    H7 3615   2.695   1.137   9.443 -0.0351 -0.5875 -1.3241
  235MPD1     C 3616   3.853   3.909  10.603 -0.0729  0.1091 -0.2933
  235MPD1    C1 3617   3.796   3.997  10.511  0.2230  0.3219 -0.0596
  235MPD1    C2 3618   3.886   4.092  10.453  0.0129  0.2259  0.3587
  235MPD1    C3 3619   4.021   4.105  10.495 -0.3836  0.1015 -0.2508
  235MPD1    C4 3620   4.071   4.016  10.593 -0.3163  0.5351  0.2128
  235MPD1    C5 3621   3.984   3.928  10.652 -0.4335 -0.1432 -0.4497
  235MPD1     H 3622   3.841   4.160  10.382  0.5527  1.1783  0.9346
  235MPD1    H1 3623   4.170   4.029  10.636 -1.5921 -0.2056  3.3869
  235MPD1    H2 3624   3.802   3.818  10.630  2.4314 -1.2025  0.0607
  235MPD1    H3 3625   4.041   3.859  10.713  1.6940  1.6092 -0.4400
  235MPD1     N 3626   4.094   4.210  10.441 -0.3827  0.4486  0.3738
  235MPD1    H5 3627   4.049   4.266  10.370 -1.0970 -0.3833  0.1664
  235MPD1    N1 3628   3.674   3.969  10.457 -0.0568 -0.1301  0.2228
  235MPD1    H6 3629   3.615   3.938  10.534 -1.0679  1.7341  0.2036
  235MPD1    H7 3630   3.637   4.049  10.406 -3.0913 -1.8649 -0.3110
  236MPD1     C 3631   2.758   0.906  10.430 -0.3906 -0.4214  0.7546
  236MPD1    C1 3632   2.832   1.014  10.392 -0.1347 -0.4357 -0.6623
  236MPD1    C2 3633   2.967   1.013  10.419  0.0025  0.4035  0.2828
  236MPD1    C3 3634   3.013   0.918  10.512  0.0355  0.0308  0.1204
  236MPD1    C4 3635   2.939   0.806  10.550  0.0669 -0.2390  0.3430
  236MPD1    C5 3636   2.808   0.804  10.511 -0.4279  0.2153  0.1761
  236MPD1     H 3637   3.032   1.095  10.391 -0.3707  0.2170 -1.0975
  236MPD1    H1 3638   2.968   0.733  10.626  0.4392  0.3973  0.8173
  236MPD1    H2 3639   2.653   0.891  10.410 -0.5039  1.6939 -0.3177
  236MPD1    H3 3640   2.747   0.723  10.547  0.6859 -0.8951 -0.4282
  236MPD1     N 3641   3.151   0.913  10.542 -0.4287  0.2882  0.0467
  236MPD1    H5 3642   3.176   0.831  10.595 -1.3875  0.3436  0.5811
  236MPD1    N1 3643   2.785   1.098  10.292  0.0965  0.2818  0.3432
  236MPD1    H6 3644   2.689   1.130  10.306  0.8267  0.5484  4.5938
  236MPD1    H7 3645   2.835   1.185  10.310 -0.0399  0.1284  1.4530
  237MPD1     C 3646   3.118   3.516  15.191 -0.3186 -0.0095 -0.5303
  237MPD1    C1 3647   3.033   3.599  15.259 -0.3943  1.2400 -0.2373
  237MPD1    C2 3648   2.910   3.619  15.201  0.0830 -0.0625  0.2293
  237MPD1    C3 3649   2.865   3.539  15.096 -0.2515  0.2191 -0.6736
  237MPD1    C4 3650   2.948   3.443  15.041  0.2339  0.0703 -0.3167
  237MPD1    C5 3651   3.077   3.426  15.094  0.5102 -0.2222  0.3496
  237MPD1     H 3652   2.859   3.713  15.223  0.9894  0.3126  0.7512
  237MPD1    H1 3653   2.916   3.380  14.959 -0.3749  0.5941 -0.4802
  237MPD1    H2 3654   3.220   3.496  15.222 -0.1185  0.1650 -1.0703
  237MPD1    H3 3655   3.140   3.342  15.068  0.8314  0.3957 -0.9196
  237MPD1     N 3656   2.748   3.566  15.021 -0.3023 -0.5704 -0.1772
  237MPD1    H5 3657   2.732   3.529  14.928  1.8544 -0.9797 -0.3775
  237MPD1    N1 3658   3.088   3.692  15.349  0.0161  0.2557 -0.5243
  237MPD1    H6 3659   3.164   3.651  15.404 -1.6264 -0.1066  1.4655
  237MPD1    H7 3660   3.023   3.733  15.416 -0.4075  1.8047 -1.8746
  238MPD1     C 3661   4.123   2.977  14.860  0.4129  0.3785  0.6795
  238MPD1    C1 3662   4.079   2.921  14.743  0.3528  0.0326 -0.1372
  238MPD1    C2 3663   4.084   2.781  14.727 -0.1339 -0.3979  0.0408
  238MPD1    C3 3664   4.131   2.703  14.833  0.7144  0.7350 -0.1535
  238MPD1    C4 3665   4.166   2.766  14.950 -0.3997  0.3201  0.0364
  238MPD1    C5 3666   4.163   2.901  14.968  0.8925  0.5184  0.7095
  238MPD1     H 3667   4.064   2.740  14.629  2.8070  0.0543 -0.7427
  238MPD1    H1 3668   4.211   2.712  15.032 -1.6029  0.3659  0.7267
  238MPD1    H2 3669   4.136   3.084  14.867  0.7050  0.2766  1.6910
  238MPD1    H3 3670   4.187   2.942  15.065 -0.0179 -0.6385  1.4228
  238MPD1     N 3671   4.138   2.562  14.844 -0.5394 -0.3326  0.5756
  238MPD1    H5 3672   4.159   2.522  14.934 -0.8983  1.1220  1.3003
  238MPD1    N1 3673   4.043   3.012  14.637  0.2509 -0.1752  0.3347
  238MPD1    H6 3674   4.026   3.110  14.660  1.7163 -0.1125  1.1396
  238MPD1    H7 3675   3.971   2.983  14.571  0.9035 -1.1162  0.0335
  239MPD1     C 3676   0.154   3.210  14.790 -0.2146 -0.2823  0.2859
  239MPD1    C1 3677   0.025   3.212  14.773  0.0498  0.4108 -0.0044
  239MPD1    C2 3678   4.714   3.312  14.690 -0.8710  0.8668  0.7898
  239MPD1    C3 3679   0.056   3.405  14.634  0.4831 -0.0499  0.4982
  239MPD1    C4 3680   0.189   3.410  14.673  0.0251 -0.3374 -0.2043
  239MPD1    C5 3681   0.233   3.305  14.747 -0.4624  0.2704  0.3316
  239MPD1     H 3682   4.608   3.312  14.669 -1.0496  1.1130  1.6926
  239MPD1    H1 3683   0.264   3.476  14.631  0.4736 -0.7042  0.0222
  239MPD1    H2 3684   0.204   3.125  14.835 -0.9785 -1.0567 -0.3258
  239MPD1    H3 3685   0.338   3.287  14.771 -1.2084 -2.8748  1.2324
  239MPD1     N 3686   0.010   3.494  14.535  0.2247  0.6874  0.3920
  239MPD1    H5 3687   0.080   3.553  14.492 -0.0561  2.2393  2.0712
  239MPD1    N1 3688   4.682   3.101  14.818 -0.2775 -0.1689 -0.0475
  239MPD1    H6 3689   4.702   3.074  14.914 -1.4641  0.1165  0.2733
  239MPD1    H7 3690   4.584   3.130  14.818 -1.0496 -2.7764  0.4526
  240MPD1     C 3691   4.274   3.059  13.345  0.4655 -0.0692  0.8522
  240MPD1    C1 3692   4.361   2.970  13.395 -0.5463 -1.3031 -0.0277
  240MPD1    C2 3693   4.320   2.907  13.511 -0.1727 -0.6262  1.1224
  240MPD1    C3 3694   4.196   2.915  13.565  0.4079  0.1160 -0.3469
  240MPD1    C4 3695   4.113   3.021  13.515 -0.0973 -1.0701  0.0636
  240MPD1    C5 3696   4.153   3.089  13.404  0.0531  0.8082  0.3694
  240MPD1     H 3697   4.376   2.824  13.553  0.6791 -1.6480 -2.0676
  240MPD1    H1 3698   4.010   3.034  13.548  0.1598 -2.1999  1.3026
  240MPD1    H2 3699   4.323   3.121  13.271 -0.4466 -2.6645 -1.8841
  240MPD1    H3 3700   4.094   3.175  13.374  2.5484  3.0578  1.9447
  240MPD1     N 3701   4.162   2.830  13.674  0.5304 -0.6108 -0.9151
  240MPD1    H5 3702   4.234   2.775  13.720 -0.1798 -0.3258  0.5379
  240MPD1    N1 3703   4.492   2.974  13.350 -0.6503  0.1612  0.0742
  240MPD1    H6 3704   4.545   2.887  13.357  2.3107  1.9977  0.4389
  240MPD1    H7 3705   4.497   3.003  13.253  2.7309 -0.1863  0.1701
  241MPD1     C 3706   4.430   2.046  13.691  0.0996 -1.0335  0.1467
  241MPD1    C1 3707   4.413   2.059  13.821  0.3675  0.2316  0.6390
  241MPD1    C2 3708   4.339   2.173  13.855 -0.5429 -0.4824 -0.0683
  241MPD1    C3 3709   4.292   2.273  13.768 -0.3893  0.0871 -0.4062
  241MPD1    C4 3710   4.324   2.258  13.628  0.1286 -0.3908 -0.4667
  241MPD1    C5 3711   4.392   2.142  13.598  0.1181  0.4025 -0.0441
  241MPD1     H 3712   4.307   2.183  13.958  0.8914 -0.3670  0.3780
  241MPD1    H1 3713   4.295   2.326  13.549 -0.0210 -0.2242 -0.2685
  241MPD1    H2 3714   4.480   1.957  13.654  4.5729  1.9120 -0.9451
  241MPD1    H3 3715   4.415   2.123  13.494 -1.0727  1.2531 -0.4611
  241MPD1     N 3716   4.218   2.386  13.809 -0.0404 -1.1906 -0.1493
  241MPD1    H5 3717   4.201   2.459  13.740 -0.8465 -0.0666  1.2554
  241MPD1    N1 3718   4.443   1.953  13.907 -0.3062  0.0731  0.1809
  241MPD1    H6 3719   4.464   1.985  14.001 -2.7400 -0.4456  0.8893
  241MPD1    H7 3720   4.526   1.896  13.889 -0.7720 -0.5319 -0.0558
  242MPD1     C 3721   3.393   1.559  15.793 -0.5159 -0.6805 -0.1832
  242MPD1    C1 3722   3.342   1.451  15.726  1.2559  0.0004  0.6386
  242MPD1    C2 3723   3.385   1.422  15.600  0.3646  0.0077 -0.5703
  242MPD1    C3 3724   3.481   1.507  15.538  0.1793 -0.1047 -0.2636
  242MPD1    C4 3725   3.543   1.612  15.610 -0.4333  0.3306 -0.4656
  242MPD1    C5 3726   3.494   1.636  15.740  0.3271  0.0043  0.2613
  242MPD1     H 3727   3.345   1.333  15.554  1.3515 -1.0476  0.5806
  242MPD1    H1 3728   3.629   1.666  15.574 -0.9380  0.9518 -0.7396
  242MPD1    H2 3729   3.351   1.581  15.890 -2.4710 -2.1452 -0.6871
  242MPD1    H3 3730   3.541   1.705  15.809  3.0804  1.3750 -2.9656
  242MPD1     N 3731   3.535   1.476  15.410 -0.2870 -0.2868 -0.0602
  242MPD1    H5 3732   3.627   1.513  15.388  0.4452 -0.4033  2.7770
  242MPD1    N1 3733   3.266   1.362  15.808  0.2715 -0.4321  0.4375
  242MPD1    H6 3734   3.202   1.302  15.757  0.2776  0.2895 -0.3972
  242MPD1    H7 3735   3.224   1.403  15.891  3.8844 -0.1954  2.1838
  243MPD1     C 3736   0.706   0.739  17.248  0.2632 -0.3232 -0.7086
  243MPD1    C1 3737   0.654   0.706  17.125 -0.1992  0.1550  0.1495
  243MPD1    C2 3738   0.654   0.574  17.090  0.0308  0.4146 -0.1177
  243MPD1    C3 3739   0.696   0.473  17.174 -0.0116 -0.0040  0.2782
  243MPD1    C4 3740   0.721   0.512  17.302  0.9817  0.5373 -0.5909
  243MPD1    C5 3741   0.727   0.639  17.339 -0.3097  0.3302 -0.0758
  243MPD1     H 3742   0.625   0.548  16.988 -1.2942  0.4784  0.2500
  243MPD1    H1 3743   0.749   0.442  17.379  0.2575  0.2182 -0.6193
  243MPD1    H2 3744   0.728   0.840  17.278  0.9480 -0.8461  0.5350
  243MPD1    H3 3745   0.757   0.645  17.443 -1.7187 -1.5273  0.4291
  243MPD1     N 3746   0.693   0.339  17.138  0.5435 -0.1311  0.4956
  243MPD1    H5 3747   0.668   0.314  17.042  1.1078 -0.5590  0.4641
  243MPD1    N1 3748   0.655   0.805  17.031  0.3172 -1.1009  0.4098
  243MPD1    H6 3749   0.634   0.896  17.070 -1.1808 -0.7026 -1.3186
  243MPD1    H7 3750   0.582   0.785  16.962  2.7965 -0.1316 -2.4382
  244MPD1     C 3751   1.020   4.238  17.633 -0.4650  0.3961 -0.3913
  244MPD1    C1 3752   0.980   4.357  17.683 -0.0281  0.3972 -0.0255
  244MPD1    C2 3753   0.931   4.442  17.590  0.3288  0.2734  0.6522
  244MPD1    C3 3754   0.926   4.417  17.452 -0.0215  0.1101 -0.2961
  244MPD1    C4 3755   0.974   4.296  17.415 -0.0380 -0.6235  0.0584
  244MPD1    C5 3756   1.011   4.206  17.504  0.5794  0.1097  0.6349
  244MPD1     H 3757   0.880   4.533  17.618  0.4556 -0.1435  2.2492
  244MPD1    H1 3758   0.969   4.271  17.310 -1.1321  2.0883 -0.5418
  244MPD1    H2 3759   1.054   4.161  17.701 -0.1012 -0.6239 -1.7159
  244MPD1    H3 3760   1.049   4.108  17.477  0.6512  0.6587 -1.3275
  244MPD1     N 3761   0.876   4.519  17.364 -0.6551 -0.2992  0.2458
  244MPD1    H5 3762   0.849   4.602  17.416  2.0094 -0.0150  1.1845
  244MPD1    N1 3763   0.959   4.372   0.079 -0.5183  0.2654  0.3928
  244MPD1    H6 3764   1.029   4.328   0.139 -0.4320 -0.2994 -0.1226
  244MPD1    H7 3765   0.970   4.471   0.101 -0.4579 -0.0192  1.6582
  245MPD1     C 3766   2.895   0.486  13.042 -0.5954 -0.0487  0.9098
  245MPD1    C1 3767   2.984   0.594  13.032 -0.5927  1.0065 -0.0483
  245MPD1    C2 3768   2.942   0.721  13.054 -0.0461 -0.5692  0.6460
  245MPD1    C3 3769   2.815   0.741  13.094 -0.8212  1.1033  0.7771
  245MPD1    C4 3770   2.723   0.637  13.110 -0.0341 -0.4783  0.2319
  245MPD1    C5 3771   2.763   0.509  13.082  0.1971 -0.0203  0.4243
  245MPD1     H 3772   3.007   0.808  13.052  0.2923 -0.8317  0.0751
  245MPD1    H1 3773   2.619   0.657  13.134  0.0021  0.4833 -0.4320
  245MPD1    H2 3774   2.929   0.384  13.028 -3.9019 -0.5735 -3.1218
  245MPD1    H3 3775   2.693   0.428  13.097 -1.0292  0.8654 -0.4870
  245MPD1     N 3776   2.788   0.876  13.129 -0.1091  0.5359 -0.5828
  245MPD1    H5 3777   2.866   0.940  13.138 -0.5993  0.8081  1.7207
  245MPD1    N1 3778   3.116   0.570  12.990  0.1189  0.2865 -0.3492
  245MPD1    H6 3779   3.168   0.633  12.930 -0.1378  1.8208  1.0570
  245MPD1    H7 3780   3.134   0.471  12.973  0.8032  0.0810  1.5743
  246MPD1     C 3781   4.122   1.600  10.370  0.5246  0.4535 -0.4029
  246MPD1    C1 3782   4.131   1.551  10.244 -0.2296 -0.1547 -0.0148
  246MPD1    C2 3783   4.067   1.611  10.140  0.2931 -0.2313 -0.0610
  246MPD1    C3 3784   3.980   1.719  10.163 -0.8299 -0.2958 -0.5527
  246MPD1    C4 3785   3.965   1.754  10.292  0.4935  0.2417  0.5557
  246MPD1    C5 3786   4.025   1.692  10.397  0.3528 -0.4743  0.0135
  246MPD1     H 3787   4.063   1.559  10.045 -1.9135  0.2055 -0.1856
  246MPD1    H1 3788   3.896   1.835  10.315  0.4058  0.7496 -1.5084
  246MPD1    H2 3789   4.183   1.554  10.447 -0.9378  1.9301  1.6472
  246MPD1    H3 3790   4.018   1.723  10.501  2.6969 -1.4863  0.4557
  246MPD1     N 3791   3.914   1.780  10.049  0.0021 -0.1672 -0.3163
  246MPD1    H5 3792   3.942   1.755   9.954  0.7766 -1.2085  0.1914
  246MPD1    N1 3793   4.193   1.427  10.215  0.2887  0.0821  0.2546
  246MPD1    H6 3794   4.236   1.416  10.124 -0.3620 -1.1778  0.1101
  246MPD1    H7 3795   4.269   1.420  10.282  0.9327 -0.8392 -0.5737
  247MPD1     C 3796   2.141   1.381  16.369 -0.6546 -0.0490  0.1127
  247MPD1    C1 3797   2.058   1.336  16.459 -0.0295  0.2006  0.0988
  247MPD1    C2 3798   2.016   1.204  16.461 -0.2055  0.5860  0.0072
  247MPD1    C3 3799   2.065   1.116  16.364  0.9599  0.6697  0.2500
  247MPD1    C4 3800   2.162   1.167  16.273 -0.1592 -0.8213  0.5565
  247MPD1    C5 3801   2.196   1.298  16.275  0.8178 -0.0576  0.0694
  247MPD1     H 3802   1.941   1.167  16.529 -0.1736  0.9324  0.2275
  247MPD1    H1 3803   2.220   1.107  16.204  2.7869  1.0934  1.3768
  247MPD1    H2 3804   2.167   1.487  16.365 -0.1295 -0.1338  1.4492
  247MPD1    H3 3805   2.276   1.338  16.213 -0.1770  3.3327  0.9919
  247MPD1     N 3806   2.030   0.982  16.356 -0.4138 -0.5557 -0.3195
  247MPD1    H5 3807   2.070   0.935  16.276  1.0905 -1.5268  1.0046
  247MPD1    N1 3808   1.982   1.431  16.535 -0.2754  0.0141  0.1198
  247MPD1    H6 3809   2.032   1.515  16.564  1.3255 -1.0633  0.4747
  247MPD1    H7 3810   1.944   1.393  16.622  2.3739 -0.2995  1.1417
  248MPD1     C 3811   1.974   4.334   0.290 -0.3752 -0.3748  0.1649
  248MPD1    C1 3812   2.051   4.353   0.401 -0.1863  0.3055 -0.2315
  248MPD1    C2 3813   2.017   4.466   0.480  0.1600 -0.7002 -0.6127
  248MPD1    C3 3814   1.946   4.574   0.432 -0.2341  0.3834 -0.3828
  248MPD1    C4 3815   1.876   4.555   0.312  0.1374  0.2761  0.5074
  248MPD1    C5 3816   1.886   4.435   0.241 -0.0201 -0.5638 -0.1757
  248MPD1     H 3817   2.069   4.477   0.574  3.7651  0.8507 -2.7827
  248MPD1    H1 3818   1.807   4.629   0.273  0.2604 -0.4314 -1.0503
  248MPD1    H2 3819   1.975   4.235   0.245  2.3137  0.5840 -1.8395
  248MPD1    H3 3820   1.826   4.406   0.155  0.1938 -0.2782 -0.4199
  248MPD1     N 3821   1.952   4.694   0.501  0.2027 -0.3736 -0.0086
  248MPD1    H5 3822   2.016   4.697   0.579 -0.2701  1.6833  0.2926
  248MPD1    N1 3823   2.124   4.250   0.461 -0.6254  0.7459 -0.1539
  248MPD1    H6 3824   2.189   4.292   0.527 -0.6449 -0.3061  0.5227
  248MPD1    H7 3825   2.173   4.196   0.390 -0.6613 -0.6047  0.8614
  249MPD1     C 3826   3.953   3.099  10.262  0.1437 -0.5669  0.2780
  249MPD1    C1 3827   3.939   3.087  10.129 -0.2530 -0.2735  0.2075
  249MPD1    C2 3828   4.021   3.167  10.044  0.1418 -0.2319 -0.0558
  249MPD1    C3 3829   4.107   3.266  10.102 -0.0654 -0.2843 -0.3583
  249MPD1    C4 3830   4.109   3.278  10.240  0.0065  0.4435  0.4914
  249MPD1    C5 3831   4.038   3.191  10.321 -0.0736 -0.6820  0.1890
  249MPD1     H 3832   4.007   3.151   9.938  1.9526  0.1756 -0.3578
  249MPD1    H1 3833   4.176   3.338  10.301  1.0773 -0.1404 -0.1074
  249MPD1    H2 3834   3.906   3.031  10.332 -2.5122  1.1063  0.1251
  249MPD1    H3 3835   4.028   3.213  10.426  1.6182 -1.1270  0.4415
  249MPD1     N 3836   4.181   3.352  10.014 -0.0448  0.0129 -0.4579
  249MPD1    H5 3837   4.189   3.312   9.921 -0.3969 -1.3530  0.1085
  249MPD1    N1 3838   3.862   2.977  10.081  0.5930  0.5383  0.0060
  249MPD1    H6 3839   3.792   2.955  10.152  1.1273  0.8083  0.6183
  249MPD1    H7 3840   3.818   2.984   9.990  3.2249  1.5268 -1.1942
  250MPD2     C 3841   1.417   4.035  12.491 -0.0859  0.8144  0.0121
  250MPD2    C1 3842   1.384   3.973  12.603  0.3376 -0.4481  0.6744
  250MPD2    C2 3843   1.315   3.857  12.599 -0.4434  0.4342 -0.0495
  250MPD2    C3 3844   1.287   3.796  12.473  0.0163  0.7494  0.1613
  250MPD2    C4 3845   1.321   3.858  12.355 -0.5807  0.1478  0.5715
  250MPD2    C5 3846   1.384   3.978  12.366 -0.4599 -0.3447  0.1631
  250MPD2     H 3847   1.290   3.808  12.692  0.0378  0.6754  0.2084
  250MPD2    H1 3848   1.287   3.825  12.258  0.3041 -1.5054  0.8229
  250MPD2    H2 3849   1.459   4.135  12.484  0.0195  0.7048 -1.0245
  250MPD2    H3 3850   1.390   4.040  12.277 -3.3743 -0.3987 -0.0657
  250MPD2     N 3851   1.200   3.688  12.460  0.8668 -0.2440  0.0527
  250MPD2    H5 3852   1.163   3.658  12.371 -0.1958 -1.3316  0.8453
  250MPD2    N1 3853   1.432   4.022  12.733 -0.7164 -0.4687  0.6160
  250MPD2    H7 3854   1.511   4.085  12.732  0.4220 -1.8936  0.1303
  251TMC3    C1 3855   1.474   4.039  12.960 -0.2175 -0.1779  0.1491
  251TMC3    C2 3856   1.402   4.123  13.041 -0.5354  0.2018 -0.3719
  251TMC3    C3 3857   1.451   4.248  13.075  0.4812 -0.0134  0.4293
  251TMC3    C4 3858   1.598   4.083  12.917 -0.1799  0.1487  0.1412
  251TMC3    C5 3859   1.649   4.201  12.963 -0.6293  0.3969  0.6495
  251TMC3    C6 3860   1.576   4.291  13.036  0.0680 -0.4205  0.0879
  251TMC3     C 3861   1.399   3.967  12.859 -0.1977  0.3458  0.7180
  251TMC3     O 3862   1.309   3.893  12.903 -0.5478  0.1597  0.3196
  251TMC3     H 3863   1.296   4.101  13.047 -0.4303 -0.1473  0.2023
  251TMC3    H1 3864   1.648   4.021  12.843 -1.3074  0.3925 -0.8147
  251TMC3    H2 3865   1.610   4.389  13.066 -0.3540  0.0092 -0.8337
  251TMC3    C7 3866   1.772   4.234  12.902  0.4028 -0.4624 -0.6901
  251TMC3    C8 3867   1.347   4.344  13.102  0.5772  1.0199  0.0648
  251TMC3    O1 3868   1.843   4.148  12.850 -0.3765 -0.1820  0.1514
  251TMC3    O2 3869   1.237   4.296  13.119  0.2164 -0.6253  0.9663
  252TMC3    C1 3870   0.630   4.600   9.455 -0.4463 -0.3261 -0.1136
  252TMC3    C2 3871   0.621   4.733   9.413  0.6810  0.0268  0.2898
  252TMC3    C3 3872   0.721   0.037   9.322 -0.3773 -0.4385 -0.2149
  252TMC3    C4 3873   0.733   4.514   9.416  0.0860 -0.0177 -0.0902
  252TMC3    C5 3874   0.826   4.562   9.328 -0.9158  1.1548 -0.1475
  252TMC3    C6 3875   0.818   4.689   9.275  0.5115 -0.3282 -0.2003
  252TMC3     C 3876   0.538   4.541   9.557 -0.8113  0.5811  0.3158
  252TMC3     O 3877   0.533   4.420   9.577  0.3743  0.2548 -0.0943
  252TMC3     H 3878   0.554   0.067   9.461  0.2673 -0.9657  1.1980
  252TMC3    H1 3879   0.732   4.411   9.448  1.2816 -0.2735 -0.8982
  252TMC3    H2 3880   0.897   4.725   9.210  1.3414 -1.2008  0.3252
  252TMC3    C7 3881   0.943   4.484   9.301 -0.4991  0.1010 -0.2347
  252TMC3    C8 3882   0.762   0.172   9.345  0.4540  0.4156  0.2416
  252TMC3    O1 3883   1.042   4.532   9.250 -0.4607  0.0139 -0.3066
  252TMC3    O2 3884   0.671   0.253   9.360 -0.3456  0.1711 -0.0201
  253MPD2     C 3885   2.252   4.263  15.013  0.6944  0.1494 -0.4831
  253MPD2    C1 3886   2.120   4.269  15.051 -0.1426  0.5988  0.1145
  253MPD2    C2 3887   2.063   4.186  15.150 -0.2102  0.1056 -0.5127
  253MPD2    C3 3888   2.155   4.111  15.229  0.6643 -0.2998 -0.4380
  253MPD2    C4 3889   2.290   4.110  15.187 -0.2248 -0.0976 -0.3569
  253MPD2    C5 3890   2.334   4.177  15.081 -0.6353  0.3197 -0.3858
  253MPD2     H 3891   1.956   4.193  15.161 -0.3604 -1.4007 -1.0101
  253MPD2    H1 3892   2.359   4.041  15.234 -0.0321  0.5983  0.3781
  253MPD2    H2 3893   2.297   4.329  14.940  0.1934  0.0742 -0.8628
  253MPD2    H3 3894   2.437   4.167  15.050 -1.5480 -4.3848 -1.8904
  253MPD2     N 3895   2.104   4.039  15.341  0.7087  0.5195 -0.2292
  253MPD2    H5 3896   2.159   3.960  15.375  1.8403  1.3548 -0.1005
  253MPD2    N1 3897   2.028   4.351  14.981 -0.2008 -0.9529  0.2483
  253MPD2    H7 3898   1.935   4.321  15.010 -1.0183 -0.4853 -1.9487
  254TMC3    C1 3899   1.966   3.971  15.522  0.0329  0.0989  0.4891
  254TMC3    C2 3900   1.830   3.961  15.541  0.1775 -0.1744 -0.0700
  254TMC3    C3 3901   1.786   3.880  15.633  0.0461 -1.0006  0.2534
  254TMC3    C4 3902   2.060   3.905  15.601 -0.5251 -0.3944  0.3697
  254TMC3    C5 3903   2.009   3.818  15.691  0.5022 -1.3648  0.3291
  254TMC3    C6 3904   1.872   3.806  15.711 -0.0958  0.3328 -0.3632
  254TMC3     C 3905   1.992   4.071  15.415 -0.4903  0.4784  0.1633
  254TMC3     O 3906   1.917   4.165  15.410  0.0047 -0.2412  0.0763
  254TMC3     H 3907   1.763   4.023  15.483 -1.0289 -0.0659  1.4182
  254TMC3    H1 3908   2.162   3.940  15.597  0.0066 -1.9589  0.1840
  254TMC3    H2 3909   1.839   3.740  15.791 -1.5192  0.4843 -0.8322
  254TMC3    C7 3910   2.084   3.742  15.785 -0.5662  0.9831 -0.2749
  254TMC3    C8 3911   1.650   3.884  15.682 -0.5224 -0.0930 -0.0675
  254TMC3    O1 3912   2.027   3.664  15.857 -0.4880 -1.2033  0.1098
  254TMC3    O2 3913   1.633   3.799  15.771  1.1510 -0.2643  0.1723
  255MPD2     C 3914   0.940   1.679  10.979 -0.1280  0.3117 -0.6459
  255MPD2    C1 3915   0.857   1.727  10.874 -0.0153  0.1408 -0.2827
  255MPD2    C2 3916   0.847   1.655  10.761  0.3237  0.0879 -0.5797
  255MPD2    C3 3917   0.917   1.541  10.739 -0.2148  0.4969 -0.4395
  255MPD2    C4 3918   0.995   1.497  10.847  0.7482 -0.2093 -0.5795
  255MPD2    C5 3919   1.003   1.560  10.963  0.0543 -0.8029  0.0705
  255MPD2     H 3920   0.787   1.692  10.678 -2.1224 -1.4862  0.4750
  255MPD2    H1 3921   1.047   1.402  10.833  0.3906 -0.6005  0.7096
  255MPD2    H2 3922   0.943   1.733  11.073  0.3386  1.6574 -1.4486
  255MPD2    H3 3923   1.071   1.522  11.038  0.6746  0.7699  0.3057
  255MPD2     N 3924   0.912   1.476  10.615  0.3248 -0.1179 -0.8020
  255MPD2    H5 3925   0.842   1.500  10.546  0.0924 -1.0106 -0.8835
  255MPD2    N1 3926   0.780   1.841  10.897 -0.7195  0.1883 -0.0370
  255MPD2    H7 3927   0.797   1.880  10.989 -2.0633  2.7653 -0.8758
  256TMC3    C1 3928   0.622   2.026  10.880 -0.7593 -0.4379  0.4020
  256TMC3    C2 3929   0.617   2.142  10.805  0.7585 -0.4090  0.4739
  256TMC3    C3 3930   0.503   2.220  10.806 -0.8843 -0.2895 -0.2567
  256TMC3    C4 3931   0.525   1.983  10.954  0.2065  0.0731 -0.4374
  256TMC3    C5 3932   0.416   2.060  10.959 -0.1411  0.6448 -1.0089
  256TMC3    C6 3933   0.404   2.180  10.891  0.0159 -0.4903 -0.2199
  256TMC3     C 3934   0.701   1.914  10.816  0.2929 -0.1743 -0.6515
  256TMC3     O 3935   0.664   1.881  10.702  0.5640  0.1392 -0.0068
  256TMC3     H 3936   0.705   2.161  10.745  0.4547  1.4877  0.6269
  256TMC3    H1 3937   0.535   1.882  10.993 -1.3028  0.5899  1.2502
  256TMC3    H2 3938   0.302   2.216  10.895 -0.1078 -0.5147 -3.4403
  256TMC3    C7 3939   0.298   1.968  10.945  0.6838  0.0522 -0.9001
  256TMC3    C8 3940   0.476   2.327  10.713  0.4023 -0.8701 -0.5936
  256TMC3    O1 3941   0.325   1.860  10.889  0.0989  0.0713  0.7944
  256TMC3    O2 3942   0.369   2.390  10.724 -0.5205 -0.1817 -0.5016
  257MPD2     C 3943   4.157   3.971  13.295 -0.3533 -0.6082 -0.0495
  257MPD2    C1 3944   4.295   3.981  13.265  0.0483 -0.1247  0.1646
  257MPD2    C2 3945   4.388   3.903  13.338 -0.1554 -0.7851  0.3251
  257MPD2    C3 3946   4.338   3.807  13.426 -0.3166 -0.2187  0.7148
  257MPD2    C4 3947   4.206   3.803  13.459  0.5436  0.0754  0.6774
  257MPD2    C5 3948   4.115   3.889  13.397  0.5421 -0.9670 -0.3018
  257MPD2     H 3949   4.491   3.895  13.305 -0.1874 -0.7350  0.2124
  257MPD2    H1 3950   4.172   3.732  13.534 -0.8684  0.6455  0.5738
  257MPD2    H2 3951   4.090   4.035  13.239  1.8917  0.5353 -1.4659
  257MPD2    H3 3952   4.012   3.889  13.430 -0.3923 -1.4116 -3.2217
  257MPD2     N 3953   4.432   3.726  13.488 -0.7902  0.1081  0.2051
  257MPD2    H5 3954   4.527   3.743  13.457 -1.0036  0.9087 -0.0197
  257MPD2    N1 3955   4.340   4.067  13.163 -0.2201 -0.0128  0.5485
  257MPD2    H7 3956   4.281   4.099  13.087  0.0379 -0.3992  0.1839
  258TMC3    C1 3957   4.534   3.536  13.599  0.1978 -0.5024 -0.6270
  258TMC3    C2 3958   4.626   3.544  13.500  0.0014 -0.6235  0.5505
  258TMC3    C3 3959   0.005   3.480  13.529  0.3865 -0.4316  0.3945
  258TMC3    C4 3960   4.546   3.468  13.719  0.6861 -0.1263  0.1992
  258TMC3    C5 3961   4.661   3.399  13.736 -0.3629  0.7397  0.5763
  258TMC3    C6 3962   0.027   3.412  13.641  0.3645  0.8878 -0.2063
  258TMC3     C 3963   4.417   3.628  13.582  0.2783 -0.2557  0.0761
  258TMC3     O 3964   4.324   3.602  13.661 -0.5067  0.2196  0.0866
  258TMC3     H 3965   4.606   3.596  13.407  2.8673 -0.5822 -0.0219
  258TMC3    H1 3966   4.468   3.473  13.794 -0.1301 -1.7650 -0.5264
  258TMC3    H2 3967   0.115   3.350  13.653  0.0153  0.6284  0.9294
  258TMC3    C7 3968   4.691   3.343  13.871  0.2612  0.5594 -0.3042
  258TMC3    C8 3969   0.108   3.473  13.426 -0.8703  0.4830 -0.1404
  258TMC3    O1 3970   4.607   3.357  13.957 -0.3376  0.2768  0.0957
  258TMC3    O2 3971   0.216   3.443  13.469  0.0229  0.0251  0.0350
  259MPD2     C 3972   2.800   1.007   0.412 -0.3183  0.1270 -0.8977
  259MPD2    C1 3973   2.935   0.967   0.391  0.2234 -0.1398  0.5844
  259MPD2    C2 3974   2.997   0.989   0.263  0.3471 -0.2761  0.7814
  259MPD2    C3 3975   2.930   1.055   0.163  0.4455 -0.0225  0.5778
  259MPD2    C4 3976   2.798   1.092   0.182 -0.3745 -0.1943 -0.6885
  259MPD2    C5 3977   2.739   1.080   0.313  0.1684  0.8174  0.5415
  259MPD2     H 3978   3.090   0.937   0.241 -0.5752 -1.1693 -1.0436
  259MPD2    H1 3979   2.751   1.145   0.100  1.1644  0.8783 -0.8726
  259MPD2    H2 3980   2.749   0.992   0.507 -0.7707  0.6017 -1.0695
  259MPD2    H3 3981   2.635   1.104   0.332 -0.8586 -2.6142 -0.8172
  259MPD2     N 3982   3.000   1.075   0.044  0.5689  0.3103 -0.2906
  259MPD2    H5 3983   3.098   1.048   0.052  0.1689 -1.3528 -1.1440
  259MPD2    N1 3984   2.999   0.893   0.490  0.3528 -0.0447  0.9129
  259MPD2    H7 3985   2.958   0.880   0.582  0.0577 -1.7639  0.5400
  260TMC3    C1 3986   3.044   1.103  17.559 -0.3383  0.2781  0.7962
  260TMC3    C2 3987   3.147   1.185  17.524 -0.2718 -0.1772 -0.3753
  260TMC3    C3 3988   3.248   1.130  17.444 -1.3497 -0.4780 -0.7812
  260TMC3    C4 3989   3.043   0.972  17.527  0.3206 -0.5743 -0.1698
  260TMC3    C5 3990   3.140   0.925  17.448  0.2676  1.1921 -0.7588
  260TMC3    C6 3991   3.241   1.000  17.399  0.0514 -0.0794 -0.0325
  260TMC3     C 3992   2.959   1.138  17.673  0.4959  0.0741 -0.5637
  260TMC3     O 3993   2.847   1.183  17.649  0.1189 -0.9569 -0.1392
  260TMC3     H 3994   3.151   1.286  17.563  0.4953 -0.0059 -0.9121
  260TMC3    H1 3995   2.951   0.916  17.526 -1.1776  1.8658 -0.4219
  260TMC3    H2 3996   3.316   0.967  17.328 -0.8599 -2.3421  0.0702
  260TMC3    C7 3997   3.178   0.782  17.452 -0.3870  0.7217  0.0342
  260TMC3    C8 3998   3.389   1.157  17.480 -0.1496  0.6536  0.2308
  260TMC3    O1 3999   3.296   0.759  17.431 -0.1141 -0.3051 -0.1585
  260TMC3    O2 4000   3.411   1.275  17.508 -0.2786  1.0701  0.3891
  261MPD2     C 4001   0.509   3.602  12.639 -0.9335  0.5434 -0.1802
  261MPD2    C1 4002   0.577   3.559  12.527  0.3102 -0.6838  0.1115
  261MPD2    C2 4003   0.533   3.601  12.399 -0.5586 -0.0553 -0.6482
  261MPD2    C3 4004   0.420   3.674  12.387  0.0463  0.0126  0.1496
  261MPD2    C4 4005   0.350   3.705  12.504  0.3099  0.3659 -0.2757
  261MPD2    C5 4006   0.393   3.671  12.625  0.0081  0.1175 -0.2095
  261MPD2     H 4007   0.579   3.571  12.305  1.0196 -0.8567  0.3773
  261MPD2    H1 4008   0.266   3.773  12.505 -0.8767 -1.0911 -0.6642
  261MPD2    H2 4009   0.549   3.587  12.739 -2.2335 -0.9393  0.1200
  261MPD2    H3 4010   0.348   3.720  12.711  2.6781  1.2806  0.5490
  261MPD2     N 4011   0.370   3.710  12.257 -0.2481 -0.4155  0.4829
  261MPD2    H5 4012   0.413   3.669  12.175 -0.8572 -2.0218  0.9723
  261MPD2    N1 4013   0.702   3.491  12.533  1.1763  0.4634 -0.1072
  261MPD2    H7 4014   0.754   3.478  12.447  0.1568 -0.4368 -0.5901
  262TMC3    C1 4015   0.230   3.802  12.095  0.2590 -0.1271  0.2035
  262TMC3    C2 4016   0.172   3.919  12.054  0.3740  0.0618 -0.0457
  262TMC3    C3 4017   0.186   3.960  11.920 -0.4926 -0.1051  0.5295
  262TMC3    C4 4018   0.270   3.715  11.995 -1.2308  0.0728 -0.1300
  262TMC3    C5 4019   0.271   3.750  11.860  0.4631  0.7071  0.8413
  262TMC3    C6 4020   0.236   3.875  11.825 -0.1002  0.3487  0.2025
  262TMC3     C 4021   0.268   3.795  12.231  0.2944 -0.0011 -0.2726
  262TMC3     O 4022   0.215   3.871  12.314 -0.8517  0.1075  0.1813
  262TMC3     H 4023   0.150   3.991  12.132 -0.8483 -0.9060  0.4965
  262TMC3    H1 4024   0.311   3.618  12.020 -1.2974  0.4443  1.4008
  262TMC3    H2 4025   0.236   3.906  11.721  2.3357  1.5538  0.5569
  262TMC3    C7 4026   0.367   3.680  11.776 -0.1955  0.3835 -0.1920
  262TMC3    C8 4027   0.207   4.103  11.889 -0.3286 -0.2429 -0.0126
  262TMC3    O1 4028   0.439   3.602  11.838 -0.5171 -0.2945 -0.1585
  262TMC3    O2 4029   0.287   4.135  11.799  0.2918 -0.2243 -0.0401
  263MPD2     C 4030   1.680   2.641  11.225 -0.3936 -0.7271  0.2158
  263MPD2    C1 4031   1.745   2.762  11.230  0.1206  0.5031 -0.8017
  263MPD2    C2 4032   1.753   2.828  11.110 -0.1061 -0.1878 -0.2178
  263MPD2    C3 4033   1.718   2.772  10.985  0.4312  0.1953 -0.1088
  263MPD2    C4 4034   1.659   2.645  10.984 -0.1258 -0.1780  0.1722
  263MPD2    C5 4035   1.636   2.586  11.111  0.4805 -0.3651 -0.8076
  263MPD2     H 4036   1.794   2.928  11.113 -0.5437 -0.0125 -0.2201
  263MPD2    H1 4037   1.624   2.589  10.898 -1.2951 -0.8557  1.0874
  263MPD2    H2 4038   1.662   2.591  11.319  0.2023  1.3271  1.4167
  263MPD2    H3 4039   1.598   2.485  11.118 -0.0180 -0.0014  1.5694
  263MPD2     N 4040   1.729   2.857  10.872 -0.5242  0.0207  0.6732
  263MPD2    H5 4041   1.772   2.947  10.891 -0.7081 -0.0503  1.4231
  263MPD2    N1 4042   1.816   2.788  11.347  0.2834 -0.6604  0.0330
  263MPD2    H7 4043   1.821   2.716  11.419 -0.2303  0.7144  1.4477
  264TMC3    C1 4044   1.703   2.927  10.649 -0.6212 -0.3976 -0.2108
  264TMC3    C2 4045   1.692   3.056  10.681  0.0227 -0.3192  0.3460
  264TMC3    C3 4046   1.676   3.145  10.580 -0.2268  0.3272  0.4612
  264TMC3    C4 4047   1.694   2.883  10.519  0.0001  0.3608 -0.4681
  264TMC3    C5 4048   1.688   2.975  10.421  0.1278 -0.1355 -0.5382
  264TMC3    C6 4049   1.669   3.107  10.451  0.0378 -0.5551 -0.0361
  264TMC3     C 4050   1.694   2.821  10.744 -0.1770 -0.1691 -0.0534
  264TMC3     O 4051   1.661   2.710  10.702  0.8533  0.0874 -0.6748
  264TMC3     H 4052   1.681   3.090  10.784  1.1039  0.2293  0.2814
  264TMC3    H1 4053   1.721   2.782  10.489 -1.4281  0.7578 -3.1194
  264TMC3    H2 4054   1.652   3.187  10.380 -1.7152 -2.8648 -2.2194
  264TMC3    C7 4055   1.737   2.946  10.285 -0.2195 -0.2512  0.0536
  264TMC3    C8 4056   1.708   3.289  10.591 -0.2813 -0.9763 -0.0870
  264TMC3    O1 4057   1.785   2.834  10.270  0.0215  0.3365  0.3918
  264TMC3    O2 4058   1.787   3.333  10.509 -0.0144  0.9252 -0.1395
  265MPD2     C 4059   3.519   3.535  15.457  0.3407 -0.1077 -0.0935
  265MPD2    C1 4060   3.484   3.645  15.381 -0.4693 -0.0592  0.0925
  265MPD2    C2 4061   3.504   3.630  15.243 -0.6316  0.4272 -0.4631
  265MPD2    C3 4062   3.544   3.512  15.185 -0.0434 -0.0474  0.3857
  265MPD2    C4 4063   3.563   3.403  15.272  0.8004  0.3382  0.4676
  265MPD2    C5 4064   3.555   3.415  15.402  0.0553  0.0950 -0.3652
  265MPD2     H 4065   3.480   3.714  15.178 -0.3982  0.7482 -0.1343
  265MPD2    H1 4066   3.594   3.309  15.229  1.5617  0.3960  0.8883
  265MPD2    H2 4067   3.510   3.531  15.565  1.6735  1.3157  0.0741
  265MPD2    H3 4068   3.569   3.332  15.471  0.1233  0.4810  0.0907
  265MPD2     N 4069   3.568   3.484  15.047 -0.7854  0.3137  0.7840
  265MPD2    H5 4070   3.600   3.392  15.017  0.0096  0.5256  0.9924
  265MPD2    N1 4071   3.439   3.768  15.442 -0.0023  0.0801 -1.2123
  265MPD2    H7 4072   3.428   3.848  15.381 -1.5076 -1.3848 -2.8443
  266TMC3    C1 4073   3.376   3.923  15.604  0.2888  0.0251  0.3525
  266TMC3    C2 4074   3.419   3.978  15.717 -0.0371  0.3755  0.1067
  266TMC3    C3 4075   3.378   4.108  15.743  0.2308  0.0249 -0.7246
  266TMC3    C4 4076   3.296   3.992  15.520 -0.0628  0.2180 -0.1217
  266TMC3    C5 4077   3.261   4.121  15.544  0.3012  0.2542  0.3249
  266TMC3    C6 4078   3.299   4.184  15.661 -0.0634  0.4523 -0.0186
  266TMC3     C 4079   3.417   3.782  15.578 -0.3801 -0.1469 -0.2487
  266TMC3     O 4080   3.426   3.714  15.677  0.4463  0.0163 -0.3944
  266TMC3     H 4081   3.486   3.924  15.783  1.0457 -1.0724 -2.1774
  266TMC3    H1 4082   3.270   3.956  15.421 -0.8669  2.3355 -0.6845
  266TMC3    H2 4083   3.276   4.288  15.683 -1.1049  0.7640 -2.5272
  266TMC3    C7 4084   3.174   4.190  15.450  0.1541 -0.6243  0.3989
  266TMC3    C8 4085   3.458   4.173  15.851  0.4542  0.3325 -0.1763
  266TMC3    O1 4086   3.124   4.117  15.362 -0.3162 -0.4680 -0.1935
  266TMC3    O2 4087   3.568   4.123  15.864  0.0818 -0.6288  0.0178
  267MPD2     C 4088   0.337   1.125   0.528  0.3284 -0.5195  0.7645
  267MPD2    C1 4089   0.406   1.064   0.424  0.0241  0.5195 -0.4334
  267MPD2    C2 4090   0.362   1.095   0.292  0.6225 -0.3023  0.0045
  267MPD2    C3 4091   0.256   1.183   0.266  0.1187  0.0800  0.2271
  267MPD2    C4 4092   0.200   1.250   0.375  0.5705  0.4856 -0.3223
  267MPD2    C5 4093   0.245   1.221   0.501 -0.0389 -0.9884 -0.0379
  267MPD2     H 4094   0.405   1.045   0.206  3.5593  0.2312  1.1717
  267MPD2    H1 4095   0.135   1.335   0.357  1.8915  1.1708 -1.8926
  267MPD2    H2 4096   0.357   1.109   0.634  0.9469 -1.1677  0.5483
  267MPD2    H3 4097   0.208   1.288   0.577 -2.5775 -0.4196 -1.7800
  267MPD2     N 4098   0.200   1.206   0.135  0.2351  0.4650 -0.9858
  267MPD2    H5 4099   0.144   1.290   0.124 -1.9526 -1.0138 -1.0061
  267MPD2    N1 4100   0.506   0.969   0.457 -0.1471  0.1077  0.4842
  267MPD2    H7 4101   0.520   0.948   0.555 -1.3124 -0.8532  0.4507
  268TMC3    C1 4102   0.711   0.842   0.430  0.0448 -0.0706  0.1788
  268TMC3    C2 4103   0.829   0.846   0.358  0.8286 -0.1805 -0.2960
  268TMC3    C3 4104   0.925   0.762   0.380  0.6368  0.3406 -0.0432
  268TMC3    C4 4105   0.693   0.749   0.526 -0.5318  0.1546 -0.2024
  268TMC3    C5 4106   0.795   0.659   0.549 -0.7601  0.1673 -0.1340
  268TMC3    C6 4107   0.914   0.665   0.476 -0.1586 -0.2307  0.1680
  268TMC3     C 4108   0.604   0.924   0.369 -0.5698  0.0152  0.0561
  268TMC3     O 4109   0.622   0.969   0.257  0.4472  0.0687 -0.0878
  268TMC3     H 4110   0.834   0.922   0.281 -0.7591  0.4054  0.1897
  268TMC3    H1 4111   0.595   0.742   0.572 -0.2069 -0.9646  0.3106
  268TMC3    H2 4112   0.996   0.595   0.486 -0.6995 -0.8588  0.2098
  268TMC3    C7 4113   0.781   0.547   0.646 -0.2052  0.0762  0.6360
  268TMC3    C8 4114   1.044   0.761   0.300 -0.0444  0.1263 -0.5200
  268TMC3    O1 4115   0.890   0.507   0.687 -0.2147  0.4739  0.5821
  268TMC3    O2 4116   1.142   0.705   0.347 -0.3518 -0.3664  0.3616
  269MPD2     C 4117   1.035   4.298  15.364  0.1890  0.4056  0.6301
  269MPD2    C1 4118   0.922   4.283  15.439 -0.1128  0.1012 -0.4893
  269MPD2    C2 4119   0.866   4.403  15.485 -0.2725 -0.6329  0.4769
  269MPD2    C3 4120   0.917   4.528  15.447  0.1928 -1.0502  0.3598
  269MPD2    C4 4121   1.027   4.537  15.362 -0.2991  0.0187  0.5657
  269MPD2    C5 4122   1.081   4.419  15.316 -0.1522  0.2813  1.0524
  269MPD2     H 4123   0.788   4.403  15.560 -1.1496  0.3261 -0.4475
  269MPD2    H1 4124   1.068   4.630  15.323 -0.7169 -0.6187 -1.3722
  269MPD2    H2 4125   1.093   4.211  15.338 -0.8026  0.1706 -0.7764
  269MPD2    H3 4126   1.165   4.411  15.248 -1.8007 -0.6213 -0.8879
  269MPD2     N 4127   0.856   4.644  15.496 -0.4591  0.0258 -0.1244
  269MPD2    H5 4128   0.772   4.635  15.551 -1.2394  0.7174 -1.2006
  269MPD2    N1 4129   0.883   4.153  15.482 -0.2467  0.2677 -0.0697
  269MPD2    H7 4130   0.939   4.075  15.447 -0.2917  1.0320 -1.8518
  270TMC3    C1 4131   0.733   3.980  15.571  0.0138  0.4839 -0.0881
  270TMC3    C2 4132   0.623   3.942  15.506  0.5344 -0.4262 -0.0283
  270TMC3    C3 4133   0.619   3.813  15.459 -0.1760 -0.3252 -0.3358
  270TMC3    C4 4134   0.833   3.887  15.597 -0.2815 -0.0913 -0.1448
  270TMC3    C5 4135   0.827   3.765  15.543  0.0184  0.7763 -0.1976
  270TMC3    C6 4136   0.716   3.723  15.484 -0.0639  0.3069 -0.8482
  270TMC3     C 4137   0.765   4.123  15.552  0.4596  0.3392 -0.3563
  270TMC3     O 4138   0.675   4.199  15.583  0.0768  0.1821 -0.1538
  270TMC3     H 4139   0.541   4.012  15.491 -1.2273 -1.9787  2.1618
  270TMC3    H1 4140   0.918   3.910  15.660 -1.3745  1.2950  0.8023
  270TMC3    H2 4141   0.709   3.623  15.443 -0.3825 -0.3254  0.7415
  270TMC3    C7 4142   0.938   3.687  15.572 -0.1130 -0.2803  0.4061
  270TMC3    C8 4143   0.529   3.794  15.346 -0.2303  0.1203  0.0421
  270TMC3    O1 4144   1.045   3.733  15.603 -0.3076 -0.2619  0.0443
  270TMC3    O2 4145   0.426   3.853  15.349  0.4244 -0.1991 -0.4066
  271MPD2     C 4146   0.263   4.221  13.554 -0.2397 -0.0878  0.2625
  271MPD2    C1 4147   0.192   4.166  13.657  0.4685  0.0838  0.5288
  271MPD2    C2 4148   0.055   4.185  13.656 -0.2071  0.2847  0.0974
  271MPD2    C3 4149   4.727   4.223  13.538 -0.3050  0.0044  0.5475
  271MPD2    C4 4150   0.070   4.271  13.434  0.3688 -0.9124  0.2417
  271MPD2    C5 4151   0.199   4.285  13.454  0.4072  0.5455 -0.8934
  271MPD2     H 4152   4.730   4.142  13.734  0.7622 -0.8081  0.2670
  271MPD2    H1 4153   0.035   4.312  13.340 -0.4193  0.4044  1.0993
  271MPD2    H2 4154   0.371   4.237  13.556 -0.4624  1.3633  1.0352
  271MPD2    H3 4155   0.258   4.336  13.379 -0.9175 -0.0242 -2.3140
  271MPD2     N 4156   4.588   4.237  13.520 -0.7429  0.9150  0.5981
  271MPD2    H5 4157   4.557   4.259  13.426 -1.1423 -4.2480 -0.4561
  271MPD2    N1 4158   0.254   4.113  13.770  0.5128  0.0898 -0.5725
  271MPD2    H7 4159   0.194   4.101  13.851  0.0146  0.0920 -0.9345
  272TMC3    C1 4160   0.404   4.006  13.913 -0.4840  0.3265  0.3056
  272TMC3    C2 4161   0.524   3.938  13.927  1.1451  0.1462 -0.1113
  272TMC3    C3 4162   0.544   3.873  14.044 -0.6676 -0.2662  0.7406
  272TMC3    C4 4163   0.321   4.034  14.023  0.1423 -0.6219 -0.0519
  272TMC3    C5 4164   0.358   3.972  14.144  0.5251 -0.0239  0.2174
  272TMC3    C6 4165   0.472   3.893  14.156 -0.1536 -0.0302 -0.1981
  272TMC3     C 4166   0.377   4.059  13.782  0.4088  0.0047  0.2268
  272TMC3     O 4167   0.470   4.063  13.703 -0.7709  0.2390  0.2342
  272TMC3     H 4168   0.571   3.899  13.838 -1.7494 -1.0354 -1.1417
  272TMC3    H1 4169   0.232   4.096  14.021 -0.1705 -1.0809 -0.2871
  272TMC3    H2 4170   0.500   3.837  14.245 -0.6293 -2.3568 -1.5036
  272TMC3    C7 4171   0.278   4.009  14.256  0.0261  0.8250 -0.1807
  272TMC3    C8 4172   0.664   3.795  14.041 -0.3169 -0.0070 -0.6775
  272TMC3    O1 4173   0.166   4.047  14.230  0.1727 -0.2332 -0.4129
  272TMC3    O2 4174   0.733   3.801  13.938 -0.6592  0.1666 -0.1666
  273MPD2     C 4175   1.870   1.466  11.965 -0.9848 -1.0126  0.1990
  273MPD2    C1 4176   1.991   1.529  11.974  0.2248 -0.5187  0.4019
  273MPD2    C2 4177   2.049   1.589  11.867  0.4802  0.0423 -0.4716
  273MPD2    C3 4178   1.973   1.603  11.749  0.3163 -0.4529 -0.6493
  273MPD2    C4 4179   1.853   1.535  11.736 -0.2457  0.2622  0.2065
  273MPD2    C5 4180   1.800   1.470  11.850  1.2773 -1.2917 -0.0691
  273MPD2     H 4181   2.143   1.642  11.874 -0.1130  1.1281 -0.5914
  273MPD2    H1 4182   1.799   1.532  11.642 -1.4771  0.6388  0.9037
  273MPD2    H2 4183   1.824   1.415  12.049 -2.1265 -0.6712 -0.2101
  273MPD2    H3 4184   1.703   1.422  11.849  0.8055 -0.3792  1.9386
  273MPD2     N 4185   2.013   1.686  11.641  0.0381 -0.2669  0.1521
  273MPD2    H5 4186   1.950   1.682  11.562 -0.4929 -0.4775  0.5837
  273MPD2    N1 4187   2.045   1.527  12.105  0.3658  0.0436  0.4083
  273MPD2    H7 4188   1.983   1.512  12.184 -0.0432  2.3997  0.5537
  274TMC3    C1 4189   2.125   1.852  11.526 -0.4209 -0.0948  0.4416
  274TMC3    C2 4190   2.046   1.829  11.414 -0.0317  0.1577 -0.2924
  274TMC3    C3 4191   2.044   1.922  11.315  0.4781 -0.3779  0.0030
  274TMC3    C4 4192   2.205   1.962  11.539  0.2067 -0.2282 -0.3788
  274TMC3    C5 4193   2.196   2.060  11.440 -0.1168  0.0052 -0.0633
  274TMC3    C6 4194   2.116   2.038  11.331  0.8992 -0.4276  0.0924
  274TMC3     C 4195   2.123   1.766  11.642  0.0676 -0.9201 -0.1841
  274TMC3     O 4196   2.204   1.781  11.730 -0.3154  0.1755 -0.0316
  274TMC3     H 4197   1.995   1.736  11.388 -0.0374 -1.0898  4.2588
  274TMC3    H1 4198   2.261   1.985  11.629 -0.8652  0.5936  0.0857
  274TMC3    H2 4199   2.101   2.118  11.260 -2.2811  0.4364  1.7131
  274TMC3    C7 4200   2.267   2.184  11.458 -0.8245 -0.7528  0.9054
  274TMC3    C8 4201   1.931   1.925  11.220 -0.0611 -0.3513  0.1733
  274TMC3    O1 4202   2.234   2.274  11.379 -0.1233 -0.3913  0.1492
  274TMC3    O2 4203   1.831   1.871  11.269 -0.1451  0.1834  0.4850
  275MPD2     C 4204   1.786   0.226  14.233  0.0011  1.2213 -0.2445
  275MPD2    C1 4205   1.701   0.300  14.310  0.1830  0.2893 -0.0417
  275MPD2    C2 4206   1.569   0.268  14.309  0.5357 -0.3185  0.2515
  275MPD2    C3 4207   1.515   0.171  14.228 -0.2858  0.5344 -0.0141
  275MPD2    C4 4208   1.599   0.104  14.145  0.0905 -0.1794 -0.1435
  275MPD2    C5 4209   1.733   0.129  14.153  0.7894 -0.6946  0.5313
  275MPD2     H 4210   1.509   0.306  14.392 -0.7429 -0.1728 -0.7370
  275MPD2    H1 4211   1.561   0.031  14.074 -0.6226 -1.6180  1.7205
  275MPD2    H2 4212   1.893   0.242  14.242 -0.0132  1.8551 -1.1083
  275MPD2    H3 4213   1.810   0.071  14.103  0.3674 -0.5003 -0.3375
  275MPD2     N 4214   1.371   0.143  14.228  0.1204 -1.4184 -0.1772
  275MPD2    H5 4215   1.345   0.070  14.164  2.0648 -0.5757 -1.9167
  275MPD2    N1 4216   1.729   0.411  14.395  0.1676  0.6767 -0.2262
  275MPD2    H7 4217   1.653   0.449  14.450  1.3865 -0.8877  2.5078
  276TMC3    C1 4218   1.860   0.555  14.528 -1.3739  0.4647  0.4059
  276TMC3    C2 4219   1.743   0.609  14.586  0.0966 -1.2480  0.1789
  276TMC3    C3 4220   1.739   0.653  14.714  0.5263  0.1244  0.1589
  276TMC3    C4 4221   1.977   0.568  14.588 -0.3555  0.2060  0.4966
  276TMC3    C5 4222   1.968   0.631  14.714  0.0821  0.1342  0.6261
  276TMC3    C6 4223   1.860   0.683  14.767 -0.2632 -0.1590  0.3610
  276TMC3     C 4224   1.856   0.452  14.420  0.0361 -0.5011  0.7686
  276TMC3     O 4225   1.958   0.427  14.358 -0.5727 -0.0723 -0.0628
  276TMC3     H 4226   1.652   0.611  14.527  0.5764 -0.6793 -0.5264
  276TMC3    H1 4227   2.067   0.521  14.551 -0.5497 -1.7786  2.5252
  276TMC3    H2 4228   1.869   0.708  14.873  0.0516 -3.1846  1.0474
  276TMC3    C7 4229   2.076   0.583  14.805  0.0618  0.1386 -0.6479
  276TMC3    C8 4230   1.685   0.545  14.796 -0.0173 -0.4702 -0.1411
  276TMC3    O1 4231   2.103   0.645  14.905  0.4533 -0.0987 -0.1856
  276TMC3    O2 4232   1.752   0.492  14.882 -0.3142 -0.2749  0.0633
  277MPD2     C 4233   4.113   3.816  13.008  0.3911 -0.2322 -0.2430
  277MPD2    C1 4234   3.983   3.860  13.022  0.4125  0.1441 -0.0067
  277MPD2    C2 4235   3.883   3.771  13.067 -0.0359 -0.2410 -0.1047
  277MPD2    C3 4236   3.912   3.639  13.104 -0.8901  0.1915  0.6003
  277MPD2    C4 4237   4.046   3.609  13.096 -0.6196 -0.2288  0.4028
  277MPD2    C5 4238   4.143   3.694  13.046  0.9202  0.5517 -0.1862
  277MPD2     H 4239   3.781   3.805  13.080  0.1785 -0.4981  2.2296
  277MPD2    H1 4240   4.086   3.513  13.126 -0.6806  0.1286  1.6433
  277MPD2    H2 4241   4.186   3.885  12.968  1.0729 -0.7780  0.0620
  277MPD2    H3 4242   4.250   3.674  13.048  0.6503 -0.8607  0.3125
  277MPD2     N 4243   3.809   3.550  13.146 -0.1447  0.1090 -0.1703
  277MPD2    H5 4244   3.714   3.585  13.150  0.1344  0.5234  2.4775
  277MPD2    N1 4245   3.940   3.994  12.993 -0.0946 -0.2997  0.3051
  277MPD2    H7 4246   3.840   4.012  12.998  0.1524  1.0872  0.1321
  278TMC3    C1 4247   3.709   3.353  13.224 -0.4085  1.5230  0.4136
  278TMC3    C2 4248   3.709   3.266  13.333  0.1489  0.1166 -0.4969
  278TMC3    C3 4249   3.591   3.215  13.366  0.0227  0.0339 -0.0842
  278TMC3    C4 4250   3.601   3.387  13.147  0.4270  0.8341 -0.1278
  278TMC3    C5 4251   3.481   3.331  13.185 -0.3048  0.5710  0.1697
  278TMC3    C6 4252   3.473   3.249  13.294 -0.6088 -0.5443 -0.2403
  278TMC3     C 4253   3.831   3.422  13.189 -0.5720  0.8396  0.0732
  278TMC3     O 4254   3.939   3.370  13.223 -0.2695 -0.5370  0.3800
  278TMC3     H 4255   3.800   3.254  13.391  0.6179  2.5205 -0.7600
  278TMC3    H1 4256   3.621   3.444  13.056 -1.0846 -0.8869 -1.5499
  278TMC3    H2 4257   3.377   3.206  13.319 -0.2103 -1.0608  0.4079
  278TMC3    C7 4258   3.363   3.401  13.130 -0.5885 -0.3784 -0.2484
  278TMC3    C8 4259   3.589   3.123  13.472  0.0488 -0.2232 -0.2027
  278TMC3    O1 4260   3.384   3.472  13.034 -0.4043  0.2469 -0.1249
  278TMC3    O2 4261   3.690   3.072  13.515  0.3793  0.1547 -0.1279
  279MPD2     C 4262   3.019   3.895   0.131  0.4124  0.1112 -0.0616
  279MPD2    C1 4263   2.899   3.967   0.124 -0.0149 -0.6146 -0.0791
  279MPD2    C2 4264   2.843   3.978  17.740  0.1727 -0.0027  0.2703
  279MPD2    C3 4265   2.901   3.925  17.625  0.3436  0.8702 -0.3222
  279MPD2    C4 4266   3.014   3.850  17.644  0.3386  1.0558 -0.0181
  279MPD2    C5 4267   3.067   3.832   0.019 -0.1821  0.4817 -0.0347
  279MPD2     H 4268   2.750   4.033  17.736 -0.0429 -0.4075 -0.1972
  279MPD2    H1 4269   3.066   3.807  17.558 -0.0409  0.4246  0.0685
  279MPD2    H2 4270   3.067   3.868   0.224 -0.2986  1.1227  0.5989
  279MPD2    H3 4271   3.172   3.805   0.015 -0.9320 -2.4418  0.4473
  279MPD2     N 4272   2.851   3.953  17.496 -0.1955  0.2827 -0.7054
  279MPD2    H5 4273   2.902   3.924  17.414  1.4411  0.8081  0.1256
  279MPD2    N1 4274   2.858   4.017   0.246  0.2193  0.1402  0.0819
  279MPD2    H7 4275   2.927   4.018   0.320 -1.1122  1.4459  1.2924
  280TMC3    C1 4276   2.629   4.002   0.200 -0.0878 -0.2885 -0.1172
  280TMC3    C2 4277   2.618   3.870   0.169 -0.0283  0.6819 -0.3526
  280TMC3    C3 4278   2.509   3.823   0.108 -0.3075 -0.2314 -0.3784
  280TMC3    C4 4279   2.524   4.088   0.188  0.7984  0.0293 -0.1943
  280TMC3    C5 4280   2.416   4.042   0.117 -0.0153  0.1924 -0.6453
  280TMC3    C6 4281   2.407   3.911   0.069 -0.0026 -0.0478  0.0816
  280TMC3     C 4282   2.734   4.059   0.280 -0.1245  0.3077  0.2413
  280TMC3     O 4283   2.711   4.110   0.389 -0.3889  1.0123 -0.1877
  280TMC3     H 4284   2.709   3.816   0.194 -0.8655 -0.1261  0.9426
  280TMC3    H1 4285   2.541   4.189   0.223 -2.4351 -0.0860  1.6515
  280TMC3    H2 4286   2.337   3.889  17.735  1.3840  0.0764 -1.1661
  280TMC3    C7 4287   2.315   4.144   0.086  0.2953  0.1937  0.4758
  280TMC3    C8 4288   2.496   3.685   0.063  0.3819 -0.2257 -0.9816
  280TMC3    O1 4289   2.323   4.246   0.152 -0.5193 -0.1057 -0.4627
  280TMC3    O2 4290   2.431   3.663  17.709 -0.4764  0.2182 -0.4195
  281TMC3    C1 4291   2.180   4.037  12.908  0.3338  0.7679 -0.0998
  281TMC3    C2 4292   2.207   4.144  12.826  0.8777 -0.0357  0.3765
  281TMC3    C3 4293   2.191   4.121  12.689 -0.4962 -0.3031 -0.0577
  281TMC3    C4 4294   2.143   3.912  12.869  0.2120  0.2977  0.3602
  281TMC3    C5 4295   2.110   3.903  12.741 -0.1079 -0.4262 -0.5489
  281TMC3    C6 4296   2.142   3.997  12.645 -0.1374 -0.3584 -0.0962
  281TMC3     C 4297   2.132   4.064  13.039 -0.6858  0.7674 -0.2757
  281TMC3     O 4298   2.069   3.976  13.096  0.5658  0.7306  0.7383
  281TMC3     H 4299   2.274   4.223  12.859  1.6162 -0.8352  0.7794
  281TMC3    H1 4300   2.126   3.835  12.942 -0.5436  0.7587  0.6689
  281TMC3    H2 4301   2.099   3.983  12.547  0.3642 -0.6649 -0.2722
  281TMC3    C7 4302   1.984   3.835  12.724  0.4904  0.2520  0.3348
  281TMC3    C8 4303   2.218   4.215  12.586 -0.1667 -0.7539 -0.0374
  281TMC3    O1 4304   1.954   3.802  12.612  0.5746  0.5515 -0.3388
  281TMC3    O2 4305   2.287   4.173  12.492 -0.2048  0.1826 -0.0346
  282MPD2     C 4306   3.157   0.783  14.937  0.1102  0.3026  0.1262
  282MPD2    C1 4307   3.021   0.795  14.941  0.7816  0.2086 -0.7296
  282MPD2    C2 4308   2.955   0.830  14.827  0.2912 -0.4398 -0.2474
  282MPD2    C3 4309   3.018   0.864  14.712  0.0754 -0.1035  0.5145
  282MPD2    C4 4310   3.152   0.851  14.706  0.7578 -0.4542 -0.2759
  282MPD2    C5 4311   3.217   0.820  14.823  0.1251 -0.6677 -0.7444
  282MPD2     H 4312   2.848   0.842  14.832  0.4086  0.8003 -0.9094
  282MPD2    H1 4313   3.202   0.864  14.610  3.8287 -0.0282  1.3945
  282MPD2    H2 4314   3.211   0.748  15.024  0.2541  1.6164  0.5661
  282MPD2    H3 4315   3.325   0.807  14.821  0.3433  0.9816  0.2168
  282MPD2     N 4316   2.939   0.901  14.600  0.4265 -0.2869 -0.3865
  282MPD2    H5 4317   2.841   0.922  14.617  0.2612 -0.9191 -0.5737
  282MPD2    N1 4318   2.947   0.771  15.054  0.3101 -0.0673 -0.0723
  282MPD2    H7 4319   2.849   0.800  15.055 -0.0864 -1.4054 -0.2956
  283TMC3    C1 4320   2.897   0.745  15.285  0.7475  0.1062 -0.0189
  283TMC3    C2 4321   2.896   0.869  15.346 -1.0418 -0.0754  0.1147
  283TMC3    C3 4322   2.888   0.866  15.486 -0.1025 -0.2959 -0.4973
  283TMC3    C4 4323   2.888   0.626  15.351 -0.2376 -0.5605  0.7645
  283TMC3    C5 4324   2.851   0.632  15.482  0.6727 -0.0004  0.7255
  283TMC3    C6 4325   2.845   0.751  15.550  0.1224  0.5985 -0.0023
  283TMC3     C 4326   2.994   0.732  15.176  0.0117  0.3968 -0.1635
  283TMC3     O 4327   3.093   0.666  15.204 -0.1109 -0.6038  0.7056
  283TMC3     H 4328   2.914   0.965  15.299 -0.4253  0.1705  0.8624
  283TMC3    H1 4329   2.908   0.530  15.305  0.5540 -0.5660  1.1129
  283TMC3    H2 4330   2.818   0.754  15.655 -0.2867 -1.7438 -0.0292
  283TMC3    C7 4331   2.795   0.525  15.564  0.4991 -0.5779 -0.0774
  283TMC3    C8 4332   2.863   0.991  15.555  0.3385 -0.3327  0.0131
  283TMC3    O1 4333   2.776   0.549  15.680 -0.2794  0.0008 -0.0647
  283TMC3    O2 4334   2.781   0.994  15.649  0.0162  0.3359 -0.4364
  284MPD2     C 4335   1.632   4.253  11.611  0.0334 -0.2920  0.5152
  284MPD2    C1 4336   1.668   4.245  11.477  0.2193  0.6747  0.2644
  284MPD2    C2 4337   1.663   4.129  11.405  0.2073 -0.0283  0.1311
  284MPD2    C3 4338   1.614   4.015  11.467  0.0785 -0.0132  0.6106
  284MPD2    C4 4339   1.579   4.024  11.601 -0.0010 -0.3833  0.3323
  284MPD2    C5 4340   1.596   4.136  11.673  0.2118  0.1492  0.1427
  284MPD2     H 4341   1.713   4.119  11.309 -0.0422 -1.8147  0.1792
  284MPD2    H1 4342   1.536   3.943  11.658 -0.5369 -0.2541  0.1132
  284MPD2    H2 4343   1.633   4.342  11.673 -0.8416  1.3925 -1.8767
  284MPD2    H3 4344   1.565   4.138  11.777  0.3802  0.8196  0.1793
  284MPD2     N 4345   1.606   3.894  11.401 -0.7554  0.1006 -0.4544
  284MPD2    H5 4346   1.577   3.816  11.459 -0.9044  1.0404  0.7397
  284MPD2    N1 4347   1.728   4.350  11.410 -0.8150  0.0461 -0.1844
  284MPD2    H7 4348   1.748   4.355  11.310 -0.7122  0.2180 -0.1554
  285TMC3    C1 4349   1.877   4.513  11.373 -0.4497  0.3679  0.5039
  285TMC3    C2 4350   1.956   4.426  11.308 -0.7602 -0.0431  0.5633
  285TMC3    C3 4351   2.082   4.460  11.272 -0.4797 -0.2483 -0.7264
  285TMC3    C4 4352   1.926   4.631  11.421 -0.4480  1.0958 -0.5541
  285TMC3    C5 4353   2.061   4.658  11.393 -0.5183 -0.5851  0.2909
  285TMC3    C6 4354   2.141   4.578  11.315 -0.2208 -0.1231  0.0069
  285TMC3     C 4355   1.785   4.458  11.464 -0.6093  0.6630 -0.4347
  285TMC3     O 4356   1.792   4.494  11.578 -0.0118 -0.2728  0.4561
  285TMC3     H 4357   1.920   4.327  11.282 -0.0601  0.1678 -1.2275
  285TMC3    H1 4358   1.863   4.710  11.460 -0.9112  0.7997 -0.7029
  285TMC3    H2 4359   2.246   4.603  11.305 -0.6184  1.7476  0.5188
  285TMC3    C7 4360   2.119   0.031  11.464 -0.7217 -0.3676 -0.3133
  285TMC3    C8 4361   2.147   4.388  11.167 -0.2037  0.0074  0.8384
  285TMC3    O1 4362   2.225   0.066  11.418  0.8960 -0.1276 -0.4357
  285TMC3    O2 4363   2.116   4.271  11.144  0.3795 -0.1897 -0.3328
  286MPD2     C 4364   1.858   3.821   0.925  0.4268  0.0785  0.0916
  286MPD2    C1 4365   1.747   3.772   0.865  0.2366 -0.3054  0.8582
  286MPD2    C2 4366   1.739   3.634   0.845  0.2814 -0.4195  0.7245
  286MPD2    C3 4367   1.839   3.540   0.880 -0.3350  0.0543  0.5862
  286MPD2    C4 4368   1.955   3.594   0.934 -0.0746  0.1069 -0.2172
  286MPD2    C5 4369   1.958   3.733   0.956  0.8099 -0.0347  0.3063
  286MPD2     H 4370   1.650   3.602   0.791  1.6934 -2.1918 -0.5414
  286MPD2    H1 4371   2.041   3.533   0.959  0.9318  0.8694 -1.8863
  286MPD2    H2 4372   1.872   3.926   0.946  0.4197  0.1322 -0.1727
  286MPD2    H3 4373   2.050   3.769   1.001  1.4133 -2.1888  0.8379
  286MPD2     N 4374   1.832   3.402   0.859  0.0272  0.3925 -0.3331
  286MPD2    H5 4375   1.903   3.344   0.902 -0.6838 -1.1524 -1.2503
  286MPD2    N1 4376   1.630   3.853   0.829 -0.3118 -0.1934  0.2367
  286MPD2    H7 4377   1.559   3.799   0.782  0.2004 -2.6431  2.3061
  287TMC3    C1 4378   1.745   3.194   0.774  0.3180  0.0541 -0.2215
  287TMC3    C2 4379   1.691   3.131   0.669  0.4595 -0.4756 -0.1965
  287TMC3    C3 4380   1.720   3.003   0.643  0.3942  0.6497  0.2527
  287TMC3    C4 4381   1.822   3.122   0.862 -0.2434  0.1926  0.8333
  287TMC3    C5 4382   1.859   2.999   0.830 -0.1236  0.9073  0.1259
  287TMC3    C6 4383   1.819   2.937   0.716 -0.3724  0.2994 -0.1604
  287TMC3     C 4384   1.725   3.340   0.800  0.0249  0.4584  0.0308
  287TMC3     O 4385   1.630   3.385   0.741 -0.2852 -0.0713  0.2294
  287TMC3     H 4386   1.624   3.197   0.614 -0.7860 -1.6532 -0.0926
  287TMC3    H1 4387   1.843   3.170   0.957  1.8122 -0.5887  0.7765
  287TMC3    H2 4388   1.843   2.833   0.695  3.0728  1.1399 -0.2805
  287TMC3    C7 4389   1.998   2.975   0.874  0.6540  0.6574  0.3935
  287TMC3    C8 4390   1.645   2.923   0.543 -0.0720  0.1216  0.5097
  287TMC3    O1 4391   2.037   3.075   0.934  0.0359  0.2430 -0.2384
  287TMC3    O2 4392   1.690   2.811   0.514 -0.6590 -0.0734 -0.6265
  288TMC3    C1 4393   3.588   3.134  14.093 -0.3236 -0.2569 -0.0917
  288TMC3    C2 4394   3.502   3.168  14.195  0.4182 -0.4487  0.7567
  288TMC3    C3 4395   3.417   3.274  14.162 -0.3542 -0.5631  0.1366
  288TMC3    C4 4396   3.598   3.195  13.969  0.7356 -0.6895 -0.4405
  288TMC3    C5 4397   3.504   3.294  13.943 -0.0668 -0.4087 -0.6582
  288TMC3    C6 4398   3.419   3.340  14.038  0.0543 -0.2533  0.9948
  288TMC3     C 4399   3.707   3.063  14.125 -0.2326 -0.0897 -0.0898
  288TMC3     O 4400   3.700   2.993  14.222  0.1372  0.7304  0.2096
  288TMC3     H 4401   3.503   3.129  14.296 -0.2078 -1.8784  0.2056
  288TMC3    H1 4402   3.658   3.156  13.887  0.1688 -1.4870 -0.4798
  288TMC3    H2 4403   3.354   3.423  14.011  1.6811  0.5522 -0.4577
  288TMC3    C7 4404   3.501   3.354  13.814 -0.6280 -0.1513  0.2638
  288TMC3    C8 4405   3.354   3.324  14.277  0.2053  0.6147  1.0503
  288TMC3    O1 4406   3.391   3.403  13.781  0.2339 -0.2804 -0.0832
  288TMC3    O2 4407   3.348   3.445  14.297 -0.2137  0.2371  0.2312
  289MPD2     C 4408   3.689   2.471  14.393 -0.6190 -0.5525 -0.0453
  289MPD2    C1 4409   3.666   2.532  14.271 -0.3631 -0.2496 -0.3788
  289MPD2    C2 4410   3.530   2.537  14.235  1.4438 -0.1204 -0.1523
  289MPD2    C3 4411   3.427   2.477  14.314 -0.2556  0.5679 -0.2741
  289MPD2    C4 4412   3.461   2.418  14.431 -0.8915  0.3851 -0.3206
  289MPD2    C5 4413   3.592   2.421  14.470  0.8708 -1.2287 -0.4147
  289MPD2     H 4414   3.504   2.574  14.137 -0.9607  0.2780  0.6233
  289MPD2    H1 4415   3.385   2.389  14.503 -1.2531  1.6724 -0.1763
  289MPD2    H2 4416   3.789   2.450  14.431 -0.1948  1.2089 -0.1544
  289MPD2    H3 4417   3.621   2.383  14.568  0.7791  3.0903  1.2680
  289MPD2     N 4418   3.289   2.485  14.276 -0.3981  0.3331 -0.3693
  289MPD2    H5 4419   3.223   2.451  14.346  1.2691 -0.6933  0.6985
  289MPD2    N1 4420   3.780   2.580  14.195 -0.0555 -0.2133 -0.6627
  289MPD2    H7 4421   3.868   2.547  14.232  0.5905  1.6744 -0.4914
  290TMC3    C1 4422   3.091   2.554  14.170  0.1313  0.0986 -0.4108
  290TMC3    C2 4423   3.027   2.651  14.094 -0.5210 -0.1620 -0.2650
  290TMC3    C3 4424   2.892   2.640  14.076 -0.1104  0.5463  0.4281
  290TMC3    C4 4425   3.019   2.446  14.221  0.6915  0.3801  0.3629
  290TMC3    C5 4426   2.888   2.444  14.182  0.6430  0.3525  0.6873
  290TMC3    C6 4427   2.815   2.547  14.126 -0.1417  0.0738  0.1764
  290TMC3     C 4428   3.237   2.555  14.166 -0.3161  0.8118 -0.0195
  290TMC3     O 4429   3.289   2.600  14.068  0.0705  0.4210 -0.0318
  290TMC3     H 4430   3.083   2.729  14.044  0.0853 -0.4919 -0.1054
  290TMC3    H1 4431   3.068   2.362  14.268 -0.4184 -0.6683 -0.3613
  290TMC3    H2 4432   2.710   2.543  14.101  0.3843  0.3804 -2.0218
  290TMC3    C7 4433   2.805   2.358  14.255  0.3287  0.4618  0.0516
  290TMC3    C8 4434   2.821   2.746  14.008 -0.0283  0.6049 -0.0523
  290TMC3    O1 4435   2.699   2.401  14.296 -0.0686  0.1880  0.0346
  290TMC3    O2 4436   2.706   2.723  13.977 -0.3695 -0.5154  0.1650
  291MPD2     C 4437   2.533   2.491   0.061  0.4210  0.3735 -0.5803
  291MPD2    C1 4438   2.663   2.435   0.040 -0.1668  0.8213  0.1471
  291MPD2    C2 4439   2.773   2.514   0.077  0.3014  0.2321  0.1123
  291MPD2    C3 4440   2.755   2.645   0.122  0.2582  0.0807  0.1283
  291MPD2    C4 4441   2.630   2.702   0.123  0.0953 -0.3403  0.6984
  291MPD2    C5 4442   2.522   2.621   0.100 -0.3325  0.0469 -0.0151
  291MPD2     H 4443   2.870   2.466   0.071 -0.5622 -1.4545 -0.3194
  291MPD2    H1 4444   2.605   2.803   0.153  0.5122  1.1757 -4.1064
  291MPD2    H2 4445   2.443   2.441   0.027 -1.3630  3.1805 -0.0065
  291MPD2    H3 4446   2.420   2.658   0.107 -0.2551  0.3340 -0.4022
  291MPD2     N 4447   2.861   2.721   0.178 -0.0632  0.8198  0.0417
  291MPD2    H5 4448   2.834   2.816   0.204 -0.5353  0.9322 -0.8580
  291MPD2    N1 4449   2.689   2.308  17.721 -0.1461  0.0400 -0.0758
  291MPD2    H7 4450   2.787   2.286  17.708  0.4810  3.3431 -1.0199
  292TMC3    C1 4451   2.653   2.089  17.653  0.1148 -0.0292 -0.2047
  292TMC3    C2 4452   2.759   2.049  17.734  0.2161  0.2907 -0.0611
  292TMC3    C3 4453   2.780   1.916  17.740 -0.1838 -0.0241 -0.5229
  292TMC3    C4 4454   2.594   2.004  17.562  0.3762  0.3179  0.9370
  292TMC3    C5 4455   2.633   1.870  17.573 -0.1739 -0.3172  0.8301
  292TMC3    C6 4456   2.718   1.823  17.669  0.5529  0.1396 -0.2767
  292TMC3     C 4457   2.595   2.219  17.673 -0.2558  0.0762 -0.1108
  292TMC3     O 4458   2.481   2.234  17.663 -0.5305  0.2406  0.3287
  292TMC3     H 4459   2.811   2.117   0.055 -0.8883 -0.2922  1.4136
  292TMC3    H1 4460   2.509   2.038  17.504  1.4122 -0.3950 -0.9755
  292TMC3    H2 4461   2.749   1.719  17.673 -0.1475  0.0224  2.0089
  292TMC3    C7 4462   2.579   1.768  17.489  0.3936  0.0555  0.3134
  292TMC3    C8 4463   2.817   1.870   0.126 -0.0275 -0.5916 -0.3895
  292TMC3    O1 4464   2.645   1.668  17.486  0.0806  0.5276  0.1131
  292TMC3    O2 4465   2.908   1.925   0.190 -0.0852 -0.1886 -0.3737
  293MPD2     C 4466   4.597   3.748  12.497 -0.4349 -0.4995  0.1619
  293MPD2    C1 4467   4.506   3.800  12.586  0.2781 -0.0155  0.9563
  293MPD2    C2 4468   4.535   3.797  12.719  0.1518  0.0368 -0.6438
  293MPD2    C3 4469   4.661   3.796  12.765 -0.3802 -0.5338 -0.4888
  293MPD2    C4 4470   0.022   3.778  12.674  0.8786 -0.1449 -0.6461
  293MPD2    C5 4471   4.725   3.748  12.540 -0.2512  0.3707 -0.0987
  293MPD2     H 4472   4.458   3.825  12.790 -1.5616 -2.0414 -1.6844
  293MPD2    H1 4473   0.127   3.773  12.702  0.3861 -2.6947  0.7540
  293MPD2    H2 4474   4.576   3.733  12.392  0.5988  0.0181 -0.1210
  293MPD2    H3 4475   0.066   3.736  12.465  2.9868 -0.9210  3.4971
  293MPD2     N 4476   4.687   3.820  12.902  0.1160 -0.4550  0.0299
  293MPD2    H5 4477   4.607   3.827  12.965  0.2460 -0.5969  0.2091
  293MPD2    N1 4478   4.376   3.833  12.534 -0.1936 -0.0829  0.8709
  293MPD2    H7 4479   4.366   3.841  12.433  0.4315  0.7135  0.8682
  294TMC3    C1 4480   4.153   3.920  12.551  0.1503  0.1522  0.3080
  294TMC3    C2 4481   4.043   3.942  12.622  0.5902  0.1823 -0.1208
  294TMC3    C3 4482   3.927   3.989  12.557  0.2481 -0.8231  0.2853
  294TMC3    C4 4483   4.150   3.951  12.411  0.3671  0.0676  0.2891
  294TMC3    C5 4484   4.037   3.990  12.347  0.0879 -0.3297 -0.0340
  294TMC3    C6 4485   3.927   4.017  12.424 -0.1437 -1.0465  0.1794
  294TMC3     C 4486   4.264   3.845  12.611 -0.0606 -0.2148  0.6909
  294TMC3     O 4487   4.242   3.804  12.723  0.5836 -0.0761  0.3230
  294TMC3     H 4488   4.037   3.901  12.722 -2.3208  1.1191  0.1180
  294TMC3    H1 4489   4.240   3.947  12.351  0.3426  2.0879  0.1322
  294TMC3    H2 4490   3.825   4.014  12.389  0.1291  2.6219 -0.9773
  294TMC3    C7 4491   4.026   3.986  12.206 -0.6210  0.0188  0.0993
  294TMC3    C8 4492   3.785   3.991  12.606 -0.5249  0.3186 -0.3907
  294TMC3    O1 4493   3.924   4.038  12.174  0.2644 -0.7289  0.4860
  294TMC3    O2 4494   3.729   4.097  12.598 -0.3500 -0.2147  0.1699
  295MPD2     C 4495   1.115   2.666   1.004  0.0884 -0.1656 -0.5978
  295MPD2    C1 4496   1.092   2.572   0.907  0.6713  0.1331  0.4814
  295MPD2    C2 4497   1.126   2.441   0.936 -0.2314 -0.1474 -0.0375
  295MPD2    C3 4498   1.191   2.412   1.060 -0.3879 -0.8296  0.2332
  295MPD2    C4 4499   1.221   2.510   1.151  0.6924 -0.0779 -0.2783
  295MPD2    C5 4500   1.181   2.637   1.124  0.1374  0.5843  0.1759
  295MPD2     H 4501   1.095   2.368   0.861 -0.5116 -1.0400  0.9456
  295MPD2    H1 4502   1.267   2.486   1.246  3.6400  0.8488 -1.4763
  295MPD2    H2 4503   1.070   2.765   0.998  0.9027  0.0769 -2.7161
  295MPD2    H3 4504   1.199   2.725   1.185 -0.2510  0.1512  0.9104
  295MPD2     N 4505   1.221   2.278   1.098  0.2080 -0.4118  0.5518
  295MPD2    H5 4506   1.263   2.276   1.190  2.0400 -1.1285 -0.2869
  295MPD2    N1 4507   1.024   2.595   0.788  0.1084  0.0657  0.4960
  295MPD2    H7 4508   1.002   2.515   0.730 -1.0063  0.5565  0.2561
  296TMC3    C1 4509   1.226   2.045   1.111 -0.5198  0.1001  0.0646
  296TMC3    C2 4510   1.335   2.045   1.188 -0.1932  0.1917 -0.9307
  296TMC3    C3 4511   1.388   1.924   1.228  0.0767  0.2671 -0.0157
  296TMC3    C4 4512   1.165   1.925   1.078  0.0521  0.2814  0.4619
  296TMC3    C5 4513   1.230   1.811   1.110 -0.2496  0.2467  0.4404
  296TMC3    C6 4514   1.341   1.807   1.184  0.6924  0.5790 -0.2457
  296TMC3     C 4515   1.172   2.158   1.049 -0.2753 -0.3487 -0.0893
  296TMC3     O 4516   1.086   2.140   0.962  0.3352  0.2162 -0.3137
  296TMC3     H 4517   1.390   2.136   1.207 -1.1946  0.3866  1.1006
  296TMC3    H1 4518   1.073   1.914   1.022  0.2459  0.8497  0.0332
  296TMC3    H2 4519   1.383   1.709   1.202 -0.1246  0.5512  1.5212
  296TMC3    C7 4520   1.182   1.680   1.057 -0.4492  0.2005 -0.0852
  296TMC3    C8 4521   1.515   1.934   1.290 -0.1948 -0.4874  0.7804
  296TMC3    O1 4522   1.267   1.598   1.017  0.5868  0.1017  1.2915
  296TMC3    O2 4523   1.587   1.836   1.296  0.0663  0.1164  0.1479
  297MPD2     C 4524   2.141   4.097  16.038  0.2338  0.1796  0.3333
  297MPD2    C1 4525   2.136   4.206  15.952 -0.5144  0.1418 -0.1539
  297MPD2    C2 4526   2.244   4.295  15.951  0.5763 -0.4210  0.2921
  297MPD2    C3 4527   2.353   4.278  16.036 -0.8815 -0.1033 -0.3244
  297MPD2    C4 4528   2.350   4.174  16.122  0.1510 -0.0565  0.8476
  297MPD2    C5 4529   2.250   4.083  16.120 -0.7885 -0.5105 -0.3140
  297MPD2     H 4530   2.230   4.373  15.877  0.4361 -2.4112 -1.8031
  297MPD2    H1 4531   2.434   4.156  16.187 -1.9402 -0.7910  3.3401
  297MPD2    H2 4532   2.073   4.013  16.048 -0.0101  0.0585 -2.3154
  297MPD2    H3 4533   2.274   4.000  16.186 -1.0390 -0.4025 -0.0863
  297MPD2     N 4534   2.466   4.358  16.046  0.3398 -0.1806  0.2238
  297MPD2    H5 4535   2.530   4.337  16.122 -0.3745 -1.2226  0.5446
  297MPD2    N1 4536   2.029   4.232  15.867  0.0868 -0.1088  0.2080
  297MPD2    H7 4537   2.026   4.323  15.824 -0.1051  0.2399  0.9595
  298TMC3    C1 4538   1.803   4.236  15.799  0.7909  0.8742  0.1153
  298TMC3    C2 4539   1.830   4.311  15.690  0.1588  0.5170 -0.0187
  298TMC3    C3 4540   1.725   4.365  15.618  0.1931  0.2678  0.2247
  298TMC3    C4 4541   1.672   4.204  15.828  0.1889 -0.2585  0.8080
  298TMC3    C5 4542   1.571   4.283  15.772  0.2586  0.4939 -0.2621
  298TMC3    C6 4543   1.592   4.364  15.659  0.1078  0.7717 -0.0578
  298TMC3     C 4544   1.913   4.162  15.869  0.1208 -0.6168  0.1088
  298TMC3     O 4545   1.887   4.062  15.939  0.3585  0.8141 -0.5855
  298TMC3     H 4546   1.933   4.327  15.659  0.4533  0.4840  0.9499
  298TMC3    H1 4547   1.650   4.150  15.920  0.3705 -0.2420  0.8609
  298TMC3    H2 4548   1.523   4.439  15.622 -0.7826  0.6691  1.4064
  298TMC3    C7 4549   1.457   4.314  15.856 -0.5737  0.1417  0.3528
  298TMC3    C8 4550   1.759   4.472  15.535  0.7358  0.2293 -0.4252
  298TMC3    O1 4551   1.464   4.274  15.969 -0.0278  0.9829  0.2485
  298TMC3    O2 4552   1.679   4.561  15.536  0.2881 -0.1814 -0.0159
  299MPD2     C 4553   2.961   3.719  10.662 -0.1305  0.9272 -0.4700
  299MPD2    C1 4554   3.037   3.806  10.581  0.2894 -0.4268 -0.0191
  299MPD2    C2 4555   3.038   3.798  10.445 -0.8100 -0.0867 -0.0882
  299MPD2    C3 4556   2.965   3.695  10.381 -0.6758 -0.0689 -0.5217
  299MPD2    C4 4557   2.895   3.606  10.458 -0.0757 -0.4337 -0.0789
  299MPD2    C5 4558   2.888   3.622  10.594  0.9565  0.0681  0.0446
  299MPD2     H 4559   3.095   3.864  10.380  1.8307 -0.8057  1.4969
  299MPD2    H1 4560   2.841   3.522  10.416 -2.9634  1.6274 -0.4056
  299MPD2    H2 4561   2.967   3.715  10.770 -2.1730  0.3537 -0.3837
  299MPD2    H3 4562   2.835   3.545  10.648 -1.1922  0.5926 -1.3034
  299MPD2     N 4563   2.966   3.676  10.241  0.2520  0.0473  0.3542
  299MPD2    H5 4564   2.909   3.602  10.200  2.1998 -0.3102 -1.7301
  299MPD2    N1 4565   3.116   3.899  10.658  0.3833 -0.1578 -0.7372
  299MPD2    H7 4566   3.106   3.895  10.759  1.7665  0.4964 -0.5823
  300TMC3    C1 4567   3.021   3.709  10.017 -0.0180 -0.2322  0.1471
  300TMC3    C2 4568   3.119   3.735   9.925 -0.1888 -0.0333 -0.2595
  300TMC3    C3 4569   3.081   3.764   9.798  0.2230  0.4972  0.1603
  300TMC3    C4 4570   2.887   3.698   9.980 -0.1502  0.5196 -0.1279
  300TMC3    C5 4571   2.860   3.712   9.851  0.1450  0.2317  0.3417
  300TMC3    C6 4572   2.947   3.751   9.752 -0.8167 -0.9196 -0.2149
  300TMC3     C 4573   3.061   3.725  10.151 -0.4664 -0.0363 -0.1244
  300TMC3     O 4574   3.167   3.780  10.178  0.3288 -0.2383  0.1521
  300TMC3     H 4575   3.219   3.758   9.958 -0.1480  0.4691 -0.7225
  300TMC3    H1 4576   2.814   3.674  10.056  1.8236  1.4101  2.0679
  300TMC3    H2 4577   2.908   3.761   9.651 -1.5980 -1.5729  0.0142
  300TMC3    C7 4578   2.717   3.736   9.811  0.1199  0.2354  0.2922
  300TMC3    C8 4579   3.153   3.883   9.751  0.4111  0.1272  0.5951
  300TMC3    O1 4580   2.687   3.719   9.696  0.3712 -0.3650  0.1558
  300TMC3    O2 4581   3.217   3.939   9.835  0.0644  0.8683  0.1825
  301MPD2     C 4582   0.444   0.401   1.103 -0.8727  0.6257 -0.1397
  301MPD2    C1 4583   0.337   0.406   1.017 -0.5775  0.6232 -0.3543
  301MPD2    C2 4584   0.268   0.290   0.998 -0.2503 -0.0275 -0.5100
  301MPD2    C3 4585   0.309   0.172   1.055 -0.1958  0.4620  0.2948
  301MPD2    C4 4586   0.418   0.166   1.138  0.9526 -0.0244 -0.3167
  301MPD2    C5 4587   0.485   0.284   1.153  0.1523  0.8896 -0.4670
  301MPD2     H 4588   0.195   0.289   0.918  0.4467 -1.1981 -1.1241
  301MPD2    H1 4589   0.446   0.081   1.200  1.1270  1.1451  1.2044
  301MPD2    H2 4590   0.500   0.488   1.135  0.8147 -1.6060  2.9520
  301MPD2    H3 4591   0.567   0.293   1.224 -1.5113 -0.4969  1.6579
  301MPD2     N 4592   0.267   0.042   1.017 -0.4972 -0.3488  0.2407
  301MPD2    H5 4593   0.325   4.702   1.048  1.0800  0.9937  0.5645
  301MPD2    N1 4594   0.283   0.522   0.957 -0.0153 -0.5074 -0.2587
  301MPD2    H7 4595   0.202   0.509   0.898 -0.6198  2.0946 -0.0289
  302TMC3    C1 4596   0.155   4.654   0.854  0.0725 -0.4177 -0.1376
  302TMC3    C2 4597   0.214   4.536   0.882  0.4531 -0.3014 -0.1557
  302TMC3    C3 4598   0.223   4.446   0.779  0.1756  0.2509  0.1743
  302TMC3    C4 4599   0.093   4.683   0.730 -0.3646  0.0810  0.1190
  302TMC3    C5 4600   0.103   4.586   0.631 -0.1040 -0.6021  0.1965
  302TMC3    C6 4601   0.176   4.477   0.654  0.1309 -0.0947 -0.2591
  302TMC3     C 4602   0.145   0.024   0.954 -0.0516  0.6748  0.6959
  302TMC3     O 4603   0.041   0.089   0.933 -0.4945 -0.0332 -0.5636
  302TMC3     H 4604   0.262   4.518   0.978  0.7121 -0.1638 -0.2593
  302TMC3    H1 4605   0.051   0.044   0.709 -1.1751 -0.1506  0.7004
  302TMC3    H2 4606   0.195   4.411   0.570 -0.7403 -1.3250  0.5069
  302TMC3    C7 4607   0.027   4.601   0.504  0.0304  0.2751  0.3060
  302TMC3    C8 4608   0.239   4.306   0.821  0.3690 -0.5167  0.4633
  302TMC3    O1 4609   0.077   4.545   0.405  0.1880 -0.0495  0.5445
  302TMC3    O2 4610   0.247   4.288   0.943  0.3110  0.3868 -0.4998
  303MPD2     C 4611   0.486   3.279  10.427  0.5995  0.4485 -0.2600
  303MPD2    C1 4612   0.381   3.200  10.467 -0.1678 -0.4157 -0.7308
  303MPD2    C2 4613   0.302   3.147  10.368 -0.0448  0.3697 -0.0091
  303MPD2    C3 4614   0.324   3.180  10.234  0.1606  0.0776 -0.4567
  303MPD2    C4 4615   0.432   3.257  10.199 -0.9389  0.7082 -0.2642
  303MPD2    C5 4616   0.518   3.297  10.297  0.4828 -0.3414  0.0295
  303MPD2     H 4617   0.218   3.087  10.402  1.3304 -1.6115 -0.1462
  303MPD2    H1 4618   0.456   3.272  10.094  1.6604  1.2669  0.4233
  303MPD2    H2 4619   0.554   3.332  10.493  1.4256 -3.1185  1.7397
  303MPD2    H3 4620   0.609   3.345  10.264 -0.9746  0.3811 -2.9399
  303MPD2     N 4621   0.242   3.138  10.127  0.3035 -0.6999 -0.1861
  303MPD2    H5 4622   0.277   3.152  10.033 -1.2685 -1.1820 -0.8403
  303MPD2    N1 4623   0.350   3.199  10.604 -0.0998 -0.4572 -0.2014
  303MPD2    H7 4624   0.381   3.267  10.673  1.1744 -0.7373 -0.5012
  304TMC3    C1 4625   0.222   3.113  10.784 -0.3371 -0.1711 -0.4888
  304TMC3    C2 4626   0.144   3.227  10.783 -0.0397  0.4917 -0.0733
  304TMC3    C3 4627   0.048   3.231  10.878  0.2043 -0.1328  0.2064
  304TMC3    C4 4628   0.199   3.001  10.863 -0.0930  0.0724  0.4601
  304TMC3    C5 4629   0.113   3.015  10.963  0.3133 -0.2624 -0.1209
  304TMC3    C6 4630   0.044   3.133  10.972  0.4023 -0.9070 -0.2159
  304TMC3     C 4631   0.282   3.092  10.658  0.0617 -0.1440 -0.5882
  304TMC3     O 4632   0.244   2.990  10.603  0.3336 -0.1173 -0.1797
  304TMC3     H 4633   0.145   3.307  10.710 -1.0634 -0.2299 -0.8821
  304TMC3    H1 4634   0.256   2.911  10.845  1.5391  0.4837  3.6011
  304TMC3    H2 4635   4.718   3.152  11.058  2.7050  2.2390  0.7751
  304TMC3    C7 4636   0.020   2.903  10.993 -0.2535  0.2288 -0.5605
  304TMC3    C8 4637   4.657   3.270  10.817  1.1482  0.4838  0.1819
  304TMC3    O1 4638   4.637   2.937  10.980  0.6644  0.7124  0.0594
  304TMC3    O2 4639   4.659   3.363  10.735  0.8638  0.3613  0.1040
  305MPD2     C 4640   3.655   1.072  13.624 -0.8928  0.7175  0.4342
  305MPD2    C1 4641   3.597   0.958  13.663 -0.0700 -0.1305  0.1106
  305MPD2    C2 4642   3.553   0.861  13.576 -0.0541 -1.2974 -0.2054
  305MPD2    C3 4643   3.590   0.874  13.440 -0.0725 -0.9054 -0.7069
  305MPD2    C4 4644   3.659   0.989  13.398 -0.8594 -0.0465  0.2000
  305MPD2    C5 4645   3.683   1.082  13.491 -0.2755  0.1158 -0.1890
  305MPD2     H 4646   3.491   0.776  13.603 -3.0277  0.9507  0.0305
  305MPD2    H1 4647   3.686   1.004  13.294  0.1890  0.1627  0.5053
  305MPD2    H2 4648   3.680   1.152  13.693  2.2168 -2.3996  2.8978
  305MPD2    H3 4649   3.739   1.172  13.468 -0.8919  0.4370 -0.3999
  305MPD2     N 4650   3.561   0.785  13.341  0.4025 -0.3323 -0.1207
  305MPD2    H5 4651   3.592   0.818  13.250  0.5398 -1.8841 -0.6298
  305MPD2    N1 4652   3.579   0.946  13.807  0.3276 -0.2476 -0.4817
  305MPD2    H7 4653   3.604   1.029  13.859  1.0930  0.1477 -1.4792
  306TMC3    C1 4654   3.541   0.858  14.016  0.1973 -0.3386 -0.6851
  306TMC3    C2 4655   3.615   0.771  14.090 -0.0706 -0.1364  0.0511
  306TMC3    C3 4656   3.649   0.802  14.218 -0.5929  0.6542 -0.3168
  306TMC3    C4 4657   3.509   0.975  14.067 -0.0722  0.4517 -0.4889
  306TMC3    C5 4658   3.533   0.993  14.200  0.3032 -0.1239  0.3277
  306TMC3    C6 4659   3.595   0.906  14.282  0.3214 -0.7957  0.2567
  306TMC3     C 4660   3.526   0.842  13.874  0.7227 -0.6461 -0.5475
  306TMC3     O 4661   3.513   0.728  13.833 -0.2857 -0.7974  0.1063
  306TMC3     H 4662   3.650   0.679  14.045  0.0753 -0.3694  0.6465
  306TMC3    H1 4663   3.461   1.052  14.008  0.9128  0.5119 -1.2075
  306TMC3    H2 4664   3.627   0.938  14.381  2.6570  1.2139 -1.1654
  306TMC3    C7 4665   3.429   1.077  14.259  0.0008 -0.0627 -0.0582
  306TMC3    C8 4666   3.749   0.716  14.280  0.3479  0.2402 -0.6938
  306TMC3    O1 4667   3.324   1.093  14.198  0.2897 -0.1890  0.3525
  306TMC3    O2 4668   3.836   0.671  14.208 -0.7699  0.1060  0.3402
  307MPD2     C 4669   1.467   4.023   0.467  0.0000  0.0241 -0.8000
  307MPD2    C1 4670   1.363   4.116   0.467  0.1009  0.2675 -0.1104
  307MPD2    C2 4671   1.234   4.062   0.466 -0.2105 -0.8289 -0.0286
  307MPD2    C3 4672   1.209   3.926   0.467 -0.2253 -0.5464 -0.2802
  307MPD2    C4 4673   1.315   3.843   0.456  0.1102  0.1181 -0.1962
  307MPD2    C5 4674   1.445   3.893   0.462 -0.1703 -0.7432 -0.3506
  307MPD2     H 4675   1.144   4.121   0.459  0.9857  1.0417  0.4861
  307MPD2    H1 4676   1.307   3.736   0.444  0.7309 -0.0806  1.1858
  307MPD2    H2 4677   1.571   4.054   0.468 -0.3959  1.3565 -1.4026
  307MPD2    H3 4678   1.525   3.821   0.446  0.3727  0.1563 -1.6953
  307MPD2     N 4679   1.068   3.892   0.471  0.2381  0.2194  0.7244
  307MPD2    H5 4680   0.999   3.963   0.492  0.3298  0.1322  1.3274
  307MPD2    N1 4681   1.383   4.255   0.465 -0.0067  0.4273 -0.2565
  307MPD2    H7 4682   1.295   4.305   0.455 -0.4276 -0.3720 -0.5073
  308TMC3    C1 4683   0.672   3.658   0.556  0.3503  0.1881  0.1456
  308TMC3    C2 4684   0.629   3.766   0.624 -0.4166  0.5471  0.1532
  308TMC3    C3 4685   0.709   3.874   0.636 -0.2001 -0.3781 -0.6781
  308TMC3    C4 4686   0.801   3.662   0.517  0.1239 -0.6453  0.0908
  308TMC3    C5 4687   0.879   3.770   0.532 -0.4179 -0.0533 -0.4612
  308TMC3    C6 4688   0.838   3.881   0.598  0.2610 -0.6687  0.1683
  308TMC3     C 4689   0.577   3.587   0.475 -0.0166 -0.1828 -0.2651
  308TMC3     O 4690   0.600   3.471   0.435 -0.4068  0.0069 -0.0156
  308TMC3     H 4691   0.526   3.762   0.657 -0.7342 -1.3809 -1.0415
  308TMC3    H1 4692   0.841   3.572   0.471 -0.8485 -1.0420  0.0198
  308TMC3    H2 4693   0.905   3.957   0.637  1.0686 -2.0952  1.5711
  308TMC3    C7 4694   1.020   3.768   0.484 -0.7630 -1.2931 -0.3661
  308TMC3    C8 4695   0.670   3.971   0.732 -0.5863  0.2052  0.1300
  308TMC3    O1 4696   1.079   3.661   0.485 -0.1096 -0.7461 -0.2345
  308TMC3    O2 4697   0.654   3.933   0.851 -0.0450  0.2363  0.5036
  309MPD2     C 4698   0.394   4.434  17.155 -0.1895  0.2186  0.7789
  309MPD2    C1 4699   0.334   4.396  17.035  0.7401  0.5039  0.5361
  309MPD2    C2 4700   0.201   4.401  17.018  0.2025 -0.4173 -0.5364
  309MPD2    C3 4701   0.112   4.443  17.115  0.5656 -0.6499  0.4844
  309MPD2    C4 4702   0.162   4.463  17.245 -0.1304 -0.0470  0.0918
  309MPD2    C5 4703   0.300   4.448  17.263 -0.4683  0.2009  0.4993
  309MPD2     H 4704   0.167   4.367  16.922  0.9885 -0.9316 -0.6334
  309MPD2    H1 4705   0.106   4.486  17.335 -1.7304  0.0564 -0.9439
  309MPD2    H2 4706   0.502   4.433  17.167  0.0415 -0.4292 -1.4139
  309MPD2    H3 4707   0.329   4.487  17.360 -0.5956 -0.0995  0.6583
  309MPD2     N 4708   4.713   4.473  17.089  0.8451 -0.6123 -0.2615
  309MPD2    H5 4709   4.661   4.514  17.166  2.4274 -0.0864  0.5223
  309MPD2    N1 4710   0.395   4.367  16.917 -0.3906 -0.4861  0.6559
  309MPD2    H7 4711   0.337   4.372  16.833  0.8284 -0.2932 -0.1818
  310TMC3    C1 4712   0.548   4.329  16.757  1.1125 -0.3402 -0.1806
  310TMC3    C2 4713   0.461   4.398  16.672 -0.1697  0.1234  0.0018
  310TMC3    C3 4714   0.474   4.371  16.540 -0.7900 -0.3680  0.0829
  310TMC3    C4 4715   0.639   4.239  16.723  0.2549  0.4102 -0.3342
  310TMC3    C5 4716   0.652   4.227  16.587 -0.4378 -0.2993  0.8313
  310TMC3    C6 4717   0.576   4.294  16.492 -0.3766 -0.3717 -0.0740
  310TMC3     C 4718   0.524   4.336  16.898 -0.1101 -0.1027 -0.5472
  310TMC3     O 4719   0.606   4.285  16.971  0.6608 -0.0949 -0.3827
  310TMC3     H 4720   0.390   4.472  16.706  1.4346  1.2595  0.8367
  310TMC3    H1 4721   0.697   4.186  16.798 -0.6776 -1.9093 -1.2319
  310TMC3    H2 4722   0.600   4.290  16.386  1.0079 -0.5181  0.2411
  310TMC3    C7 4723   0.739   4.127  16.523 -0.4646 -0.1280  0.2033
  310TMC3    C8 4724   0.377   4.414  16.441 -0.1486  0.6349 -0.1191
  310TMC3    O1 4725   0.718   4.104  16.403 -0.0704  0.1451 -0.0462
  310TMC3    O2 4726   0.396   4.388  16.325  0.1694  0.1164 -0.1918
  311MPD2     C 4727   2.567   0.259  12.854 -0.2990 -0.1295 -0.8621
  311MPD2    C1 4728   2.535   0.382  12.803 -0.2654  0.4341 -0.0206
  311MPD2    C2 4729   2.401   0.407  12.791 -0.1953 -0.2877 -0.6254
  311MPD2    C3 4730   2.300   0.332  12.841 -0.1990  0.0700 -0.2859
  311MPD2    C4 4731   2.332   0.209  12.890  0.4262 -0.3518  0.1908
  311MPD2    C5 4732   2.463   0.175  12.895  0.6708 -0.5872  0.0711
  311MPD2     H 4733   2.369   0.501  12.747 -2.4678 -0.6576  0.2414
  311MPD2    H1 4734   2.256   0.134  12.907 -1.7632  1.7214 -0.5622
  311MPD2    H2 4735   2.668   0.229  12.880 -0.5758 -0.3159 -0.0036
  311MPD2    H3 4736   2.476   0.070  12.917  1.0291 -0.6734 -0.5490
  311MPD2     N 4737   2.169   0.393  12.840 -0.1777 -0.6330 -0.4179
  311MPD2    H5 4738   2.165   0.484  12.797  0.3296 -0.2650  0.3035
  311MPD2    N1 4739   2.637   0.470  12.753  0.2875 -0.6802  0.1176
  311MPD2    H7 4740   2.599   0.554  12.711  1.3767  0.5229  1.5790
  312TMC3    C1 4741   1.925   0.394  12.837  0.3165  0.0223  0.1089
  312TMC3    C2 4742   1.881   0.331  12.720  0.0768  0.7304 -0.1456
  312TMC3    C3 4743   1.798   0.406  12.643  0.6977  0.1790 -0.2915
  312TMC3    C4 4744   1.892   0.522  12.863  0.4076  0.0996 -0.7985
  312TMC3    C5 4745   1.805   0.591  12.785  0.0187 -0.2465  0.4095
  312TMC3    C6 4746   1.758   0.533  12.669 -0.7666 -0.7383  0.2720
  312TMC3     C 4747   2.053   0.329  12.875 -0.0210  0.4784 -0.4286
  312TMC3     O 4748   2.035   0.206  12.900  0.0419 -0.0718  0.4455
  312TMC3     H 4749   1.918   0.234  12.691 -1.1484 -0.0822  0.9983
  312TMC3    H1 4750   1.925   0.561  12.959  0.9705 -3.3081  0.4034
  312TMC3    H2 4751   1.680   0.585  12.614  1.1850  1.2009 -0.6528
  312TMC3    C7 4752   1.733   0.715  12.828 -0.4577 -0.6552  0.4589
  312TMC3    C8 4753   1.691   0.325  12.594  0.4008  0.5116 -0.6443
  312TMC3    O1 4754   1.645   0.761  12.756  0.0710  0.2637 -0.2157
  312TMC3    O2 4755   1.631   0.268  12.682 -0.3641 -0.3885  0.3666
  313MPD2     C 4756   2.156   4.320  10.235  0.0583 -0.7001 -0.0296
  313MPD2    C1 4757   2.046   4.257  10.292  0.3032 -0.6666  0.5152
  313MPD2    C2 4758   1.963   4.174  10.216  0.6637  0.0104  0.1594
  313MPD2    C3 4759   1.994   4.149  10.086  0.0130 -0.4605  0.9561
  313MPD2    C4 4760   2.096   4.225  10.027  0.2221 -0.2938  0.0853
  313MPD2    C5 4761   2.175   4.310  10.097  0.2373  0.6095  0.1486
  313MPD2     H 4762   1.875   4.132  10.263  0.5314 -0.5866 -0.6063
  313MPD2    H1 4763   2.119   4.221   9.921  0.9669 -0.4652  0.2537
  313MPD2    H2 4764   2.238   4.375  10.280 -0.9675  0.3949  0.4753
  313MPD2    H3 4765   2.249   4.371  10.048 -0.2784  1.0616 -0.0606
  313MPD2     N 4766   1.916   4.050  10.020  1.0021 -0.7713 -0.1807
  313MPD2    H5 4767   1.848   3.999  10.076 -0.9491  1.2248 -0.6931
  313MPD2    N1 4768   2.011   4.279  10.429 -0.5397  0.4045  0.2616
  313MPD2    H7 4769   1.927   4.236  10.466  0.2663 -2.5965 -1.3436
  314TMC3    C1 4770   1.995   4.416  10.626 -0.8544 -0.1070 -0.3724
  314TMC3    C2 4771   2.061   4.499  10.712 -0.1093 -0.4973 -0.6137
  314TMC3    C3 4772   1.979   4.578  10.797  0.0956  0.6612 -0.5997
  314TMC3    C4 4773   1.868   4.431  10.593 -0.0534 -0.0223 -0.2908
  314TMC3    C5 4774   1.793   4.511  10.675  1.1416  0.0756  0.0670
  314TMC3    C6 4775   1.846   4.592  10.772  0.3896 -0.6136  0.1557
  314TMC3     C 4776   2.078   4.374  10.510 -0.9745  0.5184 -0.7453
  314TMC3     O 4777   2.174   4.444  10.489 -0.1727 -0.2514  0.3418
  314TMC3     H 4778   2.168   4.495  10.729 -0.4322  1.5963  2.0108
  314TMC3    H1 4779   1.822   4.371  10.515  0.4044  1.0517 -1.3814
  314TMC3    H2 4780   1.791   4.674  10.815  0.4889  0.5943 -2.0036
  314TMC3    C7 4781   1.664   4.545  10.616 -0.0780  0.4084  0.4442
  314TMC3    C8 4782   2.043   4.679  10.882  0.7315 -0.4054  0.3037
  314TMC3    O1 4783   1.562   4.550  10.682 -0.2726 -0.3468  0.0681
  314TMC3    O2 4784   2.153   4.714  10.852  0.4517  0.6341  0.1709
  315MPD2     C 4785   1.620   3.274  17.516 -0.0065  0.4164 -0.1546
  315MPD2    C1 4786   1.694   3.374  17.578  0.0306 -0.3853 -0.5842
  315MPD2    C2 4787   1.676   3.506  17.551  0.6866  0.1844  0.2847
  315MPD2    C3 4788   1.595   3.551  17.453 -0.2435 -0.4998 -0.1398
  315MPD2    C4 4789   1.516   3.458  17.384  0.1381  0.3404  0.8912
  315MPD2    C5 4790   1.527   3.324  17.429  0.2352 -0.1313 -0.4904
  315MPD2     H 4791   1.736   3.575  17.610  1.0157 -1.2365  1.5962
  315MPD2    H1 4792   1.444   3.488  17.308  2.5597 -0.5336 -1.7471
  315MPD2    H2 4793   1.627   3.173  17.553  0.6352  0.7820  0.6920
  315MPD2    H3 4794   1.464   3.254  17.376  1.4204 -0.3069 -1.6722
  315MPD2     N 4795   1.609   3.690  17.415 -0.2721  0.0016 -0.6729
  315MPD2    H5 4796   1.674   3.750  17.466 -0.2404  0.2966 -1.0590
  315MPD2    N1 4797   1.793   3.345  17.674 -0.9080  0.5712 -0.0291
  315MPD2    H7 4798   1.828   3.423  17.728  2.3358 -0.7649 -0.1916
  316TMC3    C1 4799   1.577   3.880  17.274  0.2211 -0.0062  0.2103
  316TMC3    C2 4800   1.625   3.968  17.371 -0.0204 -0.2754  0.1528
  316TMC3    C3 4801   1.654   4.093  17.328 -0.3251 -0.6659 -0.0798
  316TMC3    C4 4802   1.558   3.919  17.139  0.3589  0.7476  0.8603
  316TMC3    C5 4803   1.589   4.049  17.105 -0.5792 -0.0073  0.0793
  316TMC3    C6 4804   1.650   4.130  17.199  0.0751  0.1096 -0.7209
  316TMC3     C 4805   1.543   3.745  17.306 -0.4112  0.4929 -0.3461
  316TMC3     O 4806   1.475   3.691  17.221  0.2939  0.2296  0.0502
  316TMC3     H 4807   1.639   3.950  17.477  0.3425  3.6852  0.7633
  316TMC3    H1 4808   1.517   3.849  17.068  2.1815 -0.5816  1.1312
  316TMC3    H2 4809   1.687   4.226  17.164 -0.4133 -0.1277 -1.8864
  316TMC3    C7 4810   1.645   4.067  16.974  0.4734 -0.2193  0.6462
  316TMC3    C8 4811   1.709   4.184  17.420 -0.0950  0.4849 -0.3868
  316TMC3    O1 4812   1.730   3.990  16.930 -0.3872 -0.4114  0.0421
  316TMC3    O2 4813   1.679   4.303  17.405  0.2722 -0.2918  0.4993
  317MPD2     C 4814   3.888   2.747  12.790  0.1522 -0.3915 -1.0681
  317MPD2    C1 4815   4.007   2.676  12.777  0.3341  0.2850  0.9607
  317MPD2    C2 4816   4.033   2.564  12.852  0.2988 -0.1817  0.3193
  317MPD2    C3 4817   3.948   2.521  12.946  0.6555  0.6629  0.1799
  317MPD2    C4 4818   3.825   2.583  12.952 -0.3707  0.4672 -0.4254
  317MPD2    C5 4819   3.796   2.693  12.874 -0.2127 -0.2877  0.3585
  317MPD2     H 4820   4.133   2.523  12.843  0.6646  0.6688  0.4080
  317MPD2    H1 4821   3.750   2.558  13.026 -3.2401  4.7502 -1.8599
  317MPD2    H2 4822   3.852   2.824  12.722 -0.5272 -0.9839 -1.3853
  317MPD2    H3 4823   3.701   2.742  12.893  0.2421  0.2522  1.2245
  317MPD2     N 4824   3.975   2.408  13.028  0.3259  0.0143 -0.6146
  317MPD2    H5 4825   4.057   2.351  13.011 -1.5312 -1.8649 -3.1935
  317MPD2    N1 4826   4.106   2.720  12.692 -0.2021 -0.0800 -0.1803
  317MPD2    H7 4827   4.181   2.655  12.669 -1.1460 -1.2050 -0.0683
  318TMC3    C1 4828   3.939   2.218  13.169  0.2681  0.1358 -0.3159
  318TMC3    C2 4829   3.850   2.115  13.178  0.4524 -0.5234 -0.4488
  318TMC3    C3 4830   3.891   1.991  13.213 -0.3471 -0.5476  0.5462
  318TMC3    C4 4831   4.064   2.211  13.218  0.2460 -0.6914 -0.5965
  318TMC3    C5 4832   4.108   2.085  13.245 -0.3052 -0.2176 -0.1540
  318TMC3    C6 4833   4.021   1.979  13.249 -0.4458  0.0360  0.0411
  318TMC3     C 4834   3.898   2.346  13.125 -0.2165  0.1182 -0.1626
  318TMC3     O 4835   3.788   2.380  13.165  0.5866 -0.4517  0.5611
  318TMC3     H 4836   3.754   2.132  13.129 -0.6276 -0.8208  1.5517
  318TMC3    H1 4837   4.133   2.295  13.217 -1.1720  0.4693  0.2717
  318TMC3    H2 4838   4.053   1.876  13.253 -0.5338  0.0275  0.5896
  318TMC3    C7 4839   4.248   2.061  13.258  0.4872  0.6319 -0.2155
  318TMC3    C8 4840   3.835   1.882  13.129  0.5972 -0.2958 -0.8236
  318TMC3    O1 4841   4.319   2.149  13.207  0.3805  0.3977  0.0874
  318TMC3    O2 4842   3.914   1.806  13.075  0.1475 -0.5263 -0.7323
  319MPD2     C 4843   4.658   3.717  16.437  0.0136  0.3819 -0.5231
  319MPD2    C1 4844   4.578   3.624  16.496  0.7077 -0.5923  0.1273
  319MPD2    C2 4845   4.470   3.570  16.424 -0.7628  0.5779 -0.2848
  319MPD2    C3 4846   4.461   3.608  16.288  0.2202 -0.0392 -0.1504
  319MPD2    C4 4847   4.537   3.711  16.240  0.6722  0.7330  0.3882
  319MPD2    C5 4848   4.641   3.762  16.308 -0.0244 -0.2109 -0.3973
  319MPD2     H 4849   4.395   3.506  16.468  1.8044 -1.5235  0.9730
  319MPD2    H1 4850   4.522   3.746  16.139  1.6072  1.9105  0.6556
  319MPD2    H2 4851   0.005   3.764  16.487 -0.3607  0.8389 -0.3135
  319MPD2    H3 4852   4.715   3.828  16.264  0.2355 -0.5941 -0.5426
  319MPD2     N 4853   4.359   3.563  16.198  0.2077  0.4524 -0.4183
  319MPD2    H5 4854   4.350   3.611  16.109 -0.2708  1.5983  0.2496
  319MPD2    N1 4855   4.584   3.595  16.632 -0.0411  0.5457 -0.6803
  319MPD2    H7 4856   4.525   3.521  16.668  0.6278  0.4470  0.2215
  320TMC3    C1 4857   4.140   3.482  16.141 -0.1836 -0.1717  1.3459
  320TMC3    C2 4858   4.114   3.597  16.062 -0.0449  0.1577 -0.3960
  320TMC3    C3 4859   3.999   3.595  15.990  0.1751  0.1271  0.1083
  320TMC3    C4 4860   4.058   3.372  16.142  0.2927 -1.0355  0.6432
  320TMC3    C5 4861   3.943   3.381  16.074 -0.3525  0.4217 -0.1157
  320TMC3    C6 4862   3.908   3.493  15.993 -0.3135 -0.5378  0.0639
  320TMC3     C 4863   4.259   3.476  16.230 -1.1843  0.7766 -0.5914
  320TMC3     O 4864   4.251   3.398  16.322  0.0835 -0.2126 -1.1598
  320TMC3     H 4865   4.167   3.691  16.064  0.0745  0.0600  0.9314
  320TMC3    H1 4866   4.079   3.289  16.209 -2.5409 -2.3218 -0.0664
  320TMC3    H2 4867   3.810   3.496  15.946 -1.1648 -1.5050  1.7488
  320TMC3    C7 4868   3.881   3.257  16.025  0.3836  0.4283  0.3606
  320TMC3    C8 4869   3.989   3.692  15.880  0.2552  0.2408  0.4884
  320TMC3    O1 4870   3.800   3.283  15.937  0.0923 -0.1955  0.2283
  320TMC3    O2 4871   4.059   3.793  15.895  0.2153 -0.0839  0.4556
  321TMC3    C1 4872   4.627   3.624  16.859  0.5470 -0.1124  0.2359
  321TMC3    C2 4873   4.608   3.487  16.885  0.1454 -0.6673 -0.1909
  321TMC3    C3 4874   4.605   3.454  17.017  0.7237 -0.2710  0.3643
  321TMC3    C4 4875   4.650   3.717  16.961  0.0337 -0.4447  0.8572
  321TMC3    C5 4876   4.650   3.676  17.093  0.4673 -0.3849 -0.8810
  321TMC3    C6 4877   4.618   3.541  17.121 -0.1475 -0.2484  0.5671
  321TMC3     C 4878   4.647   3.671  16.723  0.6220  0.3529 -0.2729
  321TMC3     O 4879   4.693   3.785  16.707  0.4889 -0.0827  0.5363
  321TMC3     H 4880   4.632   3.414  16.807 -0.1658  0.6920 -1.5633
  321TMC3    H1 4881   4.673   3.820  16.936 -1.5182 -0.2825  0.1383
  321TMC3    H2 4882   4.622   3.507  17.223  0.3575 -0.1681  0.5741
  321TMC3    C7 4883   0.024   3.717  17.168 -1.0623  0.4604  0.6771
  321TMC3    C8 4884   4.699   3.341  17.034 -0.8585 -0.3476  0.0636
  321TMC3    O1 4885   0.066   3.626  17.237 -0.3155  0.3368 -0.5134
  321TMC3    O2 4886   4.671   3.234  16.973  0.0718 -0.4786  0.5312
  322MPD2     C 4887   3.007   0.185  13.786 -0.0155  0.2794 -0.7387
  322MPD2    C1 4888   3.137   0.192  13.743 -0.2191 -0.3248  0.3536
  322MPD2    C2 4889   3.168   0.128  13.624 -0.2554 -0.1606  1.0972
  322MPD2    C3 4890   3.075   0.053  13.558 -0.9871  0.4206  0.0724
  322MPD2    C4 4891   2.951   0.044  13.614 -0.1253  0.0330 -0.2220
  322MPD2    C5 4892   2.909   0.121  13.717 -0.3780  0.2152 -0.5123
  322MPD2     H 4893   3.265   0.133  13.577 -0.3593 -2.7187  0.5943
  322MPD2    H1 4894   2.878   4.719  13.563  0.6045 -1.0526  0.0442
  322MPD2    H2 4895   2.970   0.237  13.874 -1.2649 -0.1186 -1.0298
  322MPD2    H3 4896   2.809   0.109  13.758 -0.7890  2.7422 -0.7511
  322MPD2     N 4897   3.117   4.714  13.445 -0.5684  1.0531  0.0728
  322MPD2    H5 4898   3.216   4.726  13.426  0.0462 -3.5078  0.2560
  322MPD2    N1 4899   3.227   0.261  13.830  0.5676 -0.5502 -0.2823
  322MPD2    H7 4900   3.191   0.303  13.915  1.5290 -0.0964 -0.1080
  323TMC3    C1 4901   3.440   0.331  13.911  0.3490 -0.1577 -0.0477
  323TMC3    C2 4902   3.556   0.395  13.879  0.7807  0.9354  0.2558
  323TMC3    C3 4903   3.651   0.399  13.980 -0.0620 -0.2933  0.2533
  323TMC3    C4 4904   3.421   0.266  14.032 -0.0045  0.7124 -0.2572
  323TMC3    C5 4905   3.516   0.266  14.123  0.6033 -0.3463  0.3016
  323TMC3    C6 4906   3.631   0.341  14.102 -0.1681  0.3929  0.1381
  323TMC3     C 4907   3.363   0.278  13.802 -0.0833  0.1078  0.1389
  323TMC3     O 4908   3.427   0.266  13.701  0.7145 -0.3788 -0.6109
  323TMC3     H 4909   3.581   0.420  13.776  0.1215  1.8361  0.3198
  323TMC3    H1 4910   3.332   0.208  14.051 -0.1970  0.8939 -0.5962
  323TMC3    H2 4911   3.704   0.346  14.182 -1.8144  1.3261  1.6053
  323TMC3    C7 4912   3.520   0.156  14.213 -0.0862 -0.5598 -0.1221
  323TMC3    C8 4913   3.779   0.457  13.949  0.0834 -0.7586  0.5450
  323TMC3    O1 4914   3.459   0.054  14.184 -0.1625  0.4292  0.6836
  323TMC3    O2 4915   3.874   0.394  13.997  0.0217  0.2918 -0.5308
  324MPD2     C 4916   4.666   1.258  14.528 -0.2125  0.3154  0.1473
  324MPD2    C1 4917   0.017   1.241  14.422  0.2924  0.4476 -0.2685
  324MPD2    C2 4918   4.701   1.231  14.292  0.2446  0.6104 -0.2658
  324MPD2    C3 4919   4.564   1.235  14.267  0.5247 -0.1605  0.0506
  324MPD2    C4 4920   4.477   1.252  14.370 -0.2821  0.1416  0.2439
  324MPD2    C5 4921   4.528   1.261  14.503  0.1775 -0.4999 -0.5391
  324MPD2     H 4922   0.032   1.222  14.208  1.0829  1.8994  0.2833
  324MPD2    H1 4923   4.369   1.255  14.361 -0.1123  0.9092 -1.4625
  324MPD2    H2 4924   4.698   1.270  14.631 -1.0593  0.3674  0.4036
  324MPD2    H3 4925   4.451   1.283  14.577  0.9644  2.0867 -0.5001
  324MPD2     N 4926   4.506   1.228  14.141  0.1775 -0.4341  0.0157
  324MPD2    H5 4927   4.405   1.239  14.136  0.1799  0.2031  1.4037
  324MPD2    N1 4928   0.153   1.224  14.440 -0.1200  0.4563  0.2926
  324MPD2    H7 4929   0.209   1.205  14.358 -0.4252  2.4678 -0.3677
  325TMC3    C1 4930   4.474   1.203  13.923 -0.0389 -0.3573  0.2536
  325TMC3    C2 4931   4.448   1.099  13.843 -0.3654 -0.0275  0.2625
  325TMC3    C3 4932   4.323   1.091  13.785  0.0116 -0.7475  0.2496
  325TMC3    C4 4933   4.380   1.302  13.943 -0.3845  0.1526 -0.1245
  325TMC3    C5 4934   4.256   1.285  13.892 -0.2825  0.3486  0.4514
  325TMC3    C6 4935   4.223   1.184  13.814 -0.1077 -0.1666 -0.5331
  325TMC3     C 4936   4.574   1.192  14.027 -0.3161 -0.3038  0.3701
  325TMC3     O 4937   4.686   1.137  14.010  0.5206  0.3104  0.1106
  325TMC3     H 4938   4.526   1.025  13.827 -0.4852 -0.5873  2.2522
  325TMC3    H1 4939   4.392   1.399  13.990  0.1733 -0.4036  0.8962
  325TMC3    H2 4940   4.121   1.185  13.777  0.0060  0.4109 -0.8246
  325TMC3    C7 4941   4.160   1.392  13.917 -0.1345 -0.2174 -0.2589
  325TMC3    C8 4942   4.309   1.015  13.662 -0.0819 -0.1744  0.7381
  325TMC3    O1 4943   4.208   1.502  13.929 -0.2155 -0.4363  0.5070
  325TMC3    O2 4944   4.387   0.919  13.641  0.5747 -0.1636  0.2618
  326MPD2     C 4945   1.530   2.134  11.362  0.5279 -0.3255 -0.4377
  326MPD2    C1 4946   1.535   2.129  11.226  0.0434  0.3520  0.1792
  326MPD2    C2 4947   1.637   2.191  11.155 -0.3238  0.2787 -0.4015
  326MPD2    C3 4948   1.732   2.265  11.224  0.3488  0.2552  0.3108
  326MPD2    C4 4949   1.729   2.271  11.362  0.4613  0.2402  0.3166
  326MPD2    C5 4950   1.625   2.211  11.429 -0.4519  0.1335  0.1302
  326MPD2     H 4951   1.649   2.160  11.052 -0.0568 -1.2597  0.0858
  326MPD2    H1 4952   1.798   2.328  11.423  1.0022  0.7007 -0.7358
  326MPD2    H2 4953   1.453   2.088  11.424  0.8536 -1.2462 -0.7158
  326MPD2    H3 4954   1.624   2.226  11.536  0.8349  0.1908  0.1325
  326MPD2     N 4955   1.837   2.330  11.152  0.1243  0.0541 -0.5073
  326MPD2    H5 4956   1.902   2.384  11.207  1.2930 -0.5767 -1.2794
  326MPD2    N1 4957   1.436   2.065  11.158  0.1527  0.0094  0.1503
  326MPD2    H7 4958   1.437   2.074  11.057 -0.0407  0.1312  0.1586
  327TMC3    C1 4959   1.246   1.955  11.092 -0.1732 -0.0003  0.3600
  327TMC3    C2 4960   1.151   2.033  11.037  0.3163  0.2044 -0.1135
  327TMC3    C3 4961   1.141   2.033  10.897 -0.5537  0.8560  0.0943
  327TMC3    C4 4962   1.325   1.873  11.018  1.0844 -0.2162  0.2569
  327TMC3    C5 4963   1.320   1.880  10.883 -0.0169 -0.3343  1.2632
  327TMC3    C6 4964   1.224   1.953  10.819 -0.0499  0.3268  0.5623
  327TMC3     C 4965   1.318   2.007  11.204  0.0793 -0.2031 -0.0536
  327TMC3     O 4966   1.278   1.992  11.320 -0.2320  0.4151  0.5408
  327TMC3     H 4967   1.098   2.102  11.102 -3.9136 -0.7239 -2.5476
  327TMC3    H1 4968   1.398   1.812  11.070  0.2968 -0.8586  0.6171
  327TMC3    H2 4969   1.229   1.965  10.712  0.5672  1.0197  0.6647
  327TMC3    C7 4970   1.449   1.883  10.819 -0.1143 -0.3072 -0.3296
  327TMC3    C8 4971   1.060   2.122  10.825 -0.6931 -0.5069 -0.2834
  327TMC3    O1 4972   1.454   1.890  10.695  0.3139  0.0989 -0.1068
  327TMC3    O2 4973   1.085   2.144  10.708 -0.2029 -0.5155  0.2626
  328MPD2     C 4974   4.008   2.675  16.947 -0.0642 -0.9918  0.2550
  328MPD2    C1 4975   3.910   2.577  16.948  0.6444 -0.4489 -0.3196
  328MPD2    C2 4976   3.809   2.598  16.851  0.1276 -0.6752  0.4051
  328MPD2    C3 4977   3.802   2.703  16.763  0.3345  0.6192 -0.3507
  328MPD2    C4 4978   3.905   2.793  16.766 -0.4398 -0.2997 -0.1043
  328MPD2    C5 4979   4.005   2.772  16.854 -0.2226  0.0913  1.1300
  328MPD2     H 4980   3.726   2.529  16.860 -0.5240 -0.0796 -1.1048
  328MPD2    H1 4981   3.901   2.889  16.715  0.1848  0.5268  1.4131
  328MPD2    H2 4982   4.079   2.670  17.029 -0.7855 -1.3393  0.8570
  328MPD2    H3 4983   4.072   2.852  16.883 -0.0920  0.3861 -0.0025
  328MPD2     N 4984   3.696   2.724  16.673  0.4741  0.3340 -0.6667
  328MPD2    H5 4985   3.689   2.809  16.616 -1.3908  0.9597  0.5010
  328MPD2    N1 4986   3.908   2.481  17.057  0.9364 -0.3035 -0.0397
  328MPD2    H7 4987   3.977   2.501  17.128  1.2520 -1.6493  0.0293
  329TMC3    C1 4988   3.827   2.315  17.193  0.1278 -0.6102  0.0726
  329TMC3    C2 4989   3.867   2.396  17.296 -0.0274 -0.2365  0.4644
  329TMC3    C3 4990   3.803   2.375  17.417  0.2235  0.9971  0.3134
  329TMC3    C4 4991   3.732   2.217  17.204 -0.3689  0.2648 -0.1414
  329TMC3    C5 4992   3.664   2.209  17.325 -0.2722  0.0884 -0.8755
  329TMC3    C6 4993   3.695   2.294  17.434  0.2286 -0.5155  0.0312
  329TMC3     C 4994   3.821   2.373  17.061  0.9554 -0.2209 -0.2906
  329TMC3     O 4995   3.727   2.335  16.990 -0.0776 -0.3248 -0.1625
  329TMC3     H 4996   3.934   2.481  17.286 -0.0002 -0.4791 -1.5326
  329TMC3    H1 4997   3.707   2.153  17.121  0.7431 -0.8255  0.3635
  329TMC3    H2 4998   3.663   2.267  17.534 -0.7235  0.6561  0.0383
  329TMC3    C7 4999   3.544   2.128  17.333 -0.5511  0.8130  0.2573
  329TMC3    C8 5000   3.838   2.473  17.513  0.0814  0.2812  0.5394
  329TMC3    O1 5001   3.517   2.068  17.226  0.2358  0.0661 -0.4407
  329TMC3    O2 5002   3.931   2.547  17.483  0.2204  0.2637  0.4860
  330TMC3    C1 5003   1.646   1.526   9.082 -0.3551  0.2565 -0.2534
  330TMC3    C2 5004   1.558   1.460   9.162 -0.2344 -0.1692 -0.6417
  330TMC3    C3 5005   1.612   1.358   9.234  0.2718 -0.5001 -0.0649
  330TMC3    C4 5006   1.778   1.495   9.064 -0.1557 -0.4178 -0.0353
  330TMC3    C5 5007   1.824   1.387   9.123  0.4634 -0.3308  0.9470
  330TMC3    C6 5008   1.739   1.311   9.208 -0.6482  0.4125  0.3761
  330TMC3     C 5009   1.593   1.623   8.984  0.0974 -0.0184 -0.4233
  330TMC3     O 5010   1.668   1.650   8.891 -0.4092 -0.2082 -0.6701
  330TMC3     H 5011   1.451   1.476   9.155 -0.1613  0.2964 -0.6309
  330TMC3    H1 5012   1.847   1.556   9.007  2.2514 -0.5887  2.6804
  330TMC3    H2 5013   1.785   1.223   9.250 -0.2001  1.2671  1.6767
  330TMC3    C7 5014   1.964   1.355   9.111  0.8134  0.6619 -0.6852
  330TMC3    C8 5015   1.512   1.263   9.288  0.4026  0.0967 -0.5971
  330TMC3    O1 5016   2.019   1.281   9.188  0.2873 -0.4582  0.1189
  330TMC3    O2 5017   1.397   1.289   9.271  1.1955 -0.0936 -0.8202
  331MPD2     C 5018   0.831   0.779  12.915 -1.3089  0.3988 -0.1075
  331MPD2    C1 5019   0.709   0.802  12.864  0.5430  0.6497 -0.2903
  331MPD2    C2 5020   0.603   0.743  12.922 -1.0363  0.7002  0.0106
  331MPD2    C3 5021   0.623   0.657  13.027 -0.7440 -0.0230 -0.6535
  331MPD2    C4 5022   0.745   0.646  13.089  0.1442  0.4757  0.4609
  331MPD2    C5 5023   0.847   0.706  13.027  0.3711  0.3933 -0.3669
  331MPD2     H 5024   0.510   0.748  12.868 -0.1652  0.3261 -1.5404
  331MPD2    H1 5025   0.757   0.591  13.181 -0.4599  2.3495  1.6506
  331MPD2    H2 5026   0.915   0.819  12.860 -1.5507  1.4562  0.2907
  331MPD2    H3 5027   0.947   0.689  13.065  0.5452  0.1211 -0.9538
  331MPD2     N 5028   0.510   0.575  13.067  0.1692 -0.1571 -0.0989
  331MPD2    H5 5029   0.426   0.587  13.011  0.5672 -0.0776 -0.6802
  331MPD2    N1 5030   0.701   0.896  12.761  0.2939 -0.3515 -0.1238
  331MPD2    H7 5031   0.787   0.937  12.725  1.1533 -1.9283  0.1225
  332TMC3    C1 5032   0.398   0.380  13.128  0.6675 -0.1219 -0.4182
  332TMC3    C2 5033   0.310   0.396  13.024  0.5410  0.5381  0.4396
  332TMC3    C3 5034   0.244   0.299  12.970 -1.0116 -0.5395  0.4788
  332TMC3    C4 5035   0.407   0.257  13.183 -0.3027  0.1857 -0.6268
  332TMC3    C5 5036   0.327   0.156  13.139 -0.5450 -0.9820  0.5822
  332TMC3    C6 5037   0.240   0.169  13.031  0.5394  0.1061 -0.3567
  332TMC3     C 5038   0.517   0.467  13.150  0.3262  0.3305 -0.8928
  332TMC3     O 5039   0.608   0.416  13.204  0.1162  0.2739 -0.7409
  332TMC3     H 5040   0.306   0.495  12.979 -3.2171  0.4331  0.5086
  332TMC3    H1 5041   0.476   0.231  13.263 -1.1952  2.9397  1.0184
  332TMC3    H2 5042   0.174   0.092  12.992  1.1196 -0.7882  0.4224
  332TMC3    C7 5043   0.383   0.026  13.163 -0.0936  0.1001  0.0543
  332TMC3    C8 5044   0.264   0.292  12.829  0.0928  0.6678  0.0505
  332TMC3    O1 5045   0.298   4.679  13.193 -0.1570  0.5388  0.6770
  332TMC3    O2 5046   0.351   0.364  12.795  0.5984 -0.5116 -0.1804
  333MPD2     C 5047   0.098   0.401  10.841  0.2907  0.1422 -0.1715
  333MPD2    C1 5048   0.175   0.288  10.863 -0.2625 -0.1279 -0.2793
  333MPD2    C2 5049   0.171   0.223  10.987 -0.5389 -0.6025  0.2104
  333MPD2    C3 5050   0.080   0.263  11.082  0.3487 -0.4673 -0.6649
  333MPD2    C4 5051   0.003   0.375  11.060  0.0796  0.3556 -0.7215
  333MPD2    C5 5052   0.017   0.447  10.941 -1.1377  0.5435  0.2630
  333MPD2     H 5053   0.248   0.151  11.013  2.1221  2.2682  0.2117
  333MPD2    H1 5054   4.655   0.404  11.122  1.3562  1.6966  0.3804
  333MPD2    H2 5055   0.093   0.457  10.748  0.7142  0.8887  0.2500
  333MPD2    H3 5056   4.676   0.521  10.925 -0.5512  0.9940 -0.4720
  333MPD2     N 5057   0.075   0.189  11.196  0.0996 -0.0867  0.2517
  333MPD2    H5 5058   0.155   0.129  11.211  1.1307  0.8664 -1.4330
  333MPD2    N1 5059   0.262   0.256  10.762  0.1994  0.8939  0.0320
  333MPD2    H7 5060   0.248   0.307  10.675 -1.6164 -0.0246 -0.1932
  334TMC3    C1 5061   0.437   0.158  10.639  0.2795 -0.2760  0.2667
  334TMC3    C2 5062   0.535   0.064  10.627  0.1419 -0.2203  0.4814
  334TMC3    C3 5063   0.638   0.085  10.549 -0.0857  0.4715  0.0924
  334TMC3    C4 5064   0.443   0.275  10.565  0.2960  0.0665 -0.3487
  334TMC3    C5 5065   0.551   0.293  10.484 -0.1194  0.0074  0.1903
  334TMC3    C6 5066   0.654   0.202  10.470  0.2594  0.1803  0.0477
  334TMC3     C 5067   0.358   0.156  10.763 -0.5301  0.0884 -0.0348
  334TMC3     O 5068   0.392   0.081  10.853  0.1200  0.1937 -0.3538
  334TMC3     H 5069   0.540   4.715  10.693 -0.9267 -2.4045 -2.2733
  334TMC3    H1 5070   0.360   0.345  10.571  0.7861  0.5346  0.9105
  334TMC3    H2 5071   0.731   0.226  10.398  0.9316 -1.6178  0.1644
  334TMC3    C7 5072   0.525   0.382  10.380  0.0675 -0.4052  0.6865
  334TMC3    C8 5073   0.760   0.016  10.591  0.6119  0.1065 -0.3714
  334TMC3    O1 5074   0.533   0.334  10.268  0.3142  0.6113 -0.2636
  334TMC3    O2 5075   0.755   4.643  10.647 -0.1105 -0.1431  0.1206
  335TMC3    C1 5076   4.631   2.387  17.494 -0.7332  0.1820 -0.1796
  335TMC3    C2 5077   4.521   2.368  17.407 -0.0543 -0.2689  0.3688
  335TMC3    C3 5078   4.546   2.386  17.271  0.6186 -0.3418  0.0776
  335TMC3    C4 5079   0.010   2.446  17.449  0.4048  0.3802 -0.8138
  335TMC3    C5 5080   0.027   2.469  17.314  0.0907 -0.0994  0.6132
  335TMC3    C6 5081   4.669   2.431  17.226  0.3723  0.0608  0.0132
  335TMC3     C 5082   4.622   2.347  17.633 -0.2274  0.0509 -0.1593
  335TMC3     O 5083   4.533   2.266  17.651 -0.3975 -0.6084  0.2395
  335TMC3     H 5084   4.426   2.325  17.437 -1.2152  1.2294 -1.1228
  335TMC3    H1 5085   0.088   2.474  17.519  1.6873 -0.7937 -1.7801
  335TMC3    H2 5086   4.694   2.435  17.120  0.7981  2.6834  0.2235
  335TMC3    C7 5087   0.143   2.540  17.269  0.0364  0.9793  0.8690
  335TMC3    C8 5088   4.455   2.327  17.178  0.2619 -0.2309  0.3417
  335TMC3    O1 5089   0.162   2.539  17.146 -0.5147  0.2150 -0.7769
  335TMC3    O2 5090   4.470   2.360  17.061  0.1333 -0.5266  0.4087
  336MPD2     C 5091   4.267   0.097  16.125  0.5578 -0.2567  0.3753
  336MPD2    C1 5092   4.219   0.045  16.008  0.0599  0.2165  0.2106
  336MPD2    C2 5093   4.223   4.652  15.976  0.6036  0.5355 -0.0934
  336MPD2    C3 5094   4.272   4.562  16.065 -0.2654 -0.9740  0.4642
  336MPD2    C4 5095   4.316   4.619  16.189  0.6944 -0.1107 -0.2662
  336MPD2    C5 5096   4.325   0.015  16.216 -0.7309  0.6809 -0.3863
  336MPD2     H 5097   4.186   4.618  15.880 -0.6303  0.9110  0.2535
  336MPD2    H1 5098   4.357   4.560  16.270 -0.6527 -0.1410  0.3914
  336MPD2    H2 5099   4.261   0.203  16.147 -2.0923 -0.1905 -0.5721
  336MPD2    H3 5100   4.359   0.040  16.316  0.2706 -0.2346 -0.5033
  336MPD2     N 5101   4.285   4.424  16.041  0.4746  0.5210  0.3189
  336MPD2    H5 5102   4.332   4.372  16.115 -1.4179 -0.7608  0.6268
  336MPD2    N1 5103   4.150   0.125  15.912 -0.1085 -0.4948  0.1809
  336MPD2    H7 5104   4.096   0.076  15.841 -0.2874  0.4707 -0.3532
  337TMC3    C1 5105   4.049   0.308  15.830 -0.1838 -0.2472 -0.5578
  337TMC3    C2 5106   3.955   0.220  15.770  0.3181  0.2102  0.4417
  337TMC3    C3 5107   3.851   0.275  15.698 -0.0162  0.5042 -0.0591
  337TMC3    C4 5108   4.038   0.447  15.818  0.2210 -0.2119  1.0509
  337TMC3    C5 5109   3.929   0.500  15.759 -0.1717 -0.4855 -0.3563
  337TMC3    C6 5110   3.832   0.413  15.707 -0.4441  0.7048  1.1190
  337TMC3     C 5111   4.151   0.262  15.915 -0.1610  0.2431 -0.3259
  337TMC3     O 5112   4.227   0.335  15.974 -0.5686 -0.3425 -0.4132
  337TMC3     H 5113   3.966   0.112  15.772 -0.6164  0.1067  0.1605
  337TMC3    H1 5114   4.114   0.507  15.867  0.7803  0.4002 -0.5924
  337TMC3    H2 5115   3.744   0.465  15.671 -0.7197 -1.5193 -1.3867
  337TMC3    C7 5116   3.910   0.639  15.750  0.2253 -0.1468 -1.2044
  337TMC3    C8 5117   3.751   0.181  15.646 -0.2844  0.7037  0.3610
  337TMC3    O1 5118   3.803   0.688  15.727  0.5428 -0.0940  0.3443
  337TMC3    O2 5119   3.732   0.068  15.689  0.0310 -0.4463 -0.0128
  338MPD2     C 5120   4.576   4.363   0.735  0.0484 -0.5227 -0.1185
  338MPD2    C1 5121   4.498   4.391   0.625 -0.5897  0.3307 -0.3211
  338MPD2    C2 5122   4.379   4.455   0.648 -0.2011 -0.4267  0.1345
  338MPD2    C3 5123   4.334   4.481   0.776  0.5458  0.7886  0.1940
  338MPD2    C4 5124   4.415   4.458   0.883 -0.1925  0.3983 -0.4374
  338MPD2    C5 5125   4.539   4.403   0.863  0.5937  0.4109  0.2710
  338MPD2     H 5126   4.302   4.486   0.577 -0.2895 -1.2812 -0.1488
  338MPD2    H1 5127   4.379   4.482   0.982 -1.0222 -0.1499 -0.6086
  338MPD2    H2 5128   4.667   4.306   0.727 -0.0341 -0.6081 -0.4644
  338MPD2    H3 5129   4.615   4.382   0.938  0.7807  0.4971  0.1016
  338MPD2     N 5130   4.204   4.539   0.779  0.3803  0.4617  0.8229
  338MPD2    H5 5131   4.156   4.551   0.691  2.0940 -0.7108 -0.2725
  338MPD2    N1 5132   4.526   4.352   0.489 -0.0781  0.0894  0.4365
  338MPD2    H7 5133   4.449   4.371   0.425 -0.8088  0.0686  1.3084
  339TMC3    C1 5134   3.997   4.625   0.856  0.5228  0.1924 -0.3617
  339TMC3    C2 5135   3.901   4.577   0.940  0.4481 -0.2029  0.2158
  339TMC3    C3 5136   3.779   4.552   0.886 -0.6673  0.9850 -0.0524
  339TMC3    C4 5137   3.972   4.651   0.723  0.1268  0.2123 -0.1054
  339TMC3    C5 5138   3.847   4.626   0.675 -0.4201 -0.8721 -0.0485
  339TMC3    C6 5139   3.747   4.575   0.752  0.1490  0.5538 -0.0602
  339TMC3     C 5140   4.131   4.578   0.893  0.0538  0.2147  0.5194
  339TMC3     O 5141   4.159   4.566   1.011  0.6299  0.3116 -0.2655
  339TMC3     H 5142   3.926   4.576   1.045  3.4233  0.2168 -0.4726
  339TMC3    H1 5143   4.056   4.689   0.665  1.6611  0.5809  2.3748
  339TMC3    H2 5144   3.645   4.560   0.716  0.7212  0.0392 -1.4577
  339TMC3    C7 5145   3.836   4.668   0.540 -0.1348 -0.1918 -0.2229
  339TMC3    C8 5146   3.673   4.542   0.989  0.1587  0.9695  0.5815
  339TMC3    O1 5147   3.908   0.026   0.514  0.1379 -0.2750  0.2286
  339TMC3    O2 5148   3.707   4.496   1.097  0.1907 -0.7049  0.1555
  340MPD2     C 5149   4.521   1.959  10.899 -0.0339  0.0221 -0.8302
  340MPD2    C1 5150   4.621   1.919  10.812  0.3715  0.2037  0.1621
  340MPD2    C2 5151   0.017   1.936  10.843  0.0526  0.7541  0.3337
  340MPD2    C3 5152   0.055   1.989  10.963  0.2771 -0.4858  0.0516
  340MPD2    C4 5153   4.688   2.022  11.052  0.4454 -0.4756 -0.4465
  340MPD2    C5 5154   4.555   2.003  11.029  0.1992  0.5948 -0.5314
  340MPD2     H 5155   0.088   1.913  10.765  0.4311 -0.4973  1.0495
  340MPD2    H1 5156   4.714   2.052  11.153  1.3238 -2.4342 -0.0909
  340MPD2    H2 5157   4.418   1.964  10.867 -0.2127 -0.4718 -0.3425
  340MPD2    H3 5158   4.474   2.012  11.101  0.5751 -1.0515  0.1035
  340MPD2     N 5159   0.183   2.026  10.993 -0.4070  0.6290  0.2749
  340MPD2    H5 5160   0.193   2.083  11.076 -0.5737  1.4768 -0.2845
  340MPD2    N1 5161   4.577   1.878  10.681  0.2008 -0.0164 -0.1137
  340MPD2    H7 5162   4.477   1.861  10.669  0.0549 -0.1206  1.2240
  341TMC3    C1 5163   4.569   1.858  10.444  0.6163 -0.8843  0.2399
  341TMC3    C2 5164   4.519   1.728  10.450  0.0028  0.2909 -0.4667
  341TMC3    C3 5165   4.536   1.650  10.343  0.0081 -0.0085  0.9524
  341TMC3    C4 5166   4.620   1.913  10.331 -0.7751  0.3905 -0.6347
  341TMC3    C5 5167   4.648   1.822  10.230  0.4200  0.1190  0.9444
  341TMC3    C6 5168   4.601   1.694  10.233 -0.0599 -0.6008 -0.0494
  341TMC3     C 5169   4.653   1.884  10.562 -0.0470  0.1614  0.4502
  341TMC3     O 5170   0.031   1.917  10.542  0.8835 -0.4775 -0.4566
  341TMC3     H 5171   4.479   1.677  10.537 -1.7193 -1.6269 -2.3820
  341TMC3    H1 5172   4.674   2.006  10.344 -0.5224  0.5154 -2.5943
  341TMC3    H2 5173   4.625   1.643  10.140 -1.5591 -0.0056 -0.7651
  341TMC3    C7 5174   4.733   1.866  10.114 -0.1631 -0.2793  0.4707
  341TMC3    C8 5175   4.503   1.508  10.348 -0.2304 -0.2126 -0.3868
  341TMC3    O1 5176   0.048   1.768  10.064 -0.5417  0.7578 -0.2584
  341TMC3    O2 5177   4.402   1.463  10.401  0.3333 -0.2216 -0.5900
  342MPD2     C 5178   2.321   0.494  17.236 -0.4404 -0.1544  0.2836
  342MPD2    C1 5179   2.432   0.500  17.155  0.0802 -0.2485 -0.3888
  342MPD2    C2 5180   2.446   0.622  17.095 -0.3835 -0.3795 -0.7927
  342MPD2    C3 5181   2.367   0.734  17.120 -0.3810 -0.4413  0.1452
  342MPD2    C4 5182   2.268   0.719  17.213  0.1560 -0.4143  0.1756
  342MPD2    C5 5183   2.239   0.597  17.268  0.3700  0.4100  0.2551
  342MPD2     H 5184   2.527   0.626  17.023  1.5132 -0.5281  1.3519
  342MPD2    H1 5185   2.203   0.801  17.244  1.2612  0.7444 -0.5773
  342MPD2    H2 5186   2.306   0.411  17.304 -2.2374 -0.8004 -0.9040
  342MPD2    H3 5187   2.151   0.581  17.329 -1.0214  0.3971 -1.7920
  342MPD2     N 5188   2.382   0.861  17.062 -0.0961  0.3541 -0.4107
  342MPD2    H5 5189   2.305   0.926  17.075 -1.0853 -0.4775 -2.1848
  342MPD2    N1 5190   2.520   0.390  17.132 -0.3497 -0.4960 -0.0373
  342MPD2    H7 5191   2.603   0.416  17.079 -0.9340 -1.8881 -1.6313
  343TMC3    C1 5192   2.585   0.160  17.115 -0.5947 -0.8660 -0.0196
  343TMC3    C2 5193   2.682   0.206  17.031  0.3533 -0.0753  0.2583
  343TMC3    C3 5194   2.728   0.114  16.938 -0.7240  0.1152 -0.7849
  343TMC3    C4 5195   2.531   0.029  17.111  0.9789  0.6495 -0.3467
  343TMC3    C5 5196   2.593   4.680  17.026  0.3046 -0.6496 -0.3208
  343TMC3    C6 5197   2.686   4.717  16.932 -0.1665 -0.9968  0.0169
  343TMC3     C 5198   2.509   0.265  17.185 -0.0950  0.6119  0.5869
  343TMC3     O 5199   2.414   0.221  17.251 -0.2567  0.0738  0.5098
  343TMC3     H 5200   2.722   0.306  17.041 -0.7500  0.1750  2.1524
  343TMC3    H1 5201   2.442   0.013  17.170  1.8923  1.4358  1.2396
  343TMC3    H2 5202   2.735   4.639  16.875  1.9552 -0.4764  1.1350
  343TMC3    C7 5203   2.559   4.539  17.039 -0.4557  0.6366  1.1024
  343TMC3    C8 5204   2.857   0.144  16.876  0.0491 -0.5430  0.2511
  343TMC3    O1 5205   2.610   4.459  16.961  0.1498 -0.4414 -0.1806
  343TMC3    O2 5206   2.903   0.256  16.902 -0.1941  0.0747 -0.0966
  344MPD2     C 5207   3.906   4.344  10.713 -0.6100 -0.4352 -0.5892
  344MPD2    C1 5208   3.786   4.392  10.660  0.0549  0.0994 -0.8039
  344MPD2    C2 5209   3.793   4.514  10.590  0.1791  1.0227 -0.0466
  344MPD2    C3 5210   3.912   4.583  10.577 -0.3588  0.2729 -0.3082
  344MPD2    C4 5211   4.026   4.533  10.634 -0.4862  0.2039 -0.7858
  344MPD2    C5 5212   4.024   4.412  10.698  0.3966  0.1399 -0.0074
  344MPD2     H 5213   3.702   4.546  10.540  1.1596  0.3572 -2.2728
  344MPD2    H1 5214   4.127   4.567  10.616 -0.8935  1.0264 -1.5534
  344MPD2    H2 5215   3.910   4.244  10.755 -1.6234 -0.6902 -1.0904
  344MPD2    H3 5216   4.118   4.364  10.726 -0.0048  0.5835  2.0537
  344MPD2     N 5217   3.934   4.709  10.518  0.1465 -0.0584  0.3429
  344MPD2    H5 5218   4.021   0.018  10.543  0.3346  0.2279 -0.8456
  344MPD2    N1 5219   3.668   4.322  10.706  0.1548 -0.3619 -0.0234
  344MPD2    H7 5220   3.687   4.256  10.780  0.8650  1.0470  1.0400
  345TMC3    C1 5221   3.889   0.172  10.403  0.1389  0.5254  0.0712
  345TMC3    C2 5222   4.018   0.208  10.439 -0.1573 -0.2248 -0.0687
  345TMC3    C3 5223   4.056   0.341  10.427 -0.6075  0.2410  0.7495
  345TMC3    C4 5224   3.794   0.273  10.368  0.2276 -1.2654 -0.2900
  345TMC3    C5 5225   3.840   0.405  10.363  0.0035  0.1194  0.4877
  345TMC3    C6 5226   3.971   0.440  10.392 -0.3257 -0.0959 -0.3067
  345TMC3     C 5227   3.841   0.042  10.444 -0.6542  0.0346 -0.3238
  345TMC3     O 5228   3.739   4.728  10.396 -0.2838  0.8475  0.8180
  345TMC3     H 5229   4.101   0.141  10.461  0.9966  0.6780 -1.6848
  345TMC3    H1 5230   3.688   0.250  10.367 -0.1779  0.5507  1.0159
  345TMC3    H2 5231   4.006   0.541  10.373  0.5982 -0.3879 -0.1654
  345TMC3    C7 5232   3.761   0.515  10.315  0.8204  0.8271 -0.0336
  345TMC3    C8 5233   4.198   0.363  10.425  0.4813  0.0911  0.4469
  345TMC3    O1 5234   3.800   0.623  10.358 -0.2246 -0.3615 -0.2730
  345TMC3    O2 5235   4.278   0.281  10.382 -0.4757  0.0441 -0.0692
  346MPD2     C 5236   3.310   0.950  13.201  0.1966 -0.2700 -0.5555
  346MPD2    C1 5237   3.359   1.080  13.214 -0.6117 -0.8625  0.2467
  346MPD2    C2 5238   3.318   1.150  13.323 -0.1374  0.1080  0.5266
  346MPD2    C3 5239   3.232   1.103  13.417  0.6862 -0.5484 -0.1936
  346MPD2    C4 5240   3.186   0.974  13.404  0.3609 -0.0065 -0.4851
  346MPD2    C5 5241   3.227   0.900  13.295 -0.2451  0.1441 -1.6887
  346MPD2     H 5242   3.364   1.248  13.337 -0.8675  0.8053 -1.9614
  346MPD2    H1 5243   3.120   0.934  13.480  1.4040 -1.4333 -0.3104
  346MPD2    H2 5244   3.324   0.892  13.111  0.1572 -0.9703 -0.1154
  346MPD2    H3 5245   3.194   0.797  13.294 -0.2074  0.1292 -1.4424
  346MPD2     N 5246   3.198   1.171  13.537 -0.2227  0.5675  0.2010
  346MPD2    H5 5247   3.141   1.117  13.601 -0.3912 -0.0083 -0.4291
  346MPD2    N1 5248   3.457   1.140  13.129  0.6025 -0.4763  0.2511
  346MPD2    H7 5249   3.476   1.238  13.148 -0.5415 -0.0280 -0.9337
  347TMC3    C1 5250   3.223   1.309  13.713 -0.0121  0.6265 -0.1405
  347TMC3    C2 5251   3.327   1.270  13.791  0.0570 -0.7474 -0.0271
  347TMC3    C3 5252   3.374   1.354  13.889 -0.5709 -0.1615 -0.6240
  347TMC3    C4 5253   3.164   1.427  13.739 -0.3111 -0.0144  0.3397
  347TMC3    C5 5254   3.213   1.511  13.828  0.3284  0.3660 -0.5204
  347TMC3    C6 5255   3.324   1.482  13.901 -0.6565  0.1639 -0.0686
  347TMC3     C 5256   3.247   1.292  13.577 -0.2166  0.6998 -0.3591
  347TMC3     O 5257   3.299   1.387  13.518  0.1083  0.3378  0.0494
  347TMC3     H 5258   3.384   1.191  13.742 -0.7829 -0.9056 -0.7428
  347TMC3    H1 5259   3.078   1.452  13.678  1.0108 -1.2054 -2.0076
  347TMC3    H2 5260   3.357   1.565  13.963 -0.3257  0.5437 -0.7507
  347TMC3    C7 5261   3.132   1.631  13.864 -0.6006  1.0393 -0.0589
  347TMC3    C8 5262   3.503   1.326  13.929 -0.3799 -0.4898  0.0757
  347TMC3    O1 5263   3.189   1.722  13.915 -0.4688  0.2399  0.0093
  347TMC3    O2 5264   3.556   1.218  13.900  0.3311 -0.5454 -0.0262
  348MPD2     C 5265   2.202   1.036  12.252 -0.5272 -0.4903  0.3848
  348MPD2    C1 5266   2.326   1.077  12.212 -0.0377 -0.3553  1.3622
  348MPD2    C2 5267   2.339   1.165  12.110  0.0959  0.0260  0.2169
  348MPD2    C3 5268   2.229   1.205  12.034  0.5883 -0.3986 -0.0028
  348MPD2    C4 5269   2.101   1.160  12.067 -0.0646  0.6344 -0.4942
  348MPD2    C5 5270   2.098   1.080  12.174  0.2742 -0.3513 -0.4272
  348MPD2     H 5271   2.440   1.198  12.088 -0.6138  1.3167 -1.1565
  348MPD2    H1 5272   2.008   1.191  12.021 -1.1511 -1.4996  0.2606
  348MPD2    H2 5273   2.183   0.970  12.335 -1.3854 -0.1749  0.4390
  348MPD2    H3 5274   2.002   1.051  12.214  0.3016  0.0588 -0.0641
  348MPD2     N 5275   2.244   1.277  11.914 -0.1359  0.2353 -0.7107
  348MPD2    H5 5276   2.334   1.320  11.893 -0.1286  0.2361 -0.6785
  348MPD2    N1 5277   2.437   1.023  12.277 -0.1080  0.3732 -0.3771
  348MPD2    H7 5278   2.529   1.054  12.245 -0.9515  1.7110 -1.5061
  349TMC3    C1 5279   2.588   0.878  12.395 -0.3128 -0.1088  0.2659
  349TMC3    C2 5280   2.597   0.742  12.412  0.1034 -0.5528  0.0096
  349TMC3    C3 5281   2.714   0.678  12.369  0.6515  0.2890 -0.2375
  349TMC3    C4 5282   2.686   0.953  12.345 -0.4589  0.6334  0.0375
  349TMC3    C5 5283   2.790   0.889  12.288  0.3026 -0.1981  0.2076
  349TMC3    C6 5284   2.808   0.755  12.303 -0.6911  0.3501 -0.2319
  349TMC3     C 5285   2.454   0.930  12.383  0.0874 -0.0588 -0.5743
  349TMC3     O 5286   2.373   0.885  12.462  0.0022 -0.1779  0.3876
  349TMC3     H 5287   2.510   0.686  12.442 -1.6297  2.5203  0.7648
  349TMC3    H1 5288   2.678   1.060  12.358 -1.9448  0.4712  0.4869
  349TMC3    H2 5289   2.905   0.717  12.275 -0.7084  0.4636 -0.4419
  349TMC3    C7 5290   2.787   0.921  12.149 -0.7001  0.2177  0.0674
  349TMC3    C8 5291   2.725   0.536  12.366 -0.2523 -0.0909 -0.1059
  349TMC3    O1 5292   2.769   0.823  12.080 -0.2859 -0.2934  0.1157
  349TMC3    O2 5293   2.649   0.484  12.451 -0.4695 -0.5605  0.0654
  350MPD2     C 5294   1.077   3.831   9.644  0.4298  0.0674 -0.9239
  350MPD2    C1 5295   1.149   3.734   9.714  0.2592  0.1175  1.0065
  350MPD2    C2 5296   1.284   3.744   9.707 -0.9130  0.2826 -0.1353
  350MPD2    C3 5297   1.356   3.829   9.630  0.0174 -0.3467  0.4855
  350MPD2    C4 5298   1.284   3.923   9.558  0.0583  0.0131  0.4413
  350MPD2    C5 5299   1.151   3.925   9.573 -0.8584 -0.0439  0.0510
  350MPD2     H 5300   1.341   3.675   9.768 -0.9182 -0.4405 -0.9381
  350MPD2    H1 5301   1.330   3.997   9.493  0.1647 -0.1841  0.2919
  350MPD2    H2 5302   0.969   3.831   9.636  0.4051  1.0411 -0.6135
  350MPD2    H3 5303   1.104   3.997   9.508 -2.3741  0.4994  1.7459
  350MPD2     N 5304   1.494   3.818   9.644 -0.2793 -0.1625  0.2025
  350MPD2    H5 5305   1.536   3.750   9.707 -0.0142 -0.8376 -0.7063
  350MPD2    N1 5306   1.100   3.620   9.784 -0.4834  0.1447  0.6132
  350MPD2    H7 5307   1.173   3.557   9.813  0.0268  0.4401 -0.0424
  351TMC3    C1 5308   0.958   3.473   9.891 -0.6518 -0.3083 -0.0218
  351TMC3    C2 5309   1.068   3.434   9.968 -0.5385 -0.6344 -0.2103
  351TMC3    C3 5310   1.068   3.314  10.029 -0.8820  0.1414  0.4417
  351TMC3    C4 5311   0.844   3.402   9.897 -0.0441 -0.2373  0.3072
  351TMC3    C5 5312   0.844   3.288   9.971  0.0816 -0.4981  0.3103
  351TMC3    C6 5313   0.954   3.239  10.032 -0.2345 -0.6100 -0.1672
  351TMC3     C 5314   0.965   3.587   9.803 -0.4840 -0.9031 -0.2613
  351TMC3     O 5315   0.859   3.648   9.783 -0.1702  0.0950  0.0943
  351TMC3     H 5316   1.159   3.490   9.987  1.1533 -2.9900 -1.3070
  351TMC3    H1 5317   0.752   3.429   9.847 -0.1558  0.1462  0.7151
  351TMC3    H2 5318   0.961   3.132  10.043 -1.3997 -0.5258  1.3735
  351TMC3    C7 5319   0.716   3.221   9.982  0.1161 -0.6165 -0.0105
  351TMC3    C8 5320   1.193   3.241  10.057  0.7705  0.4882 -0.1180
  351TMC3    O1 5321   0.625   3.252   9.906  1.0868 -0.2391  0.1589
  351TMC3    O2 5322   1.291   3.287  10.007  0.2386  0.3567  0.5318
  352MPD2     C 5323   0.036   1.540   1.130  0.3421  0.3371  0.3928
  352MPD2    C1 5324   4.698   1.439   1.075 -0.0278 -0.0768  0.0155
  352MPD2    C2 5325   0.030   1.321   1.040 -0.4076  0.3185  0.4157
  352MPD2    C3 5326   0.164   1.301   1.056 -0.0568  0.6406  0.2730
  352MPD2    C4 5327   0.235   1.405   1.120  0.3325 -0.4738 -1.2075
  352MPD2    C5 5328   0.169   1.521   1.152 -0.0540 -0.3497  0.0972
  352MPD2     H 5329   4.716   1.252   0.972 -2.1377  0.3769  1.6394
  352MPD2    H1 5330   0.341   1.395   1.138 -0.2869 -1.4971  1.9289
  352MPD2    H2 5331   0.002   1.642   1.148 -0.1716  0.6714 -2.4385
  352MPD2    H3 5332   0.216   1.605   1.201 -0.6860 -0.0258  0.1437
  352MPD2     N 5333   0.224   1.180   1.011 -0.5534  0.0659 -0.6168
  352MPD2    H5 5334   0.321   1.183   0.982 -0.2451  1.0073  0.5311
  352MPD2    N1 5335   4.552   1.460   1.062  0.0268  0.2434  0.0738
  352MPD2    H7 5336   4.525   1.557   1.052  0.7349  0.3130 -1.1748
  353TMC3    C1 5337   0.209   0.986   0.887  0.4553 -0.0485 -0.3008
  353TMC3    C2 5338   0.277   0.888   0.954  0.6346  0.0971 -0.6180
  353TMC3    C3 5339   0.265   0.754   0.910 -0.4050 -0.7974  0.2100
  353TMC3    C4 5340   0.129   0.970   0.780 -0.0993 -0.0321 -0.3116
  353TMC3    C5 5341   0.120   0.835   0.739 -0.2639  0.4546 -1.1099
  353TMC3    C6 5342   0.182   0.731   0.798  0.2405  0.6751 -0.6503
  353TMC3     C 5343   0.147   1.070   0.984 -0.2276  0.2896 -0.4103
  353TMC3     O 5344   0.028   1.044   1.001 -0.1619  0.1790 -0.3003
  353TMC3     H 5345   0.322   0.903   1.052  0.3297  0.2606 -0.5038
  353TMC3    H1 5346   0.070   1.054   0.746  1.1459  1.0702  0.2547
  353TMC3    H2 5347   0.174   0.632   0.753  0.2728  0.3155  0.1311
  353TMC3    C7 5348   4.730   0.809   0.680 -0.1359  0.3085  0.7370
  353TMC3    C8 5349   0.339   0.649   0.967 -0.5876  0.3121  0.1312
  353TMC3    O1 5350   4.718   0.721   0.594 -0.4759  0.9200 -0.0646
  353TMC3    O2 5351   0.437   0.691   1.026 -0.2503  0.5853 -0.5857
  354TMC3    C1 5352   1.358   2.663  13.444 -0.4069  0.3043  0.5354
  354TMC3    C2 5353   1.294   2.765  13.364  0.2045  0.0827  0.4455
  354TMC3    C3 5354   1.289   2.737  13.231  0.2758  0.1407 -0.3878
  354TMC3    C4 5355   1.397   2.539  13.403  1.0539  0.0474 -0.0857
  354TMC3    C5 5356   1.385   2.520  13.265 -0.1434  0.3163  0.2962
  354TMC3    C6 5357   1.335   2.619  13.186 -0.3335  0.3220  0.4473
  354TMC3     C 5358   1.317   2.661  13.585  0.3740  0.1307 -0.0358
  354TMC3     O 5359   1.365   2.572  13.654 -0.1436  0.4017  1.1546
  354TMC3     H 5360   1.296   2.866  13.405 -2.1878  0.0692  0.6042
  354TMC3    H1 5361   1.458   2.474  13.465  0.1229 -0.8816 -0.1433
  354TMC3    H2 5362   1.316   2.598  13.081 -1.8325  0.3711  0.7147
  354TMC3    C7 5363   1.491   2.437  13.194  1.0182 -0.0358  0.3246
  354TMC3    C8 5364   1.327   2.845  13.147  0.3570 -0.1453 -0.6993
  354TMC3    O1 5365   1.509   2.314  13.211 -0.2063 -0.4479  0.1632
  354TMC3    O2 5366   1.405   2.805  13.063  0.2841 -0.5003 -0.5709
  355MPD2     C 5367   2.103   3.159  12.060  0.3879  0.0067  0.2793
  355MPD2    C1 5368   2.169   3.194  11.942  0.3077  0.2770 -0.2441
  355MPD2    C2 5369   2.295   3.250  11.955 -0.7427 -0.0056 -0.2612
  355MPD2    C3 5370   2.351   3.278  12.076  0.3348 -0.0298 -0.8417
  355MPD2    C4 5371   2.293   3.221  12.191  0.1689  0.4865 -0.1500
  355MPD2    C5 5372   2.169   3.169  12.177 -0.5571 -0.0671 -0.1416
  355MPD2     H 5373   2.345   3.272  11.861  1.3281 -0.6931  0.6832
  355MPD2    H1 5374   2.335   3.220  12.291  2.3551  0.5540 -1.0784
  355MPD2    H2 5375   2.003   3.116  12.062  0.2855  0.0735 -2.9905
  355MPD2    H3 5376   2.113   3.150  12.268 -0.0233 -1.3505 -0.0781
  355MPD2     N 5377   2.477   3.347  12.076  0.0871  0.2522  0.0256
  355MPD2    H5 5378   2.502   3.391  11.988 -2.7000  1.5450 -0.1223
  355MPD2    N1 5379   2.095   3.188  11.816 -0.0112  0.5695  0.4150
  355MPD2    H7 5380   1.994   3.182  11.820 -0.1161  1.1467 -1.7084
  356TMC3    C1 5381   2.660   3.447  12.168 -0.1561 -0.4945  0.3272
  356TMC3    C2 5382   2.730   3.448  12.046  0.0025 -0.9871  0.0918
  356TMC3    C3 5383   2.821   3.546  12.028  0.6168 -0.3145  0.1784
  356TMC3    C4 5384   2.684   3.544  12.267 -0.0115  0.0432 -0.1152
  356TMC3    C5 5385   2.768   3.653  12.235  0.3627 -0.3973 -0.7029
  356TMC3    C6 5386   2.833   3.655  12.115  0.5313 -0.4147  0.2883
  356TMC3     C 5387   2.540   3.377  12.190  0.2263  0.2850  0.0142
  356TMC3     O 5388   2.501   3.351  12.304  0.5547 -0.1864 -0.7587
  356TMC3     H 5389   2.708   3.372  11.973  3.3025 -2.1609  0.3346
  356TMC3    H1 5390   2.630   3.537  12.360 -1.8272 -0.1914 -1.2028
  356TMC3    H2 5391   2.915   3.721  12.092  0.5070 -0.5307 -0.1214
  356TMC3    C7 5392   2.802   3.752  12.332 -0.9325 -0.0908 -0.4345
  356TMC3    C8 5393   2.879   3.545  11.898 -0.1412 -0.2635  0.8231
  356TMC3    O1 5394   2.769   3.732  12.449 -0.3325  0.2818  0.1717
  356TMC3    O2 5395   2.896   3.433  11.845  0.6494 -0.1655 -0.2963
  357MPD2     C 5396   1.141   3.147   0.766 -0.0683 -0.2972  0.1995
  357MPD2    C1 5397   1.272   3.117   0.802  0.2823 -0.0634  0.9275
  357MPD2    C2 5398   1.344   3.225   0.854 -0.4877  0.6885 -0.1238
  357MPD2    C3 5399   1.301   3.357   0.851 -0.2822 -0.4555 -0.2517
  357MPD2    C4 5400   1.179   3.387   0.792  0.3712  0.6078 -0.3859
  357MPD2    C5 5401   1.096   3.279   0.765 -0.4270  0.0175 -0.6274
  357MPD2     H 5402   1.444   3.203   0.891 -1.2900 -1.1023  0.9714
  357MPD2    H1 5403   1.129   3.483   0.797  1.5052  1.0095  2.7032
  357MPD2    H2 5404   1.076   3.065   0.738 -0.4514 -0.7298  2.2982
  357MPD2    H3 5405   0.990   3.292   0.743 -0.2626 -2.5695 -2.8736
  357MPD2     N 5406   1.369   3.463   0.915 -0.3724  0.3100  0.7864
  357MPD2    H5 5407   1.355   3.558   0.884 -1.5068  0.0453  0.4737
  357MPD2    N1 5408   1.309   2.978   0.808  0.0306 -0.8467 -0.0496
  357MPD2    H7 5409   1.247   2.915   0.759  1.8792 -5.5081  3.6518
  358TMC3    C1 5410   1.453   2.790   0.812  0.4546 -1.0364 -0.0176
  358TMC3    C2 5411   1.368   2.721   0.727  0.3386 -0.1953  0.3001
  358TMC3    C3 5412   1.418   2.602   0.686  0.1178 -0.2875  0.3435
  358TMC3    C4 5413   1.580   2.744   0.844 -0.1897 -0.1204  0.1939
  358TMC3    C5 5414   1.615   2.616   0.810 -0.4938 -0.4363  0.3314
  358TMC3    C6 5415   1.535   2.546   0.729 -0.5794  0.6334  0.4947
  358TMC3     C 5416   1.428   2.926   0.852 -0.0028 -0.1481 -0.4277
  358TMC3     O 5417   1.521   2.982   0.914  0.7426 -0.5920 -0.0787
  358TMC3     H 5418   1.272   2.756   0.691  1.3075  0.9280 -1.1806
  358TMC3    H1 5419   1.646   2.799   0.910  1.5570 -0.6409 -1.1283
  358TMC3    H2 5420   1.569   2.457   0.676 -0.3175 -0.1198  1.9349
  358TMC3    C7 5421   1.756   2.574   0.841  0.3340 -0.4578 -0.1559
  358TMC3    C8 5422   1.334   2.527   0.592 -0.0624  0.6777 -0.1557
  358TMC3    O1 5423   1.826   2.662   0.880 -0.2964  0.1835  0.1054
  358TMC3    O2 5424   1.252   2.597   0.534 -0.1172 -0.1350  0.2084
  359MPD2     C 5425   1.877   2.103  12.465  0.5925 -0.3774  0.1545
  359MPD2    C1 5426   1.837   1.973  12.434 -0.3230 -0.6635 -0.1838
  359MPD2    C2 5427   1.710   1.936  12.399  0.1620 -0.1747  0.1481
  359MPD2    C3 5428   1.609   2.034  12.387  0.6455  0.5627 -0.3469
  359MPD2    C4 5429   1.641   2.168  12.424  0.3663 -0.7646 -0.0072
  359MPD2    C5 5430   1.769   2.193  12.461  0.3743  0.8465 -0.2673
  359MPD2     H 5431   1.689   1.830  12.391 -0.0317 -0.0453 -1.0839
  359MPD2    H1 5432   1.561   2.241  12.430  0.7000 -0.3784 -0.2244
  359MPD2    H2 5433   1.978   2.131  12.493  0.0373  0.5173  1.2514
  359MPD2    H3 5434   1.785   2.294  12.498  1.8027  0.7893 -0.7293
  359MPD2     N 5435   1.481   2.001  12.342  0.4908  0.3012 -0.1033
  359MPD2    H5 5436   1.409   2.072  12.349  2.6326  2.4253  0.5972
  359MPD2    N1 5437   1.928   1.866  12.443 -0.6227 -0.0026 -0.1903
  359MPD2    H7 5438   1.889   1.773  12.435 -2.3657  0.5939  1.3053
  360TMC3    C1 5439   2.124   1.734  12.448 -0.1643 -0.6815  0.1950
  360TMC3    C2 5440   2.247   1.728  12.510  0.1007 -0.2098  0.1440
  360TMC3    C3 5441   2.345   1.676  12.437 -0.1884 -0.1165  0.4529
  360TMC3    C4 5442   2.084   1.669  12.333 -0.3214  0.5550 -0.5747
  360TMC3    C5 5443   2.185   1.596  12.275  0.6031 -0.0733  0.3999
  360TMC3    C6 5444   2.315   1.597  12.329 -0.0632  0.2053 -0.8517
  360TMC3     C 5445   2.059   1.863  12.480  0.2544 -0.1073  0.1694
  360TMC3     O 5446   2.132   1.952  12.514  0.1484 -0.1203  0.1084
  360TMC3     H 5447   2.277   1.797  12.588 -1.1679 -1.2197  1.5367
  360TMC3    H1 5448   2.002   1.700  12.270 -0.7363 -0.5962 -0.6024
  360TMC3    H2 5449   2.390   1.552  12.265 -0.0748  1.8181 -2.0215
  360TMC3    C7 5450   2.173   1.563  12.138  0.2083 -0.0146  0.4005
  360TMC3    C8 5451   2.461   1.762  12.431 -0.7172 -0.2386  0.2121
  360TMC3    O1 5452   2.272   1.571  12.060  0.0696 -0.7321  0.4393
  360TMC3    O2 5453   2.457   1.862  12.499 -0.1928  0.0577 -0.9336
  361MPD2     C 5454   3.557   1.418  16.988 -0.0438  0.3007  0.7878
  361MPD2    C1 5455   3.545   1.355  16.865 -0.2372  0.2080  0.1856
  361MPD2    C2 5456   3.614   1.238  16.841  0.7674 -0.5660  0.5501
  361MPD2    C3 5457   3.678   1.174  16.946  0.5677 -0.4091 -0.2071
  361MPD2    C4 5458   3.679   1.234  17.068  0.1345 -0.3610 -0.6231
  361MPD2    C5 5459   3.620   1.349  17.091 -0.7991  0.2116  0.3832
  361MPD2     H 5460   3.595   1.182  16.750  0.3808  0.2791  0.1153
  361MPD2    H1 5461   3.726   1.188  17.154 -1.5436 -1.2885 -0.2029
  361MPD2    H2 5462   3.504   1.507  17.020 -0.0812  0.2351  0.9073
  361MPD2    H3 5463   3.632   1.388  17.192 -0.5974 -0.5400  0.6429
  361MPD2     N 5464   3.757   1.054  16.940  0.1465  0.2441 -0.7871
  361MPD2    H5 5465   3.807   1.028  17.025  0.6620 -0.1422 -1.2109
  361MPD2    N1 5466   3.461   1.415  16.763  0.3394 -0.0422 -0.2345
  361MPD2    H7 5467   3.462   1.381  16.668 -1.0629  0.6130 -0.4786
  362TMC3    C1 5468   3.306   1.555  16.661  0.3837  0.5783  0.2293
  362TMC3    C2 5469   3.170   1.541  16.670 -0.1034  1.3689 -0.6872
  362TMC3    C3 5470   3.099   1.497  16.566  0.6445  0.0748 -0.0954
  362TMC3    C4 5471   3.369   1.552  16.538  0.2829  0.2006  0.5952
  362TMC3    C5 5472   3.290   1.515  16.434 -0.4354 -0.1223  0.3425
  362TMC3    C6 5473   3.153   1.482  16.444 -0.2045  0.0835  0.3584
  362TMC3     C 5474   3.381   1.525  16.781 -0.2046 -0.2884 -0.4136
  362TMC3     O 5475   3.347   1.572  16.886 -0.1801 -0.2249 -0.0644
  362TMC3     H 5476   3.123   1.532  16.768  0.3948  0.8540 -0.4970
  362TMC3    H1 5477   3.476   1.563  16.530  0.5257 -1.8755  0.9039
  362TMC3    H2 5478   3.093   1.444  16.362  0.9345 -0.0405 -0.4150
  362TMC3    C7 5479   3.308   1.597  16.317  0.0265  0.0934 -0.0072
  362TMC3    C8 5480   2.961   1.453  16.577 -0.3125 -0.0462  0.4320
  362TMC3    O1 5481   3.203   1.623  16.259 -0.5458 -0.0735  0.3676
  362TMC3    O2 5482   2.933   1.355  16.509  0.3091 -0.5611 -0.1321
  363TMC3    C1 5483   1.867   2.888   9.171  0.5185  0.9805  0.3945
  363TMC3    C2 5484   1.926   2.892   9.294  0.1505 -0.1446  0.3565
  363TMC3    C3 5485   1.874   2.966   9.398  0.0321  1.0746  0.3001
  363TMC3    C4 5486   1.754   2.966   9.142 -0.8829  0.1034  0.0129
  363TMC3    C5 5487   1.699   3.033   9.254  0.3732 -0.4742 -0.1515
  363TMC3    C6 5488   1.761   3.034   9.382  0.4694  1.2075 -0.0662
  363TMC3     C 5489   1.916   2.783   9.086  0.5548 -0.0388  0.1781
  363TMC3     O 5490   1.971   2.687   9.130 -0.3024  0.8402 -0.6878
  363TMC3     H 5491   2.014   2.830   9.303  0.0652 -0.3190  0.0027
  363TMC3    H1 5492   1.697   2.953   9.051 -0.4749 -0.1756 -0.2062
  363TMC3    H2 5493   1.725   3.090   9.467 -0.1244  1.8790 -0.7672
  363TMC3    C7 5494   1.603   3.139   9.221 -0.6949  0.2921 -1.0506
  363TMC3    C8 5495   1.939   2.958   9.528 -0.6535 -0.2091 -0.3311
  363TMC3    O1 5496   1.582   3.166   9.100  0.0777  0.2629 -0.4029
  363TMC3    O2 5497   1.917   3.048   9.607 -0.2816  0.3067 -0.3746
  364MPD2     C 5498   0.767   2.550  10.834  0.4397 -0.3781  0.7740
  364MPD2    C1 5499   0.863   2.508  10.742 -0.1060  0.4804  0.0429
  364MPD2    C2 5500   0.928   2.387  10.762 -0.4756  0.0686  0.9789
  364MPD2    C3 5501   0.904   2.309  10.877  0.1105  0.3112  0.4591
  364MPD2    C4 5502   0.812   2.354  10.967 -0.7686  0.5644  0.3077
  364MPD2    C5 5503   0.740   2.468  10.940  0.1213 -0.6902  0.8407
  364MPD2     H 5504   0.995   2.351  10.686 -1.3063 -0.1430  0.3419
  364MPD2    H1 5505   0.791   2.291  11.053 -0.6770 -0.3784 -0.3670
  364MPD2    H2 5506   0.714   2.642  10.812 -0.0973 -0.3283  2.2905
  364MPD2    H3 5507   0.658   2.500  11.003 -1.0905  0.6334 -1.4070
  364MPD2     N 5508   0.975   2.187  10.909 -0.2706  0.5280 -0.3202
  364MPD2    H5 5509   0.956   2.147  11.000 -0.6532  2.1781  0.3343
  364MPD2    N1 5510   0.894   2.595  10.632 -0.7132 -0.0315 -0.5731
  364MPD2    H7 5511   0.830   2.673  10.619 -1.0231 -0.5900 -2.3147
  365TMC3    C1 5512   1.006   2.681  10.441 -0.2771 -0.9207 -0.2381
  365TMC3    C2 5513   1.071   2.655  10.325 -0.4265 -0.2323  0.6463
  365TMC3    C3 5514   1.035   2.733  10.214 -0.8275  0.2522  0.2575
  365TMC3    C4 5515   0.917   2.782  10.450  0.4308 -0.6074  0.3549
  365TMC3    C5 5516   0.880   2.854  10.341  0.4064  0.1573  0.2237
  365TMC3    C6 5517   0.942   2.832  10.217 -0.1340  0.1363  0.7259
  365TMC3     C 5518   1.007   2.588  10.556  0.1526  0.1111 -0.0956
  365TMC3     O 5519   1.090   2.501  10.550 -0.3986 -0.0857  0.0930
  365TMC3     H 5520   1.138   2.571  10.320  0.3946  0.4539  0.2298
  365TMC3    H1 5521   0.888   2.822  10.546  2.1014  1.0152  0.2029
  365TMC3    H2 5522   0.940   2.910  10.142  1.7003 -0.9221 -0.4246
  365TMC3    C7 5523   0.855   3.000  10.357 -0.4328 -0.2141 -0.1925
  365TMC3    C8 5524   1.106   2.715  10.083  0.1324  0.1764  0.0159
  365TMC3    O1 5525   0.898   3.081  10.270  0.9326  0.1906 -0.1923
  365TMC3    O2 5526   1.047   2.772   9.987 -0.0887  0.4478  0.5897
  366MPD2     C 5527   3.819   3.908  15.076 -0.2758  0.3023 -0.6335
  366MPD2    C1 5528   3.909   4.016  15.101 -0.0489 -0.3181 -0.1014
  366MPD2    C2 5529   4.049   3.984  15.080  0.0577 -0.0104 -0.5155
  366MPD2    C3 5530   4.087   3.871  15.021 -0.4010  0.1380 -0.0748
  366MPD2    C4 5531   3.996   3.769  15.002 -0.0431  0.4717 -0.4585
  366MPD2    C5 5532   3.864   3.780  15.038  0.0229 -0.1413  0.1158
  366MPD2     H 5533   4.117   4.067  15.097 -1.1654  1.3007 -2.0079
  366MPD2    H1 5534   4.023   3.675  14.954 -0.5622 -0.2101  0.5863
  366MPD2    H2 5535   3.713   3.928  15.081 -0.2740  0.0978  0.1710
  366MPD2    H3 5536   3.804   3.693  15.014  2.9525 -1.4867 -2.3172
  366MPD2     N 5537   4.229   3.856  14.993 -0.7215 -0.1080 -0.4847
  366MPD2    H5 5538   4.286   3.937  15.016 -1.4785  0.6131 -1.1182
  366MPD2    N1 5539   3.869   4.143  15.154 -0.2005  0.0017  0.3320
  366MPD2    H7 5540   3.945   4.206  15.179 -0.1410  0.8394 -1.9214
  367TMC3    C1 5541   3.744   4.339  15.169  0.2177  0.0403 -0.2219
  367TMC3    C2 5542   3.810   4.382  15.286  0.4442  0.2145  0.1356
  367TMC3    C3 5543   3.804   4.515  15.319  0.6130 -0.3381  0.2030
  367TMC3    C4 5544   3.685   4.424  15.082  0.4947 -0.3060  0.2773
  367TMC3    C5 5545   3.667   4.553  15.124  0.0573 -0.0141  0.8105
  367TMC3    C6 5546   3.736   4.601  15.236 -0.5003 -0.1995 -0.3372
  367TMC3     C 5547   3.739   4.196  15.134  0.3661  0.0760  0.0737
  367TMC3     O 5548   3.640   4.150  15.088 -0.1548 -0.4488 -0.5080
  367TMC3     H 5549   3.861   4.321  15.360  1.1623 -0.6523 -1.0532
  367TMC3    H1 5550   3.627   4.376  15.004  1.4423  1.2860 -1.3981
  367TMC3    H2 5551   3.721   4.701  15.276  0.5110 -0.2898  0.2689
  367TMC3    C7 5552   3.618   4.659  15.035 -0.1099 -0.5308 -0.4985
  367TMC3    C8 5553   3.899   4.563  15.416 -0.3100  0.0609  0.3018
  367TMC3    O1 5554   3.599   0.030  15.087  0.2042  0.0289  0.2882
  367TMC3    O2 5555   3.926   4.491  15.510 -0.6935 -0.1076  0.1619
  368MPD2     C 5556   0.421   0.969  13.154  0.2485 -0.6862 -0.2352
  368MPD2    C1 5557   0.459   1.071  13.067  0.1341 -0.2394 -0.5854
  368MPD2    C2 5558   0.590   1.114  13.057 -0.5861  0.5103 -0.1312
  368MPD2    C3 5559   0.685   1.046  13.130  0.2130  0.4983 -0.4837
  368MPD2    C4 5560   0.650   0.946  13.213  0.2028 -0.2603 -0.4124
  368MPD2    C5 5561   0.518   0.908  13.224  0.5382 -0.2215 -0.0850
  368MPD2     H 5562   0.607   1.198  12.990 -1.2221  0.1411 -0.7648
  368MPD2    H1 5563   0.734   0.902  13.267 -1.2191 -1.3815  0.8906
  368MPD2    H2 5564   0.318   0.936  13.145 -0.2208  0.9536 -0.7896
  368MPD2    H3 5565   0.488   0.836  13.299  0.5158  1.5994  1.6636
  368MPD2     N 5566   0.827   1.069  13.118  0.3150  0.2706  0.6469
  368MPD2    H5 5567   0.891   1.008  13.169 -1.6554 -1.5043  1.0242
  368MPD2    N1 5568   0.353   1.121  12.978  0.4216  0.3047  0.3966
  368MPD2    H7 5569   0.267   1.068  12.975  0.5166  0.1278  0.7627
  369TMC3    C1 5570   0.234   1.232  12.807 -0.2550  0.1855  0.3785
  369TMC3    C2 5571   0.181   1.353  12.773  0.0826 -0.0725  0.0661
  369TMC3    C3 5572   0.070   1.357  12.692 -0.6899 -0.1456  0.2679
  369TMC3    C4 5573   0.183   1.116  12.754  0.1464 -0.1733 -0.7434
  369TMC3    C5 5574   0.064   1.124  12.684  0.2407 -0.9425 -0.8906
  369TMC3    C6 5575   0.008   1.243  12.650  0.1969 -0.7777 -0.6044
  369TMC3     C 5576   0.356   1.217  12.884  0.6022 -0.2918  0.2124
  369TMC3     O 5577   0.429   1.313  12.869 -0.3417  0.8442 -0.0474
  369TMC3     H 5578   0.208   1.440  12.831 -1.8083 -0.0809  0.9726
  369TMC3    H1 5579   0.232   1.021  12.774  0.4364 -0.1643 -1.4130
  369TMC3    H2 5580   4.654   1.242  12.591 -0.4609 -4.4135  0.4805
  369TMC3    C7 5581   4.736   0.996  12.655  0.2321  0.5943 -0.4124
  369TMC3    C8 5582   0.026   1.484  12.642  0.5097 -0.0659 -0.0079
  369TMC3    O1 5583   0.046   0.904  12.717  0.3851  0.0726 -0.4156
  369TMC3    O2 5584   4.645   1.506  12.618  0.3232 -0.0961 -0.3494
  370TMC3    C1 5585   4.566   1.954  16.317  0.1814 -0.1468 -0.1017
  370TMC3    C2 5586   4.522   1.894  16.436  0.3199  0.3939  0.4405
  370TMC3    C3 5587   4.427   1.789  16.434  0.3582  0.3637  0.1874
  370TMC3    C4 5588   4.522   1.898  16.199  0.4104 -0.3530  0.0099
  370TMC3    C5 5589   4.438   1.789  16.206 -0.3962  0.3205 -0.1755
  370TMC3    C6 5590   4.384   1.733  16.313  0.1217  0.7374  0.8367
  370TMC3     C 5591   4.600   2.091  16.330  0.1995  0.4052 -0.2900
  370TMC3     O 5592   4.574   2.137  16.442  0.1811  0.1728 -0.1991
  370TMC3     H 5593   4.574   1.918  16.527 -1.0245  5.3466 -0.0706
  370TMC3    H1 5594   4.556   1.939  16.104 -0.2602 -3.2915 -1.5015
  370TMC3    H2 5595   4.327   1.641  16.315 -1.1403  1.5274  1.8853
  370TMC3    C7 5596   4.441   1.703  16.086  0.3384  0.1536  0.8706
  370TMC3    C8 5597   4.383   1.732  16.561  0.2838  0.7070 -0.4989
  370TMC3    O1 5598   4.535   1.718  16.014 -0.6835  0.1246 -0.0754
  370TMC3    O2 5599   4.328   1.625  16.548 -0.6219 -0.1718 -0.7515
  371TMC3    C1 5600   0.839   0.120  15.584 -0.3341  0.0153 -0.2183
  371TMC3    C2 5601   0.697   0.121  15.607 -0.0236 -0.1610  0.7577
  371TMC3    C3 5602   0.645   0.241  15.631  0.5267 -0.4670  0.3623
  371TMC3    C4 5603   0.919   0.228  15.602 -0.1634  0.6353 -0.1575
  371TMC3    C5 5604   0.855   0.345  15.631 -0.4447 -0.3132 -0.2008
  371TMC3    C6 5605   0.721   0.351  15.649  0.6153  0.2465  0.4190
  371TMC3     C 5606   0.898   0.034  15.484 -0.6164 -0.1276  0.0219
  371TMC3     O 5607   1.001   0.068  15.425  0.3411  0.0493  0.0357
  371TMC3     H 5608   0.634   0.038  15.576  0.4392 -0.1220 -0.2684
  371TMC3    H1 5609   1.025   0.218  15.581 -0.4316 -1.2150 -0.6452
  371TMC3    H2 5610   0.682   0.446  15.684  2.4067  0.8789  0.7086
  371TMC3    C7 5611   0.928   0.467  15.604 -0.2657  0.1837 -0.0486
  371TMC3    C8 5612   0.516   0.262  15.570 -0.2090 -0.1342 -0.7070
  371TMC3    O1 5613   0.862   0.558  15.546  0.5707  0.0495  0.6012
  371TMC3    O2 5614   0.478   0.185  15.480 -0.5757  0.0156  0.3519
  372MPD2     C 5615   1.287   1.734  13.515 -0.0289  0.2402  0.3338
  372MPD2    C1 5616   1.283   1.661  13.635 -0.0593  0.6020 -0.8801
  372MPD2    C2 5617   1.298   1.519  13.635  0.6301  0.0629  0.6665
  372MPD2    C3 5618   1.311   1.442  13.522 -0.6711 -0.6183 -0.2058
  372MPD2    C4 5619   1.306   1.518  13.410  0.0704  0.5379  0.0033
  372MPD2    C5 5620   1.304   1.654  13.405  0.0788  0.9714 -0.2805
  372MPD2     H 5621   1.297   1.467  13.730 -1.3195  0.9656  1.1476
  372MPD2    H1 5622   1.318   1.472  13.312 -0.2723  0.5802 -0.0576
  372MPD2    H2 5623   1.299   1.842  13.516  1.6306  0.0503  0.2356
  372MPD2    H3 5624   1.316   1.706  13.310  2.8068  0.1529 -0.3932
  372MPD2     N 5625   1.316   1.303  13.525  0.4625 -0.1127  0.1844
  372MPD2    H5 5626   1.297   1.260  13.615  0.2264  0.6551  0.5015
  372MPD2    N1 5627   1.252   1.722  13.762 -0.3104 -0.4165  0.6483
  372MPD2    H7 5628   1.287   1.687  13.851  0.8672 -0.1900  0.2733
  373TMC3    C1 5629   1.340   1.087  13.433  0.1591  0.5264  0.1324
  373TMC3    C2 5630   1.375   1.035  13.553 -0.1353  0.4965  0.1662
  373TMC3    C3 5631   1.390   0.896  13.563 -0.2880  0.8940  0.2268
  373TMC3    C4 5632   1.345   1.010  13.319 -0.8268  0.3005 -0.2640
  373TMC3    C5 5633   1.373   0.880  13.331  0.2442  0.0426  0.6123
  373TMC3    C6 5634   1.385   0.821  13.448  0.1325 -0.5747  0.1200
  373TMC3     C 5635   1.325   1.231  13.410 -0.1229 -0.3182 -1.0657
  373TMC3     O 5636   1.339   1.268  13.296  0.4475 -0.2966 -0.1513
  373TMC3     H 5637   1.388   1.102  13.638  0.3625  1.3934 -0.6196
  373TMC3    H1 5638   1.329   1.051  13.219 -2.0341 -0.2861 -0.3128
  373TMC3    H2 5639   1.403   0.715  13.463  1.1159 -0.9550 -3.6594
  373TMC3    C7 5640   1.378   0.797  13.217  0.0420 -0.5083 -0.2982
  373TMC3    C8 5641   1.393   0.846  13.702  0.0406 -0.7862 -0.3306
  373TMC3    O1 5642   1.301   0.811  13.122 -0.6898 -0.3837 -0.3679
  373TMC3    O2 5643   1.363   0.926  13.786  0.3569  0.1017  0.7431
  374TMC3    C1 5644   1.293   1.208   9.772  0.3048  0.7279  0.3770
  374TMC3    C2 5645   1.416   1.268   9.777  0.2476  0.6167 -0.0152
  374TMC3    C3 5646   1.431   1.379   9.695  0.3752  0.1004 -0.4623
  374TMC3    C4 5647   1.198   1.248   9.691 -0.3667 -0.0791 -0.4839
  374TMC3    C5 5648   1.217   1.346   9.602  0.4620  0.8327 -0.3333
  374TMC3    C6 5649   1.332   1.419   9.604 -0.2156 -0.2724 -0.6157
  374TMC3     C 5650   1.250   1.104   9.865 -0.5803 -0.3390 -0.2430
  374TMC3     O 5651   1.139   1.060   9.859  0.0040  0.1267 -0.4628
  374TMC3     H 5652   1.497   1.218   9.829 -0.9368 -2.1658 -0.8372
  374TMC3    H1 5653   1.107   1.190   9.684  0.5115 -1.3725 -1.0571
  374TMC3    H2 5654   1.345   1.496   9.529  0.9960 -0.0126 -0.1316
  374TMC3    C7 5655   1.105   1.400   9.522 -0.2555 -0.2779  0.5309
  374TMC3    C8 5656   1.552   1.465   9.707 -0.9071 -0.1247  0.0173
  374TMC3    O1 5657   1.135   1.483   9.438 -0.0107  0.1122  0.4781
  374TMC3    O2 5658   1.569   1.548   9.619  0.6699  0.6135 -0.1474
  375MPD2     C 5659   1.294   2.435  17.012 -0.2212  0.2767  0.1603
  375MPD2    C1 5660   1.226   2.424  16.891 -0.0619 -0.6478  0.1981
  375MPD2    C2 5661   1.272   2.338  16.795  0.0738  0.0483  0.8397
  375MPD2    C3 5662   1.385   2.257  16.818  0.4183 -0.1606  0.4481
  375MPD2    C4 5663   1.454   2.278  16.938 -0.8353 -0.0201 -0.8404
  375MPD2    C5 5664   1.409   2.365  17.035 -0.2245  0.4937 -1.0687
  375MPD2     H 5665   1.222   2.333  16.698 -0.2904  1.6890  0.9356
  375MPD2    H1 5666   1.541   2.220  16.967 -0.6443  0.3011 -0.7658
  375MPD2    H2 5667   1.252   2.497  17.091 -1.1050 -1.0025  0.6815
  375MPD2    H3 5668   1.466   2.384  17.125 -1.8642  2.3043 -0.4221
  375MPD2     N 5669   1.434   2.159  16.722  0.1774  0.9311 -0.4468
  375MPD2    H5 5670   1.521   2.110  16.737 -0.3895 -0.1214 -0.5885
  375MPD2    N1 5671   1.106   2.496  16.867 -0.8929 -0.2816  0.4462
  375MPD2    H7 5672   1.061   2.474  16.779 -1.7079  0.5788  0.6454
  376TMC3    C1 5673   1.416   2.012  16.532  0.1778  0.1756 -0.5194
  376TMC3    C2 5674   1.545   2.046  16.491  0.2384  0.4319  0.0861
  376TMC3    C3 5675   1.566   2.042  16.357  0.3566  0.0101  0.3819
  376TMC3    C4 5676   1.325   1.951  16.447 -0.1770  0.6538 -0.1933
  376TMC3    C5 5677   1.363   1.944  16.314  0.2879 -0.5430 -0.4658
  376TMC3    C6 5678   1.481   1.993  16.263  0.2006 -0.0601 -0.4780
  376TMC3     C 5679   1.353   2.099  16.632 -0.4011 -0.4560  0.2828
  376TMC3     O 5680   1.230   2.105  16.634  0.1322  0.2099 -0.5181
  376TMC3     H 5681   1.608   2.104  16.558  1.6187 -1.5023  0.4713
  376TMC3    H1 5682   1.221   1.939  16.473 -0.2022 -0.0239 -0.5935
  376TMC3    H2 5683   1.505   1.989  16.158  0.4577 -0.5633 -0.3987
  376TMC3    C7 5684   1.252   1.932  16.222  1.0625 -0.6005 -0.2127
  376TMC3    C8 5685   1.701   2.056  16.304 -0.1046  0.2128  0.1073
  376TMC3    O1 5686   1.165   1.855  16.260 -0.4024 -0.2627 -0.4555
  376TMC3    O2 5687   1.736   2.056  16.186  0.6407 -0.4230 -0.0352
  377MPD2     C 5688   4.615   1.526  12.149 -0.3169  0.1195  0.1790
  377MPD2    C1 5689   4.525   1.433  12.108 -0.0923  0.2599 -0.6063
  377MPD2    C2 5690   4.402   1.404  12.173  0.0394  0.0664 -0.3656
  377MPD2    C3 5691   4.375   1.466  12.290  0.6429 -0.4075  0.4536
  377MPD2    C4 5692   4.468   1.548  12.338 -0.4526  0.5214 -1.0135
  377MPD2    C5 5693   4.583   1.585  12.267  0.1778  0.1481 -0.0059
  377MPD2     H 5694   4.341   1.334  12.118  1.5546  0.4010 -2.4483
  377MPD2    H1 5695   4.459   1.586  12.439 -2.7727  0.7140 -1.2860
  377MPD2    H2 5696   4.695   1.564  12.087  2.2951 -1.9866  2.2546
  377MPD2    H3 5697   4.652   1.654  12.313  0.0304 -0.6655  1.4411
  377MPD2     N 5698   4.260   1.441  12.363  0.2751 -0.0316 -0.2793
  377MPD2    H5 5699   4.240   1.487  12.451  0.5248  0.8799 -0.7006
  377MPD2    N1 5700   4.572   1.359  11.997 -0.3903  0.5732  0.5196
  377MPD2    H7 5701   4.665   1.375  11.961  0.2363 -1.1190  1.3996
  378TMC3    C1 5702   4.568   1.097  11.609 -0.7233 -0.3497  0.1098
  378TMC3    C2 5703   4.499   1.157  11.713  0.1102 -0.1603  0.2857
  378TMC3    C3 5704   4.577   1.221  11.803  0.2564  0.0857  0.2833
  378TMC3    C4 5705   4.705   1.108  11.595  0.3919  1.1141 -0.0588
  378TMC3    C5 5706   0.034   1.180  11.696  0.6520  0.2436 -0.0783
  378TMC3    C6 5707   4.715   1.228  11.809  0.0265  0.3115  0.1133
  378TMC3     C 5708   4.492   1.016  11.515 -0.4131 -0.0830  0.3800
  378TMC3     O 5709   4.373   1.016  11.505 -0.6879 -0.0988 -0.3772
  378TMC3     H 5710   4.391   1.155  11.724 -0.0015 -1.3955 -1.0312
  378TMC3    H1 5711   0.013   1.075  11.501 -1.1759  0.3929 -0.5543
  378TMC3    H2 5712   0.027   1.294  11.880  2.5170  0.3125 -1.6122
  378TMC3    C7 5713   0.182   1.172  11.699 -0.4013 -0.1217  0.2452
  378TMC3    C8 5714   4.497   1.274  11.914 -0.8395  0.3520 -0.3240
  378TMC3    O1 5715   0.239   1.175  11.807 -0.3172 -0.0125 -0.0356
  378TMC3    O2 5716   4.373   1.271  11.917 -0.2175  0.4246  0.3419
  379MPD2     C 5717   4.632   4.527  16.341 -0.6571 -0.2013 -0.3397
  379MPD2    C1 5718   4.729   4.498  16.251 -0.2317 -0.0260 -0.4598
  379MPD2    C2 5719   0.122   4.473  16.297  0.2251 -0.7422  0.4588
  379MPD2    C3 5720   0.146   4.490  16.436  0.1103 -0.4983  0.2924
  379MPD2    C4 5721   0.042   4.516  16.518 -0.2767 -0.6598  0.0211
  379MPD2    C5 5722   4.659   4.545  16.472  0.3345  0.1915  0.0608
  379MPD2     H 5723   0.206   4.462  16.230 -0.5476  1.9886 -1.0029
  379MPD2    H1 5724   0.051   4.537  16.625  0.4736  1.0929 -0.3821
  379MPD2    H2 5725   4.529   4.542  16.312 -0.3760  1.1220 -0.6161
  379MPD2    H3 5726   4.580   4.565  16.543 -0.0521 -0.9414 -0.0535
  379MPD2     N 5727   0.262   4.456  16.501  0.1078 -0.2666 -0.2953
  379MPD2    H5 5728   0.249   4.463  16.602  1.1150 -0.8506 -0.1179
  379MPD2    N1 5729   4.685   4.497  16.120 -0.9122 -0.2180 -0.4810
  379MPD2    H7 5730   4.597   4.534  16.087 -0.9614  1.1467  1.2072
  380TMC3    C1 5731   4.676   4.472  15.896 -0.2521 -0.6433 -0.0873
  380TMC3    C2 5732   4.689   4.371  15.804 -0.1916  0.0877 -0.0233
  380TMC3    C3 5733   4.615   4.377  15.689  0.3287  0.2746  0.6129
  380TMC3    C4 5734   4.584   4.574  15.874 -0.4845 -0.7480 -0.3985
  380TMC3    C5 5735   4.523   4.583  15.752 -0.4671 -0.4874  0.1596
  380TMC3    C6 5736   4.534   4.483  15.658 -0.3571  0.4778 -0.1584
  380TMC3     C 5737   0.025   4.462  16.013 -0.7041 -0.4553  0.2143
  380TMC3     O 5738   0.139   4.415  16.002 -0.5784 -0.1547 -0.8318
  380TMC3     H 5739   0.034   4.303  15.823 -0.3459 -0.0555  0.1257
  380TMC3    H1 5740   4.579   4.662  15.938  0.4315 -1.0727  0.1167
  380TMC3    H2 5741   4.481   4.502  15.565  0.7575  0.2428 -0.8461
  380TMC3    C7 5742   4.443   4.697  15.727  0.2724 -0.3426 -0.2017
  380TMC3    C8 5743   4.673   4.322  15.567  0.1484 -0.7576 -0.2616
  380TMC3    O1 5744   4.469   0.069  15.778 -0.1948 -0.2147  0.0766
  380TMC3    O2 5745   4.612   4.343  15.463  0.0372 -0.1915  0.0895
  381TMC3    C1 5746   4.220   0.922  16.152 -0.6769  0.1948 -0.0294
  381TMC3    C2 5747   4.283   1.042  16.140  0.5364 -0.7836  0.8844
  381TMC3    C3 5748   4.292   1.129  16.244 -0.1025  0.0050  1.0006
  381TMC3    C4 5749   4.160   0.895  16.269  0.0239  0.7034 -0.1677
  381TMC3    C5 5750   4.170   0.980  16.373  0.6856 -1.2294  0.0573
  381TMC3    C6 5751   4.242   1.092  16.368  0.1185 -0.8654 -0.3749
  381TMC3     C 5752   4.258   0.817  16.064 -0.5267 -0.5102 -0.2213
  381TMC3     O 5753   4.179   0.723  16.058 -0.0772 -0.0453  0.3609
  381TMC3     H 5754   4.333   1.069  16.048  1.4213 -0.5420  1.4430
  381TMC3    H1 5755   4.117   0.797  16.289  0.3797  0.4682 -0.5335
  381TMC3    H2 5756   4.240   1.161  16.452 -2.2091  2.3032 -3.0393
  381TMC3    C7 5757   4.175   0.922  16.501 -0.7101 -0.3147 -0.4222
  381TMC3    C8 5758   4.425   1.192  16.246  0.2357  0.3245 -0.2374
  381TMC3    O1 5759   4.226   0.814  16.516  0.1749  0.3113  0.2216
  381TMC3    O2 5760   4.510   1.147  16.170 -1.0389 -0.4427 -0.4706
  382MPD2     C 5761   4.129   3.673  16.677 -0.2088 -0.3677 -0.1661
  382MPD2    C1 5762   4.017   3.737  16.729  0.6968  0.1022 -0.1457
  382MPD2    C2 5763   3.915   3.657  16.780 -0.3656 -0.0944  0.5590
  382MPD2    C3 5764   3.920   3.518  16.793  0.1103  0.0080  0.1959
  382MPD2    C4 5765   4.024   3.459  16.728 -0.1479  0.4890  0.3138
  382MPD2    C5 5766   4.126   3.538  16.670 -0.2296  0.0977 -0.3504
  382MPD2     H 5767   3.827   3.709  16.815 -0.8378 -0.8650  0.5077
  382MPD2    H1 5768   4.034   3.351  16.727 -0.9611  0.4318 -2.4488
  382MPD2    H2 5769   4.215   3.721  16.630  0.1863 -1.5716 -0.6885
  382MPD2    H3 5770   4.207   3.482  16.625  0.3212 -0.3081  1.1497
  382MPD2     N 5771   3.826   3.434  16.847  0.0007 -0.7033  0.2324
  382MPD2    H5 5772   3.839   3.333  16.841 -1.0869 -0.9105  1.2555
  382MPD2    N1 5773   3.998   3.878  16.732 -0.0249  0.4390  0.5456
  382MPD2    H7 5774   3.906   3.910  16.763 -0.0800 -0.7157  1.6120
  383TMC3    C1 5775   3.663   3.365  17.009  0.4508  0.4983 -0.2781
  383TMC3    C2 5776   3.633   3.250  16.945 -0.4018  0.1638  0.4279
  383TMC3    C3 5777   3.526   3.174  16.975  0.2372 -0.8128 -0.0958
  383TMC3    C4 5778   3.591   3.401  17.118  0.0818 -0.3461 -0.0062
  383TMC3    C5 5779   3.487   3.318  17.165  0.0752  0.7846 -0.7685
  383TMC3    C6 5780   3.442   3.214  17.080  0.4619 -0.3928  0.5080
  383TMC3     C 5781   3.728   3.470  16.942  0.2578 -0.3363 -0.0593
  383TMC3     O 5782   3.705   3.587  16.978  0.0528  0.3262  0.4295
  383TMC3     H 5783   3.695   3.222  16.861  1.3322  3.0540  0.7446
  383TMC3    H1 5784   3.622   3.486  17.178 -0.0995  0.3201 -0.8642
  383TMC3    H2 5785   3.343   3.174  17.098 -0.0051  0.6203  0.2061
  383TMC3    C7 5786   3.416   3.344  17.286  0.7463 -0.8238 -0.4482
  383TMC3    C8 5787   3.500   3.049  16.916 -0.2601 -0.3660 -0.1718
  383TMC3    O1 5788   3.305   3.294  17.290 -0.5431 -0.3964 -0.7130
  383TMC3    O2 5789   3.590   2.979  16.876 -0.1948  0.3392  0.3842
  384MPD2     C 5790   1.155   4.324  12.320 -0.4836  0.2253 -0.1170
  384MPD2    C1 5791   1.107   4.194  12.316  0.4454 -0.1519  0.0681
  384MPD2    C2 5792   1.122   4.122  12.204 -0.3881  0.6987  0.7264
  384MPD2    C3 5793   1.194   4.164  12.097 -0.6169 -0.9770  0.0446
  384MPD2    C4 5794   1.243   4.293  12.094  0.0002  0.2044  0.0553
  384MPD2    C5 5795   1.225   4.366  12.207 -0.2357  1.0419  0.0206
  384MPD2     H 5796   1.083   4.021  12.205  0.3315  0.4174  0.2172
  384MPD2    H1 5797   1.289   4.332  12.003 -0.8254 -0.7811 -0.7857
  384MPD2    H2 5798   1.143   4.400  12.396  1.5147 -0.5514  0.9809
  384MPD2    H3 5799   1.267   4.465  12.205 -1.4131  1.5748  1.3559
  384MPD2     N 5800   1.201   4.075  11.990  0.6522  0.1151  0.4237
  384MPD2    H5 5801   1.163   3.981  11.996 -1.9550  1.1269 -0.1359
  384MPD2    N1 5802   1.020   4.135  12.414 -0.5551 -0.4646 -0.2371
  384MPD2    H7 5803   0.975   4.048  12.390 -0.3114 -0.3855 -0.9818
  385TMC3    C1 5804   1.162   4.011  11.784 -0.9331  0.1172  0.4073
  385TMC3    C2 5805   1.242   3.925  11.719 -0.6905 -0.0103 -0.5138
  385TMC3    C3 5806   1.199   3.800  11.715 -0.7397  0.3990 -0.3514
  385TMC3    C4 5807   1.037   3.980  11.841  0.0696 -0.1067  1.1177
  385TMC3    C5 5808   1.009   3.850  11.830 -0.4925 -0.0355  0.2263
  385TMC3    C6 5809   1.086   3.758  11.773 -0.0605 -0.0008  0.2552
  385TMC3     C 5810   1.226   4.109  11.863  0.3419  0.0139  0.4533
  385TMC3     O 5811   1.293   4.196  11.811 -0.2052  0.1605  0.6830
  385TMC3     H 5812   1.341   3.953  11.684 -0.5241  0.9409  0.7432
  385TMC3    H1 5813   0.973   4.052  11.890 -2.5850 -0.7149 -1.4408
  385TMC3    H2 5814   1.056   3.654  11.772 -2.0161  0.5731 -0.2607
  385TMC3    C7 5815   0.900   3.795  11.907 -0.0271  0.8153  0.1337
  385TMC3    C8 5816   1.255   3.716  11.602  0.1527  0.1521  0.2944
  385TMC3    O1 5817   0.927   3.706  11.987 -0.3189 -0.0530  0.4622
  385TMC3    O2 5818   1.350   3.765  11.545 -0.0155 -0.3117  0.0855
  386TMC3    C1 5819   0.616   1.534  11.735  0.0576 -0.3199  0.4430
  386TMC3    C2 5820   0.648   1.479  11.614 -0.3172 -0.7135 -0.2902
  386TMC3    C3 5821   0.546   1.458  11.522 -0.2683  0.1996  0.4946
  386TMC3    C4 5822   0.490   1.564  11.767 -0.1608  0.3382 -0.9924
  386TMC3    C5 5823   0.391   1.527  11.677 -0.0264  0.1778 -0.2382
  386TMC3    C6 5824   0.413   1.476  11.553 -0.2441  0.2390 -0.5186
  386TMC3     C 5825   0.699   1.491  11.847  0.3404 -0.2973 -0.0635
  386TMC3     O 5826   0.673   1.539  11.953 -0.0406 -0.5455 -0.0604
  386TMC3     H 5827   0.752   1.476  11.585  0.2493  3.3390  1.3711
  386TMC3    H1 5828   0.476   1.614  11.862  3.4313 -1.3883  0.4334
  386TMC3    H2 5829   0.333   1.455  11.482 -2.0828  2.1772  1.0030
  386TMC3    C7 5830   0.257   1.554  11.725  0.2635  0.8249 -0.0697
  386TMC3    C8 5831   0.572   1.430  11.383  0.1722  0.9075  0.0968
  386TMC3    O1 5832   0.246   1.590  11.841 -0.1821 -0.0653  0.4391
  386TMC3    O2 5833   0.477   1.470  11.322 -0.5472 -0.2795 -0.5039
  387MPD2     C 5834   3.317   1.986  10.026  0.1020 -0.6256  0.9729
  387MPD2    C1 5835   3.419   1.942  10.110  0.1794  0.8175  0.7356
  387MPD2    C2 5836   3.447   1.811  10.102  0.0319  0.2345  0.0710
  387MPD2    C3 5837   3.388   1.720  10.022  0.1467  0.0973  0.4537
  387MPD2    C4 5838   3.300   1.773   9.923  0.5415  0.6480  0.6654
  387MPD2    C5 5839   3.276   1.907   9.927 -0.4295 -0.0559  0.1843
  387MPD2     H 5840   3.515   1.766  10.174 -0.3506  0.0926  0.3454
  387MPD2    H1 5841   3.253   1.708   9.851 -1.3415  1.3865  1.2148
  387MPD2    H2 5842   3.292   2.092  10.021  1.4145 -0.3676 -0.2541
  387MPD2    H3 5843   3.202   1.946   9.857 -0.3350 -2.4259 -1.2363
  387MPD2     N 5844   3.411   1.584  10.049  0.8685  0.0235  0.4488
  387MPD2    H5 5845   3.484   1.571  10.118  0.9242 -3.4264 -0.2722
  387MPD2    N1 5846   3.479   2.026  10.208  1.0347 -0.2012  0.3935
  387MPD2    H7 5847   3.548   1.983  10.269  2.9274  1.6618 -0.4382
  388TMC3    C1 5848   3.521   2.184  10.363  0.4304 -0.0884 -0.0233
  388TMC3    C2 5849   3.461   2.275  10.444 -0.4800 -0.4371  0.5500
  388TMC3    C3 5850   3.488   2.273  10.572 -0.1856  0.3144 -0.2513
  388TMC3    C4 5851   3.609   2.091  10.418 -0.6208  0.1388  0.1555
  388TMC3    C5 5852   3.639   2.097  10.554 -0.5406  0.7746  0.1859
  388TMC3    C6 5853   3.578   2.191  10.630 -0.4132 -0.3825 -0.0187
  388TMC3     C 5854   3.461   2.161  10.231  1.3457 -0.0319 -0.3649
  388TMC3     O 5855   3.373   2.239  10.191 -0.3590 -0.1564  0.1579
  388TMC3     H 5856   3.393   2.347  10.399  2.0371  1.9492  0.5270
  388TMC3    H1 5857   3.666   2.028  10.351  2.2124  1.8295  0.9621
  388TMC3    H2 5858   3.588   2.190  10.738  2.1554 -1.7978 -0.2592
  388TMC3    C7 5859   3.690   1.976  10.616 -0.2141 -0.3204  0.1901
  388TMC3    C8 5860   3.421   2.381  10.642 -0.5351 -0.0456  0.4150
  388TMC3    O1 5861   3.765   1.976  10.710 -0.0501 -0.2014  0.6168
  388TMC3    O2 5862   3.333   2.444  10.582 -0.5341 -0.3023  0.3981
  389MPD2     C 5863   2.830   4.611  10.634 -0.2082 -0.7979 -0.4472
  389MPD2    C1 5864   2.851   4.511  10.537 -0.2860  0.4520  0.6507
  389MPD2    C2 5865   2.822   4.380  10.573 -0.4641  0.2800  0.3400
  389MPD2    C3 5866   2.770   4.351  10.705 -0.0820  0.8556  0.6383
  389MPD2    C4 5867   2.763   4.452  10.792  0.3178 -0.2614  0.5143
  389MPD2    C5 5868   2.792   4.581  10.760 -0.3142  0.3428  0.2946
  389MPD2     H 5869   2.823   4.298  10.503 -2.4602  0.4754  0.0853
  389MPD2    H1 5870   2.723   4.441  10.892 -0.6914  0.1965  0.1561
  389MPD2    H2 5871   2.864   4.711  10.609 -0.4956 -0.2206  1.5172
  389MPD2    H3 5872   2.782   4.647  10.845  1.9523  0.6388  0.3466
  389MPD2     N 5873   2.741   4.220  10.741  0.3374  0.4801  0.5995
  389MPD2    H5 5874   2.729   4.204  10.841  1.0671 -0.4686  0.5267
  389MPD2    N1 5875   2.903   4.552  10.415 -0.8977 -0.1353  0.1251
  389MPD2    H7 5876   2.924   4.650  10.405 -3.9071  0.5447  0.6445
  390TMC3    C1 5877   2.685   3.989  10.747  1.2104 -0.3615 -0.3749
  390TMC3    C2 5878   2.738   3.970  10.876 -0.3980  0.3526 -0.2606
  390TMC3    C3 5879   2.691   3.862  10.949 -0.4084  0.5360 -0.6613
  390TMC3    C4 5880   2.616   3.891  10.676 -0.3645 -0.4874  0.0302
  390TMC3    C5 5881   2.572   3.790  10.751 -0.5144  0.6327  0.2339
  390TMC3    C6 5882   2.598   3.780  10.883  0.6929 -1.0577  0.9538
  390TMC3     C 5883   2.712   4.108  10.665 -0.2745  0.4867 -0.2018
  390TMC3     O 5884   2.663   4.114  10.551  0.0391 -0.4420 -0.0652
  390TMC3     H 5885   2.786   4.056  10.921 -0.7965  0.7074 -0.5063
  390TMC3    H1 5886   2.582   3.907  10.574 -0.7676 -1.0653  0.0707
  390TMC3    H2 5887   2.559   3.688  10.925 -1.8647 -0.2395  0.3455
  390TMC3    C7 5888   2.470   3.710  10.695  0.4323 -0.4176  0.6981
  390TMC3    C8 5889   2.692   3.875  11.094  0.0161  0.0193  0.0056
  390TMC3    O1 5890   2.487   3.673  10.579  0.0250 -0.0104  1.1936
  390TMC3    O2 5891   2.799   3.911  11.149  0.3020  0.3945  1.0314
  391MPD2     C 5892   1.864   1.180  11.199  0.0550  0.9983  0.1958
  391MPD2    C1 5893   1.987   1.234  11.189  0.0600 -0.7962  0.1474
  391MPD2    C2 5894   2.032   1.262  11.061  0.0404  0.0388  0.2581
  391MPD2    C3 5895   1.959   1.236  10.943 -0.9627  0.1740 -0.5690
  391MPD2    C4 5896   1.827   1.194  10.966  0.5687 -0.2895  0.2008
  391MPD2    C5 5897   1.781   1.160  11.087 -0.1002  0.9483  0.1501
  391MPD2     H 5898   2.131   1.302  11.046 -0.7268  1.9379  0.2400
  391MPD2    H1 5899   1.762   1.180  10.880  0.8014  0.2946 -0.0754
  391MPD2    H2 5900   1.823   1.143  11.292  1.3333  0.4549  0.5519
  391MPD2    H3 5901   1.684   1.113  11.099 -0.8831  2.5559  0.1920
  391MPD2     N 5902   2.026   1.268  10.818  0.6684  0.1736 -0.8670
  391MPD2    H5 5903   2.125   1.289  10.811  0.7008  0.6070  0.8529
  391MPD2    N1 5904   2.063   1.264  11.304  0.0604 -0.2294  0.2625
  391MPD2    H7 5905   2.006   1.254  11.387 -0.1073  0.3287  0.2094
  392TMC3    C1 5906   2.036   1.312  10.583  0.5725 -0.1909 -0.6320
  392TMC3    C2 5907   1.953   1.339  10.478  0.2130  0.4253 -0.3479
  392TMC3    C3 5908   1.996   1.430  10.382 -0.1880  0.0832  0.1800
  392TMC3    C4 5909   2.159   1.372  10.602 -0.1421 -0.3164 -0.0710
  392TMC3    C5 5910   2.201   1.457  10.501  0.3546  0.0409 -0.1603
  392TMC3    C6 5911   2.118   1.487  10.390 -0.5440 -0.5272 -0.5960
  392TMC3     C 5912   1.960   1.276  10.696  0.7008  0.0718  0.7753
  392TMC3     O 5913   1.851   1.236  10.673  0.0489 -0.0887 -0.5860
  392TMC3     H 5914   1.861   1.285  10.461 -1.3744  2.8603  0.5974
  392TMC3    H1 5915   2.223   1.368  10.689 -1.3787 -1.1038  0.8109
  392TMC3    H2 5916   2.156   1.559  10.318  0.2616  0.8533  1.2008
  392TMC3    C7 5917   2.316   1.543  10.534 -0.3203 -0.4602  0.1175
  392TMC3    C8 5918   1.905   1.447  10.265  0.3957  0.1739  0.4613
  392TMC3    O1 5919   2.357   1.546  10.653 -0.4299  0.0625 -0.1332
  392TMC3    O2 5920   1.795   1.394  10.272 -0.6394  0.2785  0.1536
  393TMC3    C1 5921   0.967   3.899  10.005 -0.4972  0.0277 -0.3702
  393TMC3    C2 5922   0.840   3.846  10.005  0.1058  0.3928  0.2575
  393TMC3    C3 5923   0.825   3.730  10.077  0.7287  0.1282 -0.6391
  393TMC3    C4 5924   1.066   3.847  10.087 -0.4304  0.3028 -0.0651
  393TMC3    C5 5925   1.040   3.740  10.161 -0.0159 -0.4662 -0.2086
  393TMC3    C6 5926   0.923   3.671  10.152 -0.8444  0.9175  0.4349
  393TMC3     C 5927   0.991   4.035   9.963 -0.2872 -0.4885  0.8817
  393TMC3     O 5928   0.895   4.104   9.961 -0.1987  0.2441 -0.0122
  393TMC3     H 5929   0.760   3.892   9.947  0.3383 -1.5391 -1.6195
  393TMC3    H1 5930   1.159   3.901  10.099  0.1768 -0.9057  0.6141
  393TMC3    H2 5931   0.913   3.578  10.206  0.6399 -0.2881 -1.3465
  393TMC3    C7 5932   1.150   3.671  10.219 -0.2785  0.1006 -0.1712
  393TMC3    C8 5933   0.683   3.681  10.086 -0.4074  0.0666 -0.0340
  393TMC3    O1 5934   1.119   3.574  10.288 -0.2645 -0.6256 -0.0380
  393TMC3    O2 5935   0.639   3.620  10.184  0.5025 -0.3288  1.0812
  394TMC3    C1 5936   3.013   4.527  10.212 -0.7836 -0.0434  0.4431
  394TMC3    C2 5937   3.004   4.488  10.080  0.1296  0.4553  0.1849
  394TMC3    C3 5938   3.081   4.553   9.983 -0.4027  0.4273  0.5801
  394TMC3    C4 5939   3.083   4.636  10.245  0.6674  0.2329 -0.2031
  394TMC3    C5 5940   3.153   4.704  10.142  0.5140  0.5726 -0.4376
  394TMC3    C6 5941   3.147   4.669  10.009  0.3420 -1.2741 -0.2131
  394TMC3     C 5942   2.938   4.465  10.312 -0.0938 -0.4822 -0.6487
  394TMC3     O 5943   2.920   4.344  10.299 -0.1760  0.2614 -0.7254
  394TMC3     H 5944   2.940   4.403  10.059  0.0279  0.9964 -1.7449
  394TMC3    H1 5945   3.100   4.659  10.349 -0.0377 -1.3791  0.2527
  394TMC3    H2 5946   3.196   4.729   9.932 -3.1507  1.5761 -0.2168
  394TMC3    C7 5947   3.213   0.093  10.179  0.5324  0.5495 -0.3748
  394TMC3    C8 5948   3.058   4.514   9.847 -0.6049 -0.2035  0.9427
  394TMC3    O1 5949   3.193   0.195  10.109 -0.0174  0.0625  0.1904
  394TMC3    O2 5950   3.065   4.599   9.764  0.0977  0.4932  0.1817
  395TMC3    C1 5951   2.485   1.824  15.042 -0.1548  0.6152 -0.3086
  395TMC3    C2 5952   2.399   1.803  14.935 -0.5048 -0.1811 -0.3234
  395TMC3    C3 5953   2.452   1.807  14.810 -0.4075 -0.1925 -0.2122
  395TMC3    C4 5954   2.619   1.844  15.032  0.2512  0.0242  0.4974
  395TMC3    C5 5955   2.662   1.852  14.906 -0.6283  0.2476  0.3253
  395TMC3    C6 5956   2.584   1.825  14.795  0.4120 -0.1967 -0.5502
  395TMC3     C 5957   2.428   1.818  15.173 -0.2726  0.1012 -0.2009
  395TMC3     O 5958   2.503   1.808  15.269 -0.5162 -0.2409 -0.4958
  395TMC3     H 5959   2.292   1.786  14.943 -0.1135 -2.1342  0.9145
  395TMC3    H1 5960   2.677   1.869  15.120  0.7110 -1.3028  0.5743
  395TMC3    H2 5961   2.615   1.831  14.691  2.3284 -2.3940 -0.0979
  395TMC3    C7 5962   2.785   1.933  14.887  0.1952 -0.5779  0.5046
  395TMC3    C8 5963   2.365   1.841  14.701 -0.2752  0.5673 -0.0285
  395TMC3    O1 5964   2.803   2.024  14.965  0.5047  0.2155  0.2779
  395TMC3    O2 5965   2.412   1.935  14.642  0.2368  0.8769  0.5706
  396MPD2     C 5966   1.755   2.886  16.901  0.1945  0.1900  0.2607
  396MPD2    C1 5967   1.883   2.902  16.941  0.0168 -0.8121 -0.1013
  396MPD2    C2 5968   1.965   2.982  16.866 -0.0716 -1.1903 -0.1016
  396MPD2    C3 5969   1.921   3.056  16.751  0.2941  0.7352 -0.0520
  396MPD2    C4 5970   1.794   3.031  16.714 -0.4576 -0.6853  0.0336
  396MPD2    C5 5971   1.710   2.954  16.791  0.7140  0.2624  0.0050
  396MPD2     H 5972   2.071   2.983  16.886 -0.1986 -0.8770  0.5568
  396MPD2    H1 5973   1.757   3.077  16.623  2.4616  2.4890  0.4329
  396MPD2    H2 5974   1.686   2.815  16.945  1.7127 -0.8129  1.0267
  396MPD2    H3 5975   1.609   2.931  16.759  0.8892  0.5044 -0.7356
  396MPD2     N 5976   2.011   3.142  16.694  0.1489 -0.1807 -0.2489
  396MPD2    H5 5977   2.093   3.166  16.749  1.2342 -2.3357 -0.9309
  396MPD2    N1 5978   1.922   2.827  17.049  0.5317  0.0814 -0.3520
  396MPD2    H7 5979   1.860   2.751  17.075 -0.2757  1.4094  1.6271
  397TMC3    C1 5980   2.088   2.722  17.174  0.0561 -0.9337 -0.0719
  397TMC3    C2 5981   2.211   2.689  17.125 -0.2850  0.3977  0.2716
  397TMC3    C3 5982   2.226   2.595  17.029  0.9008  0.9060  0.3283
  397TMC3    C4 5983   1.990   2.630  17.149 -0.2828  0.1601 -0.4350
  397TMC3    C5 5984   2.014   2.523  17.071  0.1480  0.1735 -0.9624
  397TMC3    C6 5985   2.129   2.508  17.004 -0.4723  0.2040 -0.2322
  397TMC3     C 5986   2.038   2.849  17.111 -0.1930 -0.3542  0.2728
  397TMC3     O 5987   2.111   2.945  17.113 -0.0181 -0.2815  0.1834
  397TMC3     H 5988   2.283   2.771  17.123  1.0617 -0.8256 -1.3199
  397TMC3    H1 5989   1.894   2.640  17.200 -0.0193 -0.7940  0.2503
  397TMC3    H2 5990   2.140   2.429  16.931 -1.0660 -0.7227  0.6941
  397TMC3    C7 5991   1.919   2.408  17.063 -0.3446 -0.3980 -0.6354
  397TMC3    C8 5992   2.265   2.660  16.906 -0.1787 -0.4289 -0.1580
  397TMC3    O1 5993   1.914   2.339  16.959  0.1868  0.1773 -0.0651
  397TMC3    O2 5994   2.180   2.649  16.816 -0.4434  0.3130  0.2119
  398MPD2     C 5995   4.669   4.547  17.588  0.3517 -0.8957 -0.2165
  398MPD2    C1 5996   0.038   4.465  17.629 -0.2132 -0.0658  0.4671
  398MPD2    C2 5997   0.141   4.523  17.697 -0.0054  0.0766  0.0267
  398MPD2    C3 5998   0.135   4.654  17.743 -0.2353  0.6670  0.2365
  398MPD2    C4 5999   0.026   4.733  17.707  0.2304  0.2171 -0.2085
  398MPD2    C5 6000   4.667   4.678  17.626 -0.7296  0.1564  0.3548
  398MPD2     H 6001   0.228   4.461  17.716  0.9543  1.0708 -1.0555
  398MPD2    H1 6002   0.019   0.103  17.725 -0.9279  0.1278 -0.1500
  398MPD2    H2 6003   4.587   4.510  17.528  0.2739 -0.7580 -0.1945
  398MPD2    H3 6004   4.593   0.006  17.581 -2.4380 -1.3396  0.9849
  398MPD2     N 6005   0.241   4.696   0.091  0.1763 -0.3604 -0.1535
  398MPD2    H5 6006   0.301   4.623   0.128 -0.8214 -0.3264  1.5480
  398MPD2    N1 6007   0.056   4.328  17.579  0.2309  0.1720 -0.3728
  398MPD2    H7 6008   0.142   4.281  17.605  0.3125 -0.7051 -2.2280
  399TMC3    C1 6009   4.736   4.134  17.459  0.1115 -1.2969 -0.0907
  399TMC3    C2 6010   0.106   4.074  17.519 -0.3195  1.0692  0.2475
  399TMC3    C3 6011   0.096   3.941  17.552  0.5619  0.5654 -0.4135
  399TMC3    C4 6012   4.629   4.058  17.411  0.4469 -0.3684  0.2814
  399TMC3    C5 6013   4.635   3.924  17.432  0.6465 -0.1871 -0.3757
  399TMC3    C6 6014   4.732   3.867  17.509  0.0107  0.4441 -0.2010
  399TMC3     C 6015   4.716   4.273  17.483  0.5425  0.5823  0.8168
  399TMC3     O 6016   4.636   4.324  17.408  0.2799  0.0076 -1.0214
  399TMC3     H 6017   0.196   4.130  17.542  0.3680  0.5597 -1.1565
  399TMC3    H1 6018   4.545   4.103  17.359  1.2802  0.4686 -0.3420
  399TMC3    H2 6019   4.727   3.762  17.535 -1.2326  0.1460 -1.6375
  399TMC3    C7 6020   4.518   3.851  17.420 -0.3426 -0.0108 -0.5238
  399TMC3    C8 6021   0.210   3.865  17.606 -0.0573  0.6292 -0.2307
  399TMC3    O1 6022   4.487   3.769  17.503 -0.5755  0.0660 -0.5303
  399TMC3    O2 6023   0.209   3.742  17.594  0.4423 -0.9449  0.0073
  400TMC3    C1 6024   3.476   2.704  16.583 -0.1793 -0.2715 -0.4572
  400TMC3    C2 6025   3.379   2.632  16.523  0.0609 -0.6710 -0.2779
  400TMC3    C3 6026   3.277   2.682  16.458  0.6484 -0.5026  0.2713
  400TMC3    C4 6027   3.477   2.841  16.579  0.0167  0.1684  0.3077
  400TMC3    C5 6028   3.371   2.892  16.512 -0.3097  0.5410  0.7651
  400TMC3    C6 6029   3.270   2.821  16.453  0.1254 -0.4615 -0.0715
  400TMC3     C 6030   3.587   2.641  16.660  0.4360  0.4623 -0.4945
  400TMC3     O 6031   3.576   2.525  16.700  0.2829 -0.6017  0.0059
  400TMC3     H 6032   3.383   2.525  16.537 -0.3516 -0.3945  2.0357
  400TMC3    H1 6033   3.542   2.908  16.633 -0.5317  1.5407 -0.7492
  400TMC3    H2 6034   3.189   2.876  16.404 -0.0229 -0.3821  0.2661
  400TMC3    C7 6035   3.358   3.035  16.521  0.8773  0.5607  0.9876
  400TMC3    C8 6036   3.211   2.608  16.352 -0.1434 -0.6740  0.5181
  400TMC3    O1 6037   3.244   3.079  16.544  0.2559 -0.3010 -0.5895
  400TMC3    O2 6038   3.250   2.494  16.330  0.3599  0.2986 -0.1438
  401MPD2     C 6039   1.558   1.466   0.455  0.0951 -0.4398  0.1893
  401MPD2    C1 6040   1.616   1.497   0.582 -0.5521 -0.3131  0.4915
  401MPD2    C2 6041   1.544   1.466   0.694 -0.5104  0.5383  0.7508
  401MPD2    C3 6042   1.429   1.385   0.685  0.2708  0.3042  0.0798
  401MPD2    C4 6043   1.387   1.337   0.561  0.5532 -0.4740  0.1464
  401MPD2    C5 6044   1.439   1.394   0.448  0.6539 -0.7569 -0.5719
  401MPD2     H 6045   1.582   1.490   0.793  0.6888  2.0503 -0.0668
  401MPD2    H1 6046   1.299   1.274   0.552  1.1603 -1.0100 -1.8687
  401MPD2    H2 6047   1.600   1.482   0.357  1.1920  2.5584  1.1474
  401MPD2    H3 6048   1.398   1.369   0.351 -0.0064  1.8833 -0.9570
  401MPD2     N 6049   1.396   1.323   0.806  0.0929  0.7667  1.0172
  401MPD2    H5 6050   1.443   1.346   0.893  2.2997 -3.6259  0.9466
  401MPD2    N1 6051   1.751   1.524   0.600  0.0400  1.0259  0.0702
  401MPD2    H7 6052   1.789   1.536   0.693  0.6355 -1.3975  0.1579
  402TMC3    C1 6053   1.295   1.156   0.950 -0.2070 -0.1031  0.0665
  402TMC3    C2 6054   1.416   1.150   1.021 -0.1478  0.4785 -1.0826
  402TMC3    C3 6055   1.445   1.031   1.086 -0.7160 -0.0151 -0.4687
  402TMC3    C4 6056   1.202   1.050   0.950 -0.2897 -0.5456  0.2953
  402TMC3    C5 6057   1.239   0.931   1.009 -0.4986 -0.3444  0.9934
  402TMC3    C6 6058   1.362   0.921   1.079  0.3969  0.5768 -0.4994
  402TMC3     C 6059   1.295   1.227   0.822 -0.8171  0.4675 -0.0591
  402TMC3     O 6060   1.218   1.171   0.741  0.2768 -0.0422  0.5095
  402TMC3     H 6061   1.494   1.222   1.002  0.2901  0.1628 -0.4530
  402TMC3    H1 6062   1.105   1.067   0.905  1.1511  2.0469 -1.8407
  402TMC3    H2 6063   1.390   0.823   1.116 -1.0868 -0.6341 -2.5784
  402TMC3    C7 6064   1.209   0.828   0.919  0.2483  0.2595  0.0818
  402TMC3    C8 6065   1.579   1.014   1.149  0.0866  0.4282 -0.0109
  402TMC3    O1 6066   1.094   0.793   0.914  0.2997  0.2290  0.4284
  402TMC3    O2 6067   1.621   0.899   1.155  0.2227 -0.3245 -0.4621
  403MPD2     C 6068   0.532   3.895  12.931 -0.2784 -0.1967  0.2687
  403MPD2    C1 6069   0.512   3.990  13.030 -0.6349 -0.4406 -0.2357
  403MPD2    C2 6070   0.621   4.025  13.114  0.5041  0.0765 -0.7000
  403MPD2    C3 6071   0.747   3.959  13.108 -0.3367  0.7042  0.0540
  403MPD2    C4 6072   0.753   3.859  13.016 -0.4618 -0.7219  0.3998
  403MPD2    C5 6073   0.652   3.832  12.926 -0.5574 -0.2708  0.2718
  403MPD2     H 6074   0.604   4.090  13.200  1.1400  1.7533 -1.8320
  403MPD2    H1 6075   0.843   3.800  13.000 -0.2362  0.5812 -3.2043
  403MPD2    H2 6076   0.457   3.873  12.856 -2.0578  1.1845  1.6686
  403MPD2    H3 6077   0.674   3.751  12.857 -2.3193 -0.0761 -0.5235
  403MPD2     N 6078   0.845   3.995  13.202 -0.6415  0.2267  0.1747
  403MPD2    H5 6079   0.832   4.079  13.258 -1.7501  0.0418  0.1877
  403MPD2    N1 6080   0.380   4.039  13.042  0.3627  0.3413  0.8459
  403MPD2    H7 6081   0.306   3.996  12.988  0.8935  0.8536 -0.2925
  404TMC3    C1 6082   0.201   4.066  13.183 -1.4061  0.1653  0.2560
  404TMC3    C2 6083   0.195   3.992  13.296  0.2967  0.1018  0.3044
  404TMC3    C3 6084   0.098   3.894  13.299  0.1057  0.3900 -0.3432
  404TMC3    C4 6085   0.143   4.023  13.067 -0.0401  0.1893 -0.0741
  404TMC3    C5 6086   0.051   3.929  13.076 -0.5092 -0.4454  0.2681
  404TMC3    C6 6087   0.030   3.860  13.188  0.0159 -0.5636  0.4046
  404TMC3     C 6088   0.334   4.105  13.157 -0.2057  0.4642  0.3816
  404TMC3     O 6089   0.404   4.156  13.240 -0.1100  0.0040 -0.2918
  404TMC3     H 6090   0.247   4.018  13.388 -1.3454 -0.1813  1.3212
  404TMC3    H1 6091   0.147   4.090  12.981  0.3669  1.5631  1.0070
  404TMC3    H2 6092   4.689   3.785  13.200  0.4273 -0.8618  1.2146
  404TMC3    C7 6093   0.069   3.846  12.961 -0.0619  0.4915 -0.3228
  404TMC3    C8 6094   0.075   3.847  13.434  0.4336 -0.0001 -0.2983
  404TMC3    O1 6095   0.178   3.866  12.908  0.1371 -0.0584 -0.7001
  404TMC3    O2 6096   4.700   3.815  13.470  0.4348  0.3188  0.0266
  405MPD2     C 6097   0.623   0.271  14.759 -0.2877 -0.1469 -0.6656
  405MPD2    C1 6098   0.558   0.189  14.664 -0.6365 -0.0276  0.7092
  405MPD2    C2 6099   0.517   0.253  14.550  0.0605 -0.3920  0.3468
  405MPD2    C3 6100   0.532   0.385  14.533  0.0784 -0.1064 -0.3577
  405MPD2    C4 6101   0.587   0.464  14.630 -0.1003  0.3114  0.1269
  405MPD2    C5 6102   0.631   0.403  14.747 -0.0615 -0.8243  0.3139
  405MPD2     H 6103   0.479   0.198  14.465 -0.6343 -1.8969  1.6321
  405MPD2    H1 6104   0.580   0.572  14.626  1.5095  0.3690 -1.2978
  405MPD2    H2 6105   0.674   0.226  14.843 -2.2875 -3.1442 -1.0564
  405MPD2    H3 6106   0.662   0.460  14.833 -2.8386  0.3033  0.5764
  405MPD2     N 6107   0.481   0.435  14.409 -0.6848 -0.2467 -0.3561
  405MPD2    H5 6108   0.453   0.372  14.335  0.1051 -1.0227  0.0001
  405MPD2    N1 6109   0.558   0.050  14.683  0.4635  0.1862  0.1249
  405MPD2    H7 6110   0.562   0.008  14.775  1.3741 -0.6390 -0.2856
  406TMC3    C1 6111   0.352   0.689  14.039 -0.0531 -0.0675  0.2512
  406TMC3    C2 6112   0.362   0.574  13.965  0.2055 -0.8988  0.0921
  406TMC3    C3 6113   0.411   0.459  14.020  0.3573  0.0633 -0.1835
  406TMC3    C4 6114   0.400   0.684  14.172  0.0976  0.6018  0.2998
  406TMC3    C5 6115   0.447   0.565  14.222  0.0269 -0.6986 -0.5390
  406TMC3    C6 6116   0.458   0.451  14.150  0.0449  0.2525  0.3005
  406TMC3     C 6117   0.228   0.753  14.028 -0.3304 -0.0632  0.2905
  406TMC3     O 6118   0.225   0.871  14.071 -0.5608 -0.2556  0.4649
  406TMC3     H 6119   0.332   0.576  13.861  1.5397  0.7119 -0.2566
  406TMC3    H1 6120   0.394   0.770  14.238 -0.5837  0.4566  0.4260
  406TMC3    H2 6121   0.531   0.379  14.186  0.4877  0.9974  0.8968
  406TMC3    C7 6122   0.481   0.569  14.366 -0.7969 -0.4141  0.0798
  406TMC3    C8 6123   0.340   0.333  13.977  0.5605  0.6729  0.7199
  406TMC3    O1 6124   0.514   0.671  14.424 -0.1036  0.2352 -0.6291
  406TMC3    O2 6125   0.226   0.343  13.928 -0.3086 -0.8852  0.1391
  407MPD2     C 6126   2.965   0.896   9.734 -0.5534  0.4372 -0.0277
  407MPD2    C1 6127   3.087   0.941   9.780  0.4832 -0.1059  0.0218
  407MPD2    C2 6128   3.087   1.034   9.883 -0.1556 -0.0334 -0.1049
  407MPD2    C3 6129   2.972   1.082   9.931 -0.3174 -0.0464  0.2949
  407MPD2    C4 6130   2.855   1.033   9.885  0.3619  0.3145 -0.4262
  407MPD2    C5 6131   2.846   0.938   9.786  0.0366  0.6090 -0.0579
  407MPD2     H 6132   3.185   1.063   9.920 -0.4250  0.6391  0.0674
  407MPD2    H1 6133   2.758   1.066   9.920  1.7985  1.6550  2.2367
  407MPD2    H2 6134   2.957   0.818   9.660 -0.2733  1.7577 -1.4375
  407MPD2    H3 6135   2.759   0.888   9.745  0.2652 -0.2417  0.4921
  407MPD2     N 6136   2.969   1.180  10.033 -0.1629 -0.0319  0.4999
  407MPD2    H5 6137   2.883   1.232  10.044 -0.7620 -0.5605 -1.7146
  407MPD2    N1 6138   3.209   0.922   9.720  0.1501  0.0507 -0.3809
  407MPD2    H7 6139   3.293   0.951   9.769 -1.4115  3.2380  0.3764
  408TMC3    C1 6140   3.362   0.899   9.554 -0.1150 -0.3114  0.5552
  408TMC3    C2 6141   3.457   0.834   9.626 -0.4960  1.0756  0.0696
  408TMC3    C3 6142   3.570   0.903   9.644 -0.1644  0.3167  0.1692
  408TMC3    C4 6143   3.376   1.022   9.504  0.4173  0.6962 -0.4758
  408TMC3    C5 6144   3.493   1.085   9.518 -0.4304  0.4284  0.6100
  408TMC3    C6 6145   3.593   1.025   9.584  0.2233 -0.4668 -0.0428
  408TMC3     C 6146   3.227   0.872   9.594  0.0641 -0.4118 -0.4061
  408TMC3     O 6147   3.145   0.846   9.512  0.6892 -1.1465  0.0415
  408TMC3     H 6148   3.445   0.737   9.672  0.9819  0.8190 -0.0744
  408TMC3    H1 6149   3.299   1.064   9.441 -0.2379  1.0806  0.5842
  408TMC3    H2 6150   3.688   1.077   9.591  0.6590 -1.2160 -0.4125
  408TMC3    C7 6151   3.504   1.221   9.474 -0.1240  1.3003 -0.7634
  408TMC3    C8 6152   3.690   0.822   9.682  0.2587 -0.4444 -1.0080
  408TMC3    O1 6153   3.597   1.279   9.533  0.6618  0.4764 -0.4230
  408TMC3    O2 6154   3.676   0.701   9.682 -0.1354  0.2457 -0.0019
  409MPD2     C 6155   2.100   2.297  16.677  0.2403  0.1705  0.2258
  409MPD2    C1 6156   2.225   2.280  16.736  0.5437  0.1609  0.0253
  409MPD2    C2 6157   2.327   2.364  16.689 -0.5580  0.8379 -0.1980
  409MPD2    C3 6158   2.296   2.470  16.602  0.4512 -0.6373  0.2242
  409MPD2    C4 6159   2.171   2.484  16.542  0.3342  0.4100  0.3674
  409MPD2    C5 6160   2.075   2.389  16.579 -0.6466  0.1476  0.2588
  409MPD2     H 6161   2.425   2.338  16.726 -0.7022  0.5677 -0.0029
  409MPD2    H1 6162   2.152   2.558  16.464  1.6960 -0.8074 -1.1063
  409MPD2    H2 6163   2.024   2.224  16.704  1.3148 -1.2493 -0.5521
  409MPD2    H3 6164   1.977   2.381  16.532 -0.8321 -0.0449  0.6833
  409MPD2     N 6165   2.398   2.554  16.563  0.5676 -0.9383 -0.0113
  409MPD2    H5 6166   2.381   2.642  16.516 -1.4111 -1.8353 -0.9677
  409MPD2    N1 6167   2.258   2.178  16.830 -0.0890 -0.0001  0.1300
  409MPD2    H7 6168   2.356   2.163  16.852  0.0104  0.7231  0.1919
  410TMC3    C1 6169   2.604   2.677  16.563  0.0274 -0.4695  0.6370
  410TMC3    C2 6170   2.733   2.694  16.615 -0.0702 -0.2033 -0.3371
  410TMC3    C3 6171   2.813   2.800  16.572  0.2086  0.0392  0.4289
  410TMC3    C4 6172   2.562   2.752  16.458  0.1086  1.1189 -0.8928
  410TMC3    C5 6173   2.645   2.852  16.414  0.5493  0.1498  0.2107
  410TMC3    C6 6174   2.766   2.880  16.473 -0.1873  0.2385  0.7880
  410TMC3     C 6175   2.529   2.558  16.609  0.3257  0.6936 -0.4127
  410TMC3     O 6176   2.588   2.474  16.673 -0.0197  0.2646  0.4052
  410TMC3     H 6177   2.754   2.642  16.708 -0.5051  1.5786  0.7518
  410TMC3    H1 6178   2.463   2.738  16.417  0.0588  0.2190 -0.4769
  410TMC3    H2 6179   2.820   2.970  16.447  0.6462  0.0704  1.9016
  410TMC3    C7 6180   2.606   2.924  16.295  0.0216  0.2675  0.4628
  410TMC3    C8 6181   2.915   2.858  16.655 -0.2516  0.3327 -0.6697
  410TMC3    O1 6182   2.503   2.880  16.244  0.6959 -0.4411  0.3839
  410TMC3    O2 6183   2.923   2.975  16.680 -0.1039  0.1459  0.2024
  411MPD2     C 6184   2.869   2.881  14.388  0.1342 -0.2293 -0.3519
  411MPD2    C1 6185   2.736   2.903  14.370  0.0131  0.1184  0.5101
  411MPD2    C2 6186   2.650   2.810  14.423 -0.4293  0.3202  0.2637
  411MPD2    C3 6187   2.689   2.689  14.473  0.6745 -0.3084  0.0247
  411MPD2    C4 6188   2.819   2.660  14.475 -0.5870  0.6902  0.2413
  411MPD2    C5 6189   2.914   2.763  14.442  0.2037  0.4973 -0.1609
  411MPD2     H 6190   2.543   2.829  14.422 -0.5121 -0.2299 -0.8397
  411MPD2    H1 6191   2.863   2.568  14.513  0.2183  1.3135  0.8200
  411MPD2    H2 6192   2.942   2.955  14.357 -0.3779  0.8791  1.0876
  411MPD2    H3 6193   3.021   2.747  14.454  0.3673  0.9298 -1.0745
  411MPD2     N 6194   2.596   2.603  14.541  0.5502  0.2192 -0.2386
  411MPD2    H5 6195   2.630   2.511  14.567  3.8249  0.5218 -3.4254
  411MPD2    N1 6196   2.700   3.026  14.314  0.2133 -0.6104 -0.5572
  411MPD2    H7 6197   2.766   3.101  14.294 -1.7454  1.4562  0.7761
  412TMC3    C1 6198   2.390   2.528  14.641 -0.4980 -0.6289 -0.2765
  412TMC3    C2 6199   2.293   2.577  14.723  0.2560  0.2481  0.9027
  412TMC3    C3 6200   2.196   2.489  14.768  0.1519 -0.7531 -0.5129
  412TMC3    C4 6201   2.390   2.398  14.597 -0.1935 -0.5568  0.4379
  412TMC3    C5 6202   2.290   2.316  14.638 -0.6706 -0.8814 -0.1254
  412TMC3    C6 6203   2.194   2.360  14.729  0.1353 -1.0740 -0.9278
  412TMC3     C 6204   2.461   2.631  14.576 -0.4632  0.5451 -0.9527
  412TMC3     O 6205   2.401   2.734  14.563  0.0604  0.4933  0.2447
  412TMC3     H 6206   2.298   2.681  14.755  0.8095  0.0086  1.5797
  412TMC3    H1 6207   2.469   2.376  14.527  0.7590  0.9627  1.0502
  412TMC3    H2 6208   2.118   2.290  14.763 -0.2975 -1.0749 -1.9183
  412TMC3    C7 6209   2.215   2.240  14.537  0.8556  0.2294  0.3127
  412TMC3    C8 6210   2.063   2.546  14.751 -0.7802  0.9343 -0.1647
  412TMC3    O1 6211   2.124   2.172  14.581  0.5662 -0.1184  0.1652
  412TMC3    O2 6212   1.967   2.468  14.755 -0.0395  0.6687  0.2671
  413MPD2     C 6213   4.149   1.355  15.445 -0.0332  0.8663 -0.1435
  413MPD2    C1 6214   4.106   1.306  15.321  0.3682 -0.5225  0.2814
  413MPD2    C2 6215   4.192   1.222  15.247 -0.6380 -0.5764 -0.5836
  413MPD2    C3 6216   4.325   1.205  15.281 -0.8055 -0.4330 -0.5218
  413MPD2    C4 6217   4.369   1.256  15.398  0.5260 -0.2051 -0.2117
  413MPD2    C5 6218   4.286   1.316  15.479 -0.1309  0.6587 -0.7189
  413MPD2     H 6219   4.157   1.177  15.155 -0.4740  0.7173 -1.2738
  413MPD2    H1 6220   4.470   1.239  15.434 -0.8229 -0.3330  3.4879
  413MPD2    H2 6221   4.093   1.417  15.514 -0.5818  0.8248 -0.5506
  413MPD2    H3 6222   4.325   1.345  15.576 -1.4108  1.8211 -0.5460
  413MPD2     N 6223   4.410   1.128  15.195 -0.6116  0.7510 -0.4777
  413MPD2    H5 6224   4.360   1.070  15.129 -1.6558  0.3811  0.6323
  413MPD2    N1 6225   3.977   1.347  15.278  0.2216  0.0026 -0.1279
  413MPD2    H7 6226   3.921   1.384  15.353 -1.7358  0.5886 -1.8701
  414TMC3    C1 6227   4.598   1.031  15.098 -0.1841 -0.1875  0.9015
  414TMC3    C2 6228   4.662   0.918  15.126 -0.4689 -0.0729 -1.0311
  414TMC3    C3 6229   4.657   0.812  15.038 -0.1159  0.5191 -0.4675
  414TMC3    C4 6230   4.536   1.045  14.976  0.2186  0.1149  0.5701
  414TMC3    C5 6231   4.548   0.949  14.878  0.1915 -0.2351 -0.2869
  414TMC3    C6 6232   4.590   0.819  14.916 -0.7430  0.0260 -0.2432
  414TMC3     C 6233   4.544   1.103  15.211  0.4441  0.8913  0.1663
  414TMC3     O 6234   4.623   1.144  15.293 -0.5570  0.1543  0.0505
  414TMC3     H 6235   4.700   0.918  15.228 -0.3405 -2.6113 -1.0830
  414TMC3    H1 6236   4.486   1.137  14.949  0.7339 -0.1630 -1.3324
  414TMC3    H2 6237   4.590   0.738  14.844  1.3717 -0.0654 -0.1501
  414TMC3    C7 6238   4.498   0.981  14.747  0.0980  0.7554 -0.6214
  414TMC3    C8 6239   4.732   0.688  15.044 -0.6298 -0.0986 -0.5205
  414TMC3    O1 6240   4.385   1.024  14.742 -0.1884  0.0626 -0.4699
  414TMC3    O2 6241   4.681   0.588  14.998  0.2958  0.4626 -0.1261
  415TMC3    C1 6242   0.081   3.009  10.013 -0.0163 -0.0123  0.3592
  415TMC3    C2 6243   0.079   3.078   9.896  0.4938  0.3744  0.1349
  415TMC3    C3 6244   0.020   3.019   9.790 -0.3053 -0.2934 -0.3044
  415TMC3    C4 6245   0.023   2.885  10.037  0.1983 -0.5058  0.1104
  415TMC3    C5 6246   4.692   2.832   9.929 -0.1709  0.5578 -0.0352
  415TMC3    C6 6247   4.685   2.900   9.803  0.1047  0.2258  0.5429
  415TMC3     C 6248   0.128   3.063  10.142 -0.6346 -0.0268  0.7804
  415TMC3     O 6249   0.067   3.043  10.245 -0.1401 -0.2730 -0.1191
  415TMC3     H 6250   0.109   3.181   9.912 -0.8395  0.6096  1.1299
  415TMC3    H1 6251   0.029   2.844  10.137  1.2599  0.1272  0.3140
  415TMC3    H2 6252   4.626   2.860   9.721  1.3287 -0.5932  0.0610
  415TMC3    C7 6253   4.617   2.714   9.942 -0.2095  0.0734 -0.3296
  415TMC3    C8 6254   0.016   3.073   9.651 -0.3641 -0.0458 -0.1449
  415TMC3    O1 6255   4.569   2.673   9.838  0.6061  0.2054 -0.0513
  415TMC3    O2 6256   4.680   3.028   9.562  0.3692  0.2249  0.9830
  416MPD2     C 6257   2.501   2.524  11.769  0.5326 -0.3365  0.1554
  416MPD2    C1 6258   2.405   2.539  11.669 -0.3660 -0.2755 -0.1646
  416MPD2    C2 6259   2.346   2.429  11.605 -0.6952  0.2607  0.0799
  416MPD2    C3 6260   2.407   2.299  11.626  0.4651  0.3719 -0.0554
  416MPD2    C4 6261   2.506   2.289  11.727  0.2325  0.5320 -0.3466
  416MPD2    C5 6262   2.537   2.394  11.804 -0.0774 -0.2484 -0.2423
  416MPD2     H 6263   2.284   2.446  11.518 -1.3465 -0.8548  0.3248
  416MPD2    H1 6264   2.541   2.193  11.763  0.3613  0.4616 -0.6620
  416MPD2    H2 6265   2.538   2.600  11.836  0.7636 -0.5500  0.2746
  416MPD2    H3 6266   2.604   2.384  11.888  0.0134 -2.9581 -0.6511
  416MPD2     N 6267   2.359   2.185  11.565 -0.3854 -0.3847  0.4505
  416MPD2    H5 6268   2.389   2.096  11.602 -0.6431  0.0107  1.6156
  416MPD2    N1 6269   2.359   2.670  11.636 -0.2199 -0.7652 -0.6660
  416MPD2    H7 6270   2.383   2.746  11.699 -1.8312 -0.6888 -0.1436
  417TMC3    C1 6271   2.191   2.816  11.550  0.6563  0.0361  0.5587
  417TMC3    C2 6272   2.143   2.838  11.680  0.0453 -0.2954 -0.2847
  417TMC3    C3 6273   2.013   2.860  11.701  0.0116 -0.8368 -0.5300
  417TMC3    C4 6274   2.109   2.832  11.443 -0.0231 -0.2675 -0.3609
  417TMC3    C5 6275   1.979   2.864  11.469 -0.4632  0.3032  0.1642
  417TMC3    C6 6276   1.927   2.880  11.594 -0.4502 -0.1187  0.8981
  417TMC3     C 6277   2.269   2.692  11.538  0.2848  0.3795  0.3031
  417TMC3     O 6278   2.254   2.631  11.435  0.5842  0.2718 -0.1094
  417TMC3     H 6279   2.221   2.836  11.756  0.0286  2.5438 -0.1962
  417TMC3    H1 6280   2.154   2.821  11.345 -1.5186 -0.8824 -0.9787
  417TMC3    H2 6281   1.821   2.898  11.601 -0.6224 -1.2505  1.1930
  417TMC3    C7 6282   1.886   2.896  11.365 -0.4695  1.3183  0.0680
  417TMC3    C8 6283   1.956   2.866  11.833 -0.2770 -0.6567 -0.8300
  417TMC3    O1 6284   1.913   2.994  11.295  0.2235 -0.0233  0.1625
  417TMC3    O2 6285   1.837   2.877  11.839  0.6339 -0.1509 -0.3812
  418TMC3    C1 6286   0.542   0.166   0.369 -0.6607 -0.1660 -0.3084
  418TMC3    C2 6287   0.440   0.181   0.278  0.3610  0.4820 -0.1344
  418TMC3    C3 6288   0.353   0.074   0.254 -0.1130  0.8217 -0.2836
  418TMC3    C4 6289   0.552   0.052   0.448 -0.1097  0.3045 -0.4041
  418TMC3    C5 6290   0.463   4.691   0.423  0.0452  0.3511 -0.4067
  418TMC3    C6 6291   0.372   4.698   0.321 -0.1054  0.5316  0.0473
  418TMC3     C 6292   0.657   0.255   0.350 -0.2297 -0.0101  0.4709
  418TMC3     O 6293   0.633   0.360   0.293 -0.3265  0.6254  0.8576
  418TMC3     H 6294   0.425   0.269   0.216 -2.9547  0.7669  1.0725
  418TMC3    H1 6295   0.624   0.048   0.528 -0.9304 -0.7770  0.2809
  418TMC3    H2 6296   0.305   4.614   0.307 -0.3419  1.1110 -2.2801
  418TMC3    C7 6297   0.474   4.565   0.492  0.6388  0.3437 -0.0949
  418TMC3    C8 6298   0.268   0.081   0.138  0.1369 -0.3408  0.3121
  418TMC3    O1 6299   0.421   4.468   0.443 -0.1147 -0.8083  0.3207
  418TMC3    O2 6300   0.220   0.192   0.113 -0.1046  0.0771 -0.4405
  419MPD2     C 6301   4.529   3.063  12.774 -0.6819 -0.2391 -0.2382
  419MPD2    C1 6302   4.404   3.112  12.746 -0.4059  1.0273  0.8424
  419MPD2    C2 6303   4.291   3.069  12.815  0.0869  0.1900  1.0081
  419MPD2    C3 6304   4.303   2.967  12.906 -0.3033 -0.1676  0.1285
  419MPD2    C4 6305   4.428   2.916  12.928  0.7047 -0.1672 -0.4320
  419MPD2    C5 6306   4.538   2.970  12.871  1.3319  0.6527  0.4467
  419MPD2     H 6307   4.194   3.116  12.803 -0.8177 -1.9758 -0.0712
  419MPD2    H1 6308   4.447   2.833  12.994  1.3447  0.6659  0.4302
  419MPD2    H2 6309   4.625   3.096  12.735 -2.6099  3.6977 -1.6496
  419MPD2    H3 6310   4.630   2.924  12.904 -0.3054 -0.5741  3.3530
  419MPD2     N 6311   4.184   2.937  12.982 -0.0361  0.7893 -0.5047
  419MPD2    H5 6312   4.106   2.997  12.959 -1.4320 -0.8761 -0.0943
  419MPD2    N1 6313   4.376   3.217  12.653 -0.4797  0.4215  0.3346
  419MPD2    H7 6314   4.280   3.247  12.641 -0.6550 -0.6523 -0.9854
  420TMC3    C1 6315   4.058   2.829  13.151  0.1570  0.0613 -0.1676
  420TMC3    C2 6316   3.952   2.913  13.122 -0.0854 -0.2224  0.4701
  420TMC3    C3 6317   3.833   2.892  13.183 -0.3178  0.1841  0.5617
  420TMC3    C4 6318   4.048   2.726  13.241  0.0516 -0.3312 -0.0530
  420TMC3    C5 6319   3.930   2.708  13.299  0.2679 -0.2534  0.0558
  420TMC3    C6 6320   3.818   2.792  13.269  0.4335  0.6209  0.3231
  420TMC3     C 6321   4.179   2.836  13.074 -0.1636 -0.0622  0.2114
  420TMC3     O 6322   4.255   2.752  13.112 -0.0719 -0.4170 -0.2686
  420TMC3     H 6323   3.957   2.982  13.039 -1.0936  0.3113  0.8577
  420TMC3    H1 6324   4.125   2.652  13.261 -1.4874 -1.7471  0.6149
  420TMC3    H2 6325   3.726   2.782  13.326 -0.5255  3.1965 -0.7447
  420TMC3    C7 6326   3.920   2.605  13.393  0.0576  0.1159 -0.3453
  420TMC3    C8 6327   3.718   2.960  13.130  0.5705 -0.3102  0.2306
  420TMC3    O1 6328   4.011   2.521  13.405 -0.1237 -0.4518  0.1731
  420TMC3    O2 6329   3.728   3.079  13.092  0.4204  0.3034  0.2815
  421TMC3    C1 6330   1.056   3.997  13.313  0.0492 -0.2059 -0.1884
  421TMC3    C2 6331   1.058   4.129  13.334  0.1881 -0.4322 -0.0208
  421TMC3    C3 6332   1.146   4.187  13.418  0.0720  0.7234  0.0754
  421TMC3    C4 6333   1.152   3.921  13.373 -0.8412  0.1091  0.1593
  421TMC3    C5 6334   1.246   3.979  13.449  0.4530 -0.1214 -0.3359
  421TMC3    C6 6335   1.243   4.116  13.475  0.2732  0.3315  0.5502
  421TMC3     C 6336   0.963   3.930  13.219  0.5872 -1.0925 -0.3167
  421TMC3     O 6337   0.988   3.811  13.196  0.1669  0.3721 -0.3937
  421TMC3     H 6338   0.980   4.190  13.289  1.6940  0.1064 -1.9173
  421TMC3    H1 6339   1.155   3.814  13.354  2.0758  0.6267 -2.2072
  421TMC3    H2 6340   1.305   4.160  13.552  1.1529  0.3874 -0.1959
  421TMC3    C7 6341   1.346   3.908  13.525 -0.2282 -0.0281 -0.2179
  421TMC3    C8 6342   1.130   4.328  13.456  0.1149 -0.5155  0.1040
  421TMC3    O1 6343   1.451   3.961  13.534  0.8332  0.1971 -0.3642
  421TMC3    O2 6344   1.023   4.380  13.471 -0.5687 -0.1443  0.3268
  422TMC3    C1 6345   3.010   0.662  12.588 -0.1072  0.0974 -0.2621
  422TMC3    C2 6346   2.968   0.784  12.625 -0.1472 -0.9144  0.0954
  422TMC3    C3 6347   2.850   0.791  12.693  1.2217 -0.1571  0.1664
  422TMC3    C4 6348   2.949   0.543  12.616 -0.1161  0.2834 -0.4849
  422TMC3    C5 6349   2.834   0.563  12.697 -0.5895  1.1142 -0.1934
  422TMC3    C6 6350   2.779   0.683  12.731 -0.5827 -0.3588 -0.1992
  422TMC3     C 6351   3.100   0.660  12.477  0.0133 -0.1083  0.3677
  422TMC3     O 6352   3.104   0.768  12.421  0.1608  0.0450  0.0488
  422TMC3     H 6353   3.009   0.880  12.597  0.9460 -1.9708 -1.9166
  422TMC3    H1 6354   2.976   0.445  12.580  0.1834  0.8999 -1.9226
  422TMC3    H2 6355   2.688   0.701  12.786 -0.0250  2.3301 -0.1227
  422TMC3    C7 6356   2.767   0.446  12.748  1.1212  0.0709 -0.1063
  422TMC3    C8 6357   2.824   0.926  12.750 -0.3599  0.2816  0.5289
  422TMC3    O1 6358   2.831   0.343  12.740  0.7774 -0.2693  0.2546
  422TMC3    O2 6359   2.917   1.005  12.751 -1.0225 -0.3497  0.7604
  423MPD2     C 6360   3.834   1.262   0.494  0.1194  0.0053  0.7848
  423MPD2    C1 6361   3.962   1.321   0.503 -0.7871  0.2166 -0.2309
  423MPD2    C2 6362   4.026   1.354   0.390  0.0161  0.1694 -0.3463
  423MPD2    C3 6363   3.979   1.336   0.260 -0.5397 -0.9413  0.0067
  423MPD2    C4 6364   3.850   1.288   0.252 -0.1136  0.4411  0.3998
  423MPD2    C5 6365   3.772   1.256   0.368  0.6488 -0.5068  0.0877
  423MPD2     H 6366   4.123   1.401   0.392 -0.3531  0.9806 -1.6604
  423MPD2    H1 6367   3.800   1.283   0.156 -2.9819  0.5979  1.8707
  423MPD2    H2 6368   3.779   1.240   0.586 -0.3962  1.3826  0.8148
  423MPD2    H3 6369   3.667   1.239   0.353  0.7899  0.5780 -2.0711
  423MPD2     N 6370   4.045   1.363   0.138  0.5846 -0.6282 -0.0709
  423MPD2    H5 6371   3.999   1.343   0.049 -0.8297 -1.8325  0.9348
  423MPD2    N1 6372   4.012   1.350   0.636  0.0191 -0.2564 -0.7006
  423MPD2    H7 6373   3.960   1.338   0.722  0.2363 -1.0527 -0.6807
  424TMC3    C1 6374   4.187   1.411   0.790  0.0882 -0.0453 -0.5157
  424TMC3    C2 6375   4.304   1.358   0.836 -0.2387 -0.1860 -0.5151
  424TMC3    C3 6376   4.345   1.412   0.957  0.0268  0.0473  0.0957
  424TMC3    C4 6377   4.107   1.504   0.846 -0.8090 -0.1733 -0.1063
  424TMC3    C5 6378   4.153   1.549   0.964  0.3914 -0.5429 -0.6558
  424TMC3    C6 6379   4.268   1.503   1.026  0.2330  0.4314  0.9782
  424TMC3     C 6380   4.146   1.370   0.657 -0.3096 -0.4412 -0.0390
  424TMC3     O 6381   4.246   1.357   0.583 -0.3798 -0.5841 -0.2006
  424TMC3     H 6382   4.353   1.273   0.790  1.8191  1.1389 -0.7340
  424TMC3    H1 6383   4.019   1.540   0.795  1.0744  2.2819 -1.6557
  424TMC3    H2 6384   4.292   1.537   1.126  1.3645 -0.6117  1.0696
  424TMC3    C7 6385   4.062   1.630   1.048  0.6285 -0.3431 -0.6267
  424TMC3    C8 6386   4.470   1.365   1.005 -0.3445  0.0246  0.1014
  424TMC3    O1 6387   4.108   1.711   1.126  0.0120  0.1911  0.4488
  424TMC3    O2 6388   4.486   1.244   0.978 -0.2034  0.3429  0.1772
  425MPD2     C 6389   3.286   1.111  16.974 -0.3228 -1.0081  0.3540
  425MPD2    C1 6390   3.207   0.996  17.000 -0.2829 -0.1979  0.2134
  425MPD2    C2 6391   3.070   1.004  16.973  0.0125  0.2400 -0.1294
  425MPD2    C3 6392   3.014   1.119  16.927 -0.0124  1.1267 -0.8016
  425MPD2    C4 6393   3.090   1.232  16.902 -0.1436 -0.1555  0.2739
  425MPD2    C5 6394   3.224   1.225  16.923 -0.6604  0.4365  0.4088
  425MPD2     H 6395   3.007   0.916  16.976  0.5695 -0.1637 -0.2153
  425MPD2    H1 6396   3.048   1.322  16.859 -2.4575 -0.9181  0.9537
  425MPD2    H2 6397   3.390   1.118  17.004 -0.0011  1.1098 -1.2415
  425MPD2    H3 6398   3.285   1.311  16.897  1.5066 -0.9079  1.0303
  425MPD2     N 6399   2.875   1.121  16.897  0.0900  0.4201 -0.0130
  425MPD2    H5 6400   2.831   1.031  16.914 -0.6518  0.7412 -0.2676
  425MPD2    N1 6401   3.274   0.879  17.044  0.2549 -0.1594  0.0454
  425MPD2    H7 6402   3.374   0.890  17.057  0.1413  0.3468  0.4932
  426TMC3    C1 6403   3.311   0.646  17.087 -0.1967  0.0795  0.7832
  426TMC3    C2 6404   3.436   0.659  17.026 -0.4588  0.3505  0.5269
  426TMC3    C3 6405   3.510   0.542  17.022 -0.0761  0.9711 -0.6164
  426TMC3    C4 6406   3.266   0.527  17.138  0.5088 -0.6901 -0.5969
  426TMC3    C5 6407   3.350   0.422  17.148 -0.5138  0.2209 -0.4539
  426TMC3    C6 6408   3.479   0.429  17.096  0.2093  0.5328 -0.0035
  426TMC3     C 6409   3.219   0.760  17.081 -0.0099  0.2304  0.2346
  426TMC3     O 6410   3.114   0.747  17.141  0.4583  0.1640  0.9673
  426TMC3     H 6411   3.469   0.748  16.975 -0.9632  0.6707  0.7525
  426TMC3    H1 6412   3.163   0.514  17.168  1.0219 -2.3068  0.4269
  426TMC3    H2 6413   3.542   0.341  17.093  1.0167  1.1695 -1.4907
  426TMC3    C7 6414   3.290   0.287  17.141  0.6578 -0.5853  0.1266
  426TMC3    C8 6415   3.587   0.531  16.902 -0.0600  0.2803  0.1805
  426TMC3    O1 6416   3.347   0.203  17.075 -0.2184 -0.3285 -0.4417
  426TMC3    O2 6417   3.534   0.591  16.811 -0.3137 -0.4300  0.0291
  427MPD2     C 6418   1.786   3.392  14.591 -0.7330 -0.7638 -0.2432
  427MPD2    C1 6419   1.748   3.319  14.700  0.6277 -1.0190 -0.8678
  427MPD2    C2 6420   1.616   3.331  14.755 -0.4699  0.8302 -0.8518
  427MPD2    C3 6421   1.522   3.414  14.685  0.6981 -0.0541 -0.1093
  427MPD2    C4 6422   1.570   3.501  14.591  0.0565  0.4741  0.3091
  427MPD2    C5 6423   1.702   3.489  14.549  0.1242 -0.3085  0.1586
  427MPD2     H 6424   1.579   3.281  14.844  2.4782  2.6433  1.3853
  427MPD2    H1 6425   1.507   3.582  14.554  0.2429 -0.0280 -1.0798
  427MPD2    H2 6426   1.884   3.403  14.548 -0.4222 -1.5390  0.2690
  427MPD2    H3 6427   1.740   3.554  14.471  2.9728 -0.0328  1.8075
  427MPD2     N 6428   1.386   3.424  14.720 -1.1139 -0.1374  0.1236
  427MPD2    H5 6429   1.340   3.491  14.659  0.5632  1.4682  0.6044
  427MPD2    N1 6430   1.832   3.236  14.778  1.0842 -0.1338  0.1600
  427MPD2    H7 6431   1.803   3.177  14.856  0.0125  1.1875  0.7608
  428TMC3    C1 6432   2.003   3.094  14.817 -0.3103  0.3804 -0.3690
  428TMC3    C2 6433   1.913   2.997  14.866  0.2702 -0.3037 -0.2843
  428TMC3    C3 6434   1.966   2.895  14.947 -0.1003  0.1364  0.8202
  428TMC3    C4 6435   2.133   3.084  14.844  0.5895 -0.3566  0.7425
  428TMC3    C5 6436   2.181   2.987  14.931  0.1464  0.2136  0.3992
  428TMC3    C6 6437   2.096   2.887  14.980  0.2577  0.1644  0.2572
  428TMC3     C 6438   1.961   3.205  14.736 -0.4215  0.1426 -0.8453
  428TMC3     O 6439   2.028   3.248  14.641 -0.1244 -0.0718  1.1509
  428TMC3     H 6440   1.818   2.985  14.817 -0.6730 -0.1648  1.5128
  428TMC3    H1 6441   2.188   3.170  14.807 -2.6834  1.0407 -0.8853
  428TMC3    H2 6442   2.140   2.823  15.055 -1.7723  2.1263  3.1172
  428TMC3    C7 6443   2.323   2.992  14.960  0.1284  0.6732 -0.0029
  428TMC3    C8 6444   1.878   2.803  15.012 -0.3046 -0.4297  0.4635
  428TMC3    O1 6445   2.362   2.924  15.055 -0.2202 -0.2982 -1.0049
  428TMC3    O2 6446   1.921   2.690  15.045 -0.1780  0.2456 -0.0244
  429MPD2     C 6447   2.863   3.291  17.601 -0.4742  0.4111  0.2856
  429MPD2    C1 6448   2.915   3.208  17.502  0.4671  0.3075  1.2245
  429MPD2    C2 6449   2.969   3.271  17.394  0.3540  0.5951 -0.8751
  429MPD2    C3 6450   2.974   3.409  17.383 -0.3495  0.4700 -0.3741
  429MPD2    C4 6451   2.912   3.487  17.477 -0.4567 -0.5597  0.0717
  429MPD2    C5 6452   2.850   3.428  17.588  0.0350 -0.7564 -0.4729
  429MPD2     H 6453   3.006   3.217  17.307  1.3617 -2.3449  1.3764
  429MPD2    H1 6454   2.896   3.594  17.470 -2.5104 -0.9017 -0.3682
  429MPD2    H2 6455   2.838   3.247  17.697  0.2584 -0.1032  0.2356
  429MPD2    H3 6456   2.799   3.498  17.653 -0.5074 -2.0210  0.4517
  429MPD2     N 6457   3.030   3.459  17.263 -0.0864 -0.1902 -0.4718
  429MPD2    H5 6458   3.075   3.393  17.201 -1.0810  0.3082 -1.7562
  429MPD2    N1 6459   2.934   3.070  17.516 -0.0562  1.0357 -0.1345
  429MPD2    H7 6460   2.997   3.023  17.452 -0.6686 -1.0742  0.7872
  430TMC3    C1 6461   3.095   3.632  17.101 -0.6103  0.6153  0.3383
  430TMC3    C2 6462   3.043   3.734  17.026 -0.3251 -0.0147  0.1000
  430TMC3    C3 6463   3.087   3.744  16.899 -0.8862 -0.6305  0.2782
  430TMC3    C4 6464   3.184   3.544  17.057 -0.6833  0.4877  1.0916
  430TMC3    C5 6465   3.232   3.562  16.930 -0.5721  0.0663  0.3725
  430TMC3    C6 6466   3.174   3.654  16.850 -0.0380  0.3324 -0.1960
  430TMC3     C 6467   3.014   3.591  17.216 -0.1316 -0.2627  0.2823
  430TMC3     O 6468   2.945   3.688  17.259 -0.5085  0.1458  0.0350
  430TMC3     H 6469   2.965   3.804  17.056 -0.2460  0.3430 -0.5317
  430TMC3    H1 6470   3.232   3.475  17.125 -1.0024 -0.0882  0.7354
  430TMC3    H2 6471   3.203   3.653  16.746 -2.7974 -2.5647 -0.9324
  430TMC3    C7 6472   3.293   3.454  16.858  0.0648 -0.4580  0.1092
  430TMC3    C8 6473   3.029   3.834  16.811 -0.6917  0.1664 -0.3108
  430TMC3    O1 6474   3.268   3.337  16.889 -0.2269 -0.5757 -0.0483
  430TMC3    O2 6475   2.978   3.928  16.863  0.2009  0.3466  0.3742
  431MPD2     C 6476   3.712   3.668  12.759  0.3177  0.0095  0.3009
  431MPD2    C1 6477   3.787   3.746  12.673  0.0362  0.0794  0.2598
  431MPD2    C2 6478   3.873   3.685  12.583  0.3744  0.3961  0.3287
  431MPD2    C3 6479   3.911   3.556  12.597 -0.1333  0.0206  0.0265
  431MPD2    C4 6480   3.848   3.482  12.697 -0.3175  0.3234  0.0401
  431MPD2    C5 6481   3.749   3.540  12.775  0.6202  0.2279 -0.2863
  431MPD2     H 6482   3.910   3.740  12.497 -0.2488  1.2019  0.5722
  431MPD2    H1 6483   3.862   3.375  12.703 -1.9864  0.1546  0.8259
  431MPD2    H2 6484   3.624   3.702  12.812  1.1538 -0.0259  1.6994
  431MPD2    H3 6485   3.687   3.472  12.832  0.8234 -1.5007 -2.1283
  431MPD2     N 6486   4.008   3.491  12.519  0.5413 -0.1663 -0.0229
  431MPD2    H5 6487   4.037   3.403  12.561 -1.4731 -1.9935 -2.4762
  431MPD2    N1 6488   3.741   3.877  12.667  0.4030 -0.0177  0.2725
  431MPD2    H7 6489   3.660   3.898  12.724 -0.8632  2.6294 -2.4770
  432TMC3    C1 6490   4.216   3.486  12.413  0.2425 -0.3842  0.0513
  432TMC3    C2 6491   4.281   3.509  12.289 -0.1290  0.3761 -0.1007
  432TMC3    C3 6492   4.407   3.478  12.274 -0.6223 -0.4755  0.0513
  432TMC3    C4 6493   4.265   3.408  12.511 -0.5911  0.0025  0.0030
  432TMC3    C5 6494   4.400   3.372  12.488  0.2149  0.1109 -0.4378
  432TMC3    C6 6495   4.467   3.404  12.371 -0.2578 -0.6867 -0.1558
  432TMC3     C 6496   4.093   3.552  12.425  0.0059  0.5244 -0.1189
  432TMC3     O 6497   4.073   3.650  12.356  0.3630  0.3356  0.2395
  432TMC3     H 6498   4.234   3.563  12.207 -1.2167 -1.1248 -0.4842
  432TMC3    H1 6499   4.212   3.399  12.605  1.7509 -0.3565  1.2942
  432TMC3    H2 6500   4.574   3.382  12.373 -0.1700 -0.1652  1.0038
  432TMC3    C7 6501   4.466   3.277  12.573 -0.4452  0.2141  0.3554
  432TMC3    C8 6502   4.479   3.500  12.150 -0.2607 -0.0832  0.3647
  432TMC3    O1 6503   4.586   3.254  12.560  0.5553  0.0349 -0.3865
  432TMC3    O2 6504   4.418   3.544  12.054 -0.7307 -0.3592  0.3479
  433MPD2     C 6505   2.975   1.679  11.233  0.5813  0.0226 -0.1943
  433MPD2    C1 6506   3.029   1.547  11.247  0.6284  0.4754 -0.0647
  433MPD2    C2 6507   3.081   1.512  11.370  0.0450 -0.7939 -0.1870
  433MPD2    C3 6508   3.079   1.606  11.473 -0.0205 -0.7432  0.2524
  433MPD2    C4 6509   3.032   1.736  11.457 -0.1799  0.6397 -0.8331
  433MPD2    C5 6510   2.962   1.763  11.339  0.4346 -0.3186 -0.8695
  433MPD2     H 6511   3.132   1.417  11.380  1.8349 -0.0532 -2.1500
  433MPD2    H1 6512   3.025   1.803  11.542 -1.0280 -0.4250 -0.0716
  433MPD2    H2 6513   2.928   1.709  11.140  2.1821  1.2635 -0.6007
  433MPD2    H3 6514   2.916   1.861  11.334  0.4776 -0.2932 -0.7562
  433MPD2     N 6515   3.135   1.564  11.603  0.1672  0.0107 -0.5256
  433MPD2    H5 6516   3.146   1.464  11.618 -1.2464  0.3435  2.5729
  433MPD2    N1 6517   3.041   1.461  11.132 -0.1318 -0.0671  0.0661
  433MPD2    H7 6518   3.005   1.498  11.044  0.6906  0.3831 -0.0778
  434TMC3    C1 6519   3.082   1.284  10.991  0.1131 -0.0321 -0.8270
  434TMC3    C2 6520   3.047   1.153  11.007 -0.1280  0.5388 -0.0762
  434TMC3    C3 6521   2.982   1.096  10.909 -0.1464 -0.0881  0.0990
  434TMC3    C4 6522   3.043   1.350  10.877  0.0474 -0.9567 -0.4732
  434TMC3    C5 6523   2.987   1.285  10.773  0.5520  0.0312 -0.5461
  434TMC3    C6 6524   2.957   1.151  10.786  0.6761 -0.1089 -0.5020
  434TMC3     C 6525   3.109   1.344  11.125 -0.0145 -0.8727 -0.5378
  434TMC3     O 6526   3.163   1.268  11.201  0.3948  0.0478 -0.6914
  434TMC3     H 6527   3.077   1.091  11.091 -1.6036  0.6914  0.5533
  434TMC3    H1 6528   3.068   1.454  10.860 -1.5663 -0.5410 -0.2881
  434TMC3    H2 6529   2.926   1.089  10.703 -0.7477 -0.7120  0.4565
  434TMC3    C7 6530   2.903   1.362  10.693  0.2745  0.0901 -0.9449
  434TMC3    C8 6531   3.028   0.961  10.891 -0.6622 -0.1044  0.0115
  434TMC3    O1 6532   2.924   1.481  10.671  0.2561  0.3013  0.5890
  434TMC3    O2 6533   3.135   0.918  10.932 -0.5533  0.2860  0.1605
  435MPD2     C 6534   4.616   1.541  15.504  0.5326 -0.1323  0.7216
  435MPD2    C1 6535   4.606   1.604  15.627 -0.4284  0.4408  0.3004
  435MPD2    C2 6536   4.706   1.594  15.715 -0.0768  0.0926 -0.2802
  435MPD2    C3 6537   0.086   1.529  15.694  0.1834 -0.0397  0.9087
  435MPD2    C4 6538   0.095   1.473  15.563  0.0642  0.0598 -0.7019
  435MPD2    C5 6539   4.727   1.471  15.473  0.7888 -0.7290  0.8213
  435MPD2     H 6540   4.694   1.634  15.815 -3.6450 -2.1668  0.2050
  435MPD2    H1 6541   0.182   1.420  15.527 -0.5141 -2.6693  1.9134
  435MPD2    H2 6542   4.530   1.534  15.438  0.0758 -2.4851  1.5646
  435MPD2    H3 6543   4.734   1.421  15.377 -2.2374  1.6217 -0.5756
  435MPD2     N 6544   0.181   1.518  15.802  0.1989  0.0664  0.7552
  435MPD2    H5 6545   0.160   1.571  15.886  0.7649 -0.2758  1.1108
  435MPD2    N1 6546   4.483   1.664  15.668 -0.5920 -0.8322 -0.6212
  435MPD2    H7 6547   4.469   1.694  15.764 -0.7657  2.4289 -1.6632
  436TMC3    C1 6548   4.203   1.867  15.855  0.1846 -0.8516  0.1269
  436TMC3    C2 6549   4.291   1.830  15.755  0.5230  0.5515  0.5459
  436TMC3    C3 6550   4.258   1.721  15.679 -0.0515  0.2449  0.3877
  436TMC3    C4 6551   4.106   1.779  15.897  0.3514  0.0050  0.3130
  436TMC3    C5 6552   4.075   1.675  15.813  0.1635  0.3652 -0.7324
  436TMC3    C6 6553   4.154   1.640  15.713  0.9902  0.2302 -0.0028
  436TMC3     C 6554   4.238   1.972  15.947 -0.8131  0.1390 -0.3570
  436TMC3     O 6555   4.357   1.995  15.948  0.1268 -0.6549 -0.1420
  436TMC3     H 6556   4.366   1.904  15.731  1.4465  0.1524  2.1412
  436TMC3    H1 6557   4.053   1.800  15.989 -2.0804  1.6512 -1.4458
  436TMC3    H2 6558   4.143   1.545  15.663 -0.8713  1.7240 -2.4325
  436TMC3    C7 6559   3.962   1.588  15.846  0.1821  0.3460  0.0522
  436TMC3    C8 6560   4.360   1.668  15.593 -0.1951  0.0746  0.3318
  436TMC3    O1 6561   3.918   1.508  15.766  0.7941  0.0899  0.0006
  436TMC3    O2 6562   4.328   1.635  15.479  0.0041 -0.4977  0.2604
  437TMC3    C1 6563   3.858   4.353  12.096  0.0270 -0.2066 -0.3588
  437TMC3    C2 6564   3.806   4.290  11.987  0.4766 -0.1651 -0.1417
  437TMC3    C3 6565   3.896   4.237  11.895 -0.1735  0.4828 -0.5814
  437TMC3    C4 6566   3.988   4.357  12.124  0.1818  0.7555  0.0233
  437TMC3    C5 6567   4.067   4.292  12.034 -0.4196 -0.1094 -0.6264
  437TMC3    C6 6568   4.029   4.238  11.912 -0.3443 -0.3129  0.0114
  437TMC3     C 6569   3.767   4.406  12.199  0.7060  0.0618 -0.2260
  437TMC3     O 6570   3.809   4.479  12.291 -0.2581  0.0219 -0.3047
  437TMC3     H 6571   3.702   4.272  11.964  0.0563  0.2047  1.4754
  437TMC3    H1 6572   4.028   4.414  12.207 -0.6118  0.7778  0.3905
  437TMC3    H2 6573   4.098   4.189  11.844  0.2750 -1.0060  1.1487
  437TMC3    C7 6574   4.205   4.274  12.072  0.5080  0.4754  0.7522
  437TMC3    C8 6575   3.837   4.194  11.771  0.2916  0.2630  0.3153
  437TMC3    O1 6576   4.285   4.262  11.978 -0.0573  0.4353  0.5022
  437TMC3    O2 6577   3.722   4.159  11.777  0.8538  0.1509  0.0058
  438MPD2     C 6578   1.028   4.370  16.624  0.4306 -0.3697 -0.9128
  438MPD2    C1 6579   1.134   4.290  16.664  0.6815  0.3740 -0.2273
  438MPD2    C2 6580   1.183   4.306  16.790  0.0260  0.5348 -0.1038
  438MPD2    C3 6581   1.131   4.409  16.879  0.2133 -0.0359 -0.5523
  438MPD2    C4 6582   1.015   4.474  16.836  0.0764 -1.0961  0.5778
  438MPD2    C5 6583   0.963   4.460  16.701 -0.6280 -0.2994 -0.1308
  438MPD2     H 6584   1.263   4.240  16.820 -1.6289 -0.9086  1.0883
  438MPD2    H1 6585   0.965   4.549  16.896 -0.9878 -0.6750 -0.8407
  438MPD2    H2 6586   0.976   4.358  16.530 -0.3517 -1.8476 -0.2907
  438MPD2    H3 6587   0.875   4.510  16.663 -2.0328 -2.6184  0.0799
  438MPD2     N 6588   1.178   4.435  17.006  0.4931  0.1138  0.1180
  438MPD2    H5 6589   1.123   4.503  17.057  0.2487  1.0037 -1.3371
  438MPD2    N1 6590   1.207   4.199  16.591  0.3750  0.1302 -1.0499
  438MPD2    H7 6591   1.265   4.132  16.641 -0.7633 -0.7318 -0.9175
  439TMC3    C1 6592   1.295   4.101  16.392 -0.4312  0.5575 -0.3671
  439TMC3    C2 6593   1.256   4.062  16.265  0.0035  0.1562  0.1426
  439TMC3    C3 6594   1.317   3.948  16.225  0.2247  0.3139  0.2198
  439TMC3    C4 6595   1.390   4.044  16.471 -0.2896  0.1267  0.1849
  439TMC3    C5 6596   1.445   3.930  16.420 -0.6195  0.4735 -0.1425
  439TMC3    C6 6597   1.413   3.879  16.294 -0.2797 -0.1354  0.7342
  439TMC3     C 6598   1.206   4.198  16.454 -0.4093  0.0920  0.2209
  439TMC3     O 6599   1.126   4.260  16.383 -0.2598 -0.4647 -0.0348
  439TMC3     H 6600   1.171   4.112  16.219  0.4267  0.7271 -0.0188
  439TMC3    H1 6601   1.420   4.084  16.567  4.0606 -0.7861 -0.7977
  439TMC3    H2 6602   1.435   3.776  16.270 -0.8972 -0.1699  0.3124
  439TMC3    C7 6603   1.578   3.883  16.463 -0.7446 -0.1461 -0.0163
  439TMC3    C8 6604   1.317   3.914  16.086 -0.4243  1.1074  0.0985
  439TMC3    O1 6605   1.608   3.912  16.575 -0.4529  0.0316 -0.0171
  439TMC3    O2 6606   1.365   3.805  16.053 -0.3570 -0.5606  0.5364
  440MPD2     C 6607   4.609   0.561  14.534  0.3118 -0.1170  0.5167
  440MPD2    C1 6608   4.540   0.498  14.638 -0.7164 -0.0753 -0.4173
  440MPD2    C2 6609   4.603   0.397  14.704  0.4570 -0.5004 -0.3575
  440MPD2    C3 6610   4.727   0.354  14.664 -0.0233  0.5765  0.2382
  440MPD2    C4 6611   0.053   0.415  14.556  0.9606  0.2461  0.5042
  440MPD2    C5 6612   4.728   0.516  14.489  0.4822  0.4239 -0.0029
  440MPD2     H 6613   4.554   0.336  14.781 -0.5381 -1.0942 -1.4593
  440MPD2    H1 6614   0.147   0.373  14.521  0.9237  1.9745 -1.6618
  440MPD2    H2 6615   4.568   0.643  14.476  1.6749  0.3006  0.1401
  440MPD2    H3 6616   0.033   0.567  14.402  1.2469  1.4876  0.9942
  440MPD2     N 6617   0.056   0.241  14.715 -0.3437 -0.2989  0.0696
  440MPD2    H5 6618   0.144   0.218  14.670 -0.8769 -1.8227 -0.1954
  440MPD2    N1 6619   4.410   0.541  14.676 -0.1285  0.5788 -1.0048
  440MPD2    H7 6620   4.369   0.499  14.759  0.0680  1.2062 -0.5911
  441TMC3    C1 6621   0.123   0.076  14.870  0.3677  0.0174  0.2086
  441TMC3    C2 6622   0.255   0.119  14.852 -0.2753  0.0232  0.3436
  441TMC3    C3 6623   0.347   0.075  14.944  0.5875  0.0320  0.5854
  441TMC3    C4 6624   0.082   4.736  14.980 -0.0023 -0.0838  0.4151
  441TMC3    C5 6625   0.186   4.688  15.060  0.3134 -0.1301  0.2168
  441TMC3    C6 6626   0.312   4.727  15.039  0.5516 -0.5475  0.0816
  441TMC3     C 6627   0.018   0.159  14.818 -0.0324 -0.1225 -0.3316
  441TMC3     O 6628   4.648   0.153  14.880 -0.4126  0.1790 -0.4582
  441TMC3     H 6629   0.300   0.167  14.765  0.2610 -0.0657  0.5732
  441TMC3    H1 6630   4.722   4.689  14.997 -1.0211  1.3547 -1.3736
  441TMC3    H2 6631   0.383   4.715  15.119 -0.8503  0.9014  1.5349
  441TMC3    C7 6632   0.156   4.609  15.179 -0.1324  1.0508 -0.0188
  441TMC3    C8 6633   0.397   0.196  15.011  0.2134 -0.7669 -0.3176
  441TMC3    O1 6634   0.050   4.636  15.236 -0.2049  0.1402 -0.1527
  441TMC3    O2 6635   0.502   0.184  15.067  0.2134  0.0770 -0.0969
  442MPD2     C 6636   2.829   0.412  16.563  0.0274 -0.8632  0.3950
  442MPD2    C1 6637   2.706   0.351  16.540 -0.6523  0.0935 -0.1454
  442MPD2    C2 6638   2.696   0.256  16.449 -0.3905  0.0493 -0.3200
  442MPD2    C3 6639   2.803   0.225  16.363 -0.1442  0.0144 -0.2564
  442MPD2    C4 6640   2.923   0.287  16.373 -0.8647  0.8458 -0.2361
  442MPD2    C5 6641   2.935   0.383  16.475 -0.1512  0.0503 -0.4502
  442MPD2     H 6642   2.604   0.198  16.447 -0.4366  0.0884  0.6652
  442MPD2    H1 6643   3.001   0.273  16.300 -0.7854 -1.1764  0.2418
  442MPD2    H2 6644   2.841   0.472  16.653 -1.7742  0.3481 -0.1699
  442MPD2    H3 6645   3.018   0.452  16.483  0.0492 -0.3817  1.1172
  442MPD2     N 6646   2.790   0.125  16.259  0.9831  0.8905 -0.8574
  442MPD2    H5 6647   2.867   0.125  16.192  1.7029 -0.3211 -0.0377
  442MPD2    N1 6648   2.593   0.378  16.619 -0.3480  0.2042 -0.1526
  442MPD2    H7 6649   2.517   0.313  16.636  0.0422 -0.1940  0.0763
  443TMC3    C1 6650   2.475   0.505  16.765 -0.3960 -0.0026 -0.3605
  443TMC3    C2 6651   2.399   0.618  16.759 -0.0464  0.1458 -0.1563
  443TMC3    C3 6652   2.265   0.604  16.804  0.8515  0.7382  0.2934
  443TMC3    C4 6653   2.422   0.383  16.809 -0.1158 -0.1993  0.0446
  443TMC3    C5 6654   2.299   0.387  16.867  0.0674 -0.0553 -0.2284
  443TMC3    C6 6655   2.215   0.493  16.863  0.3471  0.5303  0.2901
  443TMC3     C 6656   2.586   0.499  16.676  1.0087 -0.4416  0.5790
  443TMC3     O 6657   2.636   0.604  16.641  0.3236  0.1617 -0.5194
  443TMC3     H 6658   2.444   0.705  16.713 -1.0470 -0.7931 -2.9109
  443TMC3    H1 6659   2.490   0.300  16.825  1.0963  1.0704  1.4960
  443TMC3    H2 6660   2.122   0.494  16.919 -0.5778  0.8675 -1.2553
  443TMC3    C7 6661   2.257   0.261  16.926  0.1038 -0.0679 -0.6748
  443TMC3    C8 6662   2.187   0.723  16.800 -0.2955  0.3124 -0.2635
  443TMC3    O1 6663   2.326   0.158  16.890 -0.4652  0.2850  0.3172
  443TMC3    O2 6664   2.114   0.745  16.896 -0.1006 -0.8619  0.2563
  444MPD2     C 6665   3.134   0.152  16.758 -0.0843 -0.1443 -0.8369
  444MPD2    C1 6666   3.046   0.043  16.743  0.1504  0.3965  0.6179
  444MPD2    C2 6667   3.079   4.664  16.681  0.1936  0.5820 -0.4614
  444MPD2    C3 6668   3.211   4.658  16.630 -0.1451  0.8669 -0.0375
  444MPD2    C4 6669   3.302   0.029  16.629  0.4959 -0.1041 -0.4296
  444MPD2    C5 6670   3.258   0.141  16.698 -0.3114 -0.3203 -0.1942
  444MPD2     H 6671   3.015   4.576  16.686 -0.4718  0.9745 -2.5344
  444MPD2    H1 6672   3.403   0.025  16.591 -0.0514 -0.6688 -1.8373
  444MPD2    H2 6673   3.099   0.245  16.802  0.6684 -0.1234 -0.2772
  444MPD2    H3 6674   3.322   0.229  16.702 -0.7877  0.0147  0.1142
  444MPD2     N 6675   3.241   4.536  16.562 -0.3651  0.3003  0.1300
  444MPD2    H5 6676   3.167   4.467  16.554 -1.3986  1.5937 -1.3439
  444MPD2    N1 6677   2.913   0.045  16.794  0.2905  0.5208  0.4661
  444MPD2    H7 6678   2.867   4.700  16.755  2.2529  0.1678 -1.1363
  445TMC3    C1 6679   3.376   4.366  16.478  0.1815 -0.1357  0.1897
  445TMC3    C2 6680   3.280   4.325  16.393  0.3620  0.1589  0.0717
  445TMC3    C3 6681   3.289   4.191  16.341 -0.0367 -0.0353 -0.3008
  445TMC3    C4 6682   3.481   4.283  16.509  0.5837 -0.3467 -0.4939
  445TMC3    C5 6683   3.478   4.149  16.461  0.3547 -0.1678 -0.0899
  445TMC3    C6 6684   3.378   4.095  16.388 -0.1146  0.0144 -0.4880
  445TMC3     C 6685   3.371   4.500  16.531  0.5488  0.3792 -0.2944
  445TMC3     O 6686   3.480   4.538  16.566  0.1095 -0.0181  0.0707
  445TMC3     H 6687   3.222   4.403  16.346 -0.2392 -1.2191 -1.4670
  445TMC3    H1 6688   3.557   4.309  16.582  0.5996 -4.0646  0.8203
  445TMC3    H2 6689   3.383   3.993  16.353 -0.4866  1.1736 -3.8952
  445TMC3    C7 6690   3.611   4.111  16.430 -0.6361  0.4053 -0.0933
  445TMC3    C8 6691   3.201   4.171  16.229  0.0067  0.2252  0.1090
  445TMC3    O1 6692   3.693   4.201  16.422  0.1576  0.3197 -0.0368
  445TMC3    O2 6693   3.113   4.251  16.212 -0.3674 -0.0967  0.1741
  446MPD2     C 6694   2.832   0.925  11.477  0.2977  0.2866 -0.7251
  446MPD2    C1 6695   2.861   0.845  11.371  0.7556 -0.2201 -0.3934
  446MPD2    C2 6696   2.983   0.838  11.314 -0.2049 -0.3363  0.7430
  446MPD2    C3 6697   3.089   0.921  11.359 -0.4637  0.1358  0.3296
  446MPD2    C4 6698   3.060   1.005  11.468  0.2893 -0.1483  0.6999
  446MPD2    C5 6699   2.933   1.004  11.530 -0.4691  0.2848  0.1751
  446MPD2     H 6700   3.009   0.776  11.229 -0.5239 -1.2442  1.2979
  446MPD2    H1 6701   3.126   1.080  11.510  0.7773 -0.0593 -0.2257
  446MPD2    H2 6702   2.733   0.930  11.522  0.4386  1.8791 -0.5947
  446MPD2    H3 6703   2.917   1.073  11.612  0.7986 -0.8048  1.3373
  446MPD2     N 6704   3.216   0.921  11.301  0.0194  0.2358  0.4790
  446MPD2    H5 6705   3.273   1.001  11.327 -2.6757  2.8838 -1.7704
  446MPD2    N1 6706   2.757   0.780  11.308 -0.3613 -0.1523 -0.6111
  446MPD2    H7 6707   2.777   0.747  11.215 -2.2706 -1.3966 -0.5837
  447TMC3    C1 6708   3.398   0.833  11.181 -0.0418  0.2799  0.2540
  447TMC3    C2 6709   3.408   0.960  11.119 -0.5300  0.1010 -0.2668
  447TMC3    C3 6710   3.488   0.970  11.011  0.4002  0.5257  0.6440
  447TMC3    C4 6711   3.474   0.726  11.139 -0.1934  0.2993 -0.3092
  447TMC3    C5 6712   3.552   0.740  11.027  0.0107  0.2690  0.3476
  447TMC3    C6 6713   3.565   0.865  10.968  0.3786 -0.0967 -0.1903
  447TMC3     C 6714   3.267   0.809  11.231 -0.1072  0.0185 -0.3024
  447TMC3     O 6715   3.228   0.691  11.217 -0.4259  0.0257 -0.0985
  447TMC3     H 6716   3.342   1.037  11.157  1.8984  1.1223  1.8877
  447TMC3    H1 6717   3.474   0.633  11.196 -1.9693 -1.1127 -2.5761
  447TMC3    H2 6718   3.631   0.877  10.883 -0.4832  0.0798 -0.8414
  447TMC3    C7 6719   3.653   0.645  10.998  0.1202 -0.0863 -0.4370
  447TMC3    C8 6720   3.463   1.071  10.920  0.3497  0.2829  0.6992
  447TMC3    O1 6721   3.755   0.688  10.949 -0.2209  0.0070 -0.2440
  447TMC3    O2 6722   3.488   1.045  10.804 -0.4315  0.1767 -0.6004
  448TMC3    C1 6723   0.956   0.958  17.091  0.9141  0.8588 -0.3602
  448TMC3    C2 6724   0.964   0.873  16.994 -0.4581 -0.2862 -0.1793
  448TMC3    C3 6725   1.026   0.751  17.019 -0.7519 -0.0149  0.4189
  448TMC3    C4 6726   1.021   0.942  17.210 -0.6011 -0.5285  0.9061
  448TMC3    C5 6727   1.101   0.830  17.222 -0.1976 -0.0634 -0.5908
  448TMC3    C6 6728   1.104   0.729  17.129  0.2900  0.6388  0.6378
  448TMC3     C 6729   0.927   1.091  17.045 -0.6011  0.6072  0.2760
  448TMC3     O 6730   0.834   1.105  16.970 -0.7970  0.6053  0.1616
  448TMC3     H 6731   0.909   0.891  16.902 -1.6467 -2.1843  0.1542
  448TMC3    H1 6732   1.013   1.018  17.288  0.5769  1.8344 -1.2683
  448TMC3    H2 6733   1.152   0.632  17.145 -0.4810  0.5608  2.4414
  448TMC3    C7 6734   1.190   0.817  17.333 -0.3258  0.4067  0.0608
  448TMC3    C8 6735   1.012   0.638  16.930  1.1314 -0.5956  0.1562
  448TMC3    O1 6736   1.285   0.741  17.318 -0.8503 -0.1300 -0.4352
  448TMC3    O2 6737   1.092   0.545  16.937 -0.1716  0.0099 -0.5223
  449MPD2     C 6738   2.886   3.809  13.494  0.3625 -0.6388 -1.1583
  449MPD2    C1 6739   2.776   3.841  13.419  0.1378 -0.6668  1.0262
  449MPD2    C2 6740   2.654   3.863  13.480 -0.1296  0.1423  0.3980
  449MPD2    C3 6741   2.645   3.872  13.616 -0.5760  0.2975  0.3892
  449MPD2    C4 6742   2.750   3.852  13.692  0.0082 -0.6042  0.8240
  449MPD2    C5 6743   2.874   3.821  13.628  0.2952 -0.5881 -0.1001
  449MPD2     H 6744   2.565   3.864  13.418 -0.8107  1.3298  1.3792
  449MPD2    H1 6745   2.747   3.858  13.800  1.3364 -1.3026  0.8996
  449MPD2    H2 6746   2.984   3.794  13.451  0.2795 -1.0871 -1.1969
  449MPD2    H3 6747   2.958   3.801  13.694  0.1502  0.4610  0.4010
  449MPD2     N 6748   2.514   3.903  13.669  0.9538 -0.4692 -0.1438
  449MPD2    H5 6749   2.440   3.907  13.599  0.9561  0.7182 -0.0868
  449MPD2    N1 6750   2.782   3.840  13.279 -0.1054  0.4064  0.3511
  449MPD2    H7 6751   2.689   3.859  13.240 -0.9279 -1.3413  1.4548
  450TMC3    C1 6752   2.869   3.921  13.080  0.2960 -0.0195  0.0767
  450TMC3    C2 6753   2.939   4.028  13.047  0.1902  0.1424  0.1684
  450TMC3    C3 6754   2.867   4.129  12.989  0.6138 -0.3933  0.4823
  450TMC3    C4 6755   2.731   3.915  13.054  0.2195 -0.3460 -0.5713
  450TMC3    C5 6756   2.665   4.031  13.012 -0.6514 -0.1719  0.0560
  450TMC3    C6 6757   2.736   4.146  12.979  1.1976  1.0633  0.0649
  450TMC3     C 6758   2.898   3.864  13.209  0.3402 -0.0814  0.0024
  450TMC3     O 6759   3.012   3.887  13.247 -0.0737 -0.4234 -0.0924
  450TMC3     H 6760   3.043   4.029  13.075 -0.1576  0.2981  1.4610
  450TMC3    H1 6761   2.669   3.826  13.061 -1.0028  0.4774 -1.0660
  450TMC3    H2 6762   2.688   4.238  12.949  0.9300  1.0351  0.4046
  450TMC3    C7 6763   2.548   4.049  13.091  0.3472 -0.1409 -0.1874
  450TMC3    C8 6764   2.951   4.237  12.937  0.5574 -0.0783  0.1003
  450TMC3    O1 6765   2.490   3.947  13.134 -0.1870 -0.4287 -0.0215
  450TMC3    O2 6766   2.878   4.340  12.939 -0.4454  0.1367 -0.2322
  451MPD2     C 6767   3.231   2.929   0.681  0.3371  0.1083 -0.2888
  451MPD2    C1 6768   3.341   3.003   0.634 -0.3008 -0.1146 -0.0053
  451MPD2    C2 6769   3.447   2.944   0.583 -0.4244 -0.0381  0.3000
  451MPD2    C3 6770   3.450   2.806   0.556 -0.7511 -0.3185  0.3580
  451MPD2    C4 6771   3.343   2.735   0.597 -0.0743 -0.1002  0.6747
  451MPD2    C5 6772   3.236   2.794   0.669  0.8759  0.6410  0.2534
  451MPD2     H 6773   3.535   3.006   0.570  0.6676 -1.6453  0.0257
  451MPD2    H1 6774   3.336   2.627   0.581  0.8535 -0.0993  0.2847
  451MPD2    H2 6775   3.143   2.975   0.723  2.3027  3.6395 -0.0417
  451MPD2    H3 6776   3.152   2.745   0.717  2.3528 -0.5783  1.5707
  451MPD2     N 6777   3.565   2.733   0.506 -0.2064  0.0424 -0.1676
  451MPD2    H5 6778   3.557   2.631   0.503 -0.3609 -0.0553  3.2275
  451MPD2    N1 6779   3.334   3.142   0.649 -0.0917  0.6951 -0.8392
  451MPD2    H7 6780   3.239   3.172   0.670 -0.3720  0.7407 -2.1367
  452TMC3    C1 6781   3.773   2.695   0.423  0.2668 -0.5978  0.4443
  452TMC3    C2 6782   3.737   2.563   0.395  0.5385  0.1335  0.5646
  452TMC3    C3 6783   3.842   2.482   0.340 -0.8179 -0.2880  0.0787
  452TMC3    C4 6784   3.905   2.740   0.424 -0.0760  0.3651 -0.8301
  452TMC3    C5 6785   4.003   2.649   0.386  0.4437 -0.0783 -0.8202
  452TMC3    C6 6786   3.977   2.518   0.342  0.2876 -0.1520 -0.0555
  452TMC3     C 6787   3.685   2.792   0.488  0.9466  0.2666 -0.0495
  452TMC3     O 6788   3.731   2.899   0.514  0.7030 -0.4028 -0.3933
  452TMC3     H 6789   3.636   2.527   0.383  1.3810 -1.2715 -2.4113
  452TMC3    H1 6790   3.929   2.845   0.437  1.9367 -0.3980  1.4373
  452TMC3    H2 6791   4.061   2.458   0.309 -0.6251 -1.4219 -0.0449
  452TMC3    C7 6792   4.108   2.711   0.310 -0.7405 -0.3740 -0.1792
  452TMC3    C8 6793   3.799   2.382   0.237  0.0612  0.2257 -1.1402
  452TMC3    O1 6794   4.140   2.660   0.201  0.2062 -0.5041  0.1575
  452TMC3    O2 6795   3.683   2.344   0.240  0.5266 -0.1875 -0.2091
  453TMC3    C1 6796   0.695   4.598  11.613 -0.1369  0.7465 -0.4152
  453TMC3    C2 6797   0.597   4.596  11.707 -0.4183 -0.1703 -0.5162
  453TMC3    C3 6798   0.533   4.714  11.726 -0.8847 -0.1840 -0.0648
  453TMC3    C4 6799   0.715   4.705  11.527 -0.0110  0.0207  0.2711
  453TMC3    C5 6800   0.652   0.084  11.553  0.0196 -0.0616  0.5566
  453TMC3    C6 6801   0.549   0.091  11.649 -0.0057  0.2914  0.3400
  453TMC3     C 6802   0.793   4.485  11.600  0.2182 -0.6988 -0.2977
  453TMC3     O 6803   0.902   4.514  11.546  0.0604 -0.1253  0.0243
  453TMC3     H 6804   0.587   4.521  11.785  0.6892 -0.5079 -0.7038
  453TMC3    H1 6805   0.793   4.703  11.452 -1.4839 -0.7682 -1.2375
  453TMC3    H2 6806   0.477   0.171  11.656 -0.7033 -0.2460 -0.6527
  453TMC3    C7 6807   0.692   0.196  11.472 -0.4696 -0.1050  0.1053
  453TMC3    C8 6808   0.415   4.715  11.817 -0.3292 -0.0926 -0.4179
  453TMC3    O1 6809   0.756   0.179  11.370 -0.3839  0.2719  0.3346
  453TMC3    O2 6810   0.374   0.081  11.871  0.0089  0.6043 -0.2951
  454MPD2     C 6811   3.915   4.657  16.133 -0.2032 -0.6257 -0.9320
  454MPD2    C1 6812   3.858   4.705  16.017  0.4092 -0.9606  0.4820
  454MPD2    C2 6813   3.777   0.075  16.023  0.5352 -1.1069 -0.4346
  454MPD2    C3 6814   3.771   0.154  16.137  0.7965 -0.2535  0.4549
  454MPD2    C4 6815   3.829   0.106  16.248 -0.4689  0.0315  0.4534
  454MPD2    C5 6816   3.905   4.729  16.248 -0.0290 -0.0867 -0.0203
  454MPD2     H 6817   3.724   0.112  15.936 -0.1840 -2.0321 -0.3792
  454MPD2    H1 6818   3.826   0.162  16.341  1.8877  0.4077  0.3127
  454MPD2    H2 6819   3.967   4.562  16.139  0.4961 -0.3872 -3.4358
  454MPD2    H3 6820   3.945   4.682  16.337 -2.3126 -0.4011  0.8511
  454MPD2     N 6821   3.680   0.266  16.143  0.1649  0.7908 -0.3717
  454MPD2    H5 6822   3.677   0.317  16.231 -1.7015  0.1592 -0.0553
  454MPD2    N1 6823   3.862   4.642  15.891  0.4877 -0.0189  0.0979
  454MPD2    H7 6824   3.818   4.690  15.813 -0.7078  0.2845  0.9628
  455TMC3    C1 6825   3.457   0.338  16.101 -0.0665 -0.2558 -0.0506
  455TMC3    C2 6826   3.449   0.416  16.206 -0.0898  0.2477 -0.1153
  455TMC3    C3 6827   3.371   0.372  16.303 -1.0226  0.0445  0.3803
  455TMC3    C4 6828   3.378   0.229  16.081  0.2962 -0.2585  0.2294
  455TMC3    C5 6829   3.296   0.182  16.180  0.2524 -0.3760 -0.8541
  455TMC3    C6 6830   3.287   0.264  16.293 -0.1877  0.0391  0.4454
  455TMC3     C 6831   3.592   0.311  16.049  0.6268  0.3940 -0.1215
  455TMC3     O 6832   3.590   0.291  15.928  0.2231  0.1823  0.7161
  455TMC3     H 6833   3.519   0.497  16.227 -0.2269  0.0907  0.9403
  455TMC3    H1 6834   3.409   0.161  16.002  0.6886  0.6766 -0.4249
  455TMC3    H2 6835   3.242   0.232  16.385  1.4094 -2.4958  0.3365
  455TMC3    C7 6836   3.369   0.059  16.221  0.1823  0.2000 -0.1319
  455TMC3    C8 6837   3.433   0.382  16.433  0.8446 -0.2762  0.1953
  455TMC3    O1 6838   3.445   0.064  16.314 -0.1329 -0.2445 -0.2848
  455TMC3    O2 6839   3.418   0.490  16.493 -0.2414  0.5762  0.4058
  456MPD2     C 6840   1.147   4.490  15.777  0.2832  0.2507  0.4130
  456MPD2    C1 6841   1.254   4.445  15.851  0.4152 -0.3346  0.2695
  456MPD2    C2 6842   1.249   4.459  15.986  0.7129  0.1388 -0.0070
  456MPD2    C3 6843   1.138   4.516  16.049 -0.0207  0.7519  0.3781
  456MPD2    C4 6844   1.037   4.569  15.970  0.0269 -0.2074 -0.4999
  456MPD2    C5 6845   1.047   4.559  15.834 -0.4668 -0.2415  0.4982
  456MPD2     H 6846   1.327   4.422  16.050  1.4293  0.4722 -0.6843
  456MPD2    H1 6847   0.963   4.626  16.024 -0.1993 -0.6751 -0.3084
  456MPD2    H2 6848   1.142   4.483  15.669 -0.9930  0.8705  0.4251
  456MPD2    H3 6849   0.968   4.595  15.769 -0.4410 -3.1945 -1.1769
  456MPD2     N 6850   1.143   4.529  16.185 -0.4069  0.0940  0.2494
  456MPD2    H5 6851   1.219   4.484  16.235  0.4012  0.7879 -0.3474
  456MPD2    N1 6852   1.362   4.389  15.787 -0.0769 -0.0390  0.0242
  456MPD2    H7 6853   1.367   4.386  15.686  1.8682  0.5811  0.1106
  457TMC3    C1 6854   1.117   4.639  16.400 -0.3712  0.0157 -0.0758
  457TMC3    C2 6855   1.051   4.734  16.474 -0.0602  0.0364 -0.3146
  457TMC3    C3 6856   1.118   0.052  16.582 -0.2168  0.2829 -0.6921
  457TMC3    C4 6857   1.231   4.585  16.435 -0.5694  0.5468  0.1518
  457TMC3    C5 6858   1.291   4.639  16.541 -0.3573 -0.2007  0.1677
  457TMC3    C6 6859   1.238   0.005  16.619 -0.0313 -0.6529  0.6288
  457TMC3     C 6860   1.057   4.597  16.276 -0.1809 -0.9232  0.2855
  457TMC3     O 6861   0.948   4.647  16.249  0.5701 -0.0968 -0.8373
  457TMC3     H 6862   0.954   0.030  16.438 -0.6134 -0.8312  0.3941
  457TMC3    H1 6863   1.260   4.494  16.384 -0.4934  0.9795 -0.5727
  457TMC3    H2 6864   1.295   0.043  16.703  0.3713  0.6209 -0.2218
  457TMC3    C7 6865   1.386   4.558  16.617 -0.0714  0.2346 -0.0918
  457TMC3    C8 6866   1.070   0.176  16.641  0.4616  0.3552  0.5903
  457TMC3    O1 6867   1.367   4.568  16.735 -0.4323 -0.5137  0.0933
  457TMC3    O2 6868   1.114   0.212  16.749 -0.0407  0.5577  0.0049
  458MPD2     C 6869   4.588   4.106  12.374 -0.4759  0.1614 -0.1356
  458MPD2    C1 6870   4.481   4.149  12.448 -0.3768 -1.1195  0.5043
  458MPD2    C2 6871   4.360   4.190  12.396 -0.4442 -1.6898  0.1124
  458MPD2    C3 6872   4.353   4.201  12.261 -0.2449 -0.0240 -0.7040
  458MPD2    C4 6873   4.458   4.156  12.180 -0.3531 -0.0346 -0.3536
  458MPD2    C5 6874   4.576   4.118  12.239  0.1672 -0.0113 -0.8735
  458MPD2     H 6875   4.275   4.221  12.457 -0.8009 -2.4175 -0.0205
  458MPD2    H1 6876   4.447   4.144  12.073  0.1803  2.2211 -0.6435
  458MPD2    H2 6877   4.679   4.066  12.416  1.5137  2.6134 -2.0548
  458MPD2    H3 6878   4.663   4.086  12.184 -0.1076 -0.4816 -1.0360
  458MPD2     N 6879   4.230   4.253  12.205 -0.1026 -0.3785  0.1961
  458MPD2    H5 6880   4.158   4.263  12.275 -0.6274  2.0571 -0.7046
  458MPD2    N1 6881   4.502   4.153  12.587 -0.2751 -0.6549 -0.3910
  458MPD2    H7 6882   4.592   4.123  12.623  0.0319 -0.3837 -0.9253
  459TMC3    C1 6883   4.463   4.214  12.809 -0.0831 -0.7645 -0.7508
  459TMC3    C2 6884   4.566   4.301  12.805 -0.2695  0.2376  0.0077
  459TMC3    C3 6885   4.626   4.325  12.921  0.3470  0.4978  0.2754
  459TMC3    C4 6886   4.426   4.142  12.917  0.0589  0.3618 -0.2179
  459TMC3    C5 6887   4.485   4.182  13.037 -0.2526  0.2613 -0.4738
  459TMC3    C6 6888   4.592   4.263  13.040  0.1376 -0.0372  0.4118
  459TMC3     C 6889   4.404   4.180  12.685 -0.7394 -0.3807 -0.2656
  459TMC3     O 6890   4.282   4.199  12.667  0.2596  0.5158  0.9340
  459TMC3     H 6891   4.586   4.354  12.712 -0.4387  0.3133  0.0153
  459TMC3    H1 6892   4.347   4.068  12.913 -1.9963  2.6456 -1.8217
  459TMC3    H2 6893   4.642   4.278  13.135 -0.2493 -1.3006  0.8151
  459TMC3    C7 6894   4.463   4.109  13.156 -0.4370 -0.1561 -0.2817
  459TMC3    C8 6895   0.010   4.401  12.920  0.3292  0.6210  0.6889
  459TMC3    O1 6896   4.539   4.128  13.250  0.0345 -0.1573  0.2716
  459TMC3    O2 6897   0.026   4.478  13.012  0.7868 -0.1746  0.2863
  460MPD2     C 6898   3.424   1.426  10.950 -0.1423 -0.2780  0.4072
  460MPD2    C1 6899   3.408   1.303  10.893  0.1645 -0.7063  0.4691
  460MPD2    C2 6900   3.361   1.296  10.761 -0.4381  0.2209  0.0111
  460MPD2    C3 6901   3.339   1.411  10.686 -0.1921 -0.6041 -0.4215
  460MPD2    C4 6902   3.370   1.534  10.738 -0.2938 -0.2336 -1.5689
  460MPD2    C5 6903   3.413   1.538  10.870  0.5837  0.3274  0.1408
  460MPD2     H 6904   3.359   1.202  10.708  1.5442  1.2074 -1.8404
  460MPD2    H1 6905   3.366   1.632  10.692 -1.2015 -1.2379 -3.6092
  460MPD2    H2 6906   3.442   1.435  11.056  0.9584  1.1188  0.1062
  460MPD2    H3 6907   3.443   1.635  10.906 -0.9892  0.9917 -0.3522
  460MPD2     N 6908   3.268   1.393  10.558  0.0163  0.0540  0.5947
  460MPD2    H5 6909   3.213   1.308  10.544  1.1142 -0.6994  0.9106
  460MPD2    N1 6910   3.427   1.194  10.974  0.0752  0.6854  0.0601
  460MPD2    H7 6911   3.434   1.213  11.073  0.7994  1.1544 -0.0803
  461TMC3    C1 6912   3.136   1.469  10.371 -0.3377  0.1133 -0.2366
  461TMC3    C2 6913   3.139   1.353  10.306 -0.2052 -0.7739  0.5163
  461TMC3    C3 6914   3.054   1.329  10.200  0.5931  0.4464  0.6869
  461TMC3    C4 6915   3.072   1.571  10.318  0.3583  0.1438  0.3965
  461TMC3    C5 6916   3.015   1.565  10.192  0.5382  0.3810 -0.1953
  461TMC3    C6 6917   3.000   1.439  10.143  0.1882 -0.6780  0.2816
  461TMC3     C 6918   3.236   1.499  10.473  0.2335 -0.0726  0.1999
  461TMC3     O 6919   3.288   1.610  10.463  0.0823 -0.3743  0.1646
  461TMC3     H 6920   3.191   1.269  10.349 -1.5709 -1.7178  0.3207
  461TMC3    H1 6921   3.059   1.655  10.386  3.0709 -1.2222  2.6158
  461TMC3    H2 6922   2.937   1.422  10.056 -0.9505  0.8107  0.8229
  461TMC3    C7 6923   2.949   1.679  10.138  0.2171  0.2392 -0.0602
  461TMC3    C8 6924   3.072   1.204  10.128 -0.6197  0.2287 -0.1066
  461TMC3    O1 6925   2.871   1.660  10.045 -0.0613  0.2826  0.1783
  461TMC3    O2 6926   3.166   1.132  10.153  0.2647  0.2045 -0.1622
  462TMC3    C1 6927   3.107   3.000   0.325 -0.4495  0.3767  0.2010
  462TMC3    C2 6928   3.238   2.992   0.293  0.3050  0.6146 -0.0322
  462TMC3    C3 6929   3.294   2.869   0.254 -0.1924 -0.5672 -0.0109
  462TMC3    C4 6930   3.021   2.894   0.308 -0.0388 -0.4031  0.3757
  462TMC3    C5 6931   3.076   2.778   0.263  0.0240 -0.6994 -0.1096
  462TMC3    C6 6932   3.211   2.753   0.243 -0.2785  0.5949 -0.9475
  462TMC3     C 6933   3.047   3.129   0.363 -0.2317 -0.0198 -0.1979
  462TMC3     O 6934   2.934   3.133   0.415  0.2165  0.6826  0.3470
  462TMC3     H 6935   3.306   3.074   0.316  0.6505  0.0173  1.0670
  462TMC3    H1 6936   2.914   2.902   0.324 -0.2731 -0.2475 -1.3071
  462TMC3    H2 6937   3.253   2.671   0.187  0.4821  0.6438 -0.4428
  462TMC3    C7 6938   2.990   2.678   0.208 -0.7785  0.6287  0.0747
  462TMC3    C8 6939   3.438   2.867   0.230  0.1271  0.5904  0.1576
  462TMC3    O1 6940   3.050   2.575   0.182  0.2383  0.0673 -0.1074
  462TMC3    O2 6941   3.493   2.977   0.249 -0.1527  0.4609  0.1889
  463MPD2     C 6942   0.049   0.598   1.219 -0.7268  0.6151  0.3735
  463MPD2    C1 6943   4.719   0.718   1.213  0.2784  0.5705 -0.0033
  463MPD2    C2 6944   0.049   0.836   1.258 -0.6615 -0.0090 -0.3360
  463MPD2    C3 6945   0.183   0.824   1.296 -0.4125  0.0113  0.5771
  463MPD2    C4 6946   0.243   0.699   1.307  0.3892 -0.2297  0.0561
  463MPD2    C5 6947   0.172   0.587   1.273  0.5696 -0.1182  0.2124
  463MPD2     H 6948   0.004   0.935   1.250 -2.7106 -0.7807  1.4294
  463MPD2    H1 6949   0.345   0.683   1.339 -0.5015  0.0876  3.0675
  463MPD2    H2 6950   0.010   0.508   1.174 -1.2901  2.1812 -2.2863
  463MPD2    H3 6951   0.233   0.498   1.266  3.1811  1.7497 -0.9588
  463MPD2     N 6952   0.260   0.940   1.329  0.1965 -0.0061  0.4760
  463MPD2    H5 6953   0.359   0.918   1.340  0.3508  1.3252  1.7276
  463MPD2    N1 6954   4.590   0.731   1.162 -1.4344  0.5717  0.2815
  463MPD2    H7 6955   4.552   0.825   1.166 -1.2545  0.7978 -3.3379
  464TMC3    C1 6956   4.387   0.677   1.055 -0.4822  0.0647 -0.2257
  464TMC3    C2 6957   4.329   0.779   1.119 -0.0161  0.0217  0.0034
  464TMC3    C3 6958   4.201   0.814   1.079 -0.3840  0.1164  0.1543
  464TMC3    C4 6959   4.318   0.598   0.967  0.0980 -0.8138  0.7010
  464TMC3    C5 6960   4.190   0.635   0.930 -0.2240  0.2013 -0.4933
  464TMC3    C6 6961   4.126   0.746   0.988 -0.3781 -0.3226 -0.5888
  464TMC3     C 6962   4.522   0.632   1.101 -0.0350  0.8409 -0.4146
  464TMC3     O 6963   4.546   0.516   1.068 -0.3004 -0.1860 -0.2164
  464TMC3     H 6964   4.368   0.833   1.204  0.2665 -1.5656  0.8690
  464TMC3    H1 6965   4.368   0.517   0.915  1.2136 -0.5529  1.3778
  464TMC3    H2 6966   4.033   0.794   0.958 -0.0384  0.1759 -0.8258
  464TMC3    C7 6967   4.111   0.535   0.850  0.4110 -0.0918 -0.5131
  464TMC3    C8 6968   4.158   0.950   1.116 -0.3184  0.2280  0.0379
  464TMC3    O1 6969   4.175   0.443   0.807  0.2239 -0.4306  0.2648
  464TMC3    O2 6970   4.042   0.968   1.085  0.4455  0.5711 -0.0854
  465MPD2     C 6971   0.592   4.710  16.554 -0.1483 -0.7185 -0.2215
  465MPD2    C1 6972   0.499   0.018  16.648  0.0869 -0.5044 -0.5816
  465MPD2    C2 6973   0.381   0.068  16.610  0.5285  1.1538 -0.2520
  465MPD2    C3 6974   0.335   0.058  16.476 -0.3741 -0.2929 -0.0798
  465MPD2    C4 6975   0.432   0.011  16.388  0.2653 -0.1373  1.2022
  465MPD2    C5 6976   0.559   4.708  16.424  0.1111 -0.2753 -0.7683
  465MPD2     H 6977   0.311   0.110  16.682 -0.9015 -0.5334 -0.6526
  465MPD2    H1 6978   0.399   0.018  16.285  0.6603 -1.3038  1.0071
  465MPD2    H2 6979   0.689   4.672  16.585  0.0733  1.1969  1.4527
  465MPD2    H3 6980   0.635   4.679  16.352  2.7229 -0.3234  1.9773
  465MPD2     N 6981   0.199   0.101  16.454 -0.7594 -0.1037 -0.4266
  465MPD2    H5 6982   0.151   0.126  16.540  2.0741 -1.2779  1.4908
  465MPD2    N1 6983   0.524   0.017  16.791  0.1735  0.3931 -0.1546
  465MPD2    H7 6984   0.456   0.054  16.857  1.0026  1.4139  0.1345
  466TMC3    C1 6985   4.561   0.203  16.496 -0.0518 -1.0052  0.6322
  466TMC3    C2 6986   4.510   0.297  16.414 -0.1807  0.0288 -0.1359
  466TMC3    C3 6987   4.571   0.324  16.298  0.6837  0.4386 -0.5338
  466TMC3    C4 6988   4.675   0.132  16.476 -0.0940 -0.5368 -0.1542
  466TMC3    C5 6989   4.732   0.147  16.353 -0.6666 -0.1534  0.1504
  466TMC3    C6 6990   4.676   0.237  16.266 -0.0252  0.3082 -0.3000
  466TMC3     C 6991   4.519   0.203  16.637 -0.3179  0.7032  0.0384
  466TMC3     O 6992   4.575   0.119  16.706  0.2295  0.0241 -0.6719
  466TMC3     H 6993   4.416   0.346  16.439  0.3364  0.9786 -0.0648
  466TMC3    H1 6994   4.717   0.071  16.555  2.1653  1.2158  0.0058
  466TMC3    H2 6995   4.734   0.259  16.178 -1.2998  0.6536 -1.0638
  466TMC3    C7 6996   0.136   0.114  16.335  0.4787  0.0602 -0.1872
  466TMC3    C8 6997   4.610   0.467  16.276 -0.5639 -0.1780  0.2194
  466TMC3    O1 6998   0.177   0.113  16.217  0.1957  0.3858  0.4015
  466TMC3    O2 6999   4.668   0.497  16.178 -0.4787  0.1755  0.1085
  467TMC3    C1 7000   1.592   3.523  13.551 -0.0600 -0.0502 -0.2891
  467TMC3    C2 7001   1.624   3.626  13.470  0.3084 -0.2885 -0.1001
  467TMC3    C3 7002   1.541   3.644  13.360  0.2383 -0.2565 -0.3360
  467TMC3    C4 7003   1.483   3.442  13.536 -0.2259  0.0821  0.1017
  467TMC3    C5 7004   1.393   3.477  13.436  0.0810 -0.4904 -0.3495
  467TMC3    C6 7005   1.421   3.577  13.349  0.8241 -0.3077  0.2752
  467TMC3     C 7006   1.716   3.459  13.592 -0.0297  0.1349 -0.3329
  467TMC3     O 7007   1.802   3.537  13.629 -0.3432  0.4636 -0.2891
  467TMC3     H 7008   1.718   3.679  13.485 -0.9172  1.4148  1.7010
  467TMC3    H1 7009   1.473   3.365  13.611 -3.0981  1.3916  1.0629
  467TMC3    H2 7010   1.351   3.611  13.274  0.1131 -0.9295  0.6555
  467TMC3    C7 7011   1.251   3.432  13.432  0.4225 -0.1715  0.3635
  467TMC3    C8 7012   1.603   3.713  13.247 -0.1107  0.0165  0.1905
  467TMC3    O1 7013   1.181   3.444  13.332  0.6354 -0.9460  0.0496
  467TMC3    O2 7014   1.715   3.760  13.266 -0.3534 -0.2802  0.2553
  468MPD2     C 7015   0.379   0.851  10.203  0.0860 -0.0744 -0.2660
  468MPD2    C1 7016   0.404   0.857  10.337 -0.4494 -0.0324 -0.0018
  468MPD2    C2 7017   0.435   0.738  10.404  0.2259 -0.1763  0.4552
  468MPD2    C3 7018   0.460   0.624  10.339  0.0715  0.6737 -0.6846
  468MPD2    C4 7019   0.442   0.624  10.200 -0.3005  0.2165 -0.2909
  468MPD2    C5 7020   0.408   0.739  10.130 -0.3156  0.0876  0.2609
  468MPD2     H 7021   0.463   0.747  10.508 -1.9255 -0.7901  1.0712
  468MPD2    H1 7022   0.441   0.530  10.147  0.4738 -0.2875  0.5937
  468MPD2    H2 7023   0.355   0.939  10.143  0.1549 -0.5428 -0.9838
  468MPD2    H3 7024   0.403   0.729  10.022  0.3542 -2.4861  0.4699
  468MPD2     N 7025   0.492   0.509  10.418 -0.0205 -0.8008 -0.0726
  468MPD2    H5 7026   0.491   0.521  10.519  2.2604  1.4207 -0.3039
  468MPD2    N1 7027   0.403   0.975  10.414  0.7316 -0.5550  0.5097
  468MPD2    H7 7028   0.451   0.961  10.502  0.5438  1.1593  0.8779
  469TMC3    C1 7029   0.364   1.196  10.489  0.1618  0.4340 -0.5032
  469TMC3    C2 7030   0.471   1.172  10.576 -0.1334  0.2998 -0.4274
  469TMC3    C3 7031   0.479   1.250  10.688  0.1767  0.9745  0.3451
  469TMC3    C4 7032   0.269   1.282  10.515  0.4789 -0.0733  0.1383
  469TMC3    C5 7033   0.281   1.359  10.625  0.3372  0.1378  0.1193
  469TMC3    C6 7034   0.382   1.349  10.714 -0.2008 -0.4360 -0.5252
  469TMC3     C 7035   0.354   1.101  10.377 -0.0829 -0.0545 -0.7760
  469TMC3     O 7036   0.278   1.129  10.284  0.2216  0.9703 -0.1478
  469TMC3     H 7037   0.558   1.113  10.549 -0.4471  0.4465 -1.7995
  469TMC3    H1 7038   0.173   1.288  10.465  0.2194 -0.0861  0.6409
  469TMC3    H2 7039   0.387   1.415  10.800 -0.2191  1.2521 -1.8208
  469TMC3    C7 7040   0.155   1.431  10.658 -0.2390 -0.6221  0.7069
  469TMC3    C8 7041   0.600   1.236  10.774 -0.3815 -0.1087  0.5657
  469TMC3    O1 7042   0.076   1.447  10.563 -0.4029  0.4943  0.4436
  469TMC3    O2 7043   0.694   1.187  10.713 -0.4181 -0.1882  0.1340
  470TMC3    C1 7044   2.450   2.152   0.370  1.1684 -0.4500  0.1163
  470TMC3    C2 7045   2.450   2.289   0.384  0.2305  0.6958  0.1563
  470TMC3    C3 7046   2.573   2.352   0.391  1.1067 -0.5110 -1.0199
  470TMC3    C4 7047   2.559   2.077   0.414  0.1023 -0.0123  0.0566
  470TMC3    C5 7048   2.675   2.145   0.443  0.1095 -0.1193 -0.1809
  470TMC3    C6 7049   2.688   2.277   0.401 -0.3353 -0.3880 -0.7722
  470TMC3     C 7050   2.337   2.084   0.304 -0.1278  0.8873  0.0546
  470TMC3     O 7051   2.362   1.979   0.244 -0.3999 -0.6389 -0.3171
  470TMC3     H 7052   2.358   2.345   0.370 -1.4339 -1.7950  1.1375
  470TMC3    H1 7053   2.560   1.969   0.416 -0.6094 -0.0281 -0.4925
  470TMC3    H2 7054   2.784   2.321   0.424 -0.0128 -1.1361 -0.6827
  470TMC3    C7 7055   2.786   2.090   0.516  0.6178 -0.2477  0.2924
  470TMC3    C8 7056   2.558   2.488   0.433  0.1896 -0.4176 -0.4552
  470TMC3    O1 7057   2.895   2.141   0.492 -0.5201 -0.1950  0.0777
  470TMC3    O2 7058   2.461   2.548   0.389 -0.8765 -0.4097  0.4327
  471MPD2     C 7059   2.910   3.976  16.340  0.4316 -0.4125  0.2034
  471MPD2    C1 7060   2.945   3.844  16.334 -0.5114 -0.4246 -0.5205
  471MPD2    C2 7061   2.982   3.778  16.450 -0.0739  0.2649  0.5546
  471MPD2    C3 7062   2.985   3.846  16.569 -0.0769 -0.8449 -0.3629
  471MPD2    C4 7063   2.965   3.983  16.572 -0.1125 -0.1872 -0.4370
  471MPD2    C5 7064   2.920   4.043  16.462  0.3372  0.3477  0.0221
  471MPD2     H 7065   3.013   3.674  16.445 -0.3575  0.0939  2.4670
  471MPD2    H1 7066   2.981   4.029  16.669  0.9190 -2.0524  0.2974
  471MPD2    H2 7067   2.855   4.026  16.262 -0.2716  1.6260  2.0077
  471MPD2    H3 7068   2.883   4.144  16.473  0.5882  0.5084 -0.5821
  471MPD2     N 7069   3.032   3.781  16.679  0.1875 -0.2706  0.1390
  471MPD2    H5 7070   3.063   3.686  16.663 -2.4167 -1.1535  0.3381
  471MPD2    N1 7071   2.932   3.769  16.207 -0.4614 -0.3614 -0.6631
  471MPD2    H7 7072   2.968   3.674  16.213 -2.9797 -1.2045  1.1205
  472TMC3    C1 7073   2.884   3.730  15.982 -0.0999 -0.0696  0.2146
  472TMC3    C2 7074   2.801   3.755  15.879 -0.2461 -0.2900 -0.7174
  472TMC3    C3 7075   2.799   3.670  15.775 -0.7267  0.2626  0.3404
  472TMC3    C4 7076   2.946   3.609  15.996 -0.3350  0.7772  0.9960
  472TMC3    C5 7077   2.944   3.523  15.894 -0.2996  0.1198  0.2353
  472TMC3    C6 7078   2.870   3.549  15.780 -0.1829 -0.6789  0.0366
  472TMC3     C 7079   2.861   3.812  16.096  0.0041  1.0775  0.7278
  472TMC3     O 7080   2.790   3.912  16.080  0.6877  0.5119 -0.0354
  472TMC3     H 7081   2.748   3.849  15.872 -1.6094 -1.0150  0.0406
  472TMC3    H1 7082   3.009   3.578  16.078  0.0348 -0.3636  0.2853
  472TMC3    H2 7083   2.873   3.485  15.693  0.5339 -1.1974  0.4440
  472TMC3    C7 7084   2.930   3.387  15.947  0.2251  0.6871  0.5413
  472TMC3    C8 7085   2.665   3.644  15.724  1.3040 -0.3817  0.1629
  472TMC3    O1 7086   3.003   3.341  16.033 -0.2840 -0.3617 -0.0950
  472TMC3    O2 7087   2.651   3.670  15.605  0.3690  0.1155  0.2629
  473MPD2     C 7088   3.059   0.930  13.717  0.6806  0.6332 -1.0005
  473MPD2    C1 7089   2.964   1.030  13.717 -0.4624 -0.2967  0.3881
  473MPD2    C2 7090   2.974   1.116  13.828 -0.0144  0.2344 -0.4044
  473MPD2    C3 7091   3.063   1.104  13.933  0.0090  0.2660 -0.3816
  473MPD2    C4 7092   3.150   0.999  13.925  0.1511 -0.9620  0.3172
  473MPD2    C5 7093   3.147   0.914  13.824  0.0813 -0.4643 -0.1715
  473MPD2     H 7094   2.899   1.194  13.838  0.4915  0.6890 -0.1574
  473MPD2    H1 7095   3.222   0.979  14.004 -0.0111  1.0933  0.9817
  473MPD2    H2 7096   3.046   0.849  13.646 -1.3921 -0.6896  0.8755
  473MPD2    H3 7097   3.205   0.823  13.832  0.3012 -0.6628 -3.9665
  473MPD2     N 7098   3.071   1.188  14.050  0.1143  0.5318  0.4545
  473MPD2    H5 7099   3.131   1.156  14.126 -0.4799  2.0043  1.5463
  473MPD2    N1 7100   2.875   1.045  13.608 -0.2856 -0.5365  0.2620
  473MPD2    H7 7101   2.876   0.972  13.538  1.3260 -0.7453  0.5069
  474TMC3    C1 7102   2.992   1.351  14.206 -0.4050 -0.3980 -0.0175
  474TMC3    C2 7103   2.885   1.419  14.252  0.7716  0.7462 -0.8000
  474TMC3    C3 7104   2.900   1.525  14.334  0.5418  0.3081  0.4022
  474TMC3    C4 7105   3.122   1.385  14.248 -0.3067 -0.1813 -0.5463
  474TMC3    C5 7106   3.135   1.492  14.336  0.3130 -0.2027  0.1205
  474TMC3    C6 7107   3.025   1.561  14.379 -0.1250  0.2747  0.4622
  474TMC3     C 7108   2.985   1.292  14.077  0.1609  0.0828  0.2349
  474TMC3     O 7109   2.890   1.333  14.013 -0.4021 -0.1352 -0.0406
  474TMC3     H 7110   2.787   1.403  14.208  0.6936  2.6601 -1.3248
  474TMC3    H1 7111   3.211   1.342  14.204  0.7962  0.2925  1.2155
  474TMC3    H2 7112   3.035   1.651  14.439 -1.6321 -0.4999  1.8665
  474TMC3    C7 7113   3.266   1.532  14.370 -0.2499  0.4537 -0.4178
  474TMC3    C8 7114   2.799   1.625  14.332  0.1084 -0.1769 -0.7196
  474TMC3    O1 7115   3.356   1.520  14.288  0.5218 -0.3913  0.1364
  474TMC3    O2 7116   2.693   1.586  14.373 -0.2790  0.0133  0.0159
  475MPD2     C 7117   1.633   3.518  10.220  0.4399 -0.1588 -1.1166
  475MPD2    C1 7118   1.611   3.571  10.093 -0.6027 -0.3566  0.3265
  475MPD2    C2 7119   1.481   3.603  10.071  1.2259 -1.0042 -0.0361
  475MPD2    C3 7120   1.381   3.603  10.173  0.6538  0.3424  0.6057
  475MPD2    C4 7121   1.412   3.546  10.297  0.6579  0.2972  1.2021
  475MPD2    C5 7122   1.540   3.513  10.316 -0.1898  0.2566 -0.6222
  475MPD2     H 7123   1.454   3.649   9.976  0.5818 -1.1690  0.0715
  475MPD2    H1 7124   1.336   3.547  10.374 -3.1199  3.9404 -2.5857
  475MPD2    H2 7125   1.733   3.484  10.247 -0.1398  0.1066  1.3446
  475MPD2    H3 7126   1.563   3.477  10.416 -3.6368  1.4940  0.6173
  475MPD2     N 7127   1.263   3.680  10.145 -0.6489 -0.0792 -0.1499
  475MPD2    H5 7128   1.257   3.734  10.059 -0.1317 -0.8889 -0.6983
  475MPD2    N1 7129   1.714   3.596  10.005  0.5299  0.0940 -0.6918
  475MPD2    H7 7130   1.808   3.608  10.043 -0.0174  0.5274  0.5040
  476TMC3    C1 7131   1.777   3.724   9.820  0.6446 -0.6357  0.4948
  476TMC3    C2 7132   1.738   3.743   9.688 -0.1613 -0.3453  0.2410
  476TMC3    C3 7133   1.721   3.870   9.641 -0.3345 -0.1963  0.2846
  476TMC3    C4 7134   1.815   3.824   9.901 -0.2588  0.0236  0.6804
  476TMC3    C5 7135   1.798   3.950   9.853 -0.0665  0.4577 -0.6674
  476TMC3    C6 7136   1.747   3.969   9.728 -0.1183 -0.0495 -0.5690
  476TMC3     C 7137   1.692   3.621   9.874 -0.5975 -0.1311  0.1923
  476TMC3     O 7138   1.593   3.590   9.807  0.0832  0.5455  0.0826
  476TMC3     H 7139   1.701   3.659   9.630  1.2598 -3.0649  3.2638
  476TMC3    H1 7140   1.855   3.805  10.000 -0.5649 -0.7409  0.6538
  476TMC3    H2 7141   1.730   4.073   9.699  0.8985 -0.4856 -2.7382
  476TMC3    C7 7142   1.907   4.039   9.887  0.2911  0.6328  0.3781
  476TMC3    C8 7143   1.587   3.902   9.587  0.5565 -0.5069  0.1216
  476TMC3    O1 7144   1.942   4.112   9.797 -0.2747  0.5163 -0.6347
  476TMC3    O2 7145   1.565   4.009   9.537  0.0782  0.2179 -0.5777
  477MPD2     C 7146   3.553   0.169  11.478  1.1375  0.1007 -0.2595
  477MPD2    C1 7147   3.503   0.284  11.525 -0.2251  0.1199 -0.0751
  477MPD2    C2 7148   3.553   0.330  11.647 -0.4964 -0.2173  0.0973
  477MPD2    C3 7149   3.654   0.266  11.706 -0.6097 -0.4168 -0.3450
  477MPD2    C4 7150   3.716   0.156  11.643 -0.2169  0.4395  0.0452
  477MPD2    C5 7151   3.660   0.100  11.532 -0.2752 -0.3373  0.1843
  477MPD2     H 7152   3.506   0.414  11.697  2.1349  0.5918  1.2283
  477MPD2    H1 7153   3.811   0.123  11.684  1.2429  0.1090 -3.5685
  477MPD2    H2 7154   3.517   0.128  11.384 -1.4062 -1.5482  1.4374
  477MPD2    H3 7155   3.710   0.013  11.492  1.2814 -0.7384  3.0260
  477MPD2     N 7156   3.701   0.320  11.834  0.0521  0.1956 -0.1489
  477MPD2    H5 7157   3.655   0.400  11.875 -1.1625 -0.4401 -0.2551
  477MPD2    N1 7158   3.389   0.348  11.464 -0.3607  0.6105 -0.4908
  477MPD2    H7 7159   3.327   0.283  11.416 -0.8906  0.4883  0.3477
  478TMC3    C1 7160   3.217   0.508  11.453  0.0977  0.0240  0.0906
  478TMC3    C2 7161   3.153   0.584  11.548 -0.3873  0.3523  0.2676
  478TMC3    C3 7162   3.016   0.582  11.553 -0.4586 -0.6349  0.4563
  478TMC3    C4 7163   3.151   0.435  11.361 -0.5510  0.2733 -0.2337
  478TMC3    C5 7164   3.016   0.429  11.379 -0.4718 -0.2518 -0.1361
  478TMC3    C6 7165   2.943   0.498  11.478  0.3124  0.8446 -0.3592
  478TMC3     C 7166   3.362   0.482  11.467 -0.1080  1.0007 -0.5058
  478TMC3     O 7167   3.437   0.567  11.511 -0.4082 -0.1374 -0.0831
  478TMC3     H 7168   3.205   0.648  11.619 -0.1367 -0.6674  1.0080
  478TMC3    H1 7169   3.206   0.390  11.278  0.2799  0.4309  0.2280
  478TMC3    H2 7170   2.836   0.480  11.478  1.0791 -3.7703 -0.3300
  478TMC3    C7 7171   2.947   0.419  11.258  0.0625 -1.0720  0.3455
  478TMC3    C8 7172   2.961   0.617  11.685  0.5630 -0.0547 -0.2987
  478TMC3    O1 7173   2.829   0.388  11.265 -0.2770  0.5783  0.5036
  478TMC3    O2 7174   2.884   0.545  11.745  0.6400 -0.1740 -0.8289
  479MPD2     C 7175   2.586   3.100  14.721 -0.1901  0.1740 -0.0674
  479MPD2    C1 7176   2.525   3.061  14.841 -0.3103  0.1096  0.2388
  479MPD2    C2 7177   2.615   3.048  14.945 -0.1421 -0.3805  0.1645
  479MPD2    C3 7178   2.750   3.090  14.933  0.3439  0.3327 -0.7113
  479MPD2    C4 7179   2.801   3.115  14.808 -0.1586 -0.8346  0.0107
  479MPD2    C5 7180   2.716   3.118  14.704 -0.7620  0.4627  0.3080
  479MPD2     H 7181   2.582   3.007  15.039  2.2367 -0.4945  0.9344
  479MPD2    H1 7182   2.903   3.149  14.793 -0.2638 -0.6788 -0.3706
  479MPD2    H2 7183   2.525   3.124  14.635  1.3145  0.4144 -1.0619
  479MPD2    H3 7184   2.753   3.148  14.607  1.0206 -0.6588  0.6495
  479MPD2     N 7185   2.844   3.086  15.039  0.2592  0.3793  0.3937
  479MPD2    H5 7186   2.932   3.053  15.000 -1.1628 -1.0683 -1.6060
  479MPD2    N1 7187   2.389   3.039  14.853 -0.1141 -0.0990 -0.4366
  479MPD2    H7 7188   2.334   3.066  14.772 -0.4123 -1.6956 -0.7576
  480TMC3    C1 7189   2.543   3.107  15.407  0.4026 -0.4375 -0.2828
  480TMC3    C2 7190   2.467   3.203  15.347 -0.0860  0.4759  0.1720
  480TMC3    C3 7191   2.519   3.254  15.233 -0.5309  0.3530 -0.9635
  480TMC3    C4 7192   2.663   3.063  15.349  0.1974  0.1878  0.3999
  480TMC3    C5 7193   2.704   3.132  15.241 -0.4276 -0.0168 -0.2599
  480TMC3    C6 7194   2.641   3.228  15.176  0.6881 -0.0050  0.0195
  480TMC3     C 7195   2.497   3.012  15.510  0.4460  0.3952  0.0599
  480TMC3     O 7196   2.573   2.937  15.565 -0.7901 -0.5568 -0.4240
  480TMC3     H 7197   2.377   3.243  15.394 -1.2430 -0.4279 -1.2861
  480TMC3    H1 7198   2.721   2.981  15.391  0.6884 -0.6868 -1.9553
  480TMC3    H2 7199   2.690   3.281  15.095  1.8293 -3.6698 -1.6765
  480TMC3    C7 7200   2.820   3.067  15.176 -0.6136  0.5769 -0.2214
  480TMC3    C8 7201   2.423   3.331  15.157  0.6231 -0.1710  0.7379
  480TMC3    O1 7202   2.894   3.006  15.255  0.6880 -0.2631 -0.4209
  480TMC3    O2 7203   2.336   3.388  15.222 -0.2048 -0.3350  0.3173
  481MPD2     C 7204   4.337   1.675  14.235 -0.2028  0.3530  0.5697
  481MPD2    C1 7205   4.259   1.784  14.200 -0.1664 -0.1979 -0.2741
  481MPD2    C2 7206   4.233   1.869  14.309  0.3182 -0.2281  0.1251
  481MPD2    C3 7207   4.273   1.844  14.438  0.0094 -0.3139  0.8026
  481MPD2    C4 7208   4.332   1.719  14.464  0.7203 -0.6245  0.2889
  481MPD2    C5 7209   4.357   1.633  14.364  0.0807 -0.1602 -0.3379
  481MPD2     H 7210   4.192   1.965  14.282 -3.4723 -2.2306 -1.2689
  481MPD2    H1 7211   4.372   1.687  14.559  1.7840 -0.9929 -0.2794
  481MPD2    H2 7212   4.368   1.603  14.160  0.4380 -0.1666  1.3414
  481MPD2    H3 7213   4.410   1.539  14.376  0.2534 -0.3755 -2.9851
  481MPD2     N 7214   4.249   1.942  14.536  0.3556 -0.0575  0.0658
  481MPD2    H5 7215   4.282   1.926  14.630  1.1470 -1.0972 -0.3934
  481MPD2    N1 7216   4.222   1.813  14.061 -0.2973 -0.1937  0.0775
  481MPD2    H7 7217   4.233   1.741  13.991  0.8370 -1.3230  1.4017
  482TMC3    C1 7218   4.091   1.906  13.891  0.4740 -0.2834 -1.0881
  482TMC3    C2 7219   4.116   1.803  13.800  0.4401  0.3777  0.2774
  482TMC3    C3 7220   4.098   1.825  13.666 -0.5371 -0.4123  0.0730
  482TMC3    C4 7221   4.048   2.027  13.851 -0.2650  0.5262  0.6668
  482TMC3    C5 7222   4.023   2.037  13.719  0.2716  0.0136 -0.7464
  482TMC3    C6 7223   4.043   1.941  13.627  0.2945 -0.2838 -0.3204
  482TMC3     C 7224   4.135   1.908  14.030  0.1367  0.3339 -0.1026
  482TMC3     O 7225   4.065   1.984  14.098 -0.2166  0.4241  0.2272
  482TMC3     H 7226   4.140   1.701  13.825  1.2003  0.6392  0.6216
  482TMC3    H1 7227   4.056   2.117  13.909  0.0147  0.5332  0.6186
  482TMC3    H2 7228   4.019   1.962  13.523  1.3504 -3.0955 -1.1297
  482TMC3    C7 7229   3.965   2.162  13.672  0.0544 -0.3659 -0.2247
  482TMC3    C8 7230   4.066   1.723  13.576  0.7239  0.0145 -0.1748
  482TMC3    O1 7231   3.992   2.198  13.556 -0.0275 -0.1514  0.4559
  482TMC3    O2 7232   4.090   1.747  13.460  0.4533  0.6712 -0.2800
  483TMC3    C1 7233   1.971   1.517   0.536  0.5409  0.0199 -0.3582
  483TMC3    C2 7234   2.068   1.589   0.475  0.1442 -0.0578 -0.0118
  483TMC3    C3 7235   2.198   1.571   0.519  0.1365  0.1385 -0.7173
  483TMC3    C4 7236   1.990   1.416   0.626 -0.6096 -0.0205  0.0478
  483TMC3    C5 7237   2.124   1.395   0.653 -0.5489 -0.5093  0.8445
  483TMC3    C6 7238   2.227   1.468   0.609  0.7464 -0.6294  0.1939
  483TMC3     C 7239   1.836   1.551   0.491 -0.7303  0.2212  0.2607
  483TMC3     O 7240   1.822   1.582   0.372 -0.3066  0.1207 -0.3027
  483TMC3     H 7241   2.046   1.676   0.414  1.7290 -1.2977 -2.3909
  483TMC3    H1 7242   1.909   1.361   0.674  0.8237  0.7455  3.3819
  483TMC3    H2 7243   2.324   1.437   0.647  0.0035 -0.5274  2.1656
  483TMC3    C7 7244   2.150   1.263   0.692  0.1508 -0.5541 -0.0400
  483TMC3    C8 7245   2.313   1.621   0.447  0.4802 -0.2232  0.0549
  483TMC3    O1 7246   2.263   1.241   0.731  0.3111  0.3867  0.3199
  483TMC3    O2 7247   2.291   1.659   0.335  0.4337 -0.9229 -0.1946
  484MPD2     C 7248   0.272   4.521  12.859  0.1556 -0.4210 -0.5416
  484MPD2    C1 7249   0.230   4.398  12.814 -0.6930  0.1098  0.0841
  484MPD2    C2 7250   0.329   4.313  12.766 -0.0588 -0.2093  1.0650
  484MPD2    C3 7251   0.466   4.354  12.763  0.6725  0.2304  0.1674
  484MPD2    C4 7252   0.504   4.479  12.794  0.3001 -0.3107 -0.2987
  484MPD2    C5 7253   0.406   4.562  12.847 -0.3180 -0.5793 -0.1710
  484MPD2     H 7254   0.304   4.214  12.731  0.2829 -0.5982  1.9112
  484MPD2    H1 7255   0.606   4.513  12.777 -0.0226 -0.2059 -2.0487
  484MPD2    H2 7256   0.207   4.592  12.909  2.5122  0.3837  1.3441
  484MPD2    H3 7257   0.440   4.659  12.880 -1.2980 -0.2687 -0.0754
  484MPD2     N 7258   0.574   4.267  12.718 -0.2638  0.2184  0.0825
  484MPD2    H5 7259   0.662   4.316  12.710 -0.1378 -0.2295 -1.3381
  484MPD2    N1 7260   0.097   4.357  12.820 -0.2687 -0.9241 -0.1827
  484MPD2    H7 7261   0.078   4.266  12.780 -0.9126 -0.8978  0.0617
  485TMC3    C1 7262   0.700   4.070  12.661  0.1026 -0.0787 -0.1180
  485TMC3    C2 7263   0.692   3.951  12.596 -0.0432 -0.2871 -0.4825
  485TMC3    C3 7264   0.814   3.895  12.556 -0.4425  0.4361  0.4124
  485TMC3    C4 7265   0.820   4.141  12.676 -0.0693  0.2529 -0.6701
  485TMC3    C5 7266   0.930   4.089  12.624 -0.3369 -0.4390 -0.3116
  485TMC3    C6 7267   0.931   3.958  12.578  0.2997 -0.2461 -0.7963
  485TMC3     C 7268   0.568   4.133  12.695 -1.1404  0.5464  0.6742
  485TMC3     O 7269   0.468   4.071  12.674  0.1263 -0.7172  0.2872
  485TMC3     H 7270   0.606   3.885  12.598 -1.6768  1.8535 -0.1057
  485TMC3    H1 7271   0.818   4.244  12.709  1.8610  0.1863 -0.3285
  485TMC3    H2 7272   1.026   3.909  12.558 -0.9375 -3.8344  2.2519
  485TMC3    C7 7273   1.019   4.175  12.550 -0.1125 -0.0713  0.7755
  485TMC3    C8 7274   0.808   3.863  12.418  0.0121 -0.6394 -0.2974
  485TMC3    O1 7275   1.055   4.285  12.595  0.7136 -0.2598  0.4540
  485TMC3    O2 7276   0.911   3.847  12.358 -0.0938  0.0606  0.0619
  486MPD2     C 7277   2.450   3.261  12.799 -0.1054 -0.3421 -0.1279
  486MPD2    C1 7278   2.346   3.199  12.739  0.2566 -0.3238  0.2062
  486MPD2    C2 7279   2.270   3.268  12.644 -0.2988  0.9433  0.0461
  486MPD2    C3 7280   2.294   3.400  12.615 -0.2742 -0.2502 -1.0594
  486MPD2    C4 7281   2.402   3.463  12.672  0.1854 -0.4568  0.5908
  486MPD2    C5 7282   2.472   3.391  12.763  0.3323 -0.5201 -0.3020
  486MPD2     H 7283   2.187   3.217  12.596 -0.5868  0.2959  1.2258
  486MPD2    H1 7284   2.432   3.564  12.647  1.3466 -1.2626 -1.2802
  486MPD2    H2 7285   2.519   3.216  12.870 -0.9389  0.4605  1.1915
  486MPD2    H3 7286   2.560   3.423  12.819 -2.2254 -0.8914  3.9546
  486MPD2     N 7287   2.220   3.461  12.516 -0.2730  0.5208 -0.5228
  486MPD2    H5 7288   2.151   3.400  12.474 -0.2500  0.3716 -0.3464
  486MPD2    N1 7289   2.330   3.066  12.784 -0.0270  0.4140 -0.0435
  486MPD2    H7 7290   2.378   3.040  12.869  4.1338  0.2098 -2.4726
  487TMC3    C1 7291   2.233   2.854  12.817  0.1828  0.1064  1.1109
  487TMC3    C2 7292   2.190   2.746  12.744  0.1286  0.1776 -0.0012
  487TMC3    C3 7293   2.173   2.624  12.808 -0.1337 -0.2222 -0.2149
  487TMC3    C4 7294   2.299   2.834  12.939  1.3181 -0.1271 -0.6255
  487TMC3    C5 7295   2.287   2.708  13.000 -0.2501  1.2231 -0.0762
  487TMC3    C6 7296   2.210   2.612  12.940 -0.6701  0.1462 -0.4200
  487TMC3     C 7297   2.242   2.970  12.732 -0.3517  1.0511  0.0036
  487TMC3     O 7298   2.181   2.967  12.629 -0.3026  0.1147  0.1893
  487TMC3     H 7299   2.142   2.759  12.647 -2.9430  1.0827  1.6492
  487TMC3    H1 7300   2.341   2.922  12.986 -2.4293  0.8845  0.8346
  487TMC3    H2 7301   2.187   2.517  12.987 -0.2497  0.4863  0.4772
  487TMC3    C7 7302   2.287   2.711  13.147 -0.8729  0.6062 -0.0041
  487TMC3    C8 7303   2.058   2.556  12.774  0.5531 -0.4644 -0.8949
  487TMC3    O1 7304   2.201   2.646  13.213 -0.4355 -0.5009 -0.2388
  487TMC3    O2 7305   2.053   2.493  12.670 -0.0672 -0.6870  0.0056
  488MPD2     C 7306   2.065   4.439  16.219  0.2738 -1.0357 -0.0311
  488MPD2    C1 7307   2.114   4.529  16.310 -0.0546 -0.0684  0.1162
  488MPD2    C2 7308   2.107   4.499  16.446 -0.8722 -0.8334 -0.0650
  488MPD2    C3 7309   2.079   4.370  16.490  0.6995  0.2735  0.1083
  488MPD2    C4 7310   2.035   4.281  16.395  0.7171  0.9175  0.3129
  488MPD2    C5 7311   2.028   4.311  16.264 -0.1067  0.4591 -0.4363
  488MPD2     H 7312   2.145   4.569  16.520 -0.1318 -0.9207 -0.3644
  488MPD2    H1 7313   2.012   4.181  16.430  0.5008  1.1371  0.8012
  488MPD2    H2 7314   2.069   4.450  16.111  1.7928 -1.3911 -0.0124
  488MPD2    H3 7315   1.983   4.243  16.193  0.1702  0.9916 -1.1243
  488MPD2     N 7316   2.076   4.347  16.629  0.0279 -0.7771  0.3424
  488MPD2    H5 7317   2.084   4.425  16.694 -0.5277 -1.9017  1.7545
  488MPD2    N1 7318   2.184   4.649  16.276  0.2413  0.8656 -0.2071
  488MPD2    H7 7319   2.226   4.705  16.350  0.7370  0.4173 -0.1496
  489TMC3    C1 7320   2.074   4.245  16.834  0.8579  0.0219  0.5716
  489TMC3    C2 7321   2.150   4.346  16.877 -0.2668  0.0112 -0.3543
  489TMC3    C3 7322   2.151   4.361  17.014 -0.1080  0.5989  0.0750
  489TMC3    C4 7323   2.013   4.154  16.906 -0.7293 -0.1940  0.2215
  489TMC3    C5 7324   2.022   4.171  17.040  0.8260 -0.3232  0.3547
  489TMC3    C6 7325   2.067   4.283  17.092  0.3758 -0.8940 -0.5772
  489TMC3     C 7326   2.067   4.222  16.688  0.0648  0.1576 -0.3253
  489TMC3     O 7327   2.066   4.116  16.629  0.1778  0.1778 -1.0950
  489TMC3     H 7328   2.223   4.398  16.817  1.4357 -0.6039  1.1887
  489TMC3    H1 7329   1.979   4.062  16.861 -0.7769  0.0047 -0.1491
  489TMC3    H2 7330   2.077   4.294  17.200 -1.3637 -3.8860 -0.1057
  489TMC3    C7 7331   2.007   4.055  17.128 -0.3202 -0.6172  0.0984
  489TMC3    C8 7332   2.175   4.494  17.054 -0.4246 -0.0860 -0.3420
  489TMC3    O1 7333   2.049   4.074  17.242  0.2141  0.2085 -0.8252
  489TMC3    O2 7334   2.253   4.557  16.983 -0.0299  0.1667  0.0351
  490MPD2     C 7335   3.096   4.308  16.929 -0.4807  0.1619  0.3582
  490MPD2    C1 7336   3.057   4.307  17.063 -0.5510  0.6847  0.1752
  490MPD2    C2 7337   3.133   4.374  17.156 -0.2361 -0.0296  0.0066
  490MPD2    C3 7338   3.255   4.433  17.120 -0.2540  0.1908 -0.3212
  490MPD2    C4 7339   3.303   4.420  16.988 -0.2975  0.3186  0.6139
  490MPD2    C5 7340   3.217   4.359  16.899  0.5003 -0.1284 -0.5994
  490MPD2     H 7341   3.108   4.376  17.261 -0.8783 -0.0183 -0.1496
  490MPD2    H1 7342   3.395   4.457  16.944 -0.1233 -0.9358 -0.0703
  490MPD2    H2 7343   3.043   4.257  16.850 -1.9154  0.3821  1.1740
  490MPD2    H3 7344   3.246   4.351  16.794  2.5940  2.4169 -0.2168
  490MPD2     N 7345   3.342   4.509  17.203 -0.3357  0.9806 -0.1625
  490MPD2    H5 7346   3.422   4.548  17.156 -0.7363 -0.8942 -2.3903
  490MPD2    N1 7347   2.941   4.256  17.114 -0.6627  0.4167  0.5085
  490MPD2    H7 7348   2.930   4.263  17.214  0.8066 -1.8151  0.8307
  491TMC3    C1 7349   2.779   4.085  17.123  0.9796 -0.8956 -0.3804
  491TMC3    C2 7350   2.754   4.105  17.254  0.0102 -0.3549 -0.4980
  491TMC3    C3 7351   2.703   4.008  17.322 -0.1628  0.0704 -0.2351
  491TMC3    C4 7352   2.745   3.967  17.059  0.3116  0.2420 -0.3105
  491TMC3    C5 7353   2.706   3.857  17.139 -0.0633  0.8490 -0.2962
  491TMC3    C6 7354   2.683   3.880  17.275 -0.5675  0.4833  0.2223
  491TMC3     C 7355   2.844   4.189  17.044 -0.1876 -1.0654  0.0157
  491TMC3     O 7356   2.816   4.183  16.922  0.2127 -0.7386 -0.4859
  491TMC3     H 7357   2.749   4.208  17.289  0.1622 -0.1238 -1.1465
  491TMC3    H1 7358   2.776   3.953  16.956 -0.6695  1.7157 -0.7994
  491TMC3    H2 7359   2.637   3.807  17.339  0.0873 -0.7110 -0.6691
  491TMC3    C7 7360   2.657   3.743  17.068  0.1728 -0.4796  0.0143
  491TMC3    C8 7361   2.731   4.011  17.461  0.0710 -0.0092 -0.6292
  491TMC3    O1 7362   2.637   3.766  16.950  0.1090  0.2864  0.6015
  491TMC3    O2 7363   2.626   4.017  17.527 -0.2313 -0.1484  0.4094
  492MPD2     C 7364   3.461   4.221  11.347 -0.2078  0.6474  0.5862
  492MPD2    C1 7365   3.426   4.117  11.272 -0.6335  0.1463 -0.2635
  492MPD2    C2 7366   3.379   4.004  11.326 -0.5468  0.8144 -0.0842
  492MPD2    C3 7367   3.392   3.986  11.469 -0.0703 -0.6338 -0.8259
  492MPD2    C4 7368   3.443   4.088  11.552 -0.3301 -0.4083  0.6552
  492MPD2    C5 7369   3.468   4.210  11.484  0.1175  0.4743 -0.3623
  492MPD2     H 7370   3.336   3.924  11.268  0.6175 -0.1986  0.4466
  492MPD2    H1 7371   3.444   4.082  11.660 -0.5524  0.1585  0.6894
  492MPD2    H2 7372   3.505   4.307  11.298 -0.5561  0.1764 -0.5469
  492MPD2    H3 7373   3.512   4.292  11.539  2.6152  0.3689 -2.1818
  492MPD2     N 7374   3.354   3.874  11.539 -0.3245  0.3996 -0.4227
  492MPD2    H5 7375   3.374   3.868  11.638  0.2165  2.2399 -0.4320
  492MPD2    N1 7376   3.422   4.152  11.133  1.2026 -0.2928 -0.3655
  492MPD2    H7 7377   3.436   4.247  11.101 -1.0500 -0.2403 -1.2563
  493TMC3    C1 7378   3.392   4.097  10.896 -0.1125  0.3123 -0.7716
  493TMC3    C2 7379   3.458   4.205  10.849 -0.4527  0.3994 -0.2149
  493TMC3    C3 7380   3.456   4.231  10.715  0.3956  0.4153 -0.2576
  493TMC3    C4 7381   3.303   4.024  10.824  0.0952 -0.6419  0.2371
  493TMC3    C5 7382   3.290   4.068  10.693 -0.5328 -0.1441  0.0608
  493TMC3    C6 7383   3.376   4.159  10.640 -0.0056 -0.4112 -0.1940
  493TMC3     C 7384   3.398   4.055  11.037  0.5671 -0.5327 -0.0853
  493TMC3     O 7385   3.360   3.940  11.058 -0.0231 -0.3317 -0.0773
  493TMC3     H 7386   3.533   4.259  10.904 -1.0443  0.1811  0.8084
  493TMC3    H1 7387   3.245   3.946  10.870 -0.0003 -0.7464 -0.0627
  493TMC3    H2 7388   3.352   4.193  10.540  3.1714 -0.7432 -1.0763
  493TMC3    C7 7389   3.208   3.996  10.602  0.3658 -0.7539  0.0364
  493TMC3    C8 7390   3.543   4.341  10.661  0.4103 -0.0235  0.0733
  493TMC3    O1 7391   3.221   4.033  10.486  0.2653 -0.5131  0.2351
  493TMC3    O2 7392   3.491   4.413  10.575 -0.1185  0.2018  0.4801
  494TMC3    C1 7393   3.412   1.283   0.408  0.1821  0.3196 -0.7490
  494TMC3    C2 7394   3.355   1.186   0.330 -0.3468  0.4565 -0.4716
  494TMC3    C3 7395   3.351   1.206   0.196  0.0314 -0.0074 -0.4005
  494TMC3    C4 7396   3.475   1.393   0.349 -0.2687 -0.4189 -0.0437
  494TMC3    C5 7397   3.469   1.405   0.212 -0.3626 -1.0375 -0.2948
  494TMC3    C6 7398   3.392   1.318   0.138 -0.2646  0.6945 -0.2767
  494TMC3     C 7399   3.386   1.300   0.550 -0.2934 -0.1968 -0.3320
  494TMC3     O 7400   3.456   1.379   0.614  0.4926 -0.1069  0.1213
  494TMC3     H 7401   3.304   1.103   0.378  2.2521  0.2397  1.9113
  494TMC3    H1 7402   3.532   1.464   0.408 -2.0687 -0.4352  1.7247
  494TMC3    H2 7403   3.398   1.324   0.030  0.6234  3.7524 -0.0683
  494TMC3    C7 7404   3.563   1.490   0.131 -1.5252 -0.3222 -0.4901
  494TMC3    C8 7405   3.365   1.091   0.114  0.5072 -0.2671  0.2213
  494TMC3    O1 7406   3.566   1.471   0.010 -0.3053 -0.4309  0.1367
  494TMC3    O2 7407   3.283   1.066   0.031 -0.7269 -0.1151 -0.4017
  495TMC3    C1 7408   2.552   3.182  14.229 -0.2554 -0.0076  0.3343
  495TMC3    C2 7409   2.437   3.199  14.153 -0.2936  0.0771  0.5258
  495TMC3    C3 7410   2.349   3.301  14.179  0.2416 -0.3517  0.1850
  495TMC3    C4 7411   2.573   3.267  14.338 -0.2074 -0.3652 -0.0411
  495TMC3    C5 7412   2.485   3.365  14.361  0.0870  0.9694  0.1302
  495TMC3    C6 7413   2.369   3.385  14.285 -0.2811  0.0261  0.0981
  495TMC3     C 7414   2.582   3.044  14.249  0.0517 -1.4173  0.0284
  495TMC3     O 7415   2.496   2.962  14.225  0.3948 -0.0846 -0.1237
  495TMC3     H 7416   2.415   3.130  14.073 -0.1974  0.3505  0.2656
  495TMC3    H1 7417   2.647   3.233  14.410  0.3299  1.1307  0.1297
  495TMC3    H2 7418   2.303   3.466  14.314  1.5539  1.3950  0.4747
  495TMC3    C7 7419   2.482   3.400  14.499 -0.0202 -0.1069 -0.8886
  495TMC3    C8 7420   2.207   3.289  14.149  0.1945 -0.0683  0.3024
  495TMC3    O1 7421   2.586   3.389  14.559  0.0165 -0.3713  0.2164
  495TMC3    O2 7422   2.129   3.331  14.236 -0.0554  0.1006  0.2891
  496MPD2     C 7423   0.156   3.486  15.151  0.0325 -0.6444 -0.7362
  496MPD2    C1 7424   0.095   3.362  15.149 -0.4633  0.0831 -0.3439
  496MPD2    C2 7425   4.698   3.358  15.175 -0.0685 -0.3273  1.0625
  496MPD2    C3 7426   4.627   3.473  15.199  0.6238  0.7079 -0.0930
  496MPD2    C4 7427   4.690   3.590  15.202  0.1676 -0.5444  0.3180
  496MPD2    C5 7428   0.085   3.604  15.170 -0.2037 -0.3043 -0.0455
  496MPD2     H 7429   4.643   3.265  15.171  0.7111 -0.7639  0.6002
  496MPD2    H1 7430   4.636   3.681  15.227  0.4932 -0.2760  0.0465
  496MPD2    H2 7431   0.262   3.484  15.128  0.1825  0.3625 -0.1528
  496MPD2    H3 7432   0.127   3.701  15.149 -2.0358  0.2622 -1.0782
  496MPD2     N 7433   4.489   3.457  15.198  0.0145  0.0085 -0.2725
  496MPD2    H5 7434   4.450   3.365  15.178  2.4700 -1.0356 -0.1755
  496MPD2    N1 7435   0.175   3.249  15.123  0.1352 -0.8682 -0.3284
  496MPD2    H7 7436   0.274   3.265  15.109  0.2910  0.1608  1.8351
  497TMC3    C1 7437   4.254   3.522  15.226  0.1935  0.2184  0.1797
  497TMC3    C2 7438   4.213   3.466  15.107  0.2388  0.1811  0.2583
  497TMC3    C3 7439   4.083   3.426  15.102  0.6130  0.2645 -0.5798
  497TMC3    C4 7440   4.172   3.526  15.335 -0.2403 -0.4237  0.5152
  497TMC3    C5 7441   4.045   3.475  15.325 -0.5885 -0.6499 -0.1897
  497TMC3    C6 7442   3.995   3.427  15.209 -0.1701  0.5287  0.1071
  497TMC3     C 7443   4.396   3.560  15.238 -0.2289 -0.6216  0.1007
  497TMC3     O 7444   4.415   3.664  15.298 -0.0959 -0.1649 -0.4946
  497TMC3     H 7445   4.282   3.476  15.023 -1.2111  0.4098 -0.9142
  497TMC3    H1 7446   4.206   3.578  15.424  0.7186  0.1180 -0.1656
  497TMC3    H2 7447   3.894   3.390  15.190  0.4238 -1.3462  0.5614
  497TMC3    C7 7448   4.004   3.404  15.445 -0.0678  0.2564  0.0554
  497TMC3    C8 7449   4.022   3.396  14.969  0.1903 -0.7444  0.5234
  497TMC3    O1 7450   3.904   3.337  15.438  0.6581  0.7668  0.5772
  497TMC3    O2 7451   3.904   3.362  14.962 -0.4007  0.0901 -0.5702
  498MPD2     C 7452   0.225   3.390   9.305 -0.1556 -0.4551  0.0276
  498MPD2    C1 7453   0.310   3.382   9.415 -0.5484 -0.8854  0.0524
  498MPD2    C2 7454   0.274   3.294   9.518 -0.0976 -0.4945  0.0040
  498MPD2    C3 7455   0.148   3.239   9.522 -0.3556 -0.5412 -0.4951
  498MPD2    C4 7456   0.066   3.249   9.406 -0.2638 -0.1064  0.1249
  498MPD2    C5 7457   0.107   3.327   9.301 -0.6776 -0.2412 -0.1668
  498MPD2     H 7458   0.344   3.291   9.600  0.0212 -2.2787 -0.1687
  498MPD2    H1 7459   4.708   3.197   9.398 -1.6225  1.9152  2.9754
  498MPD2    H2 7460   0.249   3.448   9.216 -3.7516  0.9776 -0.0301
  498MPD2    H3 7461   0.044   3.332   9.213 -1.4924  1.5351  0.5090
  498MPD2     N 7462   0.117   3.167   9.638  0.5172 -0.1528 -0.0703
  498MPD2    H5 7463   0.180   3.179   9.717 -1.5585  3.1497  1.0964
  498MPD2    N1 7464   0.443   3.436   9.416 -0.8744 -0.2015  0.2645
  498MPD2    H7 7465   0.506   3.398   9.485  0.3316 -0.6317 -1.0879
  499TMC3    C1 7466   0.631   3.551   9.351 -0.3687  0.5304  0.0342
  499TMC3    C2 7467   0.714   3.455   9.394  0.7971 -0.5854 -0.2089
  499TMC3    C3 7468   0.843   3.501   9.419  0.2229  0.2213 -0.1547
  499TMC3    C4 7469   0.657   3.682   9.327 -0.2608 -0.3726 -0.0292
  499TMC3    C5 7470   0.789   3.720   9.335 -0.0212 -0.5328 -0.3287
  499TMC3    C6 7471   0.885   3.636   9.394  0.1335 -0.0504 -0.3887
  499TMC3     C 7472   0.487   3.526   9.322 -0.6415 -0.3210  0.3141
  499TMC3     O 7473   0.421   3.596   9.244 -0.3161 -0.9465 -0.6927
  499TMC3     H 7474   0.676   3.355   9.405 -1.7178  0.4044 -0.0284
  499TMC3    H1 7475   0.582   3.756   9.301 -1.3626 -0.9432  1.5657
  499TMC3    H2 7476   0.977   3.678   9.431  0.1642 -0.5077  0.0623
  499TMC3    C7 7477   0.823   3.857   9.299  0.5321  0.2667 -0.0135
  499TMC3    C8 7478   0.945   3.431   9.501  0.2913  0.3453  0.0784
  499TMC3    O1 7479   0.721   3.927   9.309 -0.6448  0.2340 -0.3794
  499TMC3    O2 7480   1.056   3.482   9.495 -0.2124 -0.1182  0.1725
  500MPD2     C 7481   2.103   0.803   9.816 -0.0820  1.1407 -0.1308
  500MPD2    C1 7482   2.076   0.726   9.933 -0.7347  0.2305 -0.6115
  500MPD2    C2 7483   1.996   0.610   9.911 -0.3432  0.0227  0.1500
  500MPD2    C3 7484   1.920   0.590   9.797  0.7313 -0.0641  0.4184
  500MPD2    C4 7485   1.946   0.667   9.691  0.0812  0.4140 -0.6831
  500MPD2    C5 7486   2.044   0.762   9.701  0.1330 -0.1525  1.1609
  500MPD2     H 7487   1.975   0.551   9.999  0.0252  0.3246  0.4384
  500MPD2    H1 7488   1.904   0.630   9.598 -0.0198  0.8586 -0.8137
  500MPD2    H2 7489   2.170   0.888   9.805 -0.4190  1.4173 -0.0628
  500MPD2    H3 7490   2.067   0.819   9.611 -0.0918  0.1459  1.2920
  500MPD2     N 7491   1.820   0.491   9.776  0.2697  0.2436  0.4111
  500MPD2    H5 7492   1.773   0.478   9.686 -1.4796 -1.6305  1.5715
  500MPD2    N1 7493   2.140   0.751  10.058  1.0673 -0.6570  0.2940
  500MPD2    H7 7494   2.125   0.680  10.129  0.0555 -1.5486 -0.8328
  501TMC3    C1 7495   2.290   0.832  10.206  0.7498  0.5135  0.1985
  501TMC3    C2 7496   2.278   0.934  10.291  0.0869 -0.0679 -0.4691
  501TMC3    C3 7497   2.320   0.926  10.420  0.2448 -0.0124 -0.5699
  501TMC3    C4 7498   2.338   0.711  10.247  0.4520 -0.4839 -0.8901
  501TMC3    C5 7499   2.374   0.703  10.376  0.2441 -0.1571  0.2240
  501TMC3    C6 7500   2.370   0.808  10.461  0.2461 -0.5181  0.5180
  501TMC3     C 7501   2.233   0.850  10.083  0.0967 -0.0907  0.3391
  501TMC3     O 7502   2.259   0.958  10.031  0.5383 -0.2959  0.0094
  501TMC3     H 7503   2.230   1.026  10.260  0.3511  0.6064  1.1334
  501TMC3    H1 7504   2.363   0.639  10.170  0.3038 -1.7162  0.2107
  501TMC3    H2 7505   2.409   0.799  10.561  1.3135  1.6454  0.2908
  501TMC3    C7 7506   2.505   0.625  10.395  0.5277 -0.9799  0.1347
  501TMC3    C8 7507   2.400   1.035  10.474 -0.7817 -0.1695 -0.3397
  501TMC3    O1 7508   2.538   0.597  10.510  0.2153  0.1427 -0.0160
  501TMC3    O2 7509   2.442   1.010  10.584 -0.2240 -0.2905 -0.0175
  502TMC3    C1 7510   1.920   4.487  14.838 -0.1891 -0.2848 -0.0375
  502TMC3    C2 7511   1.902   4.615  14.882  0.5452 -0.2444 -0.1462
  502TMC3    C3 7512   1.776   4.640  14.932 -0.7837 -0.7820  0.3196
  502TMC3    C4 7513   1.830   4.385  14.855  0.3412 -0.3077  0.0259
  502TMC3    C5 7514   1.713   4.412  14.916 -0.3882 -0.3971  0.3530
  502TMC3    C6 7515   1.689   4.537  14.962  0.4810 -0.1841 -0.5186
  502TMC3     C 7516   2.047   4.439  14.870 -0.6883  0.0439  0.4399
  502TMC3     O 7517   2.145   4.508  14.843 -0.4096 -0.9299 -0.5184
  502TMC3     H 7518   1.965   4.697  14.851 -1.1181  0.7797 -0.8296
  502TMC3    H1 7519   1.860   4.287  14.818  0.3016 -0.0197 -0.7765
  502TMC3    H2 7520   1.597   4.564  15.012  0.2520 -0.9291 -0.5374
  502TMC3    C7 7521   1.659   4.308  14.997  0.6615 -0.0810  0.4136
  502TMC3    C8 7522   1.732   0.034  14.897 -0.0460  0.0459  0.8946
  502TMC3    O1 7523   1.741   4.239  15.050 -0.7637  0.0443 -0.1029
  502TMC3    O2 7524   1.822   0.117  14.882  0.0911  0.8750  0.6906
  503MPD2     C 7525   4.063   0.331  16.493  0.3906  0.6205  0.4769
  503MPD2    C1 7526   4.051   0.337  16.630 -0.3432 -0.5560 -0.2302
  503MPD2    C2 7527   4.112   0.250  16.712 -0.1405  0.5745 -0.6618
  503MPD2    C3 7528   4.177   0.137  16.669 -0.0143  0.0125 -0.2146
  503MPD2    C4 7529   4.195   0.125  16.529 -0.4445  0.1557  0.7321
  503MPD2    C5 7530   4.132   0.218  16.448 -0.1291  0.3044  0.2364
  503MPD2     H 7531   4.107   0.269  16.819  1.6783  0.0023 -0.4564
  503MPD2    H1 7532   4.246   0.043  16.480  0.3758  0.5059  0.9955
  503MPD2    H2 7533   4.006   0.393  16.425 -0.1788  2.2730  2.4850
  503MPD2    H3 7534   4.139   0.200  16.341  0.2357  0.0672  0.3029
  503MPD2     N 7535   4.227   0.056  16.767 -0.4265  0.0870  0.1472
  503MPD2    H5 7536   4.219   0.083  16.865 -0.1178 -0.9635  0.4681
  503MPD2    N1 7537   3.980   0.443  16.700 -0.6250 -0.6868 -0.6953
  503MPD2    H7 7538   3.961   0.440  16.800  0.3755 -0.6663 -0.5034
  504TMC3    C1 7539   4.353   4.627  16.875 -0.7819  0.0090  0.7168
  504TMC3    C2 7540   4.295   4.659  16.993 -0.4548  0.0957  0.4779
  504TMC3    C3 7541   4.345   4.596  17.108 -0.4228 -0.4162 -0.3806
  504TMC3    C4 7542   4.458   4.543  16.865  0.0217 -1.1418  0.1304
  504TMC3    C5 7543   4.506   4.488  16.979  0.3979  0.1009  0.2246
  504TMC3    C6 7544   4.451   4.508  17.108 -0.1878 -0.2174  0.0184
  504TMC3     C 7545   4.308   4.680  16.750  0.3613  0.4543  0.1360
  504TMC3     O 7546   4.339   4.629  16.643 -0.1039  0.5381 -0.3635
  504TMC3     H 7547   4.211   4.727  17.006 -1.3866 -0.7998 -0.7802
  504TMC3    H1 7548   4.500   4.511  16.770  1.2667  0.2824  0.2158
  504TMC3    H2 7549   4.502   4.464  17.193 -1.6101  0.1370  1.0528
  504TMC3    C7 7550   4.642   4.450  16.973  0.1591 -0.3129  0.8141
  504TMC3    C8 7551   4.289   4.637  17.240  0.7400 -0.3569  0.0643
  504TMC3    O1 7552   4.685   4.420  16.867  0.0654  0.0592  0.2310
  504TMC3    O2 7553   4.244   0.014  17.242  0.4744 -0.1534 -0.4310
  505MPD2     C 7554   4.191   3.111  10.659 -0.5480  0.2349  0.3560
  505MPD2    C1 7555   4.256   3.010  10.732 -0.7548  0.3342 -0.2644
  505MPD2    C2 7556   4.385   3.034  10.785 -0.5161  0.1412  0.3613
  505MPD2    C3 7557   4.441   3.156  10.778 -0.4572  0.1887 -0.0421
  505MPD2    C4 7558   4.380   3.253  10.706 -0.2211  0.2960 -0.8261
  505MPD2    C5 7559   4.258   3.231  10.643  0.6040 -0.0952  0.1978
  505MPD2     H 7560   4.434   2.958  10.844 -1.4512 -2.1158 -1.7968
  505MPD2    H1 7561   4.427   3.351  10.700 -0.7475  0.5308 -1.0958
  505MPD2    H2 7562   4.090   3.096  10.623 -0.5485 -0.0147  0.4581
  505MPD2    H3 7563   4.212   3.313  10.588 -0.4497 -1.0499 -0.3515
  505MPD2     N 7564   4.571   3.162  10.828  0.5238  0.3505 -0.2225
  505MPD2    H5 7565   4.602   3.080  10.879  0.3888 -0.1533 -0.9659
  505MPD2    N1 7566   4.187   2.893  10.749  0.2876 -0.5135  0.4088
  505MPD2    H7 7567   4.100   2.880  10.697 -0.9323 -0.8733  2.5648
  506TMC3    C1 7568   4.165   2.664  10.799 -0.8617 -0.2257  0.2014
  506TMC3    C2 7569   4.191   2.624  10.673 -0.2801  0.4801 -0.3162
  506TMC3    C3 7570   4.219   2.492  10.656 -0.3000  0.2659  0.2946
  506TMC3    C4 7571   4.192   2.572  10.899  0.0916 -0.2617 -0.5216
  506TMC3    C5 7572   4.225   2.444  10.879  0.3543 -0.3666  0.6914
  506TMC3    C6 7573   4.228   2.395  10.753 -0.2445 -0.0084  0.3788
  506TMC3     C 7574   4.220   2.795  10.837  0.0421  0.8585 -0.4666
  506TMC3     O 7575   4.284   2.804  10.938  0.4325 -0.2627  0.1765
  506TMC3     H 7576   4.184   2.691  10.588  2.0319 -0.1505 -1.0009
  506TMC3    H1 7577   4.196   2.602  11.003 -1.8810 -0.6622 -0.3186
  506TMC3    H2 7578   4.259   2.296  10.720  0.9126  1.2758 -2.4195
  506TMC3    C7 7579   4.339   2.400  10.959  0.0998  0.3296  0.0644
  506TMC3    C8 7580   4.257   2.445  10.525  0.1459  0.2058  0.2131
  506TMC3    O1 7581   4.376   2.282  10.951  0.2885  0.2887 -0.2330
  506TMC3    O2 7582   4.244   2.326  10.504  0.5621 -0.1885  0.2886
  507TMC3    C1 7583   0.392   4.446  14.708  0.8518  0.1030  0.1050
  507TMC3    C2 7584   0.352   4.397  14.586  0.4754 -0.7417  0.8039
  507TMC3    C3 7585   0.428   4.417  14.472  0.3848 -0.0708 -0.2067
  507TMC3    C4 7586   0.502   4.523  14.712 -0.3338 -0.3632  0.4366
  507TMC3    C5 7587   0.575   4.559  14.598 -0.0037  0.5810 -0.5115
  507TMC3    C6 7588   0.543   4.489  14.481 -0.2499  0.3778 -0.6019
  507TMC3     C 7589   0.309   4.429  14.832 -0.2230  0.3954  0.2788
  507TMC3     O 7590   0.362   4.438  14.943 -0.1484  0.5525 -0.1379
  507TMC3     H 7591   0.257   4.347  14.572  0.5131 -0.3017 -1.0240
  507TMC3    H1 7592   0.526   4.558  14.811 -0.8199  1.6513 -0.1575
  507TMC3    H2 7593   0.611   4.495  14.397  0.0851 -2.1321 -0.4995
  507TMC3    C7 7594   0.582   4.703  14.573  0.3514  0.1882 -0.0225
  507TMC3    C8 7595   0.338   4.449  14.353  0.3508  0.0576  0.5333
  507TMC3    O1 7596   0.587   4.724  14.454 -0.0754  0.1354 -0.0060
  507TMC3    O2 7597   0.229   4.395  14.360 -0.1499 -0.1721  0.4670
  508MPD2     C 7598   1.083   1.929  15.981  0.4214 -0.2419 -0.6239
  508MPD2    C1 7599   1.172   2.034  16.008 -1.0639  0.5560  0.1274
  508MPD2    C2 7600   1.180   2.143  15.927  0.6108  0.4158 -0.6754
  508MPD2    C3 7601   1.092   2.158  15.823  0.1650  0.1789  0.0879
  508MPD2    C4 7602   0.993   2.058  15.799  0.7493  0.4235  0.3680
  508MPD2    C5 7603   1.000   1.950  15.876  0.0120 -0.2569  0.0166
  508MPD2     H 7604   1.253   2.217  15.958 -0.8804  1.0334  1.3664
  508MPD2    H1 7605   0.931   2.054  15.710 -0.2666 -0.2980  1.1107
  508MPD2    H2 7606   1.061   1.848  16.048  1.0676 -0.3888 -0.5877
  508MPD2    H3 7607   0.931   1.869  15.853  0.3822 -0.9337  1.2902
  508MPD2     N 7608   1.112   2.269  15.734 -0.2883 -0.0400 -0.3294
  508MPD2    H5 7609   1.200   2.316  15.755 -1.6366  1.3213  2.2510
  508MPD2    N1 7610   1.265   2.022  16.115  0.0174 -0.1641  0.3863
  508MPD2    H7 7611   1.326   2.103  16.120 -1.1126  0.7638 -0.5956
  509TMC3    C1 7612   1.029   2.636  15.485  0.3145 -0.6552 -0.3150
  509TMC3    C2 7613   1.165   2.667  15.467 -0.0989  0.1051 -0.0509
  509TMC3    C3 7614   1.253   2.563  15.484 -0.6815 -0.2416 -0.3792
  509TMC3    C4 7615   0.989   2.517  15.536 -0.3212  0.0783  0.2851
  509TMC3    C5 7616   1.087   2.428  15.571 -0.7313  0.0398 -0.2282
  509TMC3    C6 7617   1.214   2.441  15.530 -0.0257 -0.0519  0.4741
  509TMC3     C 7618   0.933   2.737  15.451 -0.0802 -0.0394  0.0316
  509TMC3     O 7619   0.823   2.709  15.490 -0.2908  0.0886 -0.1021
  509TMC3     H 7620   1.196   2.768  15.440 -0.5802  0.3944  0.4770
  509TMC3    H1 7621   0.886   2.492  15.561  0.8779 -1.5876  3.6390
  509TMC3    H2 7622   1.285   2.362  15.555  0.0079  0.5735  2.3813
  509TMC3    C7 7623   1.040   2.303  15.628  0.9884  0.2032  0.3329
  509TMC3    C8 7624   1.395   2.586  15.465 -0.3685  0.0570  0.6106
  509TMC3    O1 7625   0.921   2.274  15.620  0.2713 -0.0957  0.3879
  509TMC3    O2 7626   1.456   2.487  15.434  0.2771 -0.2985  0.4848
  510MPD2     C 7627   3.828   3.760  14.191 -0.1187  0.4832  0.1869
  510MPD2    C1 7628   3.869   3.703  14.311 -0.1725 -0.1799 -0.4672
  510MPD2    C2 7629   4.008   3.673  14.326  0.4250  0.3844  0.3287
  510MPD2    C3 7630   4.090   3.692  14.213 -0.4664  0.3726 -0.1081
  510MPD2    C4 7631   4.047   3.754  14.093  0.0649  0.2495  0.0675
  510MPD2    C5 7632   3.912   3.780  14.081  0.5889  0.0205 -0.0470
  510MPD2     H 7633   4.047   3.625  14.415  0.3214 -1.2128 -0.4967
  510MPD2    H1 7634   4.111   3.778  14.010 -0.4622  0.6831 -0.2116
  510MPD2    H2 7635   3.722   3.780  14.182 -0.3563 -1.9280 -2.3913
  510MPD2    H3 7636   3.868   3.833  13.998 -1.2990 -1.0706  0.2745
  510MPD2     N 7637   4.229   3.647  14.217 -0.7203  1.1789  0.3176
  510MPD2    H5 7638   4.258   3.605  14.304 -0.1843 -2.3979 -1.5802
  510MPD2    N1 7639   3.767   3.682  14.407  0.4690  0.0619  0.1073
  510MPD2    H7 7640   3.669   3.671  14.381  0.2521 -1.4335  1.5032
  511TMC3    C1 7641   3.658   3.604  14.602  0.2702  0.5796  0.5727
  511TMC3    C2 7642   3.648   3.630  14.736 -0.2238  0.3770 -0.2450
  511TMC3    C3 7643   3.602   3.526  14.818 -0.5059 -0.2118 -0.2768
  511TMC3    C4 7644   3.630   3.478  14.551 -0.0854  0.2017 -0.0451
  511TMC3    C5 7645   3.578   3.378  14.632  0.2399 -0.7580  0.0454
  511TMC3    C6 7646   3.560   3.402  14.766 -0.0993  0.3361  0.5783
  511TMC3     C 7647   3.782   3.649  14.546 -0.3292 -0.1905 -0.2452
  511TMC3     O 7648   3.877   3.656  14.619  0.0925  0.6582 -0.0617
  511TMC3     H 7649   3.686   3.720  14.784  1.2935 -1.3163  1.6803
  511TMC3    H1 7650   3.659   3.467  14.447 -0.2795 -0.1329 -0.0644
  511TMC3    H2 7651   3.520   3.319  14.823 -2.4795  0.3551 -1.0882
  511TMC3    C7 7652   3.604   3.247  14.576  0.0089 -0.4953  1.1018
  511TMC3    C8 7653   3.552   3.574  14.948  0.1831 -0.2613  0.9539
  511TMC3    O1 7654   3.613   3.249  14.452 -0.1146  0.5044  0.1484
  511TMC3    O2 7655   3.520   3.691  14.960  0.0876  0.4112 -0.7635
  512TMC3    C1 7656   2.848   2.637  13.390 -0.1835  0.1521 -0.9451
  512TMC3    C2 7657   2.917   2.719  13.470  0.3178 -0.1788 -0.0969
  512TMC3    C3 7658   2.912   2.691  13.607  0.4182 -0.3639  0.6952
  512TMC3    C4 7659   2.770   2.530  13.428  0.3531 -1.0806 -0.4510
  512TMC3    C5 7660   2.765   2.510  13.563 -0.6600 -0.4726 -0.1730
  512TMC3    C6 7661   2.832   2.586  13.653  0.7019 -0.7908 -0.2321
  512TMC3     C 7662   2.840   2.666  13.249 -0.7967  1.4221 -0.1982
  512TMC3     O 7663   2.782   2.580  13.180 -0.1270  0.0055 -0.6463
  512TMC3     H 7664   2.985   2.795  13.434  0.3353 -0.9684 -1.7376
  512TMC3    H1 7665   2.726   2.467  13.352  0.5169  0.3699 -1.7502
  512TMC3    H2 7666   2.819   2.559  13.757 -1.1668  1.2900  0.0812
  512TMC3    C7 7667   2.708   2.391  13.622 -0.1927 -0.1839  0.1541
  512TMC3    C8 7668   3.032   2.712  13.687 -0.9968 -0.6339 -0.1071
  512TMC3    O1 7669   2.670   2.391  13.740  0.0228 -0.3276 -0.1272
  512TMC3    O2 7670   3.058   2.628  13.768 -0.6992 -0.3114  0.4885
  513MPD2     C 7671   0.249   3.047  13.059 -0.2699 -0.3985  0.3613
  513MPD2    C1 7672   0.168   2.939  13.078  0.7013 -0.6913 -0.3169
  513MPD2    C2 7673   0.120   2.916  13.206  0.1969 -0.4278 -0.0881
  513MPD2    C3 7674   0.145   3.005  13.312  0.2136  0.1563 -0.2390
  513MPD2    C4 7675   0.213   3.122  13.284  0.3887 -0.1903 -0.4250
  513MPD2    C5 7676   0.274   3.140  13.158  0.2274 -0.0858 -0.1122
  513MPD2     H 7677   0.075   2.828  13.250  0.1399 -0.2106  0.2898
  513MPD2    H1 7678   0.231   3.201  13.356  3.5062 -1.5932  0.3569
  513MPD2    H2 7679   0.288   3.065  12.960 -0.5829  0.2850  0.3616
  513MPD2    H3 7680   0.333   3.229  13.140  2.2790 -1.5701 -0.7977
  513MPD2     N 7681   0.088   2.970  13.441  0.4104 -0.0225 -0.3051
  513MPD2    H5 7682   0.020   2.895  13.452  0.5098  0.2905  2.3956
  513MPD2    N1 7683   0.146   2.852  12.970  0.3817  0.1113  0.1959
  513MPD2    H7 7684   0.197   2.871  12.885  1.1509  2.4395  1.1756
  514TMC3    C1 7685   0.073   2.652  12.854  0.1826 -0.3870  0.0111
  514TMC3    C2 7686   0.195   2.646  12.787  0.2964  0.7795  0.8059
  514TMC3    C3 7687   0.255   2.527  12.774  0.7813 -0.7348 -0.0061
  514TMC3    C4 7688   0.014   2.536  12.879  0.2605  0.0948  0.8145
  514TMC3    C5 7689   0.074   2.416  12.858  0.5060  1.0234 -0.2982
  514TMC3    C6 7690   0.201   2.411  12.816  0.5485  0.5144  0.6356
  514TMC3     C 7691   0.075   2.735  12.973  0.6691  0.1398  0.5641
  514TMC3     O 7692   0.004   2.686  13.058 -0.0515 -0.2782  0.4861
  514TMC3     H 7693   0.234   2.735  12.738  0.3151 -0.3058 -1.1779
  514TMC3    H1 7694   4.647   2.530  12.909 -0.0064  0.6308 -0.0073
  514TMC3    H2 7695   0.254   2.319  12.792 -0.6881  0.7013 -2.8210
  514TMC3    C7 7696   0.049   2.332  12.973 -0.1463 -0.2410  0.3205
  514TMC3    C8 7697   0.384   2.513  12.701  0.4086  0.3262  0.3539
  514TMC3    O1 7698   0.093   2.216  12.978  0.2214  0.1443 -0.1658
  514TMC3    O2 7699   0.426   2.395  12.700 -0.0454  0.4493  0.6519
  515MPD2     C 7700   3.072   4.572  14.800 -0.1705 -0.7949 -1.1057
  515MPD2    C1 7701   3.085   4.644  14.685 -0.6651 -0.1241 -0.2692
  515MPD2    C2 7702   3.091   0.051  14.691  0.2489  0.7166 -0.1390
  515MPD2    C3 7703   3.101   0.110  14.815 -0.2434  0.6705 -0.5000
  515MPD2    C4 7704   3.095   0.036  14.931  0.0630  0.3294 -0.1030
  515MPD2    C5 7705   3.074   4.641  14.923 -0.0068  0.1791  0.3871
  515MPD2     H 7706   3.100   0.107  14.599  0.7922 -1.1505 -1.1995
  515MPD2    H1 7707   3.080   0.081  15.029  0.3287 -0.0674  0.1188
  515MPD2    H2 7708   3.066   4.464  14.798  1.1123 -0.8841  0.4931
  515MPD2    H3 7709   3.065   4.584  15.016  0.7473 -0.2296  0.2076
  515MPD2     N 7710   3.113   0.250  14.840 -0.1876  0.5408  0.2006
  515MPD2    H5 7711   3.124   0.274  14.937  0.1656 -1.0581  0.5604
  515MPD2    N1 7712   3.068   4.588  14.559  0.0677 -0.2367  0.1584
  515MPD2    H7 7713   3.055   4.643  14.475 -0.6426 -0.2792  0.2385
  516TMC3    C1 7714   3.054   4.424  14.394 -0.2395 -0.1623  0.0423
  516TMC3    C2 7715   2.953   4.500  14.334 -0.6701 -0.1398  0.0838
  516TMC3    C3 7716   2.869   4.435  14.243  0.0027  0.2660  0.2860
  516TMC3    C4 7717   3.077   4.289  14.361  0.6743 -0.4113  0.1719
  516TMC3    C5 7718   2.984   4.230  14.272 -0.0701  0.2243 -0.1691
  516TMC3    C6 7719   2.884   4.303  14.211 -0.0608 -0.8264  0.0561
  516TMC3     C 7720   3.085   4.456  14.531 -0.3196  0.1720 -0.0141
  516TMC3     O 7721   3.129   4.363  14.601 -0.7116  0.2892 -0.2885
  516TMC3     H 7722   2.927   4.604  14.353 -1.9011 -0.4654  0.2003
  516TMC3    H1 7723   3.153   4.227  14.408 -0.1175 -0.7308  1.0355
  516TMC3    H2 7724   2.822   4.256  14.136  1.3121 -2.8587  0.1843
  516TMC3    C7 7725   2.953   4.092  14.308 -0.6623  0.3042  0.2144
  516TMC3    C8 7726   2.778   4.510  14.157  0.1865 -1.1670 -0.5823
  516TMC3    O1 7727   3.006   4.044  14.409 -0.4857 -0.1264  0.0056
  516TMC3    O2 7728   2.696   4.594  14.196  0.6254  0.0088  0.2430
  517MPD2     C 7729   2.237   1.568  17.179  0.6754  0.8277 -0.4066
  517MPD2    C1 7730   2.375   1.548  17.184  0.0227  1.0716  0.2012
  517MPD2    C2 7731   2.448   1.627  17.274  0.1117  0.1377 -0.4456
  517MPD2    C3 7732   2.387   1.728  17.344  0.7822 -0.4010  0.6409
  517MPD2    C4 7733   2.257   1.756  17.323  0.6147 -0.6259 -0.0168
  517MPD2    C5 7734   2.182   1.673  17.250 -0.2907  0.6893  0.1795
  517MPD2     H 7735   2.551   1.599  17.290  0.1833  0.6905  0.0353
  517MPD2    H1 7736   2.204   1.834  17.377 -1.5595 -1.3969 -1.0273
  517MPD2    H2 7737   2.171   1.498  17.129  0.3477 -0.1386  1.3743
  517MPD2    H3 7738   2.076   1.695  17.249 -0.9025 -2.3190 -1.0086
  517MPD2     N 7739   2.458   1.803  17.438 -0.4157 -0.5250 -1.0101
  517MPD2    H5 7740   2.407   1.879  17.481  2.0306  0.0904  0.7823
  517MPD2    N1 7741   2.441   1.444  17.111  0.2654  0.8162 -0.3990
  517MPD2    H7 7742   2.541   1.455  17.114  0.3334 -0.2590  1.5323
  518TMC3    C1 7743   2.464   1.246  16.978 -0.6831 -0.2276  0.0199
  518TMC3    C2 7744   2.414   1.119  16.971 -0.2328 -0.4180  0.5370
  518TMC3    C3 7745   2.499   1.027  16.928  0.3077  0.0011  0.4023
  518TMC3    C4 7746   2.591   1.285  16.937 -0.4477  0.1587  0.8276
  518TMC3    C5 7747   2.663   1.194  16.872 -0.2026 -0.5630  0.1237
  518TMC3    C6 7748   2.623   1.061  16.874 -1.0244 -0.1569 -0.4866
  518TMC3     C 7749   2.379   1.347  17.036 -0.3303  0.1191  1.1933
  518TMC3     O 7750   2.257   1.325  17.018  0.2858  0.4005  0.0116
  518TMC3     H 7751   2.319   1.097  17.017  0.0745  0.7107  1.7057
  518TMC3    H1 7752   2.625   1.388  16.940  0.1215 -0.0440  1.3157
  518TMC3    H2 7753   2.677   0.994  16.809 -1.2692  0.5547 -1.4175
  518TMC3    C7 7754   2.803   1.232  16.873  0.1325 -0.6310 -0.0291
  518TMC3    C8 7755   2.489   0.895  16.981 -0.0078  0.2208  0.4903
  518TMC3    O1 7756   2.835   1.351  16.893 -0.4523 -0.0480 -0.1050
  518TMC3    O2 7757   2.591   0.830  16.958 -0.4911  0.6492 -0.3749
  519MPD2     C 7758   3.949   4.559  14.091  0.3981  0.3081 -1.2950
  519MPD2    C1 7759   3.865   4.505  13.994 -0.2442  0.7182  1.1131
  519MPD2    C2 7760   3.915   4.403  13.920 -0.7397 -1.0397 -0.6791
  519MPD2    C3 7761   4.050   4.363  13.932  0.3079  0.6041  0.2946
  519MPD2    C4 7762   4.126   4.426  14.030 -0.1040 -0.0117 -0.6053
  519MPD2    C5 7763   4.075   4.519  14.109 -0.0481 -0.0484 -0.0152
  519MPD2     H 7764   3.853   4.357  13.844  1.9133 -1.0000 -2.8440
  519MPD2    H1 7765   4.230   4.399  14.024 -0.4377 -1.5590  0.2967
  519MPD2    H2 7766   3.919   4.649  14.144 -0.7892 -0.0199 -1.4250
  519MPD2    H3 7767   4.139   4.570  14.180  0.4151 -0.1714 -0.3456
  519MPD2     N 7768   4.115   4.273  13.847  0.4187 -0.0149  0.5408
  519MPD2    H5 7769   4.216   4.268  13.860  0.4624  0.9972  0.6082
  519MPD2    N1 7770   3.738   4.563  13.967  0.4218 -0.1017 -0.6849
  519MPD2    H7 7771   3.670   4.507  13.917  0.1465  1.5627 -2.1486
  520TMC3    C1 7772   4.143   4.181  13.632 -0.3788  0.5647  0.1681
  520TMC3    C2 7773   4.107   4.249  13.517  0.0074 -0.4501 -0.0351
  520TMC3    C3 7774   4.202   4.283  13.429  0.0568 -0.1354 -0.6669
  520TMC3    C4 7775   4.272   4.144  13.652 -0.7641  0.2399  0.9698
  520TMC3    C5 7776   4.365   4.196  13.564  0.7770  0.4117  0.3681
  520TMC3    C6 7777   4.337   4.265  13.453 -0.3486 -0.0267  0.0097
  520TMC3     C 7778   4.054   4.205  13.743 -0.3225  0.2794 -0.4344
  520TMC3     O 7779   3.934   4.199  13.719 -0.0439 -0.2813 -0.1578
  520TMC3     H 7780   4.002   4.268  13.496  0.0273 -1.4959 -1.0360
  520TMC3    H1 7781   4.298   4.074  13.731 -3.0318  0.1544  1.6485
  520TMC3    H2 7782   4.409   4.325  13.398  0.1713  0.4879  1.2517
  520TMC3    C7 7783   4.500   4.182  13.606 -0.6026  0.1909 -0.1985
  520TMC3    C8 7784   4.170   4.356  13.312 -0.3216 -0.0689 -0.5890
  520TMC3    O1 7785   4.523   4.122  13.708 -0.0691  0.4103  0.7203
  520TMC3    O2 7786   4.255   4.428  13.260  0.5199  0.6087  0.0391
  521MPD2     C 7787   0.351   2.793  17.449  0.2453  0.0605  0.3923
  521MPD2    C1 7788   0.313   2.708  17.348 -0.0481  0.5517  0.4446
  521MPD2    C2 7789   0.392   2.713  17.235 -0.1222 -0.0113 -0.8390
  521MPD2    C3 7790   0.494   2.797  17.221 -0.6513 -0.1137 -0.5834
  521MPD2    C4 7791   0.544   2.870  17.323  0.1875 -0.1171 -0.3872
  521MPD2    C5 7792   0.466   2.863  17.436  0.8315  0.0140 -0.7901
  521MPD2     H 7793   0.371   2.649  17.150 -1.3175  0.7894 -1.1366
  521MPD2    H1 7794   0.624   2.943  17.319 -0.1002  0.2015 -0.3436
  521MPD2    H2 7795   0.292   2.803  17.539  0.3079 -1.0374  0.5600
  521MPD2    H3 7796   0.490   2.930  17.518 -2.5212  1.6164 -1.1300
  521MPD2     N 7797   0.552   2.813  17.092  0.0520 -0.5191 -0.5412
  521MPD2    H5 7798   0.503   2.759  17.021  0.6964  0.2878 -1.5984
  521MPD2    N1 7799   0.202   2.622  17.364 -0.6199  0.2899 -0.5525
  521MPD2    H7 7800   0.155   2.631  17.454  1.4753  0.4950  0.5063
  522TMC3    C1 7801   0.741   2.786  16.960  0.7322 -0.5939  0.4239
  522TMC3    C2 7802   0.861   2.730  16.991 -0.8153  0.1267  0.3188
  522TMC3    C3 7803   0.939   2.664  16.897 -0.3214  0.5605  0.4101
  522TMC3    C4 7804   0.688   2.771  16.837 -0.4870 -0.0922 -0.0052
  522TMC3    C5 7805   0.762   2.699  16.746  0.6646 -0.8636  0.0834
  522TMC3    C6 7806   0.893   2.659  16.771  0.4788  0.3149  0.0943
  522TMC3     C 7807   0.680   2.863  17.061  0.0182  0.3513 -0.2760
  522TMC3     O 7808   0.763   2.923  17.135 -1.0033 -0.0079  0.1082
  522TMC3     H 7809   0.895   2.726  17.094  1.0884  0.7096 -0.2831
  522TMC3    H1 7810   0.586   2.801  16.813 -0.0579  1.7918  0.5378
  522TMC3    H2 7811   0.952   2.615  16.693 -1.6707 -1.8921 -0.2800
  522TMC3    C7 7812   0.700   2.644  16.617 -0.1566 -0.7810  0.3637
  522TMC3    C8 7813   1.055   2.593  16.944 -0.0288  0.0784 -0.3539
  522TMC3    O1 7814   0.760   2.552  16.563 -0.3732  0.3720 -0.6469
  522TMC3    O2 7815   1.085   2.632  17.053 -0.1567  0.1038 -0.2645
  523MPD2     C 7816   3.073   2.019  10.189 -0.0493  0.7127  0.3250
  523MPD2    C1 7817   2.993   1.917  10.134  0.6651 -0.2349 -0.2878
  523MPD2    C2 7818   2.881   1.947  10.059  0.5868  0.4778  0.3302
  523MPD2    C3 7819   2.849   2.079  10.037  0.7560  0.4555  0.1673
  523MPD2    C4 7820   2.923   2.174  10.101  0.6461  0.0996 -0.5470
  523MPD2    C5 7821   3.032   2.145  10.177 -0.1756  0.4750 -0.1775
  523MPD2     H 7822   2.808   1.874  10.025  0.7683  0.2177  0.5018
  523MPD2    H1 7823   2.905   2.280  10.089  0.0902  0.1489  0.8005
  523MPD2    H2 7824   3.160   1.985  10.244  1.1695  1.8021 -0.9465
  523MPD2    H3 7825   3.093   2.223  10.220  0.2922  0.4161 -0.7274
  523MPD2     N 7826   2.738   2.128   9.963 -0.4844  0.2937 -0.1048
  523MPD2    H5 7827   2.739   2.227   9.941 -1.6788  0.6504  1.4333
  523MPD2    N1 7828   3.032   1.787  10.168 -0.1014 -0.7956  0.4103
  523MPD2    H7 7829   3.116   1.778  10.225  0.2640 -0.9012 -0.1417
  524TMC3    C1 7830   2.562   2.131   9.811 -0.7172 -0.0623  0.1883
  524TMC3    C2 7831   2.516   2.072   9.699  0.3788 -0.2637  0.2402
  524TMC3    C3 7832   2.432   2.143   9.614  0.5531 -0.3368 -0.0254
  524TMC3    C4 7833   2.512   2.248   9.858  0.6642 -0.5579 -0.5797
  524TMC3    C5 7834   2.413   2.306   9.780 -0.2125 -0.3065 -1.0949
  524TMC3    C6 7835   2.365   2.253   9.662 -0.0231  0.8717  0.6062
  524TMC3     C 7836   2.649   2.059   9.894 -0.3108 -0.1925 -0.8704
  524TMC3     O 7837   2.633   1.941   9.897 -0.0361  0.4017 -0.4464
  524TMC3     H 7838   2.571   1.986   9.662  0.5458  0.1686 -0.5134
  524TMC3    H1 7839   2.566   2.299   9.936 -1.0946 -0.3041  0.4585
  524TMC3    H2 7840   2.277   2.294   9.613  0.1559  0.3389 -0.1690
  524TMC3    C7 7841   2.357   2.427   9.834 -0.1566 -0.2999 -0.0892
  524TMC3    C8 7842   2.403   2.090   9.488 -0.0064 -0.4432  0.2871
  524TMC3    O1 7843   2.393   2.464   9.949  0.5685 -0.0723 -0.9038
  524TMC3    O2 7844   2.411   1.968   9.470 -0.0031 -0.1733  0.3462
  525MPD2     C 7845   0.650   4.212  14.179 -0.2994 -0.6363 -0.3865
  525MPD2    C1 7846   0.775   4.217  14.244  0.6348  1.2499  0.2201
  525MPD2    C2 7847   0.848   4.332  14.223 -1.0590  0.7373 -0.3212
  525MPD2    C3 7848   0.796   4.438  14.151 -0.3384  0.6843 -0.1839
  525MPD2    C4 7849   0.673   4.432  14.094  0.4050  0.9898  0.0239
  525MPD2    C5 7850   0.600   4.314  14.109 -0.8705 -0.0867 -0.3309
  525MPD2     H 7851   0.945   4.342  14.271  0.7261 -3.8342 -3.0011
  525MPD2    H1 7852   0.625   4.507  14.032 -0.9301 -0.1807 -0.3475
  525MPD2    H2 7853   0.588   4.124  14.180  0.5678 -1.2605 -1.3129
  525MPD2    H3 7854   0.498   4.304  14.072 -1.0725 -0.4123  0.3267
  525MPD2     N 7855   0.852   4.566  14.152 -0.1587 -0.7174 -0.0427
  525MPD2    H5 7856   0.800   4.644  14.113 -0.3385 -0.8324 -0.0313
  525MPD2    N1 7857   0.835   4.113  14.327 -0.1791  0.4124  0.8767
  525MPD2    H7 7858   0.930   4.128  14.358  0.6589 -0.1351 -1.4550
  526TMC3    C1 7859   0.819   3.907  14.453 -0.0170 -0.1013 -0.5531
  526TMC3    C2 7860   0.760   3.850  14.558  0.2055 -0.3509  0.3419
  526TMC3    C3 7861   0.836   3.781  14.648 -0.0717  0.5747 -0.0375
  526TMC3    C4 7862   0.956   3.890  14.438  0.5340  0.0475  0.0730
  526TMC3    C5 7863   1.033   3.822  14.527  0.0350 -0.5283 -0.0395
  526TMC3    C6 7864   0.973   3.773  14.640  0.2469  0.0241  0.7628
  526TMC3     C 7865   0.755   4.009  14.381  0.2401 -0.0962  0.2107
  526TMC3     O 7866   0.635   4.001  14.371 -0.0116 -0.3953  0.3123
  526TMC3     H 7867   0.653   3.854  14.573  0.0996  0.5834 -0.6460
  526TMC3    H1 7868   0.999   3.921  14.344 -0.8460 -0.8968 -0.8708
  526TMC3    H2 7869   1.031   3.735  14.724  1.9300 -2.8911 -1.6972
  526TMC3    C7 7870   1.174   3.774  14.506 -0.0896 -0.0677  0.5549
  526TMC3    C8 7871   0.780   3.729  14.769  0.4522 -0.2187  0.3665
  526TMC3    O1 7872   1.218   3.678  14.564 -0.1949 -0.3995  0.1882
  526TMC3    O2 7873   0.857   3.696  14.860 -0.0985 -0.4276  0.8138
  527MPD2     C 7874   3.577   1.799   1.125 -0.4373  0.4153 -0.0321
  527MPD2    C1 7875   3.577   1.707   1.022 -0.2930  0.6806  0.2022
  527MPD2    C2 7876   3.697   1.656   0.980 -0.0767 -0.1264 -0.0808
  527MPD2    C3 7877   3.811   1.681   1.044  0.0099 -0.6069 -0.1300
  527MPD2    C4 7878   3.812   1.769   1.150 -0.0203  0.3597 -0.0349
  527MPD2    C5 7879   3.692   1.808   1.197 -0.7253 -1.1276 -0.5976
  527MPD2     H 7880   3.704   1.585   0.898  0.3247  1.2998 -1.2650
  527MPD2    H1 7881   3.892   1.781   1.223 -1.1116 -1.8473  1.5341
  527MPD2    H2 7882   3.489   1.853   1.158 -1.2300 -0.6455 -0.4436
  527MPD2    H3 7883   3.695   1.872   1.284 -0.6710 -0.5731 -1.0079
  527MPD2     N 7884   3.929   1.614   1.003 -0.5244 -0.0469  0.5458
  527MPD2    H5 7885   3.915   1.546   0.928  0.7877 -1.6458  1.7339
  527MPD2    N1 7886   3.461   1.664   0.955 -0.3123  0.1845  0.2944
  527MPD2    H7 7887   3.473   1.599   0.878 -0.1114  0.0713  0.4177
  528TMC3    C1 7888   3.238   1.596   0.932  0.2454 -0.8439 -0.9415
  528TMC3    C2 7889   3.269   1.614   0.798 -0.3802 -0.0026 -0.4528
  528TMC3    C3 7890   3.168   1.569   0.716  0.3587 -0.7027 -0.1002
  528TMC3    C4 7891   3.122   1.536   0.990 -0.0916  0.2746  0.6901
  528TMC3    C5 7892   3.032   1.496   0.896  0.4416 -0.0601 -0.3341
  528TMC3    C6 7893   3.045   1.513   0.757 -0.4216 -0.2087  0.0195
  528TMC3     C 7894   3.337   1.666   1.012 -0.5956  0.2462  0.8217
  528TMC3     O 7895   3.309   1.692   1.128  0.6493  0.2014 -0.6381
  528TMC3     H 7896   3.359   1.652   0.751  0.8583 -0.6973  1.3653
  528TMC3    H1 7897   3.114   1.531   1.098 -0.6607 -0.3477  0.6135
  528TMC3    H2 7898   2.965   1.497   0.686 -1.9827  0.3854  1.6509
  528TMC3    C7 7899   2.900   1.451   0.939  0.0085 -0.7297  0.3467
  528TMC3    C8 7900   3.173   1.598   0.573 -0.1909  0.6849  0.2316
  528TMC3    O1 7901   2.811   1.460   0.859  0.2569  0.3702  0.2590
  528TMC3    O2 7902   3.254   1.681   0.540  0.0582 -0.6053  0.8278
  529MPD2     C 7903   0.574   0.129   0.844 -0.4224 -0.5292 -0.4956
  529MPD2    C1 7904   0.695   0.184   0.862  0.0682  0.2461 -0.2399
  529MPD2    C2 7905   0.717   0.304   0.802  0.0700 -0.2989 -0.3100
  529MPD2    C3 7906   0.623   0.371   0.724 -0.2781  0.2769  0.0507
  529MPD2    C4 7907   0.495   0.321   0.712  0.2716 -0.4238 -1.2295
  529MPD2    C5 7908   0.474   0.201   0.776  0.6405  0.2767  0.5601
  529MPD2     H 7909   0.815   0.345   0.825 -0.9410  1.4538  0.9335
  529MPD2    H1 7910   0.409   0.374   0.672 -1.4659 -0.6723  2.1528
  529MPD2    H2 7911   0.538   0.045   0.901 -0.9280  0.6324  0.8689
  529MPD2    H3 7912   0.372   0.166   0.767  0.7767 -0.4976  2.0965
  529MPD2     N 7913   0.655   0.494   0.662 -0.4869  0.0256 -0.8079
  529MPD2    H5 7914   0.582   0.528   0.601 -0.4719  2.8917  0.7768
  529MPD2    N1 7915   0.794   0.140   0.944  0.3241 -0.4031  0.1003
  529MPD2    H7 7916   0.886   0.183   0.933 -0.2816  0.8025 -0.3092
  530TMC3    C1 7917   0.900   4.735   1.099 -0.2210  0.5658 -0.1146
  530TMC3    C2 7918   0.965   0.101   1.157  0.8246  0.4852  0.5493
  530TMC3    C3 7919   1.081   0.062   1.218  0.0847  0.4825 -0.0126
  530TMC3    C4 7920   0.934   4.599   1.112  0.1326  0.1000  0.1990
  530TMC3    C5 7921   1.047   4.569   1.177  0.4521 -0.2348 -0.2897
  530TMC3    C6 7922   1.119   4.672   1.227 -0.1452 -0.8162 -0.0414
  530TMC3     C 7923   0.778   0.033   1.028 -0.5005  0.6003  0.2166
  530TMC3     O 7924   0.687   4.688   1.050 -0.5654 -0.0902  0.0615
  530TMC3     H 7925   0.927   0.202   1.156  0.6873  0.4203 -1.0733
  530TMC3    H1 7926   0.874   4.519   1.070 -0.4092  0.1751  0.8342
  530TMC3    H2 7927   1.207   4.643   1.284 -0.4398  0.7683  1.2113
  530TMC3    C7 7928   1.108   4.442   1.158 -0.7988  0.0615 -0.5386
  530TMC3    C8 7929   1.166   0.165   1.284  0.2829 -1.0613  0.0489
  530TMC3    O1 7930   1.219   4.439   1.195 -0.8092 -0.2378 -0.0445
  530TMC3    O2 7931   1.115   0.276   1.294 -0.1536 -0.1982 -0.7477
  531MPD2     C 7932   4.711   2.293  13.485  0.2091  0.1473 -0.6316
  531MPD2    C1 7933   4.694   2.428  13.451 -0.5954 -0.5198 -0.2381
  531MPD2    C2 7934   4.717   2.464  13.319 -0.1389 -0.5115 -0.5880
  531MPD2    C3 7935   0.011   2.367  13.221  0.4815 -0.6127 -0.1515
  531MPD2    C4 7936   0.014   2.235  13.258  0.4350 -0.9962  0.1024
  531MPD2    C5 7937   0.006   2.206  13.383 -0.5478  0.3583  0.6375
  531MPD2     H 7938   4.717   2.565  13.282 -0.3007 -0.0880  0.5597
  531MPD2    H1 7939   0.024   2.152  13.189 -1.9316  0.4043 -1.9571
  531MPD2    H2 7940   4.708   2.262  13.589  1.1352 -0.8634 -0.9168
  531MPD2    H3 7941   0.029   2.102  13.405 -1.2027 -0.1764 -1.2121
  531MPD2     N 7942   0.025   2.413  13.083  0.2896 -0.0943  0.2453
  531MPD2    H5 7943   0.006   2.512  13.071 -2.5656 -0.7297 -0.4858
  531MPD2    N1 7944   4.685   2.520  13.557 -0.6923 -0.2033  0.6912
  531MPD2    H7 7945   4.695   2.487  13.652  0.3402 -0.5047  0.4738
  532TMC3    C1 7946   4.720   2.725  13.660  0.7356  0.5472 -0.5826
  532TMC3    C2 7947   4.710   2.860  13.630 -0.3000 -0.2120 -0.3229
  532TMC3    C3 7948   0.071   2.947  13.671  0.1535 -0.1201  0.2195
  532TMC3    C4 7949   0.094   2.682  13.726 -1.0857  0.3512  0.1904
  532TMC3    C5 7950   0.186   2.772  13.766  0.4969 -0.4765  0.2069
  532TMC3    C6 7951   0.175   2.909  13.745 -0.1495 -0.3179 -0.0964
  532TMC3     C 7952   4.678   2.653  13.539  0.7238 -0.2887 -0.0423
  532TMC3     O 7953   4.655   2.722  13.439 -0.3149 -0.1288 -0.3344
  532TMC3     H 7954   4.624   2.903  13.579 -0.1091  0.4217 -0.1049
  532TMC3    H1 7955   0.110   2.578  13.754  0.7547  0.4982 -0.2948
  532TMC3    H2 7956   0.252   2.983  13.763 -0.8470  0.4442 -0.2461
  532TMC3    C7 7957   0.321   2.737  13.813 -0.1219 -0.8504  0.0604
  532TMC3    C8 7958   0.124   3.024  13.557  0.7820 -0.0394 -0.2245
  532TMC3    O1 7959   0.381   2.827  13.867  0.0142 -0.0651 -0.2547
  532TMC3    O2 7960   0.205   3.110  13.585  0.1483 -0.3487  0.4100
  533TMC3    C1 7961   0.994   4.725  14.231 -0.7350 -0.1247 -0.5203
  533TMC3    C2 7962   1.115   0.046  14.219 -0.1758 -0.5404  0.1059
  533TMC3    C3 7963   1.157   0.121  14.324 -0.2420 -0.2471  0.3168
  533TMC3    C4 7964   0.914   0.012  14.339  0.0172 -0.2521  0.6995
  533TMC3    C5 7965   0.960   0.089  14.432 -0.8997 -0.7771  0.4299
  533TMC3    C6 7966   1.079   0.154  14.427 -0.5580 -0.4692 -0.5358
  533TMC3     C 7967   0.979   4.594  14.180  0.0165  0.4744 -0.0445
  533TMC3     O 7968   1.074   4.519  14.185  0.3091 -0.1576 -0.0595
  533TMC3     H 7969   1.179   0.021  14.135  0.5620 -3.5939  1.5787
  533TMC3    H1 7970   0.818   4.698  14.346 -0.8698  1.5067  1.3386
  533TMC3    H2 7971   1.128   0.196  14.514 -0.1445 -0.5533 -0.7306
  533TMC3    C7 7972   0.954   0.013  14.560 -0.1110 -0.2747 -0.2052
  533TMC3    C8 7973   1.281   0.189  14.317 -0.0495  0.3640  0.0171
  533TMC3    O1 7974   0.961   4.628  14.551 -0.6359 -0.2812  0.4608
  533TMC3    O2 7975   1.299   0.274  14.400 -0.0112  0.0184 -0.4893
  534MPD2     C 7976   3.882   0.347   0.750 -0.2665 -0.7782  0.0290
  534MPD2    C1 7977   3.873   0.478   0.797 -0.4012  0.4007 -0.1162
  534MPD2    C2 7978   3.746   0.543   0.790  0.3622 -0.6899  0.9535
  534MPD2    C3 7979   3.640   0.477   0.736 -0.4146  0.2530  0.9189
  534MPD2    C4 7980   3.653   0.348   0.684 -0.0697  0.4837 -0.1362
  534MPD2    C5 7981   3.775   0.283   0.696  0.0114  0.3307 -0.0724
  534MPD2     H 7982   3.731   0.643   0.828 -2.7542 -0.0253 -2.0116
  534MPD2    H1 7983   3.577   0.298   0.624  0.7390  0.3315 -1.0376
  534MPD2    H2 7984   3.977   0.297   0.763  0.7717  0.9631 -0.8367
  534MPD2    H3 7985   3.778   0.182   0.658 -3.3873 -0.3506  1.4889
  534MPD2     N 7986   3.516   0.531   0.726 -0.8862 -0.0778  1.0330
  534MPD2    H5 7987   3.437   0.473   0.701  0.4057 -1.7212  0.8403
  534MPD2    N1 7988   3.975   0.555   0.856  0.0781 -0.4988 -0.2412
  534MPD2    H7 7989   3.942   0.637   0.907  1.1346 -0.3091  0.1448
  535TMC3    C1 7990   3.339   0.686   0.723 -0.0114 -0.6548 -0.3482
  535TMC3    C2 7991   3.259   0.590   0.776  0.4958 -0.4613  0.0979
  535TMC3    C3 7992   3.129   0.590   0.743 -0.3618 -1.1280 -0.4250
  535TMC3    C4 7993   3.292   0.784   0.642 -0.1672 -0.0384  0.7260
  535TMC3    C5 7994   3.159   0.779   0.603 -0.0000  1.0745  0.2883
  535TMC3    C6 7995   3.084   0.678   0.650 -0.5215  0.4458 -0.2300
  535TMC3     C 7996   3.480   0.665   0.735  0.4444 -0.1454 -1.2878
  535TMC3     O 7997   3.547   0.766   0.738  0.1172  0.3818  0.1348
  535TMC3     H 7998   3.291   0.531   0.861  1.4805 -1.6825 -1.1223
  535TMC3    H1 7999   3.356   0.856   0.593  1.4748 -1.1905  1.1717
  535TMC3    H2 8000   2.982   0.658   0.617 -0.5000 -1.0779  0.6409
  535TMC3    C7 8001   3.133   0.855   0.488 -0.1185  0.0948  0.0316
  535TMC3    C8 8002   3.046   0.596   0.859  0.5466  0.5660 -0.0025
  535TMC3    O1 8003   3.216   0.898   0.412 -0.5651  0.1492 -0.1673
  535TMC3    O2 8004   2.929   0.559   0.844  0.3857 -0.6410  0.1325
  536MPD2     C 8005   2.459   3.744  16.133  0.1362 -0.1249 -0.3057
  536MPD2    C1 8006   2.342   3.662  16.128  0.1670 -0.5895  0.0799
  536MPD2    C2 8007   2.261   3.671  16.018 -0.1585 -0.0176  0.0818
  536MPD2    C3 8008   2.291   3.767  15.925 -0.1733 -0.2450 -0.1324
  536MPD2    C4 8009   2.398   3.856  15.936 -1.1398  0.7799  0.3866
  536MPD2    C5 8010   2.487   3.832  16.033 -0.0509 -0.3033 -0.1469
  536MPD2     H 8011   2.169   3.614  16.017 -0.3626  0.3241 -0.1959
  536MPD2    H1 8012   2.421   3.936  15.866  3.2392 -0.4093  0.4060
  536MPD2    H2 8013   2.522   3.749  16.221  0.7974  0.3615 -0.8015
  536MPD2    H3 8014   2.563   3.906  16.054  0.0458 -0.0901 -1.2127
  536MPD2     N 8015   2.207   3.795  15.811  0.6683  0.1556  0.1646
  536MPD2    H5 8016   2.237   3.861  15.740 -1.2285  0.5708 -0.2388
  536MPD2    N1 8017   2.320   3.580  16.240 -0.0925 -0.1237  0.0960
  536MPD2    H7 8018   2.386   3.595  16.315  2.8730  1.0078 -2.7220
  537TMC3    C1 8019   2.218   3.440  16.393  0.1644 -0.3381  0.3186
  537TMC3    C2 8020   2.326   3.469  16.479 -0.8172  0.4003  0.0456
  537TMC3    C3 8021   2.318   3.408  16.605 -0.1823  0.7308 -0.1887
  537TMC3    C4 8022   2.112   3.357  16.420  0.4118  0.0222 -0.7856
  537TMC3    C5 8023   2.100   3.309  16.552 -0.6160  0.0441 -0.8696
  537TMC3    C6 8024   2.201   3.338  16.639 -0.3017 -0.9018 -0.2949
  537TMC3     C 8025   2.216   3.493  16.260  0.3450 -0.2686 -0.2009
  537TMC3     O 8026   2.120   3.466  16.188  0.2565 -0.1277 -0.2337
  537TMC3     H 8027   2.420   3.517  16.455 -1.0312 -0.5094 -2.6489
  537TMC3    H1 8028   2.038   3.329  16.346 -1.3402 -1.4626  1.4942
  537TMC3    H2 8029   2.178   3.308  16.740  1.0764 -1.1232 -0.0395
  537TMC3    C7 8030   1.994   3.214  16.583  0.1351 -0.3022  0.6106
  537TMC3    C8 8031   2.424   3.443  16.703 -0.1844  0.4426 -0.0291
  537TMC3    O1 8032   1.907   3.212  16.494  0.2081 -0.0418 -0.5557
  537TMC3    O2 8033   2.486   3.546  16.682 -0.1721  0.4697 -0.1129
  538TMC3    C1 8034   3.494   1.472  11.322  0.4798  0.4300  0.2011
  538TMC3    C2 8035   3.629   1.488  11.289  0.1624 -0.4403 -0.0439
  538TMC3    C3 8036   3.674   1.599  11.224  0.0900  0.1144  0.7247
  538TMC3    C4 8037   3.403   1.576  11.297  0.2109  0.0213  0.3105
  538TMC3    C5 8038   3.453   1.689  11.236 -0.7926  0.1377  0.2139
  538TMC3    C6 8039   3.586   1.703  11.203  0.2239 -0.5023 -0.3035
  538TMC3     C 8040   3.449   1.357  11.398  0.3429  0.3295 -0.0525
  538TMC3     O 8041   3.343   1.375  11.459  0.0014  0.3164  0.7791
  538TMC3     H 8042   3.695   1.414  11.331 -0.6837 -0.6899  0.8345
  538TMC3    H1 8043   3.297   1.570  11.321  0.1834 -0.2134  0.1319
  538TMC3    H2 8044   3.613   1.794  11.150  1.2137 -0.4001  0.3836
  538TMC3    C7 8045   3.357   1.788  11.194 -0.1665 -1.0249  0.5211
  538TMC3    C8 8046   3.812   1.598  11.176  0.3872  0.2112  0.6963
  538TMC3    O1 8047   3.277   1.762  11.103  0.1483  0.0136 -0.1726
  538TMC3    O2 8048   3.884   1.514  11.228  0.2543  0.5466  0.4217
  539MPD2     C 8049   3.030   0.718  11.950 -0.0344  0.0894 -0.0868
  539MPD2    C1 8050   3.028   0.796  11.834  0.7196 -0.0246  0.3269
  539MPD2    C2 8051   3.068   0.928  11.840 -0.5322 -0.1698  0.2985
  539MPD2    C3 8052   3.103   0.987  11.961 -0.7646  0.1854 -0.3743
  539MPD2    C4 8053   3.105   0.907  12.074 -0.1870  0.3490 -0.5375
  539MPD2    C5 8054   3.075   0.777  12.061  0.0859  0.0931 -0.5848
  539MPD2     H 8055   3.062   0.989  11.751 -0.7453 -2.2075 -1.0925
  539MPD2    H1 8056   3.119   0.951  12.172  0.0026 -1.6308  0.3254
  539MPD2    H2 8057   3.004   0.613  11.959  0.1077  0.1374  0.8839
  539MPD2    H3 8058   3.072   0.708  12.145 -1.6176  0.1898 -0.5609
  539MPD2     N 8059   3.127   1.128  11.975 -0.0147  0.5912 -0.1527
  539MPD2    H5 8060   3.153   1.159  12.068  0.6096 -0.0732 -0.1008
  539MPD2    N1 8061   3.006   0.744  11.710 -0.0750  0.0669  0.1127
  539MPD2    H7 8062   3.041   0.793  11.628 -1.1390  0.8524  0.1308
  540TMC3    C1 8063   3.170   1.348  11.906  0.1724 -0.1383 -0.5240
  540TMC3    C2 8064   3.209   1.432  11.810 -0.0584  0.5706  0.0461
  540TMC3    C3 8065   3.197   1.565  11.832  0.1877 -0.7229  0.0061
  540TMC3    C4 8066   3.111   1.389  12.023  0.8983  0.1287 -0.2247
  540TMC3    C5 8067   3.099   1.524  12.039  0.3024  0.8381 -0.1082
  540TMC3    C6 8068   3.142   1.616  11.946  0.8600  0.1160 -0.0348
  540TMC3     C 8069   3.161   1.211  11.867 -0.6010  0.0608  0.2253
  540TMC3     O 8070   3.168   1.184  11.748 -0.5360 -0.0378 -0.3064
  540TMC3     H 8071   3.266   1.398  11.724  0.1058  1.3758 -0.1648
  540TMC3    H1 8072   3.072   1.322  12.099 -0.0414 -0.8746 -1.5849
  540TMC3    H2 8073   3.131   1.723  11.959  0.9616  0.2147 -0.7387
  540TMC3    C7 8074   2.997   1.568  12.126  0.4970  0.2664 -0.2787
  540TMC3    C8 8075   3.175   1.647  11.711  0.1110  0.7425 -0.3361
  540TMC3    O1 8076   2.929   1.472  12.162  0.0601  0.4151  0.0684
  540TMC3    O2 8077   3.171   1.767  11.728 -0.2296 -0.0388 -0.1290
  541MPD2     C 8078   1.202   3.191  13.135 -0.2359  0.1532 -0.1714
  541MPD2    C1 8079   1.282   3.080  13.094 -0.2698  0.2396  0.7662
  541MPD2    C2 8080   1.355   3.092  12.980  0.3034 -0.3962 -0.0969
  541MPD2    C3 8081   1.358   3.209  12.905 -0.0937  0.2235 -0.0068
  541MPD2    C4 8082   1.283   3.318  12.948  0.2301 -0.3585 -0.5007
  541MPD2    C5 8083   1.207   3.306  13.060  0.5376 -0.1636  0.2762
  541MPD2     H 8084   1.427   3.015  12.953  0.0791 -0.5964 -0.1209
  541MPD2    H1 8085   1.291   3.420  12.911  2.3025 -0.1400  0.5409
  541MPD2    H2 8086   1.133   3.185  13.218 -1.2593 -1.5229 -1.1486
  541MPD2    H3 8087   1.162   3.397  13.098  1.4849  0.8738 -1.0869
  541MPD2     N 8088   1.432   3.231  12.791 -0.2985  0.6922  0.6098
  541MPD2    H5 8089   1.417   3.324  12.752 -0.8739 -0.1535 -1.1649
  541MPD2    N1 8090   1.260   2.963  13.178  0.2348  0.2042  0.0535
  541MPD2    H7 8091   1.194   2.963  13.255  1.8140  0.0354  1.4075
  542TMC3    C1 8092   1.560   3.197  12.587  0.0408 -0.0042 -0.0499
  542TMC3    C2 8093   1.576   3.095  12.497 -0.2023 -0.6703 -0.4496
  542TMC3    C3 8094   1.601   3.126  12.368  0.1722 -0.0994  0.1132
  542TMC3    C4 8095   1.551   3.329  12.552 -0.7013  0.0417 -0.0724
  542TMC3    C5 8096   1.558   3.358  12.417  0.2093 -0.0461  0.2904
  542TMC3    C6 8097   1.594   3.257  12.329  0.2920 -0.1915 -0.1324
  542TMC3     C 8098   1.516   3.146  12.720 -0.4143 -0.0563 -0.2064
  542TMC3     O 8099   1.573   3.046  12.765  0.4086 -0.2619 -0.2800
  542TMC3     H 8100   1.564   2.990  12.521  1.9194 -0.7424  0.2668
  542TMC3    H1 8101   1.550   3.409  12.624  3.0593 -1.3183  1.4982
  542TMC3    H2 8102   1.617   3.279  12.225  2.4901 -1.2193  0.1426
  542TMC3    C7 8103   1.572   3.494  12.377 -0.5078 -0.9070  0.2372
  542TMC3    C8 8104   1.668   3.039  12.279 -0.7825 -0.0977  0.0711
  542TMC3    O1 8105   1.605   3.576  12.459  0.0804  0.2813 -0.4744
  542TMC3    O2 8106   1.637   3.066  12.165  0.1268  0.0618  0.6996
  543TMC3    C1 8107   1.280   4.400  17.215 -0.1939  0.3298  0.4061
  543TMC3    C2 8108   1.299   4.299  17.303 -0.2084 -0.3978  0.1835
  543TMC3    C3 8109   1.333   4.321  17.434 -0.1113  0.0552 -0.2909
  543TMC3    C4 8110   1.297   4.534  17.261  0.5373  0.3528 -0.1499
  543TMC3    C5 8111   1.317   4.551  17.395  0.8612  0.0741 -0.5296
  543TMC3    C6 8112   1.340   4.446  17.482 -0.4776  0.7554 -0.1859
  543TMC3     C 8113   1.268   4.361  17.078 -0.6510  0.2639  0.8416
  543TMC3     O 8114   1.322   4.253  17.049 -0.2864  0.9763 -0.2642
  543TMC3     H 8115   1.294   4.200  17.257 -0.9503  0.1052 -0.8126
  543TMC3    H1 8116   1.285   4.622  17.198  0.2951 -1.2990 -2.4080
  543TMC3    H2 8117   1.364   4.469  17.585  1.6512  1.8368 -0.9176
  543TMC3    C7 8118   1.293   4.679  17.450 -0.3847  0.9362 -0.1507
  543TMC3    C8 8119   1.382   4.207  17.508 -0.1642 -1.0149  0.1037
  543TMC3    O1 8120   1.352   4.698  17.555 -0.5943  0.1034 -0.6292
  543TMC3    O2 8121   1.353   4.102  17.459 -0.0442  0.4882 -0.1233
  544MPD2     C 8122   1.612   3.939   0.144 -0.4284  0.8676  0.1076
  544MPD2    C1 8123   1.511   3.897   0.053 -0.4575  0.0815  0.9919
  544MPD2    C2 8124   1.467   3.993  17.707 -0.4567  0.1760  0.2715
  544MPD2    C3 8125   1.490   4.130  17.716 -0.5743  0.6420 -0.4718
  544MPD2    C4 8126   1.583   4.168   0.070  0.4446 -0.1950  0.0449
  544MPD2    C5 8127   1.634   4.074   0.160  0.2906  0.2163 -0.0435
  544MPD2     H 8128   1.399   3.953  17.632  1.2408 -1.3178 -0.4507
  544MPD2    H1 8129   1.615   4.271   0.085 -2.7024  0.7794  0.1026
  544MPD2    H2 8130   1.658   3.877   0.219  0.0968  0.2083 -0.7578
  544MPD2    H3 8131   1.696   4.104   0.243 -0.8054 -1.9385  1.5378
  544MPD2     N 8132   1.439   4.233  17.631 -0.2673 -0.0953 -0.1565
  544MPD2    H5 8133   1.461   4.326  17.664  2.6200 -0.4127 -1.2036
  544MPD2    N1 8134   1.480   3.760   0.055 -0.3280 -0.0624 -0.2410
  544MPD2    H7 8135   1.539   3.701   0.112  0.8611  0.9230 -0.4654
  545TMC3    C1 8136   1.357   3.557   0.005 -0.5042 -0.3289  0.4159
  545TMC3    C2 8137   1.424   3.503   0.112 -0.7336  0.7508 -0.0709
  545TMC3    C3 8138   1.418   3.365   0.121 -0.2562  0.1172  0.3194
  545TMC3    C4 8139   1.289   3.492  17.652  0.4095  0.1658  0.0644
  545TMC3    C5 8140   1.288   3.354  17.670  0.0014 -0.0046  0.2915
  545TMC3    C6 8141   1.352   3.289   0.028 -0.0402  0.7215  0.0879
  545TMC3     C 8142   1.386   3.697  17.719 -0.1519 -1.1453 -0.6818
  545TMC3     O 8143   1.329   3.746  17.619 -0.4242 -0.3088 -0.0896
  545TMC3     H 8144   1.465   3.572   0.186  0.5924 -0.5694  0.4260
  545TMC3    H1 8145   1.236   3.543  17.572  0.2622  0.8286  0.5881
  545TMC3    H2 8146   1.336   3.182   0.040  0.3459  0.5612 -0.8028
  545TMC3    C7 8147   1.168   3.297  17.615  0.3552 -0.3946  0.0044
  545TMC3    C8 8148   1.537   3.309   0.185 -0.1975 -0.4310 -1.1834
  545TMC3    O1 8149   1.082   3.372  17.577 -0.3833 -0.4830 -0.2598
  545TMC3    O2 8150   1.613   3.378   0.250 -0.0693  0.4889  0.0345
  546MPD2     C 8151   2.364   4.133  17.296 -0.6293  0.3666  0.5134
  546MPD2    C1 8152   2.413   4.140  17.167  0.3550  0.0341 -1.0492
  546MPD2    C2 8153   2.461   4.260  17.119  0.4412  0.0900 -0.2387
  546MPD2    C3 8154   2.467   4.371  17.201  0.0138 -0.2436 -0.0965
  546MPD2    C4 8155   2.426   4.362  17.334 -0.0268  0.2895  0.0295
  546MPD2    C5 8156   2.372   4.243  17.376 -0.3775  0.7099  0.7716
  546MPD2     H 8157   2.497   4.275  17.017 -0.2999 -4.5486 -1.2165
  546MPD2    H1 8158   2.437   4.441  17.408  0.3341  0.4031 -0.1459
  546MPD2    H2 8159   2.326   4.039  17.333 -1.8194  0.1569 -1.2112
  546MPD2    H3 8160   2.345   4.234  17.481 -0.3547  0.0817  0.7222
  546MPD2     N 8161   2.507   4.502  17.156 -0.0624  0.1191  0.6098
  546MPD2    H5 8162   2.497   4.576  17.225  0.9096 -0.9955  1.9675
  546MPD2    N1 8163   2.390   4.027  17.080 -0.1096  0.3512 -0.3435
  546MPD2    H7 8164   2.344   3.948  17.124  1.0631 -0.5092 -0.6477
  547TMC3    C1 8165   2.341   3.893  16.909 -0.0141 -0.1678 -0.4676
  547TMC3    C2 8166   2.255   3.904  16.801 -0.1732 -0.6269  0.5748
  547TMC3    C3 8167   2.171   3.799  16.801  0.6054  0.3267 -0.3068
  547TMC3    C4 8168   2.345   3.797  17.001  0.2189 -1.4286  0.8563
  547TMC3    C5 8169   2.257   3.692  16.989 -0.9347 -0.3033 -0.1011
  547TMC3    C6 8170   2.180   3.690  16.876  0.2797 -0.0114 -0.6116
  547TMC3     C 8171   2.396   4.015  16.949  0.7403 -0.3652 -0.2841
  547TMC3     O 8172   2.430   4.104  16.869  0.5335  0.8906  0.1151
  547TMC3     H 8173   2.250   3.991  16.736  0.4145 -1.6810 -0.8787
  547TMC3    H1 8174   2.413   3.786  17.085  1.0388  0.3941  0.4168
  547TMC3    H2 8175   2.096   3.622  16.868  1.8348 -1.6931 -2.6184
  547TMC3    C7 8176   2.260   3.579  17.078  0.5538 -0.0296  0.6485
  547TMC3    C8 8177   2.056   3.795  16.716  0.6296  0.4849 -0.4791
  547TMC3    O1 8178   2.324   3.602  17.181 -0.1061 -0.0590  0.4408
  547TMC3    O2 8179   1.946   3.768  16.754  0.2264 -0.3187 -0.3592
  548MPD2     C 8180   2.119   4.459  11.663  0.1830  0.5832  0.0176
  548MPD2    C1 8181   2.102   4.548  11.765  0.0390  0.2707 -0.6941
  548MPD2    C2 8182   2.210   4.609  11.823  0.1724  0.1965  0.3669
  548MPD2    C3 8183   2.339   4.590  11.774  0.1364  0.0107 -0.0674
  548MPD2    C4 8184   2.354   4.499  11.671  0.1726  0.2014 -0.4507
  548MPD2    C5 8185   2.246   4.445  11.617  0.1798 -0.4059  0.5005
  548MPD2     H 8186   2.199   4.681  11.904  2.2846  0.0550  0.7926
  548MPD2    H1 8187   2.452   4.473  11.633  0.1958 -0.8583  0.3420
  548MPD2    H2 8188   2.034   4.409  11.619 -0.1295  0.0280  1.2675
  548MPD2    H3 8189   2.253   4.377  11.532  1.1572 -1.5970  1.5290
  548MPD2     N 8190   2.446   4.647  11.841 -0.0058 -0.9679  0.4824
  548MPD2    H5 8191   2.425   4.713  11.915 -1.9956  0.0941 -1.0285
  548MPD2    N1 8192   1.970   4.555  11.809  0.6553 -0.1671  0.2675
  548MPD2    H7 8193   1.892   4.534  11.748  1.2267 -0.8715 -0.2259
  549TMC3    C1 8194   1.798   4.592  11.963  0.2479 -0.0286 -0.0790
  549TMC3    C2 8195   1.708   4.620  11.861  0.8806 -0.0275 -0.6699
  549TMC3    C3 8196   1.579   4.627  11.905 -0.2606  0.2379  0.5869
  549TMC3    C4 8197   1.759   4.561  12.090 -0.1439 -0.7987  0.4234
  549TMC3    C5 8198   1.626   4.551  12.114  0.5406 -0.2686 -0.1907
  549TMC3    C6 8199   1.529   4.583  12.021 -0.7757 -0.1585  0.7769
  549TMC3     C 8200   1.943   4.589  11.938 -0.8229 -0.4179 -0.4922
  549TMC3     O 8201   2.022   4.590  12.033  0.1882  0.6403  0.1097
  549TMC3     H 8202   1.741   4.645  11.761  0.6417  3.1150  0.0430
  549TMC3    H1 8203   1.827   4.561  12.175  0.2728 -0.6663  0.0929
  549TMC3    H2 8204   1.422   4.585  12.042 -1.2737 -1.8772 -1.5060
  549TMC3    C7 8205   1.595   4.468  12.232  0.7003 -0.0349  0.1752
  549TMC3    C8 8206   1.487   4.620  11.798 -0.3216 -0.3909 -0.0487
  549TMC3    O1 8207   1.520   4.503  12.323 -0.6526 -0.1306  0.2644
  549TMC3    O2 8208   1.414   4.520  11.802  0.0525 -0.4564 -0.1415
  550TMC3    C1 8209   1.321   2.388  12.213 -0.5010 -0.4967 -0.8064
  550TMC3    C2 8210   1.351   2.455  12.328 -0.4192 -0.1781  0.1222
  550TMC3    C3 8211   1.389   2.582  12.306  0.6020 -0.5929  0.4256
  550TMC3    C4 8212   1.322   2.437  12.088  0.1870 -0.7669  0.0542
  550TMC3    C5 8213   1.369   2.564  12.076  0.2291  0.1628  0.6090
  550TMC3    C6 8214   1.430   2.622  12.178  0.7347  0.0906  0.8626
  550TMC3     C 8215   1.232   2.285  12.241  0.2106 -0.3507 -0.3886
  550TMC3     O 8216   1.267   2.202  12.326  0.2588 -0.0326 -0.1967
  550TMC3     H 8217   1.330   2.412  12.425  3.8667  0.9751  1.5348
  550TMC3    H1 8218   1.276   2.391  12.001 -2.2374 -0.3910  1.1259
  550TMC3    H2 8219   1.463   2.725  12.172  1.6347 -0.2069  0.7155
  550TMC3    C7 8220   1.267   2.646  11.998 -0.3308  0.4243  0.2361
  550TMC3    C8 8221   1.339   2.689  12.398  0.3670  0.1084  0.8208
  550TMC3    O1 8222   1.171   2.577  11.970 -0.0891 -0.2197  0.2822
  550TMC3    O2 8223   1.344   2.804  12.360 -0.0760 -0.1515  0.0611
  551TMC3    C1 8224   3.398   0.395  13.119  0.8443  0.1852 -0.3472
  551TMC3    C2 8225   3.465   0.441  13.004 -0.2050 -0.7296 -0.3311
  551TMC3    C3 8226   3.542   0.558  12.999  0.5329 -0.6132  0.0060
  551TMC3    C4 8227   3.404   0.472  13.230  0.0831 -0.2748 -0.2036
  551TMC3    C5 8228   3.486   0.587  13.227 -0.3450 -0.2818  0.1113
  551TMC3    C6 8229   3.565   0.630  13.116  0.1712  0.1610  0.2608
  551TMC3     C 8230   3.296   0.295  13.108 -0.2436  0.5059  0.4562
  551TMC3     O 8231   3.287   0.241  13.000 -0.2726 -0.2941 -0.0747
  551TMC3     H 8232   3.462   0.394  12.906 -1.6068  0.6173 -0.9447
  551TMC3    H1 8233   3.365   0.439  13.325  0.4658 -2.7237 -0.8863
  551TMC3    H2 8234   3.628   0.718  13.117  1.4735 -0.7960  3.6776
  551TMC3    C7 8235   3.485   0.665  13.352  0.0420  1.0905 -0.4281
  551TMC3    C8 8236   3.643   0.564  12.895 -0.1168  0.1412  0.0856
  551TMC3    O1 8237   3.425   0.615  13.449 -0.5741  0.7176  0.4194
  551TMC3    O2 8238   3.686   0.457  12.855 -0.2265 -0.9532  0.6283
  552MPD2     C 8239   0.282   2.839  14.214 -0.0649  0.0426 -0.0400
  552MPD2    C1 8240   0.232   2.752  14.307  0.6252  0.3682  0.4163
  552MPD2    C2 8241   0.238   2.790  14.442 -0.7184  0.6573 -0.5537
  552MPD2    C3 8242   0.311   2.902  14.478 -0.5264 -0.8005  0.1268
  552MPD2    C4 8243   0.364   2.983  14.376 -0.3338  0.7836 -0.3957
  552MPD2    C5 8244   0.346   2.955  14.246 -0.6910  1.1988  0.2194
  552MPD2     H 8245   0.172   2.735  14.508 -1.3230  0.7833 -1.0430
  552MPD2    H1 8246   0.430   3.065  14.400  0.6584 -0.1469  0.1025
  552MPD2    H2 8247   0.271   2.816  14.109  2.0485  2.4262 -0.7898
  552MPD2    H3 8248   0.374   3.030  14.172  1.8351 -0.0045 -0.0064
  552MPD2     N 8249   0.352   2.932  14.609  0.4030  0.1923  0.0573
  552MPD2    H5 8250   0.416   3.010  14.619 -0.8807  1.2494  0.0331
  552MPD2    N1 8251   0.178   2.624  14.276 -0.0467 -0.1341 -0.3322
  552MPD2    H7 8252   0.160   2.569  14.359  1.7758  0.0347  0.1594
  553TMC3    C1 8253   0.119   2.427  14.153 -0.5221 -0.3761  0.1928
  553TMC3    C2 8254   0.118   2.372  14.024  0.2118 -0.6238  0.2354
  553TMC3    C3 8255   0.109   2.240  14.004 -0.1734  0.3863 -0.6902
  553TMC3    C4 8256   0.140   2.335  14.260 -0.6358  0.2225  0.3539
  553TMC3    C5 8257   0.139   2.197  14.235 -0.3049 -0.0120  0.4353
  553TMC3    C6 8258   0.118   2.153  14.103 -0.6101 -1.0803  0.1500
  553TMC3     C 8259   0.161   2.566  14.153  0.3037  0.5368  0.4737
  553TMC3     O 8260   0.175   2.613  14.039  0.1707 -0.2294 -0.6640
  553TMC3     H 8261   0.106   2.435  13.937  2.8408 -0.9093 -0.3444
  553TMC3    H1 8262   0.157   2.366  14.362  0.6639 -0.5892  0.3759
  553TMC3    H2 8263   0.143   2.049  14.091 -1.8394 -1.6716  2.7192
  553TMC3    C7 8264   0.227   2.116  14.318  0.6506 -0.5000 -0.3762
  553TMC3    C8 8265   0.150   2.192  13.875 -0.0003 -0.4252  0.1888
  553TMC3    O1 8266   0.205   1.996  14.307 -0.5218  0.1441  0.1662
  553TMC3    O2 8267   0.214   2.263  13.799  0.8981 -0.5901  0.0529
  554TMC3    C1 8268   2.217   1.343  11.692  0.4613 -0.2737 -1.1308
  554TMC3    C2 8269   2.172   1.298  11.566  0.3365  0.3310 -0.1042
  554TMC3    C3 8270   2.231   1.350  11.449  0.7837 -0.0208 -0.4146
  554TMC3    C4 8271   2.313   1.438  11.705 -0.4718  0.5153  0.0936
  554TMC3    C5 8272   2.355   1.494  11.587 -0.1948 -0.1152 -0.0838
  554TMC3    C6 8273   2.324   1.447  11.460  0.0034  0.5720  0.4305
  554TMC3     C 8274   2.162   1.273  11.804 -0.0209 -0.3742 -0.2435
  554TMC3     O 8275   2.078   1.191  11.785  0.2890  0.6466 -0.0540
  554TMC3     H 8276   2.110   1.211  11.549 -1.0372  0.7560  2.8223
  554TMC3    H1 8277   2.336   1.477  11.803 -1.2638  2.1141 -0.3708
  554TMC3    H2 8278   2.365   1.494  11.371  0.3637 -2.0262 -0.7525
  554TMC3    C7 8279   2.437   1.608  11.609 -0.0372  0.2441 -0.0546
  554TMC3    C8 8280   2.190   1.308  11.314  0.5450 -0.5189 -0.4548
  554TMC3    O1 8281   2.499   1.609  11.711 -0.6661  0.3610 -0.7490
  554TMC3    O2 8282   2.262   1.347  11.220 -0.2481 -0.6386 -0.0423
  555TMC3    C1 8283   1.078   1.269  15.325 -0.3443  1.0546  0.3357
  555TMC3    C2 8284   1.105   1.362  15.427 -0.5741 -0.1607 -0.3529
  555TMC3    C3 8285   1.110   1.317  15.557 -0.0207 -0.2333  0.1387
  555TMC3    C4 8286   1.062   1.131  15.345 -0.3757 -0.3486  0.1173
  555TMC3    C5 8287   1.075   1.097  15.478  0.1607  0.1239  0.9687
  555TMC3    C6 8288   1.112   1.185  15.585  0.3817 -0.0026 -0.0004
  555TMC3     C 8289   1.111   1.313  15.188  0.0836  0.0590  0.4811
  555TMC3     O 8290   1.195   1.401  15.183  0.4539 -0.8170 -0.1156
  555TMC3     H 8291   1.098   1.468  15.404  0.0577  0.0190  0.3207
  555TMC3    H1 8292   1.049   1.056  15.267 -0.6487  1.9308 -2.0272
  555TMC3    H2 8293   1.112   1.150  15.688  0.8905 -0.1965 -0.0644
  555TMC3    C7 8294   1.081   0.959  15.505  0.4010  1.3361  1.0685
  555TMC3    C8 8295   1.114   1.421  15.656  0.6008 -0.2876  0.4403
  555TMC3    O1 8296   1.007   0.889  15.436 -0.3265 -0.6351  0.4728
  555TMC3    O2 8297   1.073   1.532  15.629  0.0781  0.1345  0.7700
  556MPD2     C 8298   3.758   2.656  10.697 -0.2489 -0.2222 -0.1246
  556MPD2    C1 8299   3.829   2.585  10.785 -0.3415  0.1195 -0.1196
  556MPD2    C2 8300   3.877   2.470  10.736 -0.4910 -0.4489  0.4953
  556MPD2    C3 8301   3.862   2.426  10.608 -0.5500 -0.2273 -0.3943
  556MPD2    C4 8302   3.781   2.501  10.521  0.4123 -0.0789 -0.1200
  556MPD2    C5 8303   3.725   2.616  10.569  0.1891 -0.2695  0.1261
  556MPD2     H 8304   3.930   2.408  10.807 -0.0293  1.5291  1.8699
  556MPD2    H1 8305   3.756   2.468  10.421  0.0578  1.4614 -0.5363
  556MPD2    H2 8306   3.702   2.745  10.725 -0.9096 -0.6451 -0.1156
  556MPD2    H3 8307   3.655   2.669  10.505  3.6733 -0.1671 -3.5938
  556MPD2     N 8308   3.917   2.303  10.568  0.0942  0.1739  0.4708
  556MPD2    H5 8309   3.976   2.254  10.634 -2.2634 -3.2028  0.0443
  556MPD2    N1 8310   3.862   2.618  10.917 -0.5341 -0.0592  0.2130
  556MPD2    H7 8311   3.917   2.554  10.974  2.0588  2.0364  0.0766
  557TMC3    C1 8312   4.004   2.136  10.427  0.1653 -0.4998 -0.3447
  557TMC3    C2 8313   4.052   2.112  10.301  0.0695  0.6696 -0.5174
  557TMC3    C3 8314   4.155   2.021  10.298  0.2511  0.0501 -0.1421
  557TMC3    C4 8315   4.057   2.081  10.540  0.3024 -0.0415  0.6203
  557TMC3    C5 8316   4.157   1.993  10.533 -0.3652  0.3797 -0.5093
  557TMC3    C6 8317   4.209   1.959  10.409  0.0995  0.1822 -0.4092
  557TMC3     C 8318   3.919   2.256  10.441  0.3368  0.2158 -0.1003
  557TMC3     O 8319   3.847   2.275  10.342 -0.1061 -0.0066  0.9098
  557TMC3     H 8320   4.024   2.154  10.205 -2.4647  1.1506  0.4112
  557TMC3    H1 8321   3.991   2.079  10.626 -0.6283  0.0809 -0.0879
  557TMC3    H2 8322   4.305   1.909  10.401  0.6659  1.1583  0.2484
  557TMC3    C7 8323   4.205   1.921  10.652 -0.1100 -0.0860 -0.2029
  557TMC3    C8 8324   4.223   2.013  10.170 -0.0994 -0.4800 -0.4363
  557TMC3    O1 8325   4.303   1.849  10.628  0.0952 -0.0855  0.0539
  557TMC3    O2 8326   4.222   2.111  10.093  0.3857  0.1930 -0.3921
  558TMC3    C1 8327   1.660   0.340   9.845  0.2038 -0.5744  0.4105
  558TMC3    C2 8328   1.646   0.209   9.883 -0.6749  0.3076  0.2190
  558TMC3    C3 8329   1.518   0.166   9.884  0.7568 -0.1006 -0.8479
  558TMC3    C4 8330   1.559   0.415   9.787  0.1262  0.1472  0.1221
  558TMC3    C5 8331   1.433   0.360   9.791  0.3628 -0.5700  0.1079
  558TMC3    C6 8332   1.412   0.237   9.824  0.5100  0.0053 -0.6946
  558TMC3     C 8333   1.791   0.392   9.866 -0.6121  0.3729  0.5821
  558TMC3     O 8334   1.834   0.369   9.979 -0.2361  0.2925  0.4052
  558TMC3     H 8335   1.728   0.153   9.926 -1.3802  0.1628  1.3965
  558TMC3    H1 8336   1.564   0.521   9.764  0.5655 -0.3044 -1.8666
  558TMC3    H2 8337   1.309   0.207   9.837  1.2308 -1.7855  1.0152
  558TMC3    C7 8338   1.331   0.430   9.718 -0.7391 -0.1455 -0.1740
  558TMC3    C8 8339   1.480   0.046   9.950  0.7935 -0.5370  0.1870
  558TMC3    O1 8340   1.344   0.553   9.709  0.1712 -0.4665  0.0025
  558TMC3    O2 8341   1.363   0.014   9.936  0.3130 -0.5447  1.0194
  559MPD2     C 8342   2.016   0.923  10.672 -0.1134  0.1872 -0.5579
  559MPD2    C1 8343   1.989   0.793  10.704  0.0997  0.0141  0.4640
  559MPD2    C2 8344   2.085   0.721  10.768 -0.3977 -0.1621  0.0618
  559MPD2    C3 8345   2.205   0.776  10.805 -0.3991  0.5467  0.0196
  559MPD2    C4 8346   2.218   0.910  10.788  1.0561  0.4119 -0.9192
  559MPD2    C5 8347   2.129   0.984  10.715 -0.6369 -0.3720  0.1163
  559MPD2     H 8348   2.075   0.618  10.800 -0.0339  0.4364  2.0638
  559MPD2    H1 8349   2.314   0.959  10.802  1.3692 -0.4393 -0.0783
  559MPD2    H2 8350   1.935   0.978  10.625 -1.8639 -0.9828  1.0843
  559MPD2    H3 8351   2.153   1.086  10.686  0.4263 -0.9446 -1.0501
  559MPD2     N 8352   2.300   0.709  10.881  0.2240 -0.0774 -0.4254
  559MPD2    H5 8353   2.272   0.616  10.912 -2.8133  1.0051  0.0930
  559MPD2    N1 8354   1.868   0.735  10.667  0.1068  0.4702 -0.2294
  559MPD2    H7 8355   1.799   0.798  10.627  0.5158  1.1122  0.0749
  560TMC3    C1 8356   2.469   0.677  11.042  0.2769 -0.0484 -0.0970
  560TMC3    C2 8357   2.395   0.564  11.070 -0.8763  0.1968  0.7081
  560TMC3    C3 8358   2.388   0.525  11.198 -0.5712 -0.7547 -0.4688
  560TMC3    C4 8359   2.558   0.727  11.133  0.8590 -0.4642  0.2341
  560TMC3    C5 8360   2.549   0.687  11.263 -0.2649  0.5352  0.1580
  560TMC3    C6 8361   2.457   0.590  11.298 -0.0125 -0.0279 -0.9766
  560TMC3     C 8362   2.418   0.763  10.935 -0.5124 -0.2356  0.1391
  560TMC3     O 8363   2.482   0.867  10.906 -0.2541  0.0883 -0.7268
  560TMC3     H 8364   2.362   0.495  10.993 -0.3362 -1.4342  1.9443
  560TMC3    H1 8365   2.611   0.819  11.110 -2.9927  2.3840  2.7933
  560TMC3    H2 8366   2.436   0.557  11.399  1.3669 -0.9590 -1.0006
  560TMC3    C7 8367   2.638   0.741  11.366  0.4389  0.2290  0.1057
  560TMC3    C8 8368   2.271   0.451  11.243  0.2850 -0.4491 -0.2270
  560TMC3    O1 8369   2.599   0.732  11.483 -0.5705 -0.0418 -0.0199
  560TMC3    O2 8370   2.212   0.498  11.339  0.7050 -0.1487  0.2003
  561TMC3    C1 8371   0.127   0.016  11.564 -0.0280 -0.0230  0.5009
  561TMC3    C2 8372   0.071   0.076  11.673  0.2171  0.1577 -0.4171
  561TMC3    C3 8373   4.730   0.186  11.653  0.6065  0.2041  0.0970
  561TMC3    C4 8374   0.110   0.055  11.433 -0.1609 -0.4367  0.1178
  561TMC3    C5 8375   0.026   0.161  11.420  0.5080 -0.9234 -0.5189
  561TMC3    C6 8376   4.702   0.224  11.527 -0.1844  0.6542 -0.2557
  561TMC3     C 8377   0.156   4.613  11.585  0.7742 -0.0290 -0.4097
  561TMC3     O 8378   0.062   4.547  11.628 -0.5379  0.0078 -0.6790
  561TMC3     H 8379   0.079   0.041  11.775  2.7160  0.5408 -0.4753
  561TMC3    H1 8380   0.125   4.723  11.351 -0.2071 -1.3145  0.8478
  561TMC3    H2 8381   4.631   0.303  11.506 -0.9252  0.1697  0.4041
  561TMC3    C7 8382   4.710   0.201  11.294 -0.2781  0.3459  0.3193
  561TMC3    C8 8383   4.635   0.223  11.757 -0.2887 -0.0053 -0.0762
  561TMC3    O1 8384   4.602   0.259  11.291  0.0913  0.2810  0.5878
  561TMC3    O2 8385   4.531   0.272  11.719 -0.2288  0.4583  0.4609
  562TMC3    C1 8386   1.042   1.529  16.184  0.1963 -0.3211  0.0002
  562TMC3    C2 8387   0.968   1.639  16.150  0.0315  0.6737  0.6950
  562TMC3    C3 8388   0.890   1.626  16.038  0.0240  0.6052  0.0107
  562TMC3    C4 8389   1.036   1.408  16.117 -0.2685 -0.1874  0.0335
  562TMC3    C5 8390   0.958   1.404  16.002  0.1456  0.0220 -0.5881
  562TMC3    C6 8391   0.886   1.510  15.965  0.2076 -0.3421 -0.1605
  562TMC3     C 8392   1.072   1.506  16.327  0.1805  0.1262  0.2894
  562TMC3     O 8393   1.077   1.392  16.372  0.0021 -0.0260  0.2036
  562TMC3     H 8394   0.968   1.727  16.213  0.7269  1.7512 -0.8383
  562TMC3    H1 8395   1.112   1.332  16.132 -1.6159 -1.9225 -1.9566
  562TMC3    H2 8396   0.827   1.499  15.875 -0.5941 -1.2689  0.4867
  562TMC3    C7 8397   0.934   1.277  15.940  0.6240 -0.1426 -0.2044
  562TMC3    C8 8398   0.778   1.718  16.022  0.2188 -0.4147  1.0094
  562TMC3    O1 8399   0.877   1.268  15.834 -0.2410 -0.5211  0.2578
  562TMC3    O2 8400   0.789   1.831  16.071  0.0160  0.1740  0.2737
  563MPD2     C 8401   3.212   3.137  15.234 -0.7072  0.6345  0.4661
  563MPD2    C1 8402   3.240   3.116  15.361 -0.3751 -0.3152 -0.0035
  563MPD2    C2 8403   3.367   3.088  15.402  0.2923  0.1499  0.5159
  563MPD2    C3 8404   3.463   3.066  15.306 -0.3084  0.0722  0.1331
  563MPD2    C4 8405   3.440   3.106  15.170  0.1760 -0.5918  0.4938
  563MPD2    C5 8406   3.307   3.136  15.138 -0.0747  0.1358  0.1004
  563MPD2     H 8407   3.391   3.066  15.505  2.1842  0.9464  0.2475
  563MPD2    H1 8408   3.510   3.090  15.088  1.0314 -0.8578  1.2723
  563MPD2    H2 8409   3.110   3.142  15.197 -0.8657  2.0260  1.0807
  563MPD2    H3 8410   3.268   3.141  15.037  0.8198 -0.0170 -0.2513
  563MPD2     N 8411   3.593   3.034  15.359  0.7381  0.3459 -0.4796
  563MPD2    H5 8412   3.599   3.018  15.458 -0.7584  1.2005 -0.2555
  563MPD2    N1 8413   3.140   3.116  15.453 -0.5198 -0.1345 -0.1322
  563MPD2    H7 8414   3.048   3.152  15.430  0.1725  1.4898 -0.3860
  564TMC3    C1 8415   3.033   3.099  15.665 -0.3884  0.1264  0.1090
  564TMC3    C2 8416   2.940   3.024  15.601 -0.3979  0.0438 -0.3799
  564TMC3    C3 8417   2.874   2.929  15.678 -1.3549 -0.2547 -0.0493
  564TMC3    C4 8418   3.064   3.088  15.798 -0.3807  0.5996  0.0742
  564TMC3    C5 8419   3.009   2.989  15.875 -0.3238 -0.4977 -0.5352
  564TMC3    C6 8420   2.908   2.913  15.814 -0.1382 -0.2721 -0.1297
  564TMC3     C 8421   3.157   3.111  15.585 -0.5294  0.1712  0.0826
  564TMC3     O 8422   3.256   3.119  15.654 -0.1397  0.1701 -0.1482
  564TMC3     H 8423   2.910   3.045  15.499  3.6063 -0.7208 -1.7236
  564TMC3    H1 8424   3.149   3.138  15.841  0.1110  0.1000 -0.3195
  564TMC3    H2 8425   2.860   2.836  15.872 -2.2482 -0.5859 -2.3253
  564TMC3    C7 8426   3.115   2.908  15.933  1.2322  0.3993 -0.0043
  564TMC3    C8 8427   2.859   2.796  15.617  0.0852  0.1065 -0.5096
  564TMC3    O1 8428   3.154   2.935  16.043  0.4838  0.3709 -0.0649
  564TMC3    O2 8429   2.823   2.698  15.683  0.1829 -0.7391  0.5314
  565TMC3    C1 8430   3.921   3.629   9.912  0.5428  0.0210  0.1109
  565TMC3    C2 8431   3.905   3.585  10.042  0.0197 -0.1777  0.3119
  565TMC3    C3 8432   3.809   3.488  10.067 -0.5252 -0.2934 -0.1797
  565TMC3    C4 8433   3.836   3.574   9.809 -0.8058 -0.2596 -0.6813
  565TMC3    C5 8434   3.740   3.480   9.840 -0.1555  0.0394 -0.8993
  565TMC3    C6 8435   3.720   3.446   9.971 -0.0138  0.8256  1.1005
  565TMC3     C 8436   4.020   3.735   9.890  0.0310 -0.5009  0.2866
  565TMC3     O 8437   4.061   3.745   9.774 -0.0902  0.2287  0.0388
  565TMC3     H 8438   3.976   3.614  10.118 -0.8851 -0.3897  1.2378
  565TMC3    H1 8439   3.841   3.627   9.715  0.5213 -0.1689 -0.5534
  565TMC3    H2 8440   3.647   3.374  10.005  0.9809  0.4204  2.3769
  565TMC3    C7 8441   3.644   3.464   9.741 -0.3535  0.2141 -0.3403
  565TMC3    C8 8442   3.781   3.469  10.200  0.4886 -0.3161 -0.1463
  565TMC3    O1 8443   3.683   3.487   9.625 -0.1830  0.2559 -0.2796
  565TMC3    O2 8444   3.852   3.542  10.271 -0.0352 -0.3150  0.3571
  566MPD2     C 8445   1.474   0.517  14.077 -0.5520 -0.4679 -0.5073
  566MPD2    C1 8446   1.465   0.655  14.083  0.3755  0.0587 -0.0492
  566MPD2    C2 8447   1.473   0.730  13.963  0.6960  0.3856  1.2427
  566MPD2    C3 8448   1.473   0.660  13.843  0.3170 -0.0917 -0.1186
  566MPD2    C4 8449   1.489   0.523  13.842 -0.9136 -0.1026  0.0399
  566MPD2    C5 8450   1.508   0.454  13.958 -0.2636 -0.3422 -0.4640
  566MPD2     H 8451   1.453   0.837  13.969 -0.1523  0.2810  0.3449
  566MPD2    H1 8452   1.499   0.464  13.751  0.1504 -2.0520  1.4172
  566MPD2    H2 8453   1.479   0.459  14.169 -0.1373 -0.1385 -0.3210
  566MPD2    H3 8454   1.539   0.350  13.962 -0.0381 -0.2139  1.1039
  566MPD2     N 8455   1.425   0.716  13.720 -0.0541  0.1234  0.3334
  566MPD2    H5 8456   1.422   0.656  13.639  2.6428  1.0426 -0.4365
  566MPD2    N1 8457   1.437   0.715  14.209  0.6196 -0.4867  0.5095
  566MPD2    H7 8458   1.411   0.651  14.284  1.5549 -0.8418  0.5217
  567TMC3    C1 8459   1.384   0.903  14.353 -0.0522 -0.1173  0.7264
  567TMC3    C2 8460   1.327   1.025  14.333 -0.5059  0.3276  0.2051
  567TMC3    C3 8461   1.300   1.101  14.437  0.3519  0.0652  0.5540
  567TMC3    C4 8462   1.417   0.864  14.473 -0.1682  0.4654 -0.1347
  567TMC3    C5 8463   1.383   0.944  14.582 -0.6046  0.0644  0.0224
  567TMC3    C6 8464   1.323   1.066  14.565  0.3267  0.3296  0.8713
  567TMC3     C 8465   1.449   0.858  14.232  0.2111 -1.0820 -0.6233
  567TMC3     O 8466   1.481   0.946  14.151 -0.1145 -0.0884  0.6527
  567TMC3     H 8467   1.297   1.049  14.231 -0.3540  0.6820  0.2424
  567TMC3    H1 8468   1.468   0.771  14.492  0.3332  0.9826  1.0766
  567TMC3    H2 8469   1.324   1.143  14.642  1.1191 -0.0639  1.2600
  567TMC3    C7 8470   1.374   0.880  14.714  0.2206  0.0865 -0.0575
  567TMC3    C8 8471   1.289   1.240  14.410  0.2690  0.1152  0.1808
  567TMC3    O1 8472   1.461   0.797  14.742  0.4322 -0.2984 -0.0289
  567TMC3    O2 8473   1.228   1.276  14.308  0.1379  0.1282  0.0801
  568MPD2     C 8474   3.615   1.765  16.190 -0.2342  0.0985  0.0356
  568MPD2    C1 8475   3.475   1.734  16.202  0.8928 -0.4887  0.0405
  568MPD2    C2 8476   3.388   1.807  16.119 -0.0904 -0.2563  0.0486
  568MPD2    C3 8477   3.435   1.897  16.028 -0.1157  0.1468  0.0823
  568MPD2    C4 8478   3.573   1.921  16.020 -0.0201  0.3633  0.7976
  568MPD2    C5 8479   3.665   1.853  16.101 -0.1496  0.1506 -0.6768
  568MPD2     H 8480   3.283   1.780  16.126 -0.0821  0.1951  1.6954
  568MPD2    H1 8481   3.603   2.007  15.961 -1.4394 -0.0664 -0.5528
  568MPD2    H2 8482   3.689   1.718  16.254  0.3701 -3.2185 -3.0829
  568MPD2    H3 8483   3.770   1.878  16.085  0.3180 -1.5419 -0.2672
  568MPD2     N 8484   3.336   1.969  15.950 -0.0881 -0.2262  0.1283
  568MPD2    H5 8485   3.237   1.962  15.972 -0.2699 -0.8798 -0.9043
  568MPD2    N1 8486   3.440   1.627  16.291  0.6154  0.4175  0.1026
  568MPD2    H7 8487   3.521   1.585  16.336 -0.1521 -0.6263  0.4892
  569TMC3    C1 8488   3.246   2.100  15.768  0.8448  0.1143  0.1826
  569TMC3    C2 8489   3.153   2.144  15.858  0.4295  0.0182  0.0981
  569TMC3    C3 8490   3.028   2.175  15.807  0.2600 -0.4879 -0.3778
  569TMC3    C4 8491   3.222   2.091  15.634 -0.2428 -0.4664 -0.5166
  569TMC3    C5 8492   3.096   2.115  15.584  0.0491 -0.0135  0.5311
  569TMC3    C6 8493   3.001   2.154  15.671 -0.3171 -0.4347  0.0249
  569TMC3     C 8494   3.355   2.027  15.828 -0.1548  0.1266 -0.3910
  569TMC3     O 8495   3.460   2.025  15.767 -0.2801  0.1377  0.4652
  569TMC3     H 8496   3.177   2.179  15.958  2.6581 -1.2878  0.0058
  569TMC3    H1 8497   3.310   2.081  15.572 -0.2887 -0.7393 -0.5373
  569TMC3    H2 8498   2.899   2.159  15.634 -0.2406 -0.3759 -0.1739
  569TMC3    C7 8499   3.112   2.206  15.478  0.5029 -0.0705  0.0617
  569TMC3    C8 8500   2.952   2.279  15.867  0.4226 -0.2816  0.8399
  569TMC3    O1 8501   3.203   2.197  15.396 -0.4309  0.1498 -0.6938
  569TMC3    O2 8502   2.898   2.348  15.780 -0.9146 -0.0040  0.1566
  570TMC3    C1 8503   2.279   0.088  16.160 -0.5640  0.1797  0.3514
  570TMC3    C2 8504   2.334   0.117  16.042 -0.2648  0.1046 -0.7610
  570TMC3    C3 8505   2.420   0.219  16.038 -0.8299  0.1701  0.6907
  570TMC3    C4 8506   2.287   0.168  16.273 -0.1798  0.4455 -0.1120
  570TMC3    C5 8507   2.354   0.285  16.261 -0.0168 -0.4855  0.2306
  570TMC3    C6 8508   2.426   0.306  16.146  0.1982 -0.3311  0.0705
  570TMC3     C 8509   2.194   4.708  16.149 -0.1168  0.4015 -0.4932
  570TMC3     O 8510   2.161   4.669  16.040  0.1199  0.4215 -0.5112
  570TMC3     H 8511   2.314   0.056  15.955  0.3680  0.5821 -1.2442
  570TMC3    H1 8512   2.234   0.154  16.367 -2.0425  0.8151 -1.1170
  570TMC3    H2 8513   2.487   0.395  16.136 -0.4375  0.0511 -0.3741
  570TMC3    C7 8514   2.330   0.385  16.370 -0.1020  0.2210 -1.2012
  570TMC3    C8 8515   2.509   0.243  15.926 -0.5990 -0.0189 -0.0302
  570TMC3    O1 8516   2.314   0.349  16.485  0.5324 -0.6195 -0.6670
  570TMC3    O2 8517   2.582   0.338  15.941 -0.3189  0.2828 -0.1116
  571MPD2     C 8518   0.499   2.061   0.381  0.2848 -0.0330 -0.3865
  571MPD2    C1 8519   0.465   2.182   0.315  0.0311 -0.1016 -0.9281
  571MPD2    C2 8520   0.515   2.306   0.359  0.0758 -0.2060 -0.4193
  571MPD2    C3 8521   0.612   2.300   0.458 -0.1366  0.3050  0.2751
  571MPD2    C4 8522   0.639   2.182   0.522  0.0021  0.8658  0.1690
  571MPD2    C5 8523   0.589   2.064   0.482 -0.9127 -0.0244 -0.6879
  571MPD2     H 8524   0.495   2.404   0.317 -0.5825  0.5904  1.7886
  571MPD2    H1 8525   0.710   2.177   0.604  0.0082 -0.4180  0.0829
  571MPD2    H2 8526   0.454   1.969   0.346 -1.5612  0.7841 -0.1629
  571MPD2    H3 8527   0.625   1.973   0.529 -0.9170  0.2524 -0.1565
  571MPD2     N 8528   0.678   2.414   0.511 -0.4077  0.2610  0.1300
  571MPD2    H5 8529   0.763   2.390   0.562 -0.6495 -0.9249 -0.0153
  571MPD2    N1 8530   0.368   2.171   0.214  0.5375  0.0490 -0.3147
  571MPD2    H7 8531   0.333   2.081   0.182  0.4746 -0.3148  0.7684
  572TMC3    C1 8532   0.763   2.633   0.477  0.4441 -0.1296 -0.3213
  572TMC3    C2 8533   0.847   2.611   0.583 -0.6059 -0.2526  0.2767
  572TMC3    C3 8534   0.946   2.702   0.600 -0.2560 -0.9423  0.4606
  572TMC3    C4 8535   0.785   2.724   0.378  0.5041 -0.2682 -0.5051
  572TMC3    C5 8536   0.889   2.809   0.399  0.6517  0.4524 -0.3949
  572TMC3    C6 8537   0.974   2.800   0.500  0.0172 -1.2534 -0.6651
  572TMC3     C 8538   0.657   2.540   0.465  0.7416  0.5789 -0.1112
  572TMC3     O 8539   0.568   2.584   0.393  0.3060 -0.1164  0.0741
  572TMC3     H 8540   0.807   2.556   0.668  0.4221 -1.8488 -0.2819
  572TMC3    H1 8541   0.708   2.738   0.303 -0.6239 -0.0195  0.7040
  572TMC3    H2 8542   1.049   2.877   0.515 -1.1483 -0.2466  0.0177
  572TMC3    C7 8543   0.876   2.928   0.307 -0.0212 -0.1431 -0.3081
  572TMC3    C8 8544   1.014   2.717   0.729  0.8407 -0.3621 -0.2740
  572TMC3    O1 8545   0.830   2.905   0.196  0.3659  0.6065  0.0439
  572TMC3    O2 8546   1.071   2.819   0.756  0.4338 -0.2500 -0.4562
  573MPD2     C 8547   1.220   2.185   0.631 -0.1048  0.8104 -0.4918
  573MPD2    C1 8548   1.235   2.305   0.575 -0.4939  0.5657  0.4680
  573MPD2    C2 8549   1.156   2.337   0.465  0.4505  0.6146 -0.1170
  573MPD2    C3 8550   1.078   2.245   0.407 -0.3620 -0.3438 -0.6111
  573MPD2    C4 8551   1.077   2.114   0.455 -0.5057  0.2132  0.2854
  573MPD2    C5 8552   1.142   2.087   0.572 -0.8577  0.2570 -0.9372
  573MPD2     H 8553   1.167   2.432   0.413 -3.6261 -0.0413 -2.1750
  573MPD2    H1 8554   1.032   2.024   0.415 -0.0861 -0.3394  1.0484
  573MPD2    H2 8555   1.291   2.151   0.706  0.6099 -0.1277 -1.5927
  573MPD2    H3 8556   1.146   1.984   0.606  0.0060  0.3191 -0.8549
  573MPD2     N 8557   1.003   2.270   0.295  0.1365 -0.1127 -0.4755
  573MPD2    H5 8558   0.954   2.197   0.244  0.0662  0.2036 -0.8641
  573MPD2    N1 8559   1.332   2.397   0.631  0.5362 -0.8866  0.0278
  573MPD2    H7 8560   1.386   2.367   0.711  1.9649  0.6095 -0.3854
  574TMC3    C1 8561   0.958   2.372   0.085  0.3730 -0.5124 -0.2447
  574TMC3    C2 8562   0.935   2.489   0.011 -0.4879  0.3110  0.6650
  574TMC3    C3 8563   0.950   2.485  17.622  0.3775 -0.0956  0.5108
  574TMC3    C4 8564   1.010   2.258   0.020  0.1520 -0.4457 -0.1773
  574TMC3    C5 8565   1.027   2.261  17.635 -0.1134 -0.1928 -0.2230
  574TMC3    C6 8566   0.990   2.369  17.556  0.5873 -0.0700 -0.3459
  574TMC3     C 8567   0.984   2.387   0.222  0.1861 -0.6390 -0.0513
  574TMC3     O 8568   1.008   2.502   0.260 -0.3358  0.1490  0.4785
  574TMC3     H 8569   0.903   2.577   0.065  1.3621  0.6381  1.2512
  574TMC3    H1 8570   1.040   2.173   0.080  0.3729  0.2216  0.6550
  574TMC3    H2 8571   0.995   2.366  17.447 -1.8673 -0.4481 -0.4527
  574TMC3    C7 8572   1.095   2.143  17.571 -0.9018  0.0312  0.9590
  574TMC3    C8 8573   0.930   2.609  17.549 -0.1237 -0.0494 -0.0545
  574TMC3    O1 8574   1.106   2.047  17.643  0.1460 -0.3155 -0.2850
  574TMC3    O2 8575   0.893   2.611  17.430 -0.1420  0.0348  0.1155
  575TMC3    C1 8576   4.011   3.607  11.038 -0.4011  0.0079 -0.3515
  575TMC3    C2 8577   3.982   3.518  11.141 -0.0149 -0.0847 -0.4392
  575TMC3    C3 8578   3.895   3.415  11.112  0.1909  0.2200 -0.7087
  575TMC3    C4 8579   3.949   3.595  10.914 -0.3863 -0.3867 -0.0463
  575TMC3    C5 8580   3.868   3.491  10.893 -0.0201  0.0488  0.2283
  575TMC3    C6 8581   3.831   3.405  10.993  0.1563  0.2806 -0.3938
  575TMC3     C 8582   4.117   3.705  11.067  0.0010  0.1199 -0.8100
  575TMC3     O 8583   4.169   3.759  10.971  0.3448  0.1661  0.3621
  575TMC3     H 8584   4.035   3.519  11.235 -0.8165 -0.9500  0.0257
  575TMC3    H1 8585   3.954   3.681  10.848 -0.4353  0.2560  0.7974
  575TMC3    H2 8586   3.778   3.315  10.963 -0.1610  0.6456 -0.9196
  575TMC3    C7 8587   3.830   3.465  10.759 -0.5477 -0.7416 -0.0726
  575TMC3    C8 8588   3.862   3.332  11.228 -0.1380  0.6077 -0.2164
  575TMC3    O1 8589   3.908   3.521  10.682  0.6105 -0.1907 -0.0865
  575TMC3    O2 8590   3.871   3.388  11.336 -0.5047 -0.4985  0.1325
  576MPD2     C 8591   3.523   0.392  12.517 -0.0041 -0.7853  0.6312
  576MPD2    C1 8592   3.574   0.505  12.461  1.5345 -0.2008  0.1420
  576MPD2    C2 8593   3.526   0.628  12.507  0.3872  0.4417  1.0342
  576MPD2    C3 8594   3.439   0.646  12.617 -0.4552  0.3509 -0.0112
  576MPD2    C4 8595   3.391   0.528  12.672 -0.7527  0.2137  0.1250
  576MPD2    C5 8596   3.432   0.404  12.620 -0.0100 -0.2202 -0.1971
  576MPD2     H 8597   3.570   0.715  12.459  0.2845  0.0193  0.1746
  576MPD2    H1 8598   3.314   0.530  12.748  0.1616  2.2081  1.0020
  576MPD2    H2 8599   3.552   0.291  12.492 -2.5960 -1.0998 -1.0754
  576MPD2    H3 8600   3.389   0.315  12.664  2.6681 -1.3316  0.2067
  576MPD2     N 8601   3.388   0.776  12.644 -0.2881  0.1834 -0.2843
  576MPD2    H5 8602   3.440   0.850  12.597  0.7710 -0.2019  0.2598
  576MPD2    N1 8603   3.670   0.504  12.358 -0.1739 -0.1461  0.4025
  576MPD2    H7 8604   3.682   0.589  12.304 -2.0672 -0.5879 -0.7068
  577TMC3    C1 8605   3.824   0.435  12.207  0.1080  0.9896 -0.9502
  577TMC3    C2 8606   3.956   0.451  12.236 -0.3555 -0.3743  0.1183
  577TMC3    C3 8607   4.042   0.401  12.147  0.2950 -0.5375  0.3492
  577TMC3    C4 8608   3.774   0.386  12.090  0.6529 -0.2933 -0.3822
  577TMC3    C5 8609   3.869   0.354  12.001 -0.5542  0.3672  0.4451
  577TMC3    C6 8610   3.998   0.369  12.021 -0.0214  0.2486  0.4862
  577TMC3     C 8611   3.738   0.397  12.316 -0.5858 -0.2171  0.5642
  577TMC3     O 8612   3.762   0.292  12.381  0.9951  0.0812  0.2230
  577TMC3     H 8613   3.988   0.479  12.336  1.7668  0.4737 -0.8035
  577TMC3    H1 8614   3.671   0.357  12.075  0.7058 -0.6977  0.0339
  577TMC3    H2 8615   4.073   0.348  11.946 -0.1816 -1.0382  0.6818
  577TMC3    C7 8616   3.824   0.283  11.886 -0.7478 -0.1249 -0.5966
  577TMC3    C8 8617   4.175   0.361  12.197  0.6311  0.3748 -0.1580
  577TMC3    O1 8618   3.903   0.195  11.860 -0.6024 -0.3852  0.1264
  577TMC3    O2 8619   4.210   0.413  12.297 -0.5023 -1.0226  0.1752
  578MPD2     C 8620   1.754   1.218   1.398 -0.4406  0.6319 -0.0030
  578MPD2    C1 8621   1.742   1.119   1.300 -0.1542  0.5898 -0.2223
  578MPD2    C2 8622   1.843   1.032   1.282 -0.1465  0.7579 -0.6887
  578MPD2    C3 8623   1.955   1.035   1.363  0.2733  0.1630 -0.5150
  578MPD2    C4 8624   1.958   1.125   1.466 -0.3609 -0.5384  0.9384
  578MPD2    C5 8625   1.856   1.211   1.488  0.1431 -0.5535  0.0345
  578MPD2     H 8626   1.837   0.959   1.202  1.6738 -0.1062 -0.0305
  578MPD2    H1 8627   2.038   1.126   1.540 -1.0900 -1.3800  1.7381
  578MPD2    H2 8628   1.685   1.300   1.411 -0.9415  0.2459 -0.1863
  578MPD2    H3 8629   1.872   1.275   1.575 -0.7278  0.3314 -0.4569
  578MPD2     N 8630   2.054   0.936   1.339 -0.0711 -0.1530 -0.1020
  578MPD2    H5 8631   2.048   0.881   1.254 -3.3132  0.2546 -0.1490
  578MPD2    N1 8632   1.631   1.126   1.211 -0.5870 -0.3267  0.0910
  578MPD2    H7 8633   1.574   1.208   1.227 -0.1627  0.1778 -0.9883
  579TMC3    C1 8634   2.245   0.813   1.366 -0.3886 -0.5782 -0.9543
  579TMC3    C2 8635   2.376   0.834   1.371  0.0379  0.0695 -1.0607
  579TMC3    C3 8636   2.459   0.752   1.297  0.7189 -0.4106  0.1006
  579TMC3    C4 8637   2.185   0.722   1.292  0.6010 -0.3039  0.9635
  579TMC3    C5 8638   2.271   0.630   1.235  0.4553  0.6867 -0.0561
  579TMC3    C6 8639   2.407   0.651   1.222  0.6461 -0.4304 -0.6468
  579TMC3     C 8640   2.168   0.924   1.416 -0.3852 -1.0435 -0.0376
  579TMC3     O 8641   2.220   0.998   1.504 -0.3810 -0.4001 -0.1981
  579TMC3     H 8642   2.405   0.904   1.448  0.1281  0.0683 -1.0938
  579TMC3    H1 8643   2.082   0.693   1.309  1.1065 -2.0031  1.1489
  579TMC3    H2 8644   2.461   0.575   1.167  0.1906 -0.1089 -1.5520
  579TMC3    C7 8645   2.216   0.510   1.168 -0.0767 -0.7368  0.4828
  579TMC3    C8 8646   2.604   0.768   1.322 -0.2816 -0.2474  0.4476
  579TMC3    O1 8647   2.297   0.429   1.133 -0.3791 -0.1648  0.1731
  579TMC3    O2 8648   2.638   0.831   1.423  0.1196 -0.0756  0.1295
  580TMC3    C1 8649   1.657   3.726  11.247 -0.6308  0.0385  0.2801
  580TMC3    C2 8650   1.732   3.679  11.143  0.5030  0.8088  0.2227
  580TMC3    C3 8651   1.784   3.552  11.154  0.7203  0.3548 -0.2830
  580TMC3    C4 8652   1.622   3.643  11.353  0.2975  0.0003  0.1615
  580TMC3    C5 8653   1.685   3.522  11.368  0.4597  0.4539 -0.2124
  580TMC3    C6 8654   1.767   3.475  11.267 -0.3882  0.5509  0.2964
  580TMC3     C 8655   1.647   3.868  11.267 -0.5179  0.0286 -0.5671
  580TMC3     O 8656   1.679   3.940  11.170 -0.3051  0.1094 -0.5575
  580TMC3     H 8657   1.747   3.741  11.056  2.7974  0.6500  0.5037
  580TMC3    H1 8658   1.548   3.676  11.426  0.9472 -0.0990  0.8610
  580TMC3    H2 8659   1.813   3.377  11.266  1.0047  1.1754  3.4118
  580TMC3    C7 8660   1.740   3.511  11.497  0.7125 -0.0802  0.1951
  580TMC3    C8 8661   1.850   3.490  11.034  0.1722  0.0887  0.2195
  580TMC3    O1 8662   1.767   3.620  11.547 -0.5440 -0.1340  0.0670
  580TMC3    O2 8663   1.841   3.373  11.015 -0.0162  0.4454  0.0577
  581MPD2     C 8664   4.599   3.939  14.384 -0.5384  0.4016  0.5886
  581MPD2    C1 8665   4.503   3.935  14.484 -0.0160  0.1121 -0.9798
  581MPD2    C2 8666   4.380   3.984  14.466  0.1165 -0.0653 -0.2254
  581MPD2    C3 8667   4.333   4.025  14.345 -0.0765  0.4577 -0.4367
  581MPD2    C4 8668   4.434   4.036  14.244  0.3982  0.3831 -0.4935
  581MPD2    C5 8669   4.558   3.986  14.259 -0.0009 -0.2621 -0.6755
  581MPD2     H 8670   4.314   3.975  14.551  1.1759  1.5455  0.7550
  581MPD2    H1 8671   4.409   4.068  14.143  0.6456 -1.0518 -1.0044
  581MPD2    H2 8672   4.698   3.900  14.399  0.2438  1.1899 -2.5130
  581MPD2    H3 8673   4.629   3.986  14.178 -0.6136  0.2860 -1.2096
  581MPD2     N 8674   4.200   4.065  14.325  0.3931 -0.1654  0.9961
  581MPD2    H5 8675   4.142   4.068  14.409 -1.8231 -0.1028 -0.5406
  581MPD2    N1 8676   4.527   3.875  14.611 -0.4033  0.8436 -1.3392
  581MPD2    H7 8677   4.451   3.886  14.678  0.4853  0.2378 -0.2396
  582TMC3    C1 8678   4.622   3.759  14.792  0.8671  0.4041 -0.6062
  582TMC3    C2 8679   4.683   3.859  14.867  0.1727 -0.0660  0.1591
  582TMC3    C3 8680   4.617   3.888  14.986 -0.0685  0.5522 -0.5210
  582TMC3    C4 8681   4.499   3.712  14.820  0.2351  0.4098  0.5163
  582TMC3    C5 8682   4.436   3.755  14.934  0.1909  0.6893 -0.3239
  582TMC3    C6 8683   4.498   3.833  15.025  0.5928 -0.3015 -0.5351
  582TMC3     C 8684   4.635   3.802  14.654  1.1809 -0.2474 -0.4047
  582TMC3     O 8685   0.010   3.798  14.604 -0.2178 -0.0043  0.3167
  582TMC3     H 8686   0.040   3.906  14.840  1.0925 -0.1159  3.1708
  582TMC3    H1 8687   4.465   3.633  14.754 -3.5891  2.1228  0.4061
  582TMC3    H2 8688   4.459   3.836  15.126  2.3716  0.8711  0.1104
  582TMC3    C7 8689   4.294   3.749  14.937  0.2878 -0.3882 -0.2990
  582TMC3    C8 8690   4.705   3.937  15.090  0.0202  0.6610 -0.6154
  582TMC3    O1 8691   4.244   3.661  14.873  0.5714 -0.1284  0.2370
  582TMC3    O2 8692   0.088   3.915  15.081 -0.2258  0.3468  0.4170
  583MPD2     C 8693   4.177   0.892  16.806  0.8505  0.3206 -0.1171
  583MPD2    C1 8694   4.135   1.007  16.735  1.0793 -0.0035 -0.0806
  583MPD2    C2 8695   4.087   1.117  16.807  0.2941  0.0852 -0.1918
  583MPD2    C3 8696   4.075   1.120  16.946 -0.4651  0.1140 -0.6390
  583MPD2    C4 8697   4.112   1.003  17.014  0.1462 -0.2973 -0.4301
  583MPD2    C5 8698   4.165   0.896  16.947 -0.5046 -0.6296 -0.1654
  583MPD2     H 8699   4.045   1.203  16.756 -1.3407 -1.3767 -1.2687
  583MPD2    H1 8700   4.120   1.007  17.122  1.6933  2.5590 -0.6421
  583MPD2    H2 8701   4.217   0.803  16.758  1.1870 -1.0213  2.6477
  583MPD2    H3 8702   4.211   0.812  16.998  1.5236 -0.0561 -1.0503
  583MPD2     N 8703   4.034   1.237  17.012  0.1576  0.0501  0.0993
  583MPD2    H5 8704   4.024   1.321  16.956 -1.4877 -0.2073 -0.0022
  583MPD2    N1 8705   4.133   1.013  16.592 -0.0690 -0.1778 -0.2743
  583MPD2    H7 8706   4.101   1.099  16.549  1.0405 -1.0238 -2.8075
  584TMC3    C1 8707   3.984   1.377  17.197 -0.6930  0.1206  0.7324
  584TMC3    C2 8708   4.030   1.492  17.134  0.1073  0.2752  0.1282
  584TMC3    C3 8709   4.049   1.607  17.209  0.1756 -0.7077 -0.2248
  584TMC3    C4 8710   3.959   1.380  17.332 -0.0714 -0.3283  0.5790
  584TMC3    C5 8711   3.986   1.503  17.403  0.3078 -0.1938  0.1163
  584TMC3    C6 8712   4.032   1.617  17.346  0.3723 -0.0280 -0.0327
  584TMC3     C 8713   3.989   1.241  17.142  0.4018 -0.9130 -0.4180
  584TMC3     O 8714   3.944   1.149  17.208 -0.7879 -0.2815 -0.3544
  584TMC3     H 8715   4.048   1.499  17.027  1.6015  0.5619  0.4087
  584TMC3    H1 8716   3.934   1.294  17.393 -1.0786 -0.4202  0.0365
  584TMC3    H2 8717   4.030   1.712  17.397 -1.5642 -0.5801  0.9010
  584TMC3    C7 8718   3.967   1.500  17.548 -0.7226  0.0471  0.5788
  584TMC3    C8 8719   4.047   1.734  17.130  0.0841 -0.6835  0.2619
  584TMC3    O1 8720   3.934   1.392  17.594 -0.3442 -0.1425 -0.1430
  584TMC3    O2 8721   4.019   1.728  17.009  0.2219 -0.3580  0.1151
  585MPD2     C 8722   2.991   0.535  17.642  0.0432 -0.0889 -0.5666
  585MPD2    C1 8723   3.104   0.575  17.568 -1.2959  0.3731  0.7113
  585MPD2    C2 8724   3.203   0.484  17.521  0.4243 -0.2766 -0.2462
  585MPD2    C3 8725   3.183   0.355  17.558  0.2986  0.1810  0.5475
  585MPD2    C4 8726   3.077   0.313  17.630 -0.1410 -0.1836  0.8346
  585MPD2    C5 8727   2.987   0.402  17.680  0.6439  0.8541  0.1646
  585MPD2     H 8728   3.278   0.524  17.455  2.3940  0.3543  2.3821
  585MPD2    H1 8729   3.076   0.215  17.675  0.4511 -1.6372 -2.3319
  585MPD2    H2 8730   2.914   0.609  17.660  0.1145  0.0426 -0.7972
  585MPD2    H3 8731   2.899   0.372  17.735  0.8221 -1.1438 -0.6236
  585MPD2     N 8732   3.275   0.253  17.522  0.6656 -0.2380  0.6134
  585MPD2    H5 8733   3.262   0.157  17.554 -0.5832 -0.1334  0.4157
  585MPD2    N1 8734   3.087   0.705  17.518  0.4071 -0.2149 -0.7063
  585MPD2    H7 8735   2.999   0.752  17.536 -0.8992 -3.3809  1.2282
  586TMC3    C1 8736   3.446   0.135  17.411 -0.1015 -0.6234  0.1233
  586TMC3    C2 8737   3.582   0.124  17.381  0.5536  0.1666 -1.3892
  586TMC3    C3 8738   3.630   0.002  17.354  0.4150 -0.0795 -0.1106
  586TMC3    C4 8739   3.358   0.027  17.401  0.1441 -0.3910  0.4181
  586TMC3    C5 8740   3.407   4.648  17.364 -0.1184  0.7129 -0.2217
  586TMC3    C6 8741   3.545   4.632  17.337 -0.4482  0.3252  0.1932
  586TMC3     C 8742   3.388   0.265  17.450  0.3638  0.4061 -0.0933
  586TMC3     O 8743   3.446   0.362  17.409  0.2131  0.2040  0.4179
  586TMC3     H 8744   3.654   0.202  17.402 -0.5438  0.9370 -0.4613
  586TMC3    H1 8745   3.250   0.024  17.391  0.2216  0.0496 -0.5407
  586TMC3    H2 8746   3.590   4.549  17.284 -2.6601  0.2208 -1.5144
  586TMC3    C7 8747   3.316   4.556  17.325  0.3812  0.0884 -0.0424
  586TMC3    C8 8748   3.773   4.715  17.348 -0.0505  0.2405  0.8783
  586TMC3    O1 8749   3.212   4.536  17.390 -0.7102 -1.0212  0.1608
  586TMC3    O2 8750   3.839   0.068  17.297  0.0256  0.1413  0.7397
  587TMC3    C1 8751   0.899   3.604  15.959 -0.4402 -0.6920  0.1668
  587TMC3    C2 8752   0.977   3.676  16.048  0.4197  0.2934  0.6101
  587TMC3    C3 8753   1.069   3.603  16.124  0.3317 -0.5063 -0.0904
  587TMC3    C4 8754   0.908   3.465  15.953  0.3370  0.1327 -0.8864
  587TMC3    C5 8755   0.993   3.396  16.030  0.0553 -0.1032 -0.1926
  587TMC3    C6 8756   1.081   3.467  16.111 -1.1956 -0.1880 -0.0617
  587TMC3     C 8757   0.789   3.673  15.901 -0.4789 -0.2239  0.4212
  587TMC3     O 8758   0.790   3.793  15.876 -0.1697  0.3249 -0.1733
  587TMC3     H 8759   0.968   3.783  16.060 -1.2957  0.1521  0.6587
  587TMC3    H1 8760   0.856   3.415  15.872 -0.7443  2.9125 -1.9244
  587TMC3    H2 8761   1.157   3.415  16.169 -0.0247 -0.0775 -1.5063
  587TMC3    C7 8762   1.023   3.256  16.003 -0.1041 -0.2863  0.0437
  587TMC3    C8 8763   1.100   3.651  16.260 -0.3470  0.0472  0.1974
  587TMC3    O1 8764   1.129   3.218  16.049 -0.4723  0.4041 -0.3658
  587TMC3    O2 8765   1.194   3.598  16.318  0.0794  0.3272  0.0235
  588TMC3    C1 8766   3.399   1.358  10.060 -1.1306  0.7484  0.0906
  588TMC3    C2 8767   3.427   1.245   9.986 -0.6730 -0.5029  0.4393
  588TMC3    C3 8768   3.506   1.150  10.046  0.8868 -0.3580  0.5843
  588TMC3    C4 8769   3.440   1.370  10.187 -0.1998 -0.1339  0.1059
  588TMC3    C5 8770   3.519   1.274  10.251 -0.5604 -0.0348  0.5340
  588TMC3    C6 8771   3.560   1.166  10.173 -0.0161  0.3168  0.1212
  588TMC3     C 8772   3.350   1.481   9.989  0.5390  0.0188  0.7932
  588TMC3     O 8773   3.272   1.482   9.897 -0.1396 -0.1122  0.8748
  588TMC3     H 8774   3.384   1.227   9.888  1.1934  0.2045 -0.4897
  588TMC3    H1 8775   3.389   1.444  10.248  0.3923  0.2215  0.1689
  588TMC3    H2 8776   3.623   1.089  10.217  0.5443  0.2927 -0.7051
  588TMC3    C7 8777   3.608   1.314  10.365 -0.5158 -0.2898 -0.5632
  588TMC3    C8 8778   3.481   1.013  10.000  1.0548 -0.1665 -0.1539
  588TMC3    O1 8779   3.696   1.242  10.398  0.1552 -0.0322 -0.3924
  588TMC3    O2 8780   3.415   1.003   9.898 -0.1465  0.4270 -0.0761
  589TMC3    C1 8781   2.185   3.228   0.722  0.9515 -0.1528 -0.6847
  589TMC3    C2 8782   2.255   3.282   0.827  0.5576 -0.0170  0.2204
  589TMC3    C3 8783   2.388   3.240   0.849  0.2955 -0.7224  0.1836
  589TMC3    C4 8784   2.244   3.141   0.633 -0.2088 -0.1974  0.6892
  589TMC3    C5 8785   2.369   3.095   0.663  0.0519  0.3002  0.1292
  589TMC3    C6 8786   2.444   3.147   0.767  0.4063 -0.5972  0.4350
  589TMC3     C 8787   2.080   3.309   0.649  0.6382 -0.3790  0.1131
  589TMC3     O 8788   1.999   3.242   0.591 -0.3740  0.1962 -0.2252
  589TMC3     H 8789   2.203   3.351   0.893  2.5228  0.0128  1.7513
  589TMC3    H1 8790   2.188   3.113   0.545  0.8709  1.8227 -0.6552
  589TMC3    H2 8791   2.548   3.120   0.783 -0.1149 -2.6191  0.4769
  589TMC3    C7 8792   2.436   3.016   0.559 -0.6221  0.3052 -0.4673
  589TMC3    C8 8793   2.472   3.337   0.926  0.6645 -0.1642 -0.4774
  589TMC3    O1 8794   2.362   2.955   0.484  0.0615  0.5048  0.1900
  589TMC3    O2 8795   2.411   3.412   1.003  0.0296 -0.0751 -0.7800
  590MPD2     C 8796   2.002   2.026  16.517  0.1762 -0.2199 -0.7715
  590MPD2    C1 8797   1.929   2.061  16.405  0.6854 -0.1892 -0.2548
  590MPD2    C2 8798   2.005   2.102  16.288  0.1548 -0.0817  0.2383
  590MPD2    C3 8799   2.138   2.102  16.291  0.3125  0.5442  0.2738
  590MPD2    C4 8800   2.208   2.069  16.406 -0.5932 -0.0926  0.2501
  590MPD2    C5 8801   2.138   2.029  16.518  0.2911 -0.4331  1.2224
  590MPD2     H 8802   1.959   2.143  16.199 -0.2239 -0.4128  0.2773
  590MPD2    H1 8803   2.315   2.085  16.420 -0.6286 -1.6399  2.2627
  590MPD2    H2 8804   1.954   1.994  16.609  1.4431 -0.0198 -0.0374
  590MPD2    H3 8805   2.191   1.984  16.601  1.9583 -0.0651  0.3553
  590MPD2     N 8806   2.200   2.154  16.175 -0.3814  0.3785  0.1017
  590MPD2    H5 8807   2.133   2.168  16.101 -0.3027  1.2615  0.2032
  590MPD2    N1 8808   1.791   2.045  16.407 -0.3153  0.5683 -0.3806
  590MPD2    H7 8809   1.739   2.024  16.492 -0.2279 -1.3691 -0.8243
  591TMC3    C1 8810   2.360   2.258  16.050  0.0225 -0.6853  0.2781
  591TMC3    C2 8811   2.461   2.210  15.979 -0.0703 -0.4678 -0.5140
  591TMC3    C3 8812   2.473   2.262  15.852 -0.2301 -0.2145 -0.2091
  591TMC3    C4 8813   2.268   2.345  16.013 -0.3841  0.0690 -0.6489
  591TMC3    C5 8814   2.291   2.399  15.893 -0.7113 -0.8861 -0.2826
  591TMC3    C6 8815   2.391   2.358  15.805  0.1535 -0.7951 -0.9159
  591TMC3     C 8816   2.331   2.176  16.167 -0.0183 -0.3889  0.1217
  591TMC3     O 8817   2.429   2.150  16.235  0.4499 -0.2700  0.1147
  591TMC3     H 8818   2.543   2.151  16.018 -0.7696 -2.2134 -1.6786
  591TMC3    H1 8819   2.208   2.389  16.092 -0.4136 -3.7227  1.4504
  591TMC3    H2 8820   2.386   2.381  15.699 -3.4041 -0.2219 -0.6089
  591TMC3    C7 8821   2.226   2.527  15.879  0.4188 -0.3452 -0.1435
  591TMC3    C8 8822   2.551   2.183  15.756 -0.4252  1.0269 -0.2380
  591TMC3    O1 8823   2.130   2.545  15.951  0.0133  0.1439 -0.4930
  591TMC3    O2 8824   2.580   2.071  15.796 -0.0308 -0.1038 -0.2526
  592MPD2     C 8825   2.946   3.823  11.470 -1.1960  0.2737 -0.3587
  592MPD2    C1 8826   2.975   3.898  11.582 -0.2863  0.1277  0.7757
  592MPD2    C2 8827   2.975   3.843  11.713 -0.0516  0.4792  0.2939
  592MPD2    C3 8828   2.936   3.715  11.728 -0.1029 -0.4187 -0.5454
  592MPD2    C4 8829   2.903   3.637  11.614 -0.7626  0.1291  0.4288
  592MPD2    C5 8830   2.911   3.691  11.491  0.0235 -0.0443  0.0132
  592MPD2     H 8831   3.024   3.893  11.795 -0.4521 -1.9672  2.0117
  592MPD2    H1 8832   2.876   3.533  11.624 -0.5855 -0.1687 -2.2555
  592MPD2    H2 8833   2.947   3.864  11.370  1.4306 -0.1859 -0.5216
  592MPD2    H3 8834   2.896   3.621  11.409 -0.1483 -1.6941  1.4477
  592MPD2     N 8835   2.909   3.671  11.856  0.1257 -0.7310 -0.0649
  592MPD2    H5 8836   2.899   3.750  11.920 -1.3282  0.2408 -1.4904
  592MPD2    N1 8837   3.023   4.028  11.545  0.2409 -0.3375  0.0794
  592MPD2    H7 8838   3.016   4.050  11.446  0.8847 -1.9705 -0.3217
  593TMC3    C1 8839   3.088   4.258  11.584  0.7738 -0.9681  0.0890
  593TMC3    C2 8840   3.053   4.354  11.670 -0.2254 -0.1775 -0.2977
  593TMC3    C3 8841   2.995   4.468  11.624  0.2840  0.0974  0.2272
  593TMC3    C4 8842   3.082   4.283  11.449  0.2088 -0.5904  0.7426
  593TMC3    C5 8843   3.037   4.402  11.408  0.5054  0.0007 -0.3696
  593TMC3    C6 8844   2.992   4.496  11.490 -0.2941 -0.3311 -0.1478
  593TMC3     C 8845   3.061   4.124  11.637  0.5789  0.1937  0.0867
  593TMC3     O 8846   3.067   4.108  11.756  0.4603 -0.3333 -0.2306
  593TMC3     H 8847   3.038   4.331  11.775 -0.4692  0.7284 -0.1356
  593TMC3    H1 8848   3.129   4.219  11.375 -1.4594 -0.4564 -0.4075
  593TMC3    H2 8849   2.956   4.593  11.459 -2.5787 -2.1691 -3.2114
  593TMC3    C7 8850   3.065   4.450  11.273 -0.3191  0.0568  0.0086
  593TMC3    C8 8851   2.979   4.580  11.718  0.4036  0.2348  0.1485
  593TMC3    O1 8852   3.095   4.566  11.259  0.0945  0.0912  0.7177
  593TMC3    O2 8853   2.921   4.680  11.667  0.1353  1.0678 -0.0019
  594MPD2     C 8854   1.074   2.510  14.698  0.6401  0.6905 -0.2204
  594MPD2    C1 8855   0.994   2.610  14.637 -0.7945  0.2889 -0.3725
  594MPD2    C2 8856   1.040   2.716  14.565  0.3055 -0.8192  0.2688
  594MPD2    C3 8857   1.174   2.729  14.563  0.1446 -0.6228  0.5041
  594MPD2    C4 8858   1.255   2.642  14.634 -0.2231  0.2044  0.9577
  594MPD2    C5 8859   1.206   2.537  14.701  0.2148  0.0724 -0.6117
  594MPD2     H 8860   0.978   2.795  14.522  0.3654 -0.5134  0.7518
  594MPD2    H1 8861   1.360   2.662  14.652  0.3780 -2.2156  0.0006
  594MPD2    H2 8862   1.030   2.436  14.764  2.0044 -0.1793 -0.2943
  594MPD2    H3 8863   1.271   2.478  14.765 -0.2230  0.8402  0.5367
  594MPD2     N 8864   1.231   2.839  14.493  0.5824 -0.2342 -0.1642
  594MPD2    H5 8865   1.175   2.919  14.466 -0.0446 -0.1408  1.4489
  594MPD2    N1 8866   0.855   2.598  14.665  0.0443  0.1773 -1.0158
  594MPD2    H7 8867   0.833   2.523  14.730 -0.4240  1.6711  0.5537
  595TMC3    C1 8868   1.531   3.034  14.189 -0.6314  0.1120  0.1088
  595TMC3    C2 8869   1.475   2.930  14.254  0.0023  0.1302 -1.0642
  595TMC3    C3 8870   1.393   2.957  14.361  0.1716 -0.0595 -0.4758
  595TMC3    C4 8871   1.492   3.163  14.204  0.5206 -0.1629 -0.2112
  595TMC3    C5 8872   1.402   3.187  14.304 -0.1088 -0.5881 -0.4709
  595TMC3    C6 8873   1.358   3.090  14.390  0.1196  0.5473  0.6933
  595TMC3     C 8874   1.639   3.006  14.096  0.0215  0.2543  0.6203
  595TMC3     O 8875   1.641   2.894  14.040 -0.5019  0.3138 -0.3829
  595TMC3     H 8876   1.484   2.828  14.219  0.8763 -0.1445 -0.0591
  595TMC3    H1 8877   1.524   3.234  14.129  0.5292 -0.3856 -0.4184
  595TMC3    H2 8878   1.303   3.121  14.478 -1.7033 -0.8550  0.0507
  595TMC3    C7 8879   1.373   3.330  14.328 -0.3271 -0.3934 -0.1140
  595TMC3    C8 8880   1.369   2.848  14.459  0.1061 -0.2644 -0.2973
  595TMC3    O1 8881   1.280   3.350  14.404 -0.1112  0.0436  0.4303
  595TMC3    O2 8882   1.452   2.760  14.459  0.2868 -0.1177  0.1471
  596MPD2     C 8883   0.227   0.890  16.406 -0.1832 -0.6239  0.2904
  596MPD2    C1 8884   0.225   1.021  16.375 -0.3477 -1.1061 -0.4213
  596MPD2    C2 8885   0.223   1.056  16.240 -0.1068  0.5600 -0.1614
  596MPD2    C3 8886   0.226   0.964  16.145 -0.2859 -0.1550 -0.5481
  596MPD2    C4 8887   0.230   0.832  16.183  0.4771  0.4059  0.7050
  596MPD2    C5 8888   0.228   0.790  16.312  0.4926 -0.7821  0.4290
  596MPD2     H 8889   0.216   1.163  16.220 -1.9666  0.3325 -0.7334
  596MPD2    H1 8890   0.219   0.753  16.109  3.7225  1.9285 -1.4092
  596MPD2    H2 8891   0.237   0.848  16.505  0.4148  1.4895  1.1163
  596MPD2    H3 8892   0.231   0.684  16.337  0.1091 -0.7755  0.4979
  596MPD2     N 8893   0.213   0.994  16.012 -0.1346 -0.8606 -0.2056
  596MPD2    H5 8894   0.207   0.912  15.952 -0.0815 -0.3052 -0.9773
  596MPD2    N1 8895   0.213   1.123  16.467 -0.7464  0.0508 -0.3392
  596MPD2    H7 8896   0.200   1.220  16.438  0.9992  0.2858 -0.3480
  597TMC3    C1 8897   0.225   1.233  16.656  0.0376 -0.0796  0.7220
  597TMC3    C2 8898   0.329   1.321  16.635 -0.1289  0.2162  0.3169
  597TMC3    C3 8899   0.334   1.423  16.720 -1.1475 -0.3172  0.2687
  597TMC3    C4 8900   0.144   1.240  16.763 -0.4558  0.0272 -0.5209
  597TMC3    C5 8901   0.159   1.349  16.846  0.5879  0.6006 -0.1077
  597TMC3    C6 8902   0.248   1.448  16.818  0.4042  0.0246  0.8418
  597TMC3     C 8903   0.237   1.101  16.596 -0.2174  0.1027  0.5251
  597TMC3     O 8904   0.242   1.003  16.666 -0.0244  0.2770  0.2386
  597TMC3     H 8905   0.408   1.313  16.561 -0.6190  0.2729 -0.2159
  597TMC3    H1 8906   0.067   1.164  16.773 -0.2103 -0.6060 -3.5106
  597TMC3    H2 8907   0.274   1.522  16.893 -1.5985  2.4189 -0.8257
  597TMC3    C7 8908   0.089   1.368  16.973  0.4467  0.3040 -0.1858
  597TMC3    C8 8909   0.453   1.514  16.723  0.3165  0.4166 -0.0218
  597TMC3    O1 8910   0.052   1.268  17.028 -0.0211 -0.0048 -0.7505
  597TMC3    O2 8911   0.472   1.580  16.823 -0.6343  0.1024 -0.5635
  598TMC3    C1 8912   3.877   2.522  15.147  0.4569 -0.1180 -0.0200
  598TMC3    C2 8913   3.790   2.417  15.162 -0.1142 -0.1337  0.0332
  598TMC3    C3 8914   3.725   2.354  15.060  0.0612  0.6730 -0.3685
  598TMC3    C4 8915   3.884   2.574  15.020  0.5487  0.4659 -0.4450
  598TMC3    C5 8916   3.817   2.513  14.922  0.7582  0.4961 -0.5819
  598TMC3    C6 8917   3.744   2.398  14.936  1.2921 -0.4209 -0.3681
  598TMC3     C 8918   4.011   2.506  15.200  1.2135 -0.5978 -0.2923
  598TMC3     O 8919   4.103   2.507  15.119  0.1045  0.5924 -0.7820
  598TMC3     H 8920   3.772   2.383  15.263 -0.3808 -1.7292 -0.5572
  598TMC3    H1 8921   3.946   2.661  15.001  2.0046 -0.2939  0.8662
  598TMC3    H2 8922   3.690   2.362  14.849  1.4588 -2.2437  0.2866
  598TMC3    C7 8923   3.809   2.574  14.799 -0.2848  0.1897 -0.0078
  598TMC3    C8 8924   3.597   2.284  15.082 -0.1961 -0.1352 -0.1850
  598TMC3    O1 8925   3.817   2.498  14.703  0.2783  0.6665  0.1068
  598TMC3    O2 8926   3.543   2.298  15.193  0.7302 -0.3634  0.6510
  599MPD2     C 8927   3.349   0.183  15.751  0.9096 -0.9760  0.1284
  599MPD2    C1 8928   3.323   0.053  15.734  0.1471  0.0777  0.4488
  599MPD2    C2 8929   3.196   4.735  15.749 -0.0738  0.2488  0.2389
  599MPD2    C3 8930   3.098   0.090  15.788  0.0644  0.6481 -0.2379
  599MPD2    C4 8931   3.125   0.225  15.804 -0.2470 -0.0630 -0.0462
  599MPD2    C5 8932   3.250   0.275  15.775 -0.5232  0.3467 -0.4632
  599MPD2     H 8933   3.182   4.628  15.742  1.2537  0.1843 -1.4768
  599MPD2    H1 8934   3.051   0.293  15.843  1.0357  0.7781  0.9344
  599MPD2    H2 8935   3.446   0.222  15.722  1.0050  0.5075  2.4226
  599MPD2    H3 8936   3.283   0.375  15.797  2.0273  0.0311 -2.8044
  599MPD2     N 8937   2.975   0.052  15.836 -0.3314  0.2415 -0.0852
  599MPD2    H5 8938   2.919   0.128  15.874 -3.1137 -1.6934 -0.3289
  599MPD2    N1 8939   3.437   4.699  15.738  0.5025  0.2903  0.5746
  599MPD2    H7 8940   3.529   4.737  15.757  0.5234  0.8196 -0.5651
  600TMC3    C1 8941   2.798   4.655  15.907  0.9371  0.3565  0.7355
  600TMC3    C2 8942   2.725   4.537  15.904 -0.1016  0.2415 -0.5035
  600TMC3    C3 8943   2.614   4.528  15.984 -0.2471 -0.1630  0.5967
  600TMC3    C4 8944   2.789   4.730  16.021 -0.5873  0.1759 -0.7951
  600TMC3    C5 8945   2.692   4.702  16.113  0.5006 -0.4248  0.3632
  600TMC3    C6 8946   2.591   4.605  16.097  0.1218 -0.2017 -0.1479
  600TMC3     C 8947   2.916   4.662  15.819 -0.7321  0.1388 -0.1848
  600TMC3     O 8948   2.945   4.573  15.742 -0.1064  1.0126  0.4239
  600TMC3     H 8949   2.743   4.473  15.817  1.9356  0.3408 -0.1498
  600TMC3    H1 8950   2.862   0.072  16.038  1.0450 -1.3574 -0.6901
  600TMC3    H2 8951   2.500   4.613  16.155  0.2633 -1.4076  0.2349
  600TMC3    C7 8952   2.682   0.047  16.236 -0.7672 -0.1774  0.8338
  600TMC3    C8 8953   2.510   4.436  15.944  0.1548 -0.0308  0.1626
  600TMC3    O1 8954   2.582   0.036  16.302 -0.4947  0.3690 -0.3587
  600TMC3    O2 8955   2.494   4.430  15.823 -0.1485 -0.0817 -0.3242
  601MPD2     C 8956   0.973   3.422   0.220 -0.4389  0.9736 -0.3331
  601MPD2    C1 8957   0.905   3.342   0.139  0.4804 -0.7415 -0.5693
  601MPD2    C2 8958   0.882   3.218   0.189  0.4491 -0.3061  0.7704
  601MPD2    C3 8959   0.944   3.171   0.306  0.0466  0.6473  0.4911
  601MPD2    C4 8960   1.034   3.254   0.371  0.2721 -0.0872  0.1612
  601MPD2    C5 8961   1.043   3.385   0.327  0.2376 -0.0737  0.3888
  601MPD2     H 8962   0.832   3.152   0.119  0.8357 -0.3796  0.5633
  601MPD2    H1 8963   1.082   3.224   0.463  0.7674 -0.9133 -0.3747
  601MPD2    H2 8964   0.996   3.525   0.193 -0.2217  0.4157 -2.2496
  601MPD2    H3 8965   1.105   3.460   0.376 -2.3429  1.5042  1.2349
  601MPD2     N 8966   0.930   3.044   0.363 -0.2287 -0.5366 -0.1514
  601MPD2    H5 8967   0.966   3.023   0.456  1.9434  0.4774 -0.7595
  601MPD2    N1 8968   0.850   3.393   0.014 -0.1417 -0.4002 -0.2599
  601MPD2    H7 8969   0.800   3.327  17.701  1.3760  0.0214 -2.0410
  602TMC3    C1 8970   0.801   3.547  17.583 -0.4920  0.5549 -0.0332
  602TMC3    C2 8971   0.766   3.674  17.548  0.9686  0.3941 -0.0484
  602TMC3    C3 8972   0.703   3.692  17.429  1.5136  0.2342  0.8315
  602TMC3    C4 8973   0.776   3.441  17.501  0.0055 -0.0751 -0.0148
  602TMC3    C5 8974   0.716   3.469  17.380 -0.1497  0.0347 -0.5152
  602TMC3    C6 8975   0.680   3.593  17.338 -0.0225  0.2271  0.2890
  602TMC3     C 8976   0.863   3.529  17.718  0.2142  0.1966  0.5351
  602TMC3     O 8977   0.912   3.628   0.024 -0.1813 -0.0682 -0.2979
  602TMC3     H 8978   0.774   3.754  17.621  2.0449  0.9639 -0.7842
  602TMC3    H1 8979   0.788   3.336  17.523 -1.1170  0.2589  2.2063
  602TMC3    H2 8980   0.623   3.607  17.247  0.1746 -0.7693  0.0143
  602TMC3    C7 8981   0.640   3.360  17.311  0.2845  0.0586 -0.3251
  602TMC3    C8 8982   0.629   3.817  17.408 -0.7776  1.0626 -0.1511
  602TMC3    O1 8983   0.682   3.247  17.303  0.0949 -0.0030  0.2310
  602TMC3    O2 8984   0.677   3.927  17.437 -0.3971  0.4243  0.1862
  603TMC3    C1 8985   3.447   3.162  11.392  0.2383  0.0263  0.6486
  603TMC3    C2 8986   3.466   3.156  11.532 -0.9413  0.0129 -0.8274
  603TMC3    C3 8987   3.532   3.269  11.575 -0.4593  0.2157  0.2964
  603TMC3    C4 8988   3.474   3.269  11.307  0.6312  0.1869 -0.3860
  603TMC3    C5 8989   3.545   3.375  11.363  0.0083  0.0022 -0.5587
  603TMC3    C6 8990   3.575   3.375  11.497 -0.1261  0.2722  1.2389
  603TMC3     C 8991   3.345   3.074  11.334  0.5738 -0.9940 -0.6304
  603TMC3     O 8992   3.279   3.104  11.239 -0.0741 -0.0213  0.6307
  603TMC3     H 8993   3.423   3.085  11.602  0.2136  0.2106  0.0732
  603TMC3    H1 8994   3.445   3.256  11.204 -0.5514  1.7805 -0.2610
  603TMC3    H2 8995   3.621   3.463  11.540 -0.4214  0.9322  0.1843
  603TMC3    C7 8996   3.578   3.498  11.303  0.0899  0.3333  0.1183
  603TMC3    C8 8997   3.595   3.245  11.704  0.7513  0.8650  0.8841
  603TMC3    O1 8998   3.638   3.585  11.362 -0.2163 -0.3308 -0.3221
  603TMC3    O2 8999   3.548   3.142  11.759  0.2049  0.2788 -0.1873
  604MPD2     C 9000   4.155   2.241  16.359 -0.3877  0.6360  0.6736
  604MPD2    C1 9001   4.031   2.216  16.295  0.6007  0.0765  0.3608
  604MPD2    C2 9002   4.025   2.150  16.173  0.6432 -0.8707  0.8184
  604MPD2    C3 9003   4.145   2.112  16.117 -0.0249 -0.2823  0.1207
  604MPD2    C4 9004   4.265   2.133  16.178 -0.0163  0.6146  0.2352
  604MPD2    C5 9005   4.274   2.203  16.298  0.5779 -0.0840  0.6962
  604MPD2     H 9006   3.931   2.131  16.122  0.9838 -1.2128  0.3208
  604MPD2    H1 9007   4.364   2.103  16.147 -0.2894  0.3392 -0.3719
  604MPD2    H2 9008   4.155   2.291  16.456  1.8255 -2.0515  2.0602
  604MPD2    H3 9009   4.369   2.220  16.348  0.0103  2.3370  0.9598
  604MPD2     N 9010   4.131   2.033  16.001 -0.8206 -0.1965 -0.6727
  604MPD2    H5 9011   4.039   2.019  15.961  0.9332  0.3057 -4.8866
  604MPD2    N1 9012   3.915   2.271  16.363  0.0322  0.7271  0.1332
  604MPD2    H7 9013   3.936   2.315  16.452  0.3285 -2.9627  1.9006
  605TMC3    C1 9014   3.724   2.380  16.387 -0.5725 -0.2702 -0.4588
  605TMC3    C2 9015   3.823   2.459  16.449 -0.3658  0.0296 -0.3704
  605TMC3    C3 9016   3.839   2.588  16.409 -0.2259  0.4623 -0.0359
  605TMC3    C4 9017   3.641   2.447  16.296 -0.0884 -0.1297 -0.2906
  605TMC3    C5 9018   3.664   2.577  16.263  0.1250 -0.5470 -0.1282
  605TMC3    C6 9019   3.764   2.652  16.315  0.4205 -0.3536 -0.2712
  605TMC3     C 9020   3.789   2.275  16.317  0.3247 -0.4463  0.8534
  605TMC3     O 9021   3.735   2.240  16.215  0.1142 -0.2220 -0.1732
  605TMC3     H 9022   3.858   2.425  16.546 -1.0423 -0.3734 -0.2695
  605TMC3    H1 9023   3.563   2.392  16.244 -0.9099 -0.0994  0.9152
  605TMC3    H2 9024   3.787   2.754  16.287  0.2757 -0.3609 -0.4180
  605TMC3    C7 9025   3.559   2.641  16.179 -0.7918  0.3947 -0.2710
  605TMC3    C8 9026   3.966   2.648  16.442  0.1803  0.0454  0.2400
  605TMC3    O1 9027   3.531   2.754  16.205  0.2347  0.4804  0.5184
  605TMC3    O2 9028   3.978   2.763  16.403  0.0198 -0.2590 -0.1168
  606TMC3    C1 9029   0.229   1.348  17.483  0.5734  0.4504  0.3887
  606TMC3    C2 9030   0.196   1.306  17.611 -0.3270 -0.4789 -0.3936
  606TMC3    C3 9031   0.177   1.173  17.643 -0.0220  0.0819 -0.4327
  606TMC3    C4 9032   0.236   1.259  17.380  0.2526 -0.2957  0.0821
  606TMC3    C5 9033   0.208   1.128  17.400  0.1598  0.8734  0.2233
  606TMC3    C6 9034   0.187   1.090  17.529 -0.9140  0.3139  0.6679
  606TMC3     C 9035   0.290   1.478  17.479  0.2177 -0.0785 -0.0301
  606TMC3     O 9036   0.310   1.540  17.582  0.3755  0.0548  0.7476
  606TMC3     H 9037   0.206   1.373  17.695 -1.4583 -1.7079  0.7224
  606TMC3    H1 9038   0.255   1.292  17.278 -0.6800 -0.4516 -0.1485
  606TMC3    H2 9039   0.196   0.986  17.558 -0.5595  0.1716  0.0520
  606TMC3    C7 9040   0.244   1.021  17.303  0.0687 -0.3173 -0.2999
  606TMC3    C8 9041   0.221   1.123   0.030  0.0394 -0.2285 -0.6920
  606TMC3    O1 9042   0.283   1.058  17.190 -0.3135  0.2191  0.5310
  606TMC3    O2 9043   0.278   1.013   0.031  0.2167 -0.0346  0.0200
  607MPD2     C 9044   2.995   3.024  11.614 -0.0041  0.4997  1.0265
  607MPD2    C1 9045   2.994   3.128  11.705  0.5945  0.2814 -0.2704
  607MPD2    C2 9046   2.945   3.104  11.828 -0.5992  0.0951 -0.4277
  607MPD2    C3 9047   2.897   2.980  11.863  0.3669 -0.2196  0.4510
  607MPD2    C4 9048   2.891   2.877  11.778 -0.6947  0.1352  0.1431
  607MPD2    C5 9049   2.932   2.905  11.650  0.3168  0.3463 -0.2265
  607MPD2     H 9050   2.956   3.177  11.908  2.4034  0.0154 -0.7748
  607MPD2    H1 9051   2.852   2.779  11.807  1.3277 -0.4515  0.8570
  607MPD2    H2 9052   3.057   3.039  11.526 -0.6899 -0.0018  0.4505
  607MPD2    H3 9053   2.920   2.832  11.571 -0.7643  1.1491 -0.7994
  607MPD2     N 9054   2.853   2.979  11.999 -0.2569  0.2101  0.0858
  607MPD2    H5 9055   2.866   3.064  12.054 -1.5430  1.1385 -1.0186
  607MPD2    N1 9056   3.047   3.255  11.685  0.1476  0.5447 -1.0299
  607MPD2    H7 9057   3.032   3.325  11.757 -0.8394 -0.2950 -0.4332
  608TMC3    C1 9058   3.182   3.429  11.619 -0.5504  0.0237  0.1388
  608TMC3    C2 9059   3.235   3.431  11.748  0.1262 -0.0440  0.6015
  608TMC3    C3 9060   3.304   3.542  11.792  0.0067 -0.3153  0.1744
  608TMC3    C4 9061   3.225   3.523  11.526  0.2153 -0.0714  0.1013
  608TMC3    C5 9062   3.296   3.638  11.571  0.3329 -0.1399  0.5646
  608TMC3    C6 9063   3.332   3.647  11.701 -0.3360  0.5164  0.5615
  608TMC3     C 9064   3.107   3.312  11.573 -0.6196 -0.2028 -0.6414
  608TMC3     O 9065   3.118   3.264  11.462 -0.3802 -0.3586 -0.2914
  608TMC3     H 9066   3.240   3.341  11.809  0.2728  0.8041  1.8431
  608TMC3    H1 9067   3.204   3.504  11.422  0.0641 -0.1725  0.1516
  608TMC3    H2 9068   3.397   3.724  11.741 -1.3532  1.0488  1.2011
  608TMC3    C7 9069   3.309   3.756  11.479  0.7500 -0.2633 -0.4688
  608TMC3    C8 9070   3.276   3.586  11.925  0.4666 -0.7018  0.4243
  608TMC3    O1 9071   3.274   3.733  11.364  0.5484 -0.2388 -0.2083
  608TMC3    O2 9072   3.322   3.689  11.967 -0.3557 -0.1063  0.1977
  609TMC3    C1 9073   1.546   2.185   9.112 -1.1417 -0.6384 -0.3013
  609TMC3    C2 9074   1.571   2.256   8.998 -0.1477 -0.6713 -0.3557
  609TMC3    C3 9075   1.663   2.201   8.916 -0.1057 -0.0087 -0.1343
  609TMC3    C4 9076   1.604   2.065   9.144  0.0571 -0.4871  0.2236
  609TMC3    C5 9077   1.702   2.025   9.059  0.0320  0.2325  0.0483
  609TMC3    C6 9078   1.737   2.089   8.943  0.2734  0.3130 -0.2882
  609TMC3     C 9079   1.458   2.233   9.214  0.7104  0.3546  0.6933
  609TMC3     O 9080   1.459   2.176   9.324 -0.0070  0.7112  0.2840
  609TMC3     H 9081   1.508   2.337   8.964 -0.9686 -0.4326  1.7450
  609TMC3    H1 9082   1.565   2.000   9.220  1.6605 -0.0011  1.4602
  609TMC3    H2 9083   1.834   2.075   8.898  2.8774  0.6430  5.2893
  609TMC3    C7 9084   1.779   1.913   9.110 -0.5349 -0.5026  0.1897
  609TMC3    C8 9085   1.677   2.256   8.782  0.1165  0.3330  0.0114
  609TMC3    O1 9086   1.744   1.850   9.209  0.9130 -0.0643 -0.8985
  609TMC3    O2 9087   1.617   2.363   8.767 -0.3734  0.1651  0.2683
  610TMC3    C1 9088   3.526   3.445  12.399  0.8093 -0.4232 -0.6205
  610TMC3    C2 9089   3.483   3.360  12.292  0.1456  0.7078  0.7895
  610TMC3    C3 9090   3.444   3.230  12.321  0.1503  0.0474  0.3499
  610TMC3    C4 9091   3.513   3.392  12.523 -0.9481  0.1251 -0.2564
  610TMC3    C5 9092   3.467   3.267  12.549  0.1940 -1.1757  0.8658
  610TMC3    C6 9093   3.426   3.184  12.447  0.2658  0.4260 -0.0476
  610TMC3     C 9094   3.584   3.579  12.380  0.1602  0.4341  0.6433
  610TMC3     O 9095   3.584   3.657  12.475  0.5652  0.2077 -0.0160
  610TMC3     H 9096   3.499   3.386  12.188  0.5000 -2.2599  0.0962
  610TMC3    H1 9097   3.560   3.452  12.601  0.7847 -1.0593 -0.4023
  610TMC3    H2 9098   3.380   3.090  12.475  0.2341  1.0734  2.0543
  610TMC3    C7 9099   3.501   3.210  12.677  0.7566 -0.1318 -0.0492
  610TMC3    C8 9100   3.417   3.147  12.202  0.3594  0.2145  0.3840
  610TMC3    O1 9101   3.606   3.244  12.733 -0.6164 -0.2538 -0.1951
  610TMC3    O2 9102   3.390   3.209  12.097  0.2455  0.5116  0.0065
  611MPD2     C 9103   2.888   3.012  10.599  0.5970  0.9032  0.2873
  611MPD2    C1 9104   2.875   3.081  10.481  0.7182 -0.3047  0.3312
  611MPD2    C2 9105   2.965   3.178  10.446 -0.6177  0.1703  0.4196
  611MPD2    C3 9106   3.051   3.230  10.537 -0.5479 -0.2345 -0.1715
  611MPD2    C4 9107   3.050   3.184  10.663 -0.8146  0.3327 -0.3500
  611MPD2    C5 9108   2.975   3.072  10.696 -0.5302 -0.1332 -0.4521
  611MPD2     H 9109   2.976   3.219  10.346  0.6384 -0.2938  0.3674
  611MPD2    H1 9110   3.105   3.217  10.751 -0.4396  0.5706 -0.6715
  611MPD2    H2 9111   2.823   2.932  10.633  0.4679  0.5932 -0.6985
  611MPD2    H3 9112   2.971   3.040  10.799  0.6636 -0.1298 -0.4069
  611MPD2     N 9113   3.143   3.336  10.515 -0.0519  0.0732 -0.0967
  611MPD2    H5 9114   3.187   3.378  10.597  0.2007 -1.4440  0.5339
  611MPD2    N1 9115   2.787   3.031  10.381 -0.4780  0.2641  0.1023
  611MPD2    H7 9116   2.739   2.944  10.398 -2.0555  1.1110 -0.0515
  612TMC3    C1 9117   3.272   3.494  10.397  0.1131 -0.4192  0.6020
  612TMC3    C2 9118   3.303   3.567  10.511 -0.0880 -0.0231 -0.2554
  612TMC3    C3 9119   3.398   3.661  10.498 -0.7591  0.0326 -0.1051
  612TMC3    C4 9120   3.346   3.508  10.281 -0.7148 -0.7019 -0.0745
  612TMC3    C5 9121   3.420   3.620  10.272 -0.4878 -0.4815  0.1307
  612TMC3    C6 9122   3.465   3.688  10.379  0.2970  0.7264 -0.6105
  612TMC3     C 9123   3.179   3.382  10.392 -0.2727 -0.3025  0.1018
  612TMC3     O 9124   3.143   3.343  10.283  0.3726  0.2634  0.2846
  612TMC3     H 9125   3.239   3.579  10.598 -0.6415  0.2792 -0.7080
  612TMC3    H1 9126   3.327   3.459  10.186 -1.0494  0.3835 -0.5624
  612TMC3    H2 9127   3.532   3.773  10.377  0.6523  0.4436 -0.7306
  612TMC3    C7 9128   3.467   3.662  10.139  0.7523 -0.0637 -0.3574
  612TMC3    C8 9129   3.453   3.717  10.614  0.1577 -0.2946 -0.0216
  612TMC3    O1 9130   3.447   3.588  10.047  0.1047  0.0358 -1.1398
  612TMC3    O2 9131   3.517   3.820  10.593  0.2719  0.2207  0.2409
  613MPD2     C 9132   1.468   0.908  16.915 -0.9945 -0.3349  0.2941
  613MPD2    C1 9133   1.411   0.953  16.800  0.0649 -0.2741  0.0552
  613MPD2    C2 9134   1.332   0.874  16.718 -0.5476 -0.4735 -0.6908
  613MPD2    C3 9135   1.320   0.741  16.757 -0.1783 -0.4772  0.2888
  613MPD2    C4 9136   1.381   0.695  16.870  0.1606  0.8371  0.8482
  613MPD2    C5 9137   1.450   0.778  16.953  0.7407  0.4565 -0.5090
  613MPD2     H 9138   1.280   0.913  16.632  2.2280 -0.0634 -2.1697
  613MPD2    H1 9139   1.363   0.594  16.907  1.0547 -0.6803 -2.8768
  613MPD2    H2 9140   1.517   0.977  16.983 -1.9169  1.4177 -0.8113
  613MPD2    H3 9141   1.499   0.738  17.042 -0.6492 -0.2607 -0.0696
  613MPD2     N 9142   1.266   0.642  16.673  0.6251  0.2857  0.0768
  613MPD2    H5 9143   1.294   0.551  16.708 -0.1709  0.2193  0.5433
  613MPD2    N1 9144   1.438   1.087  16.772 -0.1664 -0.0654 -0.0712
  613MPD2    H7 9145   1.509   1.127  16.832  0.8488 -3.3927  0.9364
  614TMC3    C1 9146   1.496   1.239  16.600  0.2999 -0.0382 -0.5979
  614TMC3    C2 9147   1.595   1.155  16.553  0.3970  0.1228  0.2032
  614TMC3    C3 9148   1.640   1.150  16.423  0.1956 -0.2466 -0.1094
  614TMC3    C4 9149   1.467   1.335  16.514  0.3310  0.5653 -0.0896
  614TMC3    C5 9150   1.512   1.346  16.385  0.0782 -0.1563  0.5058
  614TMC3    C6 9151   1.610   1.256  16.343  0.0598 -0.5528  0.2289
  614TMC3     C 9152   1.386   1.165  16.671  0.2478  0.4003  0.7003
  614TMC3     O 9153   1.297   1.136  16.598 -0.0494  0.2453 -0.2364
  614TMC3     H 9154   1.622   1.069  16.613 -0.6185 -1.4838 -1.6525
  614TMC3    H1 9155   1.382   1.394  16.547  1.1071  1.9303 -0.5089
  614TMC3    H2 9156   1.640   1.248  16.239 -3.4379  2.6356 -1.0394
  614TMC3    C7 9157   1.452   1.446  16.302 -0.3827 -0.0334  0.3395
  614TMC3    C8 9158   1.619   1.018  16.365 -0.2714 -0.3024 -0.3555
  614TMC3    O1 9159   1.419   1.552  16.358 -0.3422  0.4834 -0.3255
  614TMC3    O2 9160   1.542   0.939  16.420 -0.5551  0.1660  0.0841
  615MPD2     C 9161   1.006   2.277  16.329 -0.0459 -0.4900  0.2509
  615MPD2    C1 9162   0.926   2.368  16.262  0.4560  0.5103 -0.4892
  615MPD2    C2 9163   0.824   2.326  16.175 -0.4122  0.1899 -0.2075
  615MPD2    C3 9164   0.813   2.190  16.147  0.0442  0.2898 -0.6375
  615MPD2    C4 9165   0.895   2.099  16.214 -0.3881 -0.1891  0.1558
  615MPD2    C5 9166   0.985   2.140  16.307 -0.0508 -0.1935  0.5265
  615MPD2     H 9167   0.771   2.399  16.115 -0.8130 -1.0499 -1.3708
  615MPD2    H1 9168   0.883   1.994  16.193 -0.0763  0.0283 -1.1452
  615MPD2    H2 9169   1.094   2.309  16.384 -0.7037  1.6955  0.0554
  615MPD2    H3 9170   1.057   2.079  16.362 -2.4232 -3.5765 -0.1087
  615MPD2     N 9171   0.732   2.140  16.043 -0.0239 -0.1856 -0.3674
  615MPD2    H5 9172   0.749   2.046  16.010  0.5502  0.5727 -2.1913
  615MPD2    N1 9173   0.946   2.507  16.262  0.0087  0.2027  0.3857
  615MPD2    H7 9174   0.881   2.562  16.206 -0.9117 -1.6281 -0.3339
  616TMC3    C1 9175   1.047   2.712  16.291 -0.3866 -0.5336  0.4170
  616TMC3    C2 9176   1.169   2.775  16.297  0.5356  0.0535 -0.4228
  616TMC3    C3 9177   1.179   2.904  16.269 -0.0300 -0.5230  0.2972
  616TMC3    C4 9178   0.931   2.785  16.274 -0.1567 -0.0284 -0.2870
  616TMC3    C5 9179   0.941   2.919  16.246 -0.8882 -0.7757  0.6413
  616TMC3    C6 9180   1.064   2.982  16.250  0.3168  0.2618 -0.9133
  616TMC3     C 9181   1.046   2.572  16.326 -0.0492  0.2888 -0.2583
  616TMC3     O 9182   1.138   2.527  16.394  0.3050 -0.0760  0.2613
  616TMC3     H 9183   1.259   2.717  16.316  1.0305  0.3902 -1.7630
  616TMC3    H1 9184   0.836   2.734  16.282 -1.0403  1.4100 -1.6539
  616TMC3    H2 9185   1.065   3.088  16.226  1.3748 -0.0177 -2.1138
  616TMC3    C7 9186   0.814   2.994  16.258 -0.5000 -0.5882 -0.0633
  616TMC3    C8 9187   1.307   2.952  16.226 -0.4891  0.0283  0.4709
  616TMC3    O1 9188   0.716   2.938  16.211  0.2542  0.8295 -0.7230
  616TMC3    O2 9189   1.392   2.862  16.209 -0.7047 -0.2005  0.1035
  617MPD2     C 9190   4.093   0.748  13.672  0.5203  0.2664  0.1427
  617MPD2    C1 9191   4.121   0.666  13.777  0.3209 -0.1907  0.0196
  617MPD2    C2 9192   4.014   0.611  13.850  0.1291  0.4488 -0.5925
  617MPD2    C3 9193   3.885   0.624  13.808  0.2516 -0.1148  1.1295
  617MPD2    C4 9194   3.857   0.702  13.695 -0.5115  0.0043 -1.0724
  617MPD2    C5 9195   3.965   0.761  13.628  0.1714 -0.6218 -0.4771
  617MPD2     H 9196   4.037   0.546  13.934  0.8782  0.1223 -1.0421
  617MPD2    H1 9197   3.757   0.706  13.656 -0.6145  0.7270 -0.7354
  617MPD2    H2 9198   4.170   0.799  13.615  1.8298  0.1178  1.7928
  617MPD2    H3 9199   3.940   0.823  13.543  3.3739  0.2321 -0.7990
  617MPD2     N 9200   3.775   0.557  13.861 -0.2043 -0.0197 -1.2971
  617MPD2    H5 9201   3.685   0.579  13.820 -2.0369 -0.6209  2.4691
  617MPD2    N1 9202   4.259   0.644  13.802  0.2225 -0.1899 -0.1006
  617MPD2    H7 9203   4.325   0.688  13.739 -0.3256  1.1744  0.2628
  618TMC3    C1 9204   4.446   0.529  13.874 -0.2022 -0.5105 -0.4219
  618TMC3    C2 9205   4.469   0.393  13.886  0.2412  0.7524 -0.4308
  618TMC3    C3 9206   4.594   0.364  13.841 -0.1779 -0.0579 -0.8240
  618TMC3    C4 9207   4.519   0.621  13.806 -0.5691 -0.5849  0.1282
  618TMC3    C5 9208   4.637   0.576  13.745 -0.0404 -0.1707 -0.3575
  618TMC3    C6 9209   4.680   0.449  13.775  0.3179  0.2622  0.0879
  618TMC3     C 9210   4.308   0.558  13.899  0.2200 -0.1791  0.0174
  618TMC3     O 9211   4.251   0.485  13.980 -0.1022 -0.6302 -0.2107
  618TMC3     H 9212   4.400   0.320  13.927  2.3300 -2.3278 -2.4042
  618TMC3    H1 9213   4.500   0.726  13.788 -3.0953 -0.8606  1.1928
  618TMC3    H2 9214   0.047   0.425  13.752  0.4991  0.0281  1.1158
  618TMC3    C7 9215   4.736   0.677  13.698  0.3704 -0.2516 -0.2566
  618TMC3    C8 9216   4.615   0.222  13.842  0.8100  0.6804 -0.8067
  618TMC3    O1 9217   4.714   0.790  13.731 -0.1873 -0.7200  0.4729
  618TMC3    O2 9218   4.527   0.147  13.892  0.2059 -0.6164  0.6027
  619MPD2     C 9219   0.605   1.422  13.825 -0.1489  0.1496  1.0612
  619MPD2    C1 9220   0.518   1.524  13.796  0.2112 -0.2027 -1.1560
  619MPD2    C2 9221   0.385   1.495  13.780 -0.4723  0.3436  0.2800
  619MPD2    C3 9222   0.344   1.359  13.795 -0.2804  0.2388 -0.5262
  619MPD2    C4 9223   0.435   1.257  13.818 -0.5442  0.8662 -0.0797
  619MPD2    C5 9224   0.563   1.292  13.837  0.1644 -0.2211  0.0626
  619MPD2     H 9225   0.310   1.570  13.759 -0.1852  1.1599  2.1368
  619MPD2    H1 9226   0.396   1.157  13.806 -0.5527  0.8046  0.4548
  619MPD2    H2 9227   0.711   1.440  13.839  0.6602 -2.6877 -1.4625
  619MPD2    H3 9228   0.633   1.218  13.873  2.0755  0.3098 -2.5035
  619MPD2     N 9229   0.210   1.314  13.783  0.4987 -0.3949  0.3012
  619MPD2    H5 9230   0.203   1.213  13.777  1.7163 -0.4463 -0.1713
  619MPD2    N1 9231   0.564   1.649  13.756 -0.4988  0.1822  0.9382
  619MPD2    H7 9232   0.504   1.716  13.709  0.1530  0.4242  0.4452
  620TMC3    C1 9233   0.715   1.823  13.701  0.3866  0.6128  0.7269
  620TMC3    C2 9234   0.649   1.843  13.587  0.7907  0.4406  0.7299
  620TMC3    C3 9235   0.639   1.968  13.530 -0.5925 -0.9060 -0.9117
  620TMC3    C4 9236   0.791   1.920  13.761 -0.0139  0.1526 -1.0280
  620TMC3    C5 9237   0.773   2.050  13.708  0.6146  0.3570 -0.2313
  620TMC3    C6 9238   0.718   2.069  13.584  1.1783  0.1239  0.3975
  620TMC3     C 9239   0.689   1.704  13.784  0.1170  0.0798  0.0974
  620TMC3     O 9240   0.759   1.674  13.874 -0.2806 -0.2283  0.5683
  620TMC3     H 9241   0.599   1.758  13.543  1.2119  2.3258 -3.3711
  620TMC3    H1 9242   0.826   1.900  13.861 -0.1646  1.5039 -0.6991
  620TMC3    H2 9243   0.708   2.167  13.539 -1.8478 -0.3672  0.0088
  620TMC3    C7 9244   0.783   2.167  13.796  0.3972  0.0137  0.4786
  620TMC3    C8 9245   0.503   2.015  13.540 -0.2946  0.8254 -0.1113
  620TMC3    O1 9246   0.865   2.165  13.888 -0.4329  0.4220 -0.1631
  620TMC3    O2 9247   0.500   2.130  13.577 -0.8313  0.0703 -0.4265
  621MPD2     C 9248   1.145   1.558   9.862 -0.0472  0.3865  0.3897
  621MPD2    C1 9249   1.227   1.543   9.973  0.7872 -0.7696  0.2769
  621MPD2    C2 9250   1.345   1.622   9.979 -0.3165 -0.4301  0.0211
  621MPD2    C3 9251   1.371   1.723   9.897 -0.2361  0.2107 -0.0021
  621MPD2    C4 9252   1.286   1.743   9.789 -0.0723  0.0672  0.2719
  621MPD2    C5 9253   1.178   1.659   9.775  0.0733 -0.5043 -0.3348
  621MPD2     H 9254   1.417   1.601  10.058  0.9310  2.6256 -0.3303
  621MPD2    H1 9255   1.303   1.810   9.705 -0.8204 -1.5063 -1.1439
  621MPD2    H2 9256   1.060   1.494   9.842  1.7706 -1.5411 -1.2639
  621MPD2    H3 9257   1.108   1.664   9.692 -0.5012 -2.6304  0.0254
  621MPD2     N 9258   1.493   1.789   9.918 -0.1784 -0.1358  0.0350
  621MPD2    H5 9259   1.530   1.783  10.013 -3.2979  0.7144  1.3092
  621MPD2    N1 9260   1.207   1.439  10.075  0.3118 -0.2609  0.1062
  621MPD2    H7 9261   1.272   1.440  10.152 -1.2421 -0.1992  1.4214
  622TMC3    C1 9262   1.082   1.308  10.219  0.3415  0.3662  0.1581
  622TMC3    C2 9263   1.091   1.389  10.326 -0.1226  0.4886 -0.8230
  622TMC3    C3 9264   0.994   1.369  10.426  0.0379 -0.5306 -0.3908
  622TMC3    C4 9265   0.984   1.209  10.213  0.4924 -0.0569  0.2190
  622TMC3    C5 9266   0.896   1.188  10.310  0.1355  0.2602 -0.5155
  622TMC3    C6 9267   0.902   1.268  10.424  0.0293 -0.6878  0.4620
  622TMC3     C 9268   1.087   1.371  10.086  0.5213  0.5472  0.4911
  622TMC3     O 9269   1.016   1.324   9.999 -0.1961 -0.9493 -0.1987
  622TMC3     H 9270   1.160   1.472  10.328  0.3079  0.1677 -2.0515
  622TMC3    H1 9271   1.003   1.140  10.132 -0.0292 -1.8857  1.6489
  622TMC3    H2 9272   0.832   1.265  10.507 -0.5752  1.3226  0.0408
  622TMC3    C7 9273   0.764   1.197  10.260  0.5564  0.3214 -0.0148
  622TMC3    C8 9274   1.018   1.410  10.564  1.1511  0.3949  0.5673
  622TMC3    O1 9275   0.679   1.143  10.325 -0.1692 -0.1217  0.3558
  622TMC3    O2 9276   1.119   1.366  10.617  0.1408 -0.7235 -0.4468
  623MPD2     C 9277   4.440   3.170  15.476 -0.1247 -0.4809  0.1133
  623MPD2    C1 9278   4.382   3.059  15.529 -1.0590 -0.1967  0.1959
  623MPD2    C2 9279   4.437   2.998  15.639 -0.4636 -0.2815 -0.0401
  623MPD2    C3 9280   4.537   3.066  15.709  0.5623 -0.2457 -1.1120
  623MPD2    C4 9281   4.589   3.186  15.661 -0.6139  0.3480  1.1761
  623MPD2    C5 9282   4.538   3.239  15.543 -0.0058 -0.1905  0.2066
  623MPD2     H 9283   4.396   2.903  15.670  0.3913  0.0583  2.0986
  623MPD2    H1 9284   4.668   3.238  15.715  2.6138 -3.1918 -0.0694
  623MPD2    H2 9285   4.393   3.212  15.388  3.3812  0.2785 -1.4042
  623MPD2    H3 9286   4.567   3.335  15.503  2.7156 -0.1780  2.2061
  623MPD2     N 9287   4.579   3.005  15.827  0.2538  0.7456 -0.0917
  623MPD2    H5 9288   4.524   2.927  15.861  1.3613  0.8899  2.0008
  623MPD2    N1 9289   4.271   2.987  15.475 -0.7235 -0.2602  0.3325
  623MPD2    H7 9290   4.233   2.909  15.527 -4.0035 -0.7287 -2.8287
  624TMC3    C1 9291   0.074   2.966  16.251 -0.0981 -0.1109  0.2308
  624TMC3    C2 9292   4.706   2.887  16.294  0.0422  0.2001 -0.5028
  624TMC3    C3 9293   4.587   2.885  16.223 -0.2978 -0.0649  0.2351
  624TMC3    C4 9294   0.078   3.005  16.117 -0.1710  0.1359 -0.0430
  624TMC3    C5 9295   4.699   2.980  16.039  0.3514 -0.2555  0.2145
  624TMC3    C6 9296   4.580   2.932  16.094 -0.0548  0.3783  0.5157
  624TMC3     C 9297   0.204   2.936  16.315  0.4271  0.6849 -0.7229
  624TMC3     O 9298   0.204   2.956  16.434  0.0870 -0.0550 -0.3239
  624TMC3     H 9299   4.719   2.854  16.396  0.1351  1.4918 -0.0932
  624TMC3    H1 9300   0.165   3.058  16.079 -1.4324  0.6749 -2.1590
  624TMC3    H2 9301   4.485   2.925  16.042  0.6599 -1.3677 -0.5555
  624TMC3    C7 9302   4.690   3.046  15.908 -0.6647 -0.4729  0.2487
  624TMC3    C8 9303   4.476   2.803  16.264 -0.1393 -0.7551 -0.3550
  624TMC3    O1 9304   0.057   3.114  15.884 -0.3136  0.6627 -0.4042
  624TMC3    O2 9305   4.383   2.786  16.188  0.5645  0.2635 -0.5583
  625MPD2     C 9306   0.137   3.653   0.214  0.4557  0.0717 -0.3590
  625MPD2    C1 9307   0.172   3.776   0.273  0.3653 -0.6429  0.3965
  625MPD2    C2 9308   0.284   3.773   0.358 -0.1475  0.4509 -0.5206
  625MPD2    C3 9309   0.361   3.658   0.378 -0.0584  0.1750 -0.5397
  625MPD2    C4 9310   0.326   3.538   0.314 -0.0022  0.3495 -0.0874
  625MPD2    C5 9311   0.215   3.542   0.238  0.0180 -0.0472  0.1632
  625MPD2     H 9312   0.309   3.869   0.401  1.6379 -1.6476  3.0933
  625MPD2    H1 9313   0.384   3.447   0.327 -0.0630  0.4320  0.7434
  625MPD2    H2 9314   0.072   3.644   0.128 -1.1068  1.7713  0.6440
  625MPD2    H3 9315   0.193   3.447   0.190 -0.7985 -0.5682  1.5785
  625MPD2     N 9316   0.480   3.677   0.446  0.0730  0.0760 -0.2959
  625MPD2    H5 9317   0.498   3.776   0.460 -1.0827  0.2203  0.1920
  625MPD2    N1 9318   0.117   3.901   0.242  0.1886  0.6533  0.1816
  625MPD2    H7 9319   0.157   3.986   0.281 -1.2965  0.8765  1.2451
  626TMC3    C1 9320   4.670   4.035   0.189 -0.0479  1.0266 -0.2974
  626TMC3    C2 9321   4.572   4.076   0.104 -0.0398 -0.2970 -0.0890
  626TMC3    C3 9322   4.517   4.199   0.118 -0.1744 -0.5502 -0.4730
  626TMC3    C4 9323   4.685   4.101   0.309  0.1639  0.3439 -0.7858
  626TMC3    C5 9324   4.621   4.223   0.326 -0.5406 -0.2953  0.7360
  626TMC3    C6 9325   4.540   4.273   0.226  0.1733  0.1261 -1.0147
  626TMC3     C 9326   4.735   3.905   0.172 -0.0808 -0.4936 -0.1888
  626TMC3     O 9327   4.676   3.832   0.098  0.2204  0.0100 -0.3515
  626TMC3     H 9328   4.551   4.021   0.013 -2.6078  2.7229 -1.3079
  626TMC3    H1 9329   0.008   4.059   0.388 -0.9231 -1.4153 -0.9064
  626TMC3    H2 9330   4.518   4.379   0.222  0.5098  0.2564  0.5519
  626TMC3    C7 9331   4.637   4.279   0.455 -0.2796  0.2239  0.0615
  626TMC3    C8 9332   4.435   4.252   0.004 -0.1640 -0.1162 -0.5294
  626TMC3    O1 9333   4.730   4.243   0.527  0.2174  0.2459  0.0972
  626TMC3    O2 9334   4.440   4.189  17.643 -0.2410 -0.0048 -0.4139
  627MPD2     C 9335   3.416   4.093  13.921 -0.6451 -0.2838 -0.2216
  627MPD2    C1 9336   3.449   4.062  14.045 -1.0239  0.3811 -0.4802
  627MPD2    C2 9337   3.357   3.993  14.118  0.4869  0.1171  0.0198
  627MPD2    C3 9338   3.239   3.938  14.055 -0.4454  0.0129 -0.1499
  627MPD2    C4 9339   3.217   3.955  13.920 -0.0386  0.0826 -0.3427
  627MPD2    C5 9340   3.309   4.035  13.857 -0.1787 -0.2387 -0.5180
  627MPD2     H 9341   3.379   3.982  14.223  0.3930 -1.5155 -0.1288
  627MPD2    H1 9342   3.145   3.905  13.857  0.6864 -2.4767  0.8325
  627MPD2    H2 9343   3.477   4.154  13.854 -1.5408 -0.7454 -1.4474
  627MPD2    H3 9344   3.300   4.052  13.750  0.5110 -1.2255 -0.7352
  627MPD2     N 9345   3.155   3.856  14.128  0.0455 -0.6856 -0.4768
  627MPD2    H5 9346   3.185   3.836  14.223 -0.8758 -2.0963 -0.4914
  627MPD2    N1 9347   3.562   4.111  14.116  0.2199 -1.2381  0.2133
  627MPD2    H7 9348   3.566   4.098  14.217 -2.7773  1.8324  0.7360
  628TMC3    C1 9349   3.784   4.171  14.149 -0.2693  0.0127  0.3972
  628TMC3    C2 9350   3.911   4.136  14.112 -0.4964  0.1690 -0.3384
  628TMC3    C3 9351   4.008   4.145  14.211 -0.2717 -0.2819  0.0966
  628TMC3    C4 9352   3.749   4.239  14.257 -0.4540 -0.0872 -0.6070
  628TMC3    C5 9353   3.845   4.243  14.355  0.0653 -0.0777  1.3930
  628TMC3    C6 9354   3.971   4.195  14.334  0.1189 -0.0199 -0.4174
  628TMC3     C 9355   3.685   4.121  14.054 -0.1533  0.4520 -0.6670
  628TMC3     O 9356   3.708   4.121  13.930 -0.0735 -0.2611  0.8719
  628TMC3     H 9357   3.929   4.085  14.018  0.0948 -1.1465  0.4759
  628TMC3    H1 9358   3.648   4.276  14.272  0.1533 -0.2512  3.7537
  628TMC3    H2 9359   4.048   4.220  14.406 -0.7758 -1.4581  1.0317
  628TMC3    C7 9360   3.842   4.362  14.436 -0.2989 -0.4938  0.4860
  628TMC3    C8 9361   4.147   4.084  14.201  0.3511  0.3456  0.0511
  628TMC3    O1 9362   3.930   4.369  14.524 -0.3333 -0.6479 -0.0692
  628TMC3    O2 9363   4.191   4.060  14.089 -0.1925  0.5209  0.0445
  629MPD2     C 9364   1.641   3.331  16.087  0.0437  0.1784  0.9828
  629MPD2    C1 9365   1.658   3.198  16.115  0.0093  1.0617 -0.7962
  629MPD2    C2 9366   1.556   3.110  16.146  0.6492 -0.3664  0.4583
  629MPD2    C3 9367   1.432   3.167  16.162 -0.1820 -0.5933  0.3861
  629MPD2    C4 9368   1.409   3.298  16.117 -0.2425  0.1638  1.0327
  629MPD2    C5 9369   1.516   3.374  16.081  0.2705 -0.3186  0.5091
  629MPD2     H 9370   1.564   3.003  16.160 -0.0334 -0.5087 -0.2597
  629MPD2    H1 9371   1.313   3.347  16.110  1.1555  2.6936 -0.8011
  629MPD2    H2 9372   1.722   3.394  16.054 -0.0011 -0.2132  0.1137
  629MPD2    H3 9373   1.499   3.475  16.045  2.9021  0.5943  1.8591
  629MPD2     N 9374   1.315   3.085  16.187 -0.7708 -0.0010 -0.4174
  629MPD2    H5 9375   1.230   3.141  16.189  0.9875  2.6869 -0.4991
  629MPD2    N1 9376   1.793   3.158  16.126 -1.1098 -0.2793 -0.2785
  629MPD2    H7 9377   1.855   3.237  16.109 -0.7083 -0.3381  0.9113
  630TMC3    C1 9378   1.990   3.037  16.170 -0.1861  0.5257  0.5176
  630TMC3    C2 9379   2.071   3.118  16.101 -0.2857  0.5737  0.2917
  630TMC3    C3 9380   2.203   3.136  16.139 -0.5946 -0.6361  0.1787
  630TMC3    C4 9381   2.040   2.976  16.283 -0.1127  0.5696  0.7092
  630TMC3    C5 9382   2.166   3.003  16.325  0.1057  0.7398 -0.3861
  630TMC3    C6 9383   2.250   3.082  16.252  0.3625  1.1213 -0.1174
  630TMC3     C 9384   1.847   3.038  16.159 -0.0049  0.6267  0.7366
  630TMC3     O 9385   1.792   2.933  16.197 -0.2773 -0.0834 -0.5903
  630TMC3     H 9386   2.030   3.180  16.022  0.2612  0.9869  0.3297
  630TMC3    H1 9387   1.970   2.948  16.362 -0.5106 -1.8476 -0.4919
  630TMC3    H2 9388   2.355   3.084  16.277  0.3021  1.8879  0.0804
  630TMC3    C7 9389   2.219   2.952  16.448  0.3379  0.2617  0.6450
  630TMC3    C8 9390   2.302   3.220  16.066  0.5064  0.4110 -1.1947
  630TMC3    O1 9391   2.183   2.840  16.473 -0.0024 -0.1885  0.3451
  630TMC3    O2 9392   2.399   3.253  16.132  0.2616 -0.1552 -0.0652
  631MPD2     C 9393   0.014   2.584  15.472 -0.0141  0.2427  0.3399
  631MPD2    C1 9394   0.131   2.566  15.405 -0.3893  0.6970  0.1135
  631MPD2    C2 9395   0.207   2.450  15.425  0.3907  0.0766 -0.0456
  631MPD2    C3 9396   0.177   2.365  15.527 -0.5235 -0.5863  0.8150
  631MPD2    C4 9397   0.060   2.384  15.596 -1.0128  0.5358  0.3105
  631MPD2    C5 9398   4.719   2.490  15.568  0.1229  0.1774 -0.2983
  631MPD2     H 9399   0.295   2.423  15.366 -0.5292  0.0325 -1.4107
  631MPD2    H1 9400   0.035   2.308  15.669  1.1370 -0.9643 -0.5239
  631MPD2    H2 9401   4.669   2.652  15.450  0.2264  0.7944  1.1464
  631MPD2    H3 9402   4.630   2.489  15.629  0.1014  2.8375 -0.2785
  631MPD2     N 9403   0.262   2.259  15.565 -0.7079  0.7343 -0.4395
  631MPD2    H5 9404   0.351   2.270  15.518 -0.0767  0.5821  0.7020
  631MPD2    N1 9405   0.166   2.661  15.308  0.3264 -0.2467  0.3572
  631MPD2    H7 9406   0.095   2.730  15.289  0.8413  0.4417  0.9449
  632TMC3    C1 9407   0.302   2.799  15.178  0.2547  0.6619  0.2173
  632TMC3    C2 9408   0.203   2.891  15.161 -0.5176  0.7200  0.0391
  632TMC3    C3 9409   0.224   3.013  15.105 -0.1048  0.3481  0.2232
  632TMC3    C4 9410   0.434   2.830  15.145  0.7197 -0.1569 -0.2353
  632TMC3    C5 9411   0.456   2.949  15.080 -0.2542 -0.6079  0.7834
  632TMC3    C6 9412   0.352   3.038  15.061  0.9922  0.3567  0.5517
  632TMC3     C 9413   0.292   2.685  15.266  0.0814 -0.3292 -0.8557
  632TMC3     O 9414   0.391   2.629  15.305 -0.6355  0.1153 -0.1868
  632TMC3     H 9415   0.100   2.876  15.191  0.6068 -0.2336  3.4261
  632TMC3    H1 9416   0.513   2.758  15.161  0.1485 -1.0345 -1.3320
  632TMC3    H2 9417   0.380   3.141  15.041 -2.3511  1.0704 -0.4203
  632TMC3    C7 9418   0.564   2.975  14.990 -1.0057  0.6120 -0.7376
  632TMC3    C8 9419   0.132   3.112  15.136 -0.0494 -0.6499 -0.2041
  632TMC3    O1 9420   0.527   3.054  14.907 -0.2149 -0.2522 -0.9559
  632TMC3    O2 9421   0.024   3.082  15.177 -0.4642 -0.2563 -0.1516
  633MPD2     C 9422   4.632   0.915  17.523 -0.1427 -0.5632 -0.0462
  633MPD2    C1 9423   4.604   0.843  17.409 -0.0070  0.0406  0.1150
  633MPD2    C2 9424   4.603   0.701  17.428  0.5858 -0.2090  0.6269
  633MPD2    C3 9425   4.651   0.638  17.543 -0.5422  0.5164  0.0733
  633MPD2    C4 9426   4.702   0.720  17.642  0.9814 -0.4286 -0.2580
  633MPD2    C5 9427   4.680   0.852  17.632 -0.3175 -0.0232 -0.2438
  633MPD2     H 9428   4.594   0.634  17.343 -0.8398  2.2695 -1.1860
  633MPD2    H1 9429   0.001   0.689  17.739 -0.2143  0.1042  0.3683
  633MPD2    H2 9430   4.636   1.024  17.519 -1.6036 -0.5161 -0.0957
  633MPD2    H3 9431   4.724   0.914  17.709 -2.4375 -0.5491  1.4185
  633MPD2     N 9432   4.647   0.493  17.562 -0.1767  0.5810  0.0853
  633MPD2    H5 9433   4.690   0.455  17.645 -0.8793  1.0800  0.6775
  633MPD2    N1 9434   4.580   0.896  17.281  0.6245  0.8466  0.1285
  633MPD2    H7 9435   4.559   0.828  17.208  2.7275  1.0380 -0.6486
  634TMC3    C1 9436   4.542   1.045  17.105 -0.3672  0.1905 -0.1621
  634TMC3    C2 9437   4.556   0.950  17.010  0.0684 -0.5158  1.1468
  634TMC3    C3 9438   4.512   0.978  16.880  0.7888  0.0421 -0.4961
  634TMC3    C4 9439   4.489   1.165  17.074  0.8382  0.1445  0.2210
  634TMC3    C5 9440   4.449   1.189  16.941  0.2138 -0.0729  0.3506
  634TMC3    C6 9441   4.459   1.093  16.845  0.1507 -0.1477 -0.5445
  634TMC3     C 9442   4.581   1.031  17.242 -0.2833  0.4332  0.0418
  634TMC3     O 9443   4.619   1.130  17.299  0.1473  0.5185  0.1587
  634TMC3     H 9444   4.601   0.853  17.030  1.1326 -0.3336 -0.3565
  634TMC3    H1 9445   4.477   1.248  17.143  0.1497  1.6389 -1.7022
  634TMC3    H2 9446   4.406   1.114  16.753  1.3615 -1.3467 -1.4917
  634TMC3    C7 9447   4.414   1.322  16.893  0.0198 -0.4181 -0.4026
  634TMC3    C8 9448   4.544   0.880  16.777  0.2803  0.1920  0.2300
  634TMC3    O1 9449   4.404   1.325  16.771  0.8159 -0.1356  0.4723
  634TMC3    O2 9450   4.570   0.767  16.823  0.1547  0.3674 -0.0588
  635TMC3    C1 9451   0.249   2.239   0.028  0.0757 -0.6829  0.8002
  635TMC3    C2 9452   0.297   2.265  17.650 -0.3227 -0.1454  0.2952
  635TMC3    C3 9453   0.264   2.182  17.555  0.1036 -0.0511  0.1145
  635TMC3    C4 9454   0.162   2.134   0.055  0.4272  0.0564 -0.4259
  635TMC3    C5 9455   0.115   2.059  17.694  0.4461  0.2811 -0.7926
  635TMC3    C6 9456   0.171   2.076  17.573 -0.3181 -0.5825 -0.2348
  635TMC3     C 9457   0.337   2.273   0.133  0.0609  0.4582 -0.1447
  635TMC3     O 9458   0.400   2.376   0.125  0.4481 -0.1901 -0.0633
  635TMC3     H 9459   0.370   2.344  17.635 -1.0085  0.0341 -2.0159
  635TMC3    H1 9460   0.115   2.122   0.152 -1.3778 -1.4283 -1.5014
  635TMC3    H2 9461   0.135   2.021  17.487 -0.9006 -0.7751  0.1296
  635TMC3    C7 9462   0.002   1.974  17.705 -0.0621 -0.1715  0.2730
  635TMC3    C8 9463   0.286   2.212  17.420  0.3560  0.3176  0.1921
  635TMC3    O1 9464   4.679   1.943  17.600 -0.3846  0.2798 -0.6951
  635TMC3    O2 9465   0.215   2.158  17.336 -0.3009 -0.2475  0.4448
  636MPD2     C 9466   0.944   0.987  15.854 -0.2072  0.1325  0.6704
  636MPD2    C1 9467   0.979   1.039  15.975  0.5980 -0.0351 -0.1305
  636MPD2    C2 9468   1.023   0.948  16.071 -0.3786 -0.2313 -0.1183
  636MPD2    C3 9469   1.022   0.812  16.046 -0.2121 -0.3314  0.2569
  636MPD2    C4 9470   0.997   0.771  15.919 -0.5078  0.2153  0.1796
  636MPD2    C5 9471   0.950   0.855  15.822 -0.2333  0.0317 -0.4738
  636MPD2     H 9472   1.033   0.984  16.173 -2.4190 -1.3057  0.4730
  636MPD2    H1 9473   1.008   0.670  15.881  0.0638  0.4948 -0.4171
  636MPD2    H2 9474   0.910   1.051  15.773 -0.9317 -1.1183 -0.0084
  636MPD2    H3 9475   0.932   0.810  15.725 -1.1422 -0.4406 -0.0901
  636MPD2     N 9476   1.075   0.723  16.139 -0.8777  0.2779  0.6017
  636MPD2    H5 9477   1.108   0.758  16.229  1.6182  0.7926 -0.5078
  636MPD2    N1 9478   0.973   1.171  16.018  0.1623  0.2144  0.6022
  636MPD2    H7 9479   0.999   1.193  16.113 -0.4506 -0.5560  0.9472
  637TMC3    C1 9480   1.170   0.533  16.247  0.1333  0.2460 -0.0714
  637TMC3    C2 9481   1.115   0.551  16.375 -0.4003 -0.3316  0.4378
  637TMC3    C3 9482   1.201   0.536  16.482  0.8154 -0.6134  0.0675
  637TMC3    C4 9483   1.296   0.489  16.219  0.2223 -0.4409 -0.2498
  637TMC3    C5 9484   1.375   0.483  16.328  0.1996  0.0380  0.5706
  637TMC3    C6 9485   1.328   0.493  16.462 -0.2395 -0.1718  0.1433
  637TMC3     C 9486   1.104   0.586  16.128 -0.1944 -0.5501 -0.6804
  637TMC3     O 9487   1.104   0.515  16.025 -0.0140  0.3947 -0.2238
  637TMC3     H 9488   1.010   0.577  16.380  0.1921  1.7856  2.1697
  637TMC3    H1 9489   1.324   0.466  16.117 -0.0481 -0.2194 -0.3742
  637TMC3    H2 9490   1.402   0.490  16.542  0.1275 -0.5767 -0.2116
  637TMC3    C7 9491   1.510   0.516  16.316  0.3303  0.4542 -1.1045
  637TMC3    C8 9492   1.199   0.654  16.560  0.0609  0.1359  0.4793
  637TMC3    O1 9493   1.572   0.551  16.413  0.4597  0.3043  0.0888
  637TMC3    O2 9494   1.158   0.750  16.497  0.5145  0.0926 -0.2447
  638MPD2     C 9495   0.911   0.134  14.899 -0.0381  0.0398  0.1209
  638MPD2    C1 9496   0.906   0.046  14.793 -0.1920  0.4898  0.5510
  638MPD2    C2 9497   0.845   4.658  14.814  0.4910  0.7381  0.1317
  638MPD2    C3 9498   0.803   4.623  14.937 -0.1367 -0.0634 -0.3117
  638MPD2    C4 9499   0.818   4.711  15.042  0.2695 -0.1871 -0.3787
  638MPD2    C5 9500   0.878   0.094  15.027  0.1883 -0.0146 -0.5369
  638MPD2     H 9501   0.825   4.580  14.740  1.6351  0.7644 -0.2039
  638MPD2    H1 9502   0.789   4.678  15.141  1.1243  0.7180  0.1768
  638MPD2    H2 9503   0.956   0.233  14.896  0.7086 -0.2116  2.8764
  638MPD2    H3 9504   0.875   0.171  15.103  0.8367  0.8813 -1.4306
  638MPD2     N 9505   0.755   4.492  14.959 -0.0958 -0.8227  0.5136
  638MPD2    H5 9506   0.763   4.426  14.882  0.1457  0.9554 -0.9850
  638MPD2    N1 9507   0.942   0.094  14.665 -0.2330 -0.1894 -0.0053
  638MPD2    H7 9508   0.953   0.195  14.663  0.0435 -0.2110  0.6007
  639TMC3    C1 9509   0.708   4.304  15.069 -0.0217 -0.2087  0.5098
  639TMC3    C2 9510   0.602   4.222  15.020  0.2016  0.0319 -1.3235
  639TMC3    C3 9511   0.631   4.097  14.975 -0.3553 -0.3213 -0.0354
  639TMC3    C4 9512   0.836   4.261  15.057 -0.0345  0.5397 -0.3960
  639TMC3    C5 9513   0.863   4.134  15.029  0.7756 -0.4734  0.0492
  639TMC3    C6 9514   0.762   4.053  14.988 -0.0958 -0.4987 -0.0526
  639TMC3     C 9515   0.684   4.444  15.064  0.3227  0.2155  0.6329
  639TMC3     O 9516   0.619   4.501  15.147 -0.7375  0.5993  0.4393
  639TMC3     H 9517   0.501   4.258  15.003 -0.2845 -1.0030 -0.6229
  639TMC3    H1 9518   0.909   4.319  15.112  1.9459 -0.4811 -1.9295
  639TMC3    H2 9519   0.788   3.952  14.959 -1.1578 -1.1392  1.1978
  639TMC3    C7 9520   0.981   4.068  15.080  0.0888 -0.3626 -0.4874
  639TMC3    C8 9521   0.562   4.061  14.855  0.0315  0.1406  0.8642
  639TMC3    O1 9522   0.983   3.955  15.127 -0.2456  0.6457  0.2027
  639TMC3    O2 9523   0.637   4.019  14.769  0.1374  0.3990 -0.5856
  640MPD2     C 9524   1.446   2.820  10.186  0.0991  0.4114  0.2414
  640MPD2    C1 9525   1.452   2.891  10.074 -0.3264 -0.0477 -0.3287
  640MPD2    C2 9526   1.362   2.997  10.062 -0.6907 -0.2963  0.2509
  640MPD2    C3 9527   1.278   3.037  10.162  0.5464  0.0073  0.6254
  640MPD2    C4 9528   1.273   2.962  10.280  0.9437  1.0828 -0.3535
  640MPD2    C5 9529   1.356   2.853  10.285 -0.2501 -1.2800  0.2280
  640MPD2     H 9530   1.337   3.040   9.966 -1.3317 -0.1785  0.4733
  640MPD2    H1 9531   1.196   2.981  10.355  0.5096 -0.7357 -0.3397
  640MPD2    H2 9532   1.518   2.741  10.200 -1.0688 -0.8920 -1.1367
  640MPD2    H3 9533   1.355   2.790  10.374  0.7163 -2.4302 -0.5802
  640MPD2     N 9534   1.190   3.149  10.153  0.7085  0.0619 -0.1198
  640MPD2    H5 9535   1.119   3.166  10.224  1.4584  1.1396  0.3572
  640MPD2    N1 9536   1.542   2.838   9.979  0.4773 -0.0042  0.5406
  640MPD2    H7 9537   1.583   2.746   9.996  0.8072  0.5597  2.8084
  641TMC3    C1 9538   1.652   2.820   9.772  0.5772 -0.4825 -0.6128
  641TMC3    C2 9539   1.735   2.718   9.815 -0.1083 -0.8542 -0.0962
  641TMC3    C3 9540   1.772   2.620   9.726  0.4145 -0.3387  0.6628
  641TMC3    C4 9541   1.601   2.829   9.645  0.6182  0.5402  0.4835
  641TMC3    C5 9542   1.645   2.723   9.559  0.5226  0.5241 -0.0643
  641TMC3    C6 9543   1.729   2.618   9.599 -0.0462  0.4322 -0.3079
  641TMC3     C 9544   1.585   2.910   9.867 -0.6491 -0.1952  0.7547
  641TMC3     O 9545   1.544   3.026   9.833 -0.1513  0.2585 -0.3003
  641TMC3     H 9546   1.789   2.732   9.908  2.5341 -3.6375 -1.2275
  641TMC3    H1 9547   1.525   2.897   9.607 -0.9905 -0.7015  1.4690
  641TMC3    H2 9548   1.756   2.541   9.528 -0.3677  1.8756 -1.9980
  641TMC3    C7 9549   1.594   2.740   9.423 -0.4246 -0.0274 -0.0603
  641TMC3    C8 9550   1.862   2.508   9.760  0.6025  0.2297  0.2082
  641TMC3    O1 9551   1.525   2.843   9.405 -0.1799 -0.2179 -0.2403
  641TMC3    O2 9552   1.897   2.432   9.673  0.6580  0.0557  0.1278
  642TMC3    C1 9553   2.651   4.652  11.943  0.2436 -0.0216  0.7895
  642TMC3    C2 9554   2.595   0.007  12.032  0.5662 -0.3660  0.4371
  642TMC3    C3 9555   2.607   4.706  12.161  0.4331  0.1861 -0.0629
  642TMC3    C4 9556   2.725   4.545  11.982  0.2117  1.1810 -0.2276
  642TMC3    C5 9557   2.738   4.522  12.115 -1.0442  0.0453  0.8344
  642TMC3    C6 9558   2.675   4.596  12.207  0.6608  0.6805 -0.0229
  642TMC3     C 9559   2.582   4.626  11.818 -0.3264  0.3897 -0.3034
  642TMC3     O 9560   2.637   4.562  11.728 -0.4692 -0.1380 -0.2728
  642TMC3     H 9561   2.536   0.090  11.996  0.3329 -0.0130  1.6327
  642TMC3    H1 9562   2.774   4.487  11.904 -0.4981 -0.1061  0.2792
  642TMC3    H2 9563   2.672   4.562  12.310  0.1458  2.1826  0.4555
  642TMC3    C7 9564   2.775   4.388  12.147  0.4087 -0.8459  0.0715
  642TMC3    C8 9565   2.543   0.050  12.262  0.2693  0.2766  0.6703
  642TMC3    O1 9566   2.749   4.304  12.058 -0.6455 -0.6709 -0.3119
  642TMC3    O2 9567   2.521   0.003  12.375 -0.6427  0.5020 -0.2580
  643TMC3    C1 9568   2.095   3.415   0.103  1.1777 -0.0042  0.0197
  643TMC3    C2 9569   1.979   3.350   0.091  0.0518  0.2021 -0.3193
  643TMC3    C3 9570   1.979   3.234   0.020 -0.2247 -0.7826  0.4378
  643TMC3    C4 9571   2.205   3.387   0.022  0.6827 -0.0163  0.1108
  643TMC3    C5 9572   2.199   3.279  17.687 -0.2506  0.7650 -0.0850
  643TMC3    C6 9573   2.094   3.193  17.706  0.2393 -0.2484 -0.7046
  643TMC3     C 9574   2.101   3.550   0.153  0.5229 -0.1455  0.1924
  643TMC3     O 9575   1.998   3.607   0.127  0.4877  1.2932  0.4216
  643TMC3     H 9576   1.888   3.381   0.140 -0.9614 -3.5942  0.2194
  643TMC3    H1 9577   2.288   3.457   0.018 -0.4136  1.3302  0.4759
  643TMC3    H2 9578   2.090   3.099  17.651 -1.3803 -0.8590  0.4445
  643TMC3    C7 9579   2.221   3.314  17.547 -0.1248  0.2829 -0.0482
  643TMC3    C8 9580   1.863   3.229  17.678 -0.3197  0.3526 -0.1957
  643TMC3    O1 9581   2.286   3.416  17.530  0.4766  0.2205  0.0131
  643TMC3    O2 9582   1.858   3.136  17.604  0.2713  0.1039  0.2960
  644MPD2     C 9583   1.459   3.387   9.456 -0.0773  0.4374 -0.0211
  644MPD2    C1 9584   1.496   3.331   9.335 -0.2212 -0.5111 -0.1154
  644MPD2    C2 9585   1.455   3.400   9.220  0.2313 -0.0160 -0.1162
  644MPD2    C3 9586   1.363   3.503   9.240 -0.9090 -0.2935  0.1735
  644MPD2    C4 9587   1.323   3.552   9.364  0.1282  0.1149 -0.6538
  644MPD2    C5 9588   1.380   3.498   9.474  0.4746 -0.3412 -0.3657
  644MPD2     H 9589   1.482   3.360   9.123  2.5388  0.6637  0.2667
  644MPD2    H1 9590   1.262   3.640   9.383 -0.1101 -0.3754  0.8164
  644MPD2    H2 9591   1.495   3.347   9.550  2.2077 -2.7364 -2.2829
  644MPD2    H3 9592   1.361   3.542   9.571  4.0158  1.7502 -0.6145
  644MPD2     N 9593   1.308   3.562   9.121 -0.7920  0.2691  0.4498
  644MPD2    H5 9594   1.347   3.521   9.037  2.4309  0.6780  1.7101
  644MPD2    N1 9595   1.563   3.206   9.338 -0.2412  0.0686  0.1585
  644MPD2    H7 9596   1.593   3.174   9.429 -0.2330  0.0315  0.1429
  645TMC3    C1 9597   1.168   3.679   8.979  0.0896  0.0368  0.5488
  645TMC3    C2 9598   1.270   3.722   8.894 -0.3112 -0.4113  0.1576
  645TMC3    C3 9599   1.242   3.817   8.800 -0.0151  0.5976 -0.0988
  645TMC3    C4 9600   1.050   3.738   8.965 -0.1632 -0.4977  0.1210
  645TMC3    C5 9601   1.027   3.840   8.878 -0.5352 -0.0648  0.7369
  645TMC3    C6 9602   1.124   3.883   8.788  0.2389  0.6138 -0.4162
  645TMC3     C 9603   1.206   3.653   9.116  0.2163 -0.6683 -1.4073
  645TMC3     O 9604   1.138   3.697   9.207 -0.3544 -0.2129 -0.4460
  645TMC3     H 9605   1.366   3.672   8.900 -1.0922 -1.7501  1.7102
  645TMC3    H1 9606   0.975   3.713   9.040 -0.8718  2.6745  0.4805
  645TMC3    H2 9607   1.098   3.942   8.701  1.3131  0.1336 -1.0608
  645TMC3    C7 9608   0.910   3.941   8.888  0.8240 -0.3251 -0.4278
  645TMC3    C8 9609   1.322   3.822   8.682  0.2946  0.5878  0.1559
  645TMC3    O1 9610   0.924   4.055   8.845 -0.7921  0.3829 -0.1199
  645TMC3    O2 9611   1.387   3.718   8.674 -0.1556 -0.4589  0.5872
  646MPD2     C 9612   1.057   3.512  14.211  0.5207 -0.2394 -1.2045
  646MPD2    C1 9613   0.964   3.523  14.314  0.0488  0.4119  0.1025
  646MPD2    C2 9614   0.838   3.580  14.275  0.6530  0.1582  0.3288
  646MPD2    C3 9615   0.812   3.645  14.164  0.2890  0.1984  0.0578
  646MPD2    C4 9616   0.912   3.633  14.073  0.1736 -0.3691 -0.5112
  646MPD2    C5 9617   1.033   3.582  14.098 -0.4950 -0.9852 -0.0238
  646MPD2     H 9618   0.761   3.586  14.352 -0.6507 -0.0352 -0.9620
  646MPD2    H1 9619   0.912   3.674  13.973 -2.3684  0.2390 -0.2769
  646MPD2    H2 9620   1.150   3.459  14.221 -0.5754 -2.2028 -1.3624
  646MPD2    H3 9621   1.114   3.587  14.027  0.2687 -2.2075  0.7467
  646MPD2     N 9622   0.689   3.714  14.149  0.2785 -0.0811 -0.2356
  646MPD2    H5 9623   0.616   3.697  14.218  0.4468  0.4175  0.0647
  646MPD2    N1 9624   0.989   3.472  14.445 -0.1132 -0.5222 -0.1681
  646MPD2    H7 9625   1.085   3.443  14.461  0.6801  2.6661  0.8285
  647TMC3    C1 9626   0.981   3.420  14.678  0.0281 -0.6449 -0.2385
  647TMC3    C2 9627   0.903   3.386  14.781  0.6190  0.0726 -0.2999
  647TMC3    C3 9628   0.963   3.333  14.893 -0.2641 -0.0460 -0.1979
  647TMC3    C4 9629   1.114   3.412  14.684 -0.3624  0.8474 -0.5032
  647TMC3    C5 9630   1.170   3.364  14.798  0.3838  0.3482 -0.1563
  647TMC3    C6 9631   1.100   3.317  14.904  0.1452 -0.3425  0.2175
  647TMC3     C 9632   0.905   3.453  14.553  0.3200  0.1874 -0.3086
  647TMC3     O 9633   0.785   3.459  14.552 -0.3329  0.0252  0.1516
  647TMC3     H 9634   0.795   3.391  14.770  0.6452 -0.3276 -0.7517
  647TMC3    H1 9635   1.182   3.455  14.612 -1.3092  0.5034 -1.5992
  647TMC3    H2 9636   1.148   3.275  14.992 -0.3302 -1.8629 -0.2465
  647TMC3    C7 9637   1.317   3.350  14.812 -0.4989  0.0338 -0.1397
  647TMC3    C8 9638   0.871   3.309  15.008 -0.2859  0.4773 -0.1437
  647TMC3    O1 9639   1.355   3.274  14.901 -0.2982 -0.3530 -0.0969
  647TMC3    O2 9640   0.773   3.377  15.029 -0.2159 -0.5193 -0.2678
  648TMC3    C1 9641   0.158   1.123  15.821 -0.3650 -0.0342  0.3486
  648TMC3    C2 9642   0.183   1.010  15.745  0.1263 -0.1604  0.4908
  648TMC3    C3 9643   0.113   0.983  15.636 -0.5040 -0.9830 -0.7235
  648TMC3    C4 9644   0.053   1.207  15.790 -0.4001  0.3103  0.6570
  648TMC3    C5 9645   4.716   1.179  15.677  0.6395  0.3563 -0.1949
  648TMC3    C6 9646   0.015   1.064  15.603 -0.2391  0.1137  0.1078
  648TMC3     C 9647   0.190   1.122  15.962  0.4111 -0.0800  0.6310
  648TMC3     O 9648   0.170   1.226  16.024  0.1453  0.0558  0.1345
  648TMC3     H 9649   0.279   0.963  15.763 -0.2129 -1.6690 -1.6530
  648TMC3    H1 9650   0.039   1.290  15.858  0.2576  1.5513 -0.7371
  648TMC3    H2 9651   4.686   1.044  15.519  0.8926 -1.6659 -0.3383
  648TMC3    C7 9652   4.571   1.193  15.697 -1.0082 -0.1310  0.4072
  648TMC3    C8 9653   0.138   0.870  15.549  0.1659  0.2999  0.0127
  648TMC3    O1 9654   4.496   1.108  15.647 -0.0108 -0.1393  0.2710
  648TMC3    O2 9655   0.100   0.883  15.431  0.2092  0.3224  0.1993
  649TMC3    C1 9656   4.531   1.985  12.829  0.5545  0.2009  0.0373
  649TMC3    C2 9657   4.653   1.940  12.871 -0.7018  0.1847  0.2400
  649TMC3    C3 9658   4.675   1.806  12.881  0.2517  0.3608  0.3835
  649TMC3    C4 9659   4.426   1.904  12.793 -0.8136 -0.0034 -0.2072
  649TMC3    C5 9660   4.458   1.766  12.790  0.3212 -0.2327  0.2985
  649TMC3    C6 9661   4.577   1.719  12.842  0.0078 -0.4606 -0.5819
  649TMC3     C 9662   4.528   2.122  12.786  0.2922  0.3664 -0.3218
  649TMC3     O 9663   4.419   2.181  12.797  0.2090 -0.4368 -0.3812
  649TMC3     H 9664   4.736   2.003  12.901 -0.8126  0.2533  0.3996
  649TMC3    H1 9665   4.332   1.948  12.762 -0.4308  1.0515  0.1594
  649TMC3    H2 9666   4.593   1.612  12.845  1.5956 -0.2144 -0.3025
  649TMC3    C7 9667   4.354   1.674  12.779  0.3568 -0.1543 -0.0024
  649TMC3    C8 9668   0.049   1.749  12.949  0.1626  0.4993 -0.4431
  649TMC3    O1 9669   4.250   1.708  12.831  0.4521  0.3339  0.6413
  649TMC3    O2 9670   0.028   1.636  12.989  0.2922 -0.1885 -0.6691
  650TMC3    C1 9671   2.138   3.627  12.370 -0.3194 -0.4618 -0.8935
  650TMC3    C2 9672   2.104   3.749  12.349 -0.4572  1.0557  0.4670
  650TMC3    C3 9673   2.007   3.781  12.260  0.3774  0.2596  0.9428
  650TMC3    C4 9674   2.077   3.531  12.298 -0.2779  0.4770  0.7022
  650TMC3    C5 9675   1.997   3.568  12.190 -0.0338  1.3619  0.0896
  650TMC3    C6 9676   1.956   3.693  12.164  0.6774 -0.2891 -0.6823
  650TMC3     C 9677   2.219   3.594  12.486  0.5388 -0.1904  0.1619
  650TMC3     O 9678   2.292   3.687  12.530  0.1356  0.4896  0.0024
  650TMC3     H 9679   2.157   3.826  12.404 -0.3080  1.2636  0.0402
  650TMC3    H1 9680   2.108   3.427  12.298 -0.4398  0.4409 -2.3913
  650TMC3    H2 9681   1.874   3.722  12.099  0.2154 -1.1332 -0.4685
  650TMC3    C7 9682   1.922   3.456  12.130  0.4099  0.1023  0.6892
  650TMC3    C8 9683   1.934   3.910  12.263  0.1897 -0.0543 -0.4302
  650TMC3    O1 9684   1.892   3.363  12.201 -0.1799  0.4282 -0.0087
  650TMC3    O2 9685   1.907   3.946  12.150 -0.2299  0.1177 -0.4448
  651MPD2     C 9686   1.061   4.693  10.650  0.2651 -0.0834 -0.1700
  651MPD2    C1 9687   1.008   0.080  10.599 -0.6263  0.7019  0.5496
  651MPD2    C2 9688   1.092   0.186  10.587  0.3347 -0.7486  0.4074
  651MPD2    C3 9689   1.225   0.175  10.627 -0.1708 -0.2661 -0.4275
  651MPD2    C4 9690   1.276   0.052  10.655 -0.2472 -0.5333  0.0437
  651MPD2    C5 9691   1.196   4.678  10.668 -0.3830  0.5147  0.9896
  651MPD2     H 9692   1.060   0.285  10.554  0.3426  0.0060  2.6749
  651MPD2    H1 9693   1.381   0.027  10.666 -0.7312 -3.3382 -1.4776
  651MPD2    H2 9694   0.993   4.610  10.665  0.7028 -0.3226  0.4602
  651MPD2    H3 9695   1.243   4.582  10.682  0.6167  1.0745  1.5176
  651MPD2     N 9696   1.310   0.288  10.619 -0.2281  0.5675  0.7432
  651MPD2    H5 9697   1.259   0.371  10.591  0.4160  1.0343  0.9528
  651MPD2    N1 9698   0.869   0.092  10.557  0.0964 -0.2254 -0.2209
  651MPD2    H7 9699   0.852   0.183  10.515  1.3458  0.5154  0.8292
  652TMC3    C1 9700   1.683   0.596  10.637  0.3533  0.2253  0.4624
  652TMC3    C2 9701   1.635   0.467  10.661  0.2436 -0.3444 -0.0142
  652TMC3    C3 9702   1.496   0.436  10.649 -0.2034  0.0563 -0.4139
  652TMC3    C4 9703   1.596   0.698  10.610 -0.2680  0.1488  0.6379
  652TMC3    C5 9704   1.465   0.666  10.600 -0.0372  0.1887 -0.2755
  652TMC3    C6 9705   1.415   0.545  10.624  0.0510  1.1385 -0.4955
  652TMC3     C 9706   1.827   0.611  10.675 -0.5813 -0.3532  0.6202
  652TMC3     O 9707   1.884   0.511  10.708 -0.4734 -0.1264 -0.6263
  652TMC3     H 9708   1.706   0.389  10.687  0.1055 -0.0641  1.2257
  652TMC3    H1 9709   1.629   0.799  10.589 -1.0589  0.2673 -0.0017
  652TMC3    H2 9710   1.307   0.540  10.632  0.2440 -2.9174 -0.4544
  652TMC3    C7 9711   1.364   0.770  10.647  0.8426 -0.1633  0.3205
  652TMC3    C8 9712   1.446   0.299  10.656 -0.5946 -0.4364 -1.0205
  652TMC3    O1 9713   1.250   0.742  10.674  0.0515 -0.4093 -0.0148
  652TMC3    O2 9714   1.528   0.216  10.684 -0.0227  0.1342  0.1618
  653MPD2     C 9715   4.260   0.740  17.534  0.7311 -0.6705  0.2929
  653MPD2    C1 9716   4.214   0.859  17.476 -0.7075 -0.1022  0.1160
  653MPD2    C2 9717   4.134   0.856  17.368  0.3477 -0.1815  0.4522
  653MPD2    C3 9718   4.093   0.737  17.311 -0.3577  0.0525  0.2862
  653MPD2    C4 9719   4.146   0.619  17.359  0.1947 -0.1256 -0.0029
  653MPD2    C5 9720   4.237   0.622  17.466 -0.7346  0.0747  0.5387
  653MPD2     H 9721   4.086   0.951  17.346  2.0348  0.8570  1.2106
  653MPD2    H1 9722   4.124   0.528  17.304 -0.2783 -0.2286  0.3599
  653MPD2    H2 9723   4.329   0.737  17.618 -0.0323  2.4433  1.0364
  653MPD2    H3 9724   4.281   0.529  17.502  0.9550  0.5768 -0.2638
  653MPD2     N 9725   4.013   0.746  17.192 -0.3236  0.2640 -0.2385
  653MPD2    H5 9726   3.996   0.838  17.154  2.6609  0.1826 -1.6989
  653MPD2    N1 9727   4.246   0.983  17.538  0.4505  0.5403 -0.1637
  653MPD2    H7 9728   4.297   0.984  17.626 -0.0570  0.8312  0.1277
  654TMC3    C1 9729   3.905   0.683  16.991  0.5043 -0.6796  0.5632
  654TMC3    C2 9730   3.847   0.800  16.978  0.4228 -0.9253  0.9243
  654TMC3    C3 9731   3.824   0.843  16.852 -0.3090 -0.5130 -0.0186
  654TMC3    C4 9732   3.941   0.602  16.890  0.4183  0.3689 -0.2078
  654TMC3    C5 9733   3.901   0.643  16.765  0.1894 -0.5358 -0.6931
  654TMC3    C6 9734   3.843   0.763  16.739  0.2084  0.3291 -0.0585
  654TMC3     C 9735   3.959   0.641  17.119 -0.8677 -0.1067  0.7607
  654TMC3     O 9736   3.960   0.517  17.132  0.0835 -0.5070 -0.2425
  654TMC3     H 9737   3.854   0.872  17.059 -0.6111 -0.5121  0.6433
  654TMC3    H1 9738   3.985   0.507  16.918  0.4837  0.2817 -0.6086
  654TMC3    H2 9739   3.815   0.788  16.637  1.4412  0.1278 -0.4405
  654TMC3    C7 9740   3.943   0.559  16.652 -0.3565  0.7380  0.1335
  654TMC3    C8 9741   3.754   0.967  16.831  0.0709  0.7979  0.4448
  654TMC3    O1 9742   3.937   0.606  16.541  0.0296 -0.6994 -0.3765
  654TMC3    O2 9743   3.699   0.987  16.723  0.0762  0.7197  0.4288
  655MPD2     C 9744   0.602   0.900  15.846  0.3035 -0.3963 -0.8077
  655MPD2    C1 9745   0.542   1.008  15.788 -0.0228  0.5929 -0.8632
  655MPD2    C2 9746   0.520   1.016  15.651  0.1198  0.6074  0.0948
  655MPD2    C3 9747   0.571   0.906  15.571 -0.7762 -0.1498  0.0344
  655MPD2    C4 9748   0.635   0.801  15.634  0.1633  0.2437 -0.1081
  655MPD2    C5 9749   0.647   0.793  15.769 -0.2527  0.0024  0.9473
  655MPD2     H 9750   0.463   1.099  15.611 -0.9302 -0.0799  0.1707
  655MPD2    H1 9751   0.678   0.726  15.568  1.5515  1.3503 -0.4859
  655MPD2    H2 9752   0.603   0.887  15.954  1.9309 -2.1860 -1.0475
  655MPD2    H3 9753   0.677   0.701  15.816  2.3063  1.2620  1.8151
  655MPD2     N 9754   0.565   0.904  15.428 -0.4896 -0.0113  1.2090
  655MPD2    H5 9755   0.625   0.840  15.377 -1.2259  2.3437 -2.6304
  655MPD2    N1 9756   0.512   1.122  15.867 -0.0945 -0.2674 -0.3211
  655MPD2    H7 9757   0.463   1.197  15.819  0.5340  0.5711  0.3327
  656TMC3    C1 9758   0.514   1.291  16.017 -0.0495 -0.0454  0.1042
  656TMC3    C2 9759   0.460   1.315  16.139  0.3339 -0.7120 -0.7257
  656TMC3    C3 9760   0.367   1.419  16.140  0.0054  0.6088  0.2426
  656TMC3    C4 9761   0.484   1.367  15.912  0.3296  0.1241  0.5126
  656TMC3    C5 9762   0.384   1.466  15.912 -0.5513  0.0636 -0.3377
  656TMC3    C6 9763   0.320   1.486  16.029  0.0936  0.2022  0.5869
  656TMC3     C 9764   0.541   1.156  16.001  0.0588 -0.1259 -0.5768
  656TMC3     O 9765   0.581   1.083  16.093 -0.5558  0.3337 -0.4592
  656TMC3     H 9766   0.488   1.257  16.226 -2.2719  1.1417  1.3788
  656TMC3    H1 9767   0.545   1.366  15.822 -1.8581 -2.7711 -0.9480
  656TMC3    H2 9768   0.254   1.570  16.048 -1.0681 -0.7535  0.6973
  656TMC3    C7 9769   0.306   1.463  15.790  0.2825 -0.2559  0.1070
  656TMC3    C8 9770   0.289   1.424  16.267  0.1510  0.3455  0.1557
  656TMC3    O1 9771   0.353   1.394  15.699 -0.4262  0.3512  0.1599
  656TMC3    O2 9772   0.352   1.420  16.369  0.9401 -0.3767  0.1259
  657TMC3    C1 9773   4.226   0.691  14.691 -0.1631 -0.0146  0.0265
  657TMC3    C2 9774   4.268   0.709  14.820  0.4178 -1.1406 -0.1264
  657TMC3    C3 9775   4.202   0.805  14.895 -0.1745 -0.2100 -0.9352
  657TMC3    C4 9776   4.125   0.769  14.639  0.1721  1.0045 -0.1176
  657TMC3    C5 9777   4.061   0.858  14.720  0.4471 -0.0739 -0.3240
  657TMC3    C6 9778   4.106   0.887  14.849  0.2149 -0.0189  1.0789
  657TMC3     C 9779   4.330   0.633  14.606 -0.2391  0.3111  0.0907
  657TMC3     O 9780   4.329   0.659  14.486  0.0050  0.0939  0.8378
  657TMC3     H 9781   4.343   0.647  14.868  1.8163  2.1824  2.0599
  657TMC3    H1 9782   4.101   0.747  14.535  1.3790 -1.1232  0.0449
  657TMC3    H2 9783   4.038   0.940  14.915  0.3726  1.8377 -0.2566
  657TMC3    C7 9784   3.993   0.971  14.666  0.2373  0.0690  0.8718
  657TMC3    C8 9785   4.250   0.829  15.033  0.2422 -0.4705  0.3771
  657TMC3    O1 9786   3.977   1.068  14.735 -0.3834  0.5254 -0.2530
  657TMC3    O2 9787   4.243   0.946  15.071  0.2407  0.0042 -0.0527
  658MPD2     C 9788   1.091   0.798  15.139 -0.6421 -0.8978 -0.1993
  658MPD2    C1 9789   1.012   0.860  15.042 -0.1187  0.1653  0.7521
  658MPD2    C2 9790   1.078   0.913  14.935 -0.5361  0.0855  0.2357
  658MPD2    C3 9791   1.215   0.887  14.908 -0.0368 -0.1301  0.5257
  658MPD2    C4 9792   1.295   0.818  15.002 -0.5074 -0.3630  0.5340
  658MPD2    C5 9793   1.226   0.773  15.118  0.1555  0.7480  0.0042
  658MPD2     H 9794   1.020   0.984  14.877  0.3699  2.7416  2.6055
  658MPD2    H1 9795   1.400   0.798  14.989 -1.2155 -2.8547 -1.3467
  658MPD2    H2 9796   1.050   0.769  15.235  1.2087 -0.8356  0.6111
  658MPD2    H3 9797   1.284   0.719  15.191 -0.1039  1.5581  0.8120
  658MPD2     N 9798   1.262   0.929  14.780  0.8213  0.5886  0.2258
  658MPD2    H5 9799   1.197   0.979  14.720  0.3406 -0.6704 -0.2909
  658MPD2    N1 9800   0.874   0.885  15.073  0.2847 -0.0812 -0.5415
  658MPD2    H7 9801   0.838   0.861  15.165  0.7258  0.1463 -0.3070
  659TMC3    C1 9802   0.643   0.913  15.036  0.0483  0.6160  0.5070
  659TMC3    C2 9803   0.631   0.925  15.169 -0.0876  0.6241  0.5482
  659TMC3    C3 9804   0.507   0.968  15.214  0.7611  0.3514  0.1357
  659TMC3    C4 9805   0.538   0.928  14.951 -0.1252  0.0677 -0.0536
  659TMC3    C5 9806   0.415   0.974  14.997 -0.3399 -0.2113  0.1264
  659TMC3    C6 9807   0.396   0.984  15.133 -0.6305 -0.2640  0.4706
  659TMC3     C 9808   0.777   0.920  14.976  0.4966  0.1482 -0.5258
  659TMC3     O 9809   0.790   0.938  14.855 -0.1360  0.5189 -0.1155
  659TMC3     H 9810   0.717   0.934  15.234 -0.1387 -1.5515  0.9070
  659TMC3    H1 9811   0.561   0.948  14.847  2.6859 -2.0493  0.1698
  659TMC3    H2 9812   0.298   0.985  15.179 -0.9688  3.2218 -0.3434
  659TMC3    C7 9813   0.292   0.966  14.919  0.0283 -0.7251  0.0922
  659TMC3    C8 9814   0.496   0.994  15.355 -0.7952  0.5661  0.1372
  659TMC3    O1 9815   0.185   0.985  14.972  0.5672 -0.1288 -0.0173
  659TMC3    O2 9816   0.408   1.071  15.390  0.0054  0.1022  0.6774
  660MPD2     C 9817   4.344   4.597  12.341 -0.0130 -0.1458 -0.2143
  660MPD2    C1 9818   4.221   4.659  12.358 -0.7297 -1.3225  0.5849
  660MPD2    C2 9819   4.140   4.622  12.470 -0.0019 -0.1315  1.0007
  660MPD2    C3 9820   4.193   4.545  12.571  0.5387 -0.3165 -0.4125
  660MPD2    C4 9821   4.323   4.502  12.553 -0.1335  0.7959 -0.4877
  660MPD2    C5 9822   4.398   4.522  12.444  0.3803  0.1116 -0.2221
  660MPD2     H 9823   4.037   4.655  12.476 -0.4476 -1.6242  1.4906
  660MPD2    H1 9824   4.374   4.438  12.625  0.1600  2.8755  1.1487
  660MPD2    H2 9825   4.403   4.613  12.251 -1.7494 -0.4964 -1.4069
  660MPD2    H3 9826   4.496   4.477  12.444 -0.2985 -1.3535 -1.7990
  660MPD2     N 9827   4.116   4.483  12.677 -0.2084 -0.1648  0.6319
  660MPD2    H5 9828   4.171   4.409  12.720 -2.6605 -1.3381  1.7254
  660MPD2    N1 9829   4.149   4.690  12.237  0.2325  0.1469 -0.4259
  660MPD2    H7 9830   4.201   4.668  12.152 -1.1774  1.2040 -1.5534
  661TMC3    C1 9831   3.958   0.025  12.113  0.1973 -0.1245 -0.4626
  661TMC3    C2 9832   3.999   4.681  12.014  0.2074  0.5325  0.3134
  661TMC3    C3 9833   3.908   4.626  11.935  0.3714 -0.1491  0.3835
  661TMC3    C4 9834   3.822   0.045  12.141 -0.0619  0.6513 -0.3204
  661TMC3    C5 9835   3.732   4.708  12.058  0.9909 -0.5215 -0.6028
  661TMC3    C6 9836   3.771   4.629  11.955 -0.0683 -0.1997 -0.0914
  661TMC3     C 9837   4.036   0.028  12.236 -1.0072  0.1978 -0.0851
  661TMC3     O 9838   3.984   0.090  12.326 -0.2027 -0.4972  0.7089
  661TMC3     H 9839   4.106   4.686  11.992  0.3497  3.1107  1.6256
  661TMC3    H1 9840   3.793   0.099  12.231  2.0855  0.3712  0.5435
  661TMC3    H2 9841   3.697   4.595  11.884 -0.2464 -0.5039  0.2422
  661TMC3    C7 9842   3.604   0.030  12.050  0.4124  0.0176  0.1047
  661TMC3    C8 9843   3.941   4.576  11.798  0.3342  0.2921 -0.6780
  661TMC3    O1 9844   3.594   0.134  12.108 -0.8030  0.6280 -0.1412
  661TMC3    O2 9845   3.846   4.542  11.726 -0.3794 -0.1118  0.7129
  662MPD2     C 9846   4.104   4.342  17.224  0.2617  0.1834 -0.3380
  662MPD2    C1 9847   4.040   4.435  17.149 -0.1395  0.0483 -0.0576
  662MPD2    C2 9848   3.955   4.530  17.206 -0.0102  0.5047 -0.1379
  662MPD2    C3 9849   3.916   4.513  17.338  0.2170  0.4947 -0.2939
  662MPD2    C4 9850   3.971   4.413  17.409  0.2704 -0.6438  0.4930
  662MPD2    C5 9851   4.067   4.327  17.355  0.2353  0.0595  0.2710
  662MPD2     H 9852   3.917   4.605  17.137 -1.8971  0.5523  0.9544
  662MPD2    H1 9853   3.946   4.390  17.512  0.5282 -0.8427  0.5104
  662MPD2    H2 9854   4.184   4.278  17.188  1.5353  1.6160 -0.0838
  662MPD2    H3 9855   4.116   4.261  17.426 -0.4181  0.8174  1.4339
  662MPD2     N 9856   3.807   4.586  17.388 -0.1143 -0.3846  0.3711
  662MPD2    H5 9857   3.749   4.551  17.464 -2.0161  1.7438 -0.1103
  662MPD2    N1 9858   4.059   4.430  17.011  0.5769  0.3141 -0.2460
  662MPD2    H7 9859   4.006   4.498  16.957  0.5354 -0.9133 -1.7488
  663TMC3    C1 9860   4.047   4.301  16.816  0.6789 -0.1086 -0.1836
  663TMC3    C2 9861   3.912   4.314  16.823 -0.2573 -0.0772 -0.0625
  663TMC3    C3 9862   3.836   4.218  16.763  0.2398 -0.1631 -0.7721
  663TMC3    C4 9863   4.103   4.205  16.741 -0.3742  0.3714 -0.2605
  663TMC3    C5 9864   4.026   4.102  16.699 -0.1707  0.2899 -0.6274
  663TMC3    C6 9865   3.890   4.107  16.710  0.3492  0.8623 -0.1591
  663TMC3     C 9866   4.117   4.329  16.939 -0.2894  0.2418 -0.6401
  663TMC3     O 9867   4.208   4.250  16.970 -0.1679 -0.6691 -0.3015
  663TMC3     H 9868   3.865   4.382  16.892  0.6183  1.4243 -0.9410
  663TMC3    H1 9869   4.210   4.192  16.744 -0.4261 -0.4459 -1.9834
  663TMC3    H2 9870   3.822   4.051  16.647 -2.3025  0.5424  2.9867
  663TMC3    C7 9871   4.088   3.971  16.683 -0.3650 -0.0897  0.3926
  663TMC3    C8 9872   3.729   4.186  16.860 -0.0227  0.1691 -0.0031
  663TMC3    O1 9873   4.207   3.960  16.655 -0.8343 -0.3262 -0.5792
  663TMC3    O2 9874   3.756   4.202  16.981  0.2815  0.0853 -0.0121
  664MPD2     C 9875   1.726   2.186  17.150 -0.0372  0.5002 -0.5259
  664MPD2    C1 9876   1.752   2.303  17.216  0.0517 -0.1053  0.2856
  664MPD2    C2 9877   1.682   2.323  17.332  0.0252  0.5691  0.3803
  664MPD2    C3 9878   1.586   2.235  17.387  0.7317  0.1140 -0.0453
  664MPD2    C4 9879   1.581   2.108  17.329  0.9777 -0.4675 -0.2763
  664MPD2    C5 9880   1.646   2.084  17.204 -0.8803  0.2430 -0.1174
  664MPD2     H 9881   1.696   2.418  17.382 -0.6018  0.2592  1.1622
  664MPD2    H1 9882   1.518   2.031  17.372  1.8362 -3.0294 -3.6020
  664MPD2    H2 9883   1.783   2.159  17.062 -0.4533 -0.1324 -0.6026
  664MPD2    H3 9884   1.637   1.991  17.149 -0.7223 -1.1603  2.1999
  664MPD2     N 9885   1.523   2.275  17.506  0.2355  0.1946 -0.0161
  664MPD2    H5 9886   1.537   2.371  17.536 -1.6062  0.3338  0.3858
  664MPD2    N1 9887   1.854   2.392  17.176  0.0640 -0.0554 -0.1013
  664MPD2    H7 9888   1.876   2.464  17.244 -1.0304  0.9129 -0.7667
  665TMC3    C1 9889   1.395   2.252  17.704 -0.2197 -0.2213  0.4420
  665TMC3    C2 9890   1.397   2.173   0.074  0.1633  0.3874  0.2104
  665TMC3    C3 9891   1.375   2.232   0.192  0.7352  0.7466 -0.0479
  665TMC3    C4 9892   1.360   2.386  17.693 -0.8225  0.2867  0.5799
  665TMC3    C5 9893   1.325   2.443   0.067 -0.1869  0.3149  0.7243
  665TMC3    C6 9894   1.346   2.370   0.185  0.0832 -0.5377  0.6611
  665TMC3     C 9895   1.450   2.189  17.587 -0.0062  0.2966  1.2410
  665TMC3     O 9896   1.455   2.068  17.590  0.4950 -0.9057 -0.1302
  665TMC3     H 9897   1.434   2.071   0.067 -1.2048  0.0306 -1.8501
  665TMC3    H1 9898   1.357   2.441  17.600 -1.2429  0.1324  0.5024
  665TMC3    H2 9899   1.315   2.416   0.278  2.0177  0.6530  0.7262
  665TMC3    C7 9900   1.322   2.589   0.083  1.0104 -0.3164 -0.3502
  665TMC3    C8 9901   1.429   2.163   0.305  0.4563  0.3203 -0.3312
  665TMC3    O1 9902   1.267   2.653  17.741 -0.3487 -0.1660  0.2298
  665TMC3    O2 9903   1.503   2.228   0.381  0.4839  0.0624 -0.5411
  666TMC3    C1 9904   1.654   1.964   9.902 -0.0584 -0.5210  0.2853
  666TMC3    C2 9905   1.724   1.913  10.006 -0.0660 -0.2923  0.2501
  666TMC3    C3 9906   1.787   2.001  10.091  0.3382 -0.5053  0.6318
  666TMC3    C4 9907   1.649   2.101   9.884  0.1568 -0.0056  0.0686
  666TMC3    C5 9908   1.690   2.180   9.986  0.0931 -0.7001 -0.6918
  666TMC3    C6 9909   1.764   2.130  10.090  0.2027  0.0368  0.4563
  666TMC3     C 9910   1.541   1.895   9.847 -0.4775  0.0737  0.1445
  666TMC3     O 9911   1.498   1.929   9.736  0.8104  0.3028 -0.2923
  666TMC3     H 9912   1.730   1.805  10.013 -1.2998 -0.3143  1.1005
  666TMC3    H1 9913   1.591   2.133   9.798  2.0803 -0.2245 -1.2893
  666TMC3    H2 9914   1.770   2.195  10.176 -1.8506  0.6019  0.1718
  666TMC3    C7 9915   1.617   2.309  10.006 -0.2228 -0.3537 -0.5088
  666TMC3    C8 9916   1.826   1.940  10.216 -0.1680  0.2575  0.0564
  666TMC3    O1 9917   1.622   2.358  10.116 -1.4175  0.3612  0.1964
  666TMC3    O2 9918   1.773   1.836  10.247  0.2894 -0.4083  0.2319
  667MPD2     C 9919   3.096   2.179  14.554 -0.2511  0.2032 -0.5477
  667MPD2    C1 9920   3.024   2.222  14.668  0.3000  0.1559 -1.0470
  667MPD2    C2 9921   2.948   2.133  14.737  0.2340  0.2850 -0.2085
  667MPD2    C3 9922   2.933   2.003  14.694 -0.5549 -0.0319  0.7283
  667MPD2    C4 9923   2.999   1.962  14.581 -0.0864 -0.6225  0.3882
  667MPD2    C5 9924   3.091   2.047  14.520 -0.1252  0.4106  0.0574
  667MPD2     H 9925   2.887   2.172  14.818 -0.2798  3.8305 -2.3168
  667MPD2    H1 9926   2.996   1.862  14.538 -0.6522 -0.1007 -0.8011
  667MPD2    H2 9927   3.170   2.236  14.498 -0.8202  1.2201 -0.2606
  667MPD2    H3 9928   3.148   2.017  14.433 -1.3148 -0.2737 -0.4786
  667MPD2     N 9929   2.843   1.909  14.760  0.5752 -0.6842 -0.4744
  667MPD2    H5 9930   2.825   1.821  14.712  0.6305  0.6172 -2.8687
  667MPD2    N1 9931   3.040   2.350  14.722 -0.2641  0.4553 -0.5217
  667MPD2    H7 9932   3.004   2.352  14.817 -0.9042  0.1375 -0.7577
  668TMC3    C1 9933   3.036   2.567  14.740 -0.7808 -0.2713 -0.1153
  668TMC3    C2 9934   3.094   2.689  14.729 -0.4988 -0.1362 -0.1812
  668TMC3    C3 9935   3.043   2.784  14.821 -0.3415 -0.4328  0.6230
  668TMC3    C4 9936   2.929   2.542  14.817  0.2057 -0.1438  0.4007
  668TMC3    C5 9937   2.875   2.647  14.887 -0.4572 -0.6330  0.8600
  668TMC3    C6 9938   2.937   2.768  14.901  0.0537 -0.3160 -0.1037
  668TMC3     C 9939   3.074   2.462  14.654 -0.8325  0.1013  0.6028
  668TMC3     O 9940   3.119   2.483  14.540  0.2609  0.2286 -0.3445
  668TMC3     H 9941   3.175   2.712  14.662 -0.3308  1.2766  0.5177
  668TMC3    H1 9942   2.849   2.470  14.804 -0.3385 -0.0063  3.0147
  668TMC3    H2 9943   2.910   2.844  14.973 -2.1297 -0.1890 -1.0596
  668TMC3    C7 9944   2.749   2.628  14.959 -0.5054 -0.3313  0.1217
  668TMC3    C8 9945   3.094   2.918  14.822 -0.6561  0.1461 -0.3433
  668TMC3    O1 9946   2.700   2.737  14.992  0.1884  0.0584 -0.4141
  668TMC3    O2 9947   3.098   2.986  14.925 -0.4354  0.8176  0.2222
  669TMC3    C1 9948   0.478   2.559  14.841  0.3638  0.0337  0.6490
  669TMC3    C2 9949   0.392   2.667  14.825 -0.3117 -0.0544 -0.3945
  669TMC3    C3 9950   0.431   2.771  14.754  0.4755 -0.0334  0.0624
  669TMC3    C4 9951   0.601   2.565  14.776  0.0715 -0.4307 -0.2016
  669TMC3    C5 9952   0.631   2.676  14.698 -0.0207 -0.3868 -0.1746
  669TMC3    C6 9953   0.548   2.781  14.689  0.2490 -0.4717  0.0661
  669TMC3     C 9954   0.426   2.436  14.899 -0.8085  0.5063  0.3761
  669TMC3     O 9955   0.344   2.453  14.993 -0.0903  0.4304  0.2354
  669TMC3     H 9956   0.298   2.663  14.879  0.1885 -1.1242  0.4035
  669TMC3    H1 9957   0.667   2.479  14.777  1.5634  0.7226  0.7135
  669TMC3    H2 9958   0.576   2.866  14.627  0.4787  0.1086  0.9637
  669TMC3    C7 9959   0.758   2.690  14.633 -0.0363  0.6100  0.2681
  669TMC3    C8 9960   0.320   2.851  14.710 -0.2977  0.0597 -0.1186
  669TMC3    O1 9961   0.758   2.774  14.540 -0.3735 -0.0323  0.4761
  669TMC3    O2 9962   0.207   2.797  14.727  0.0438  0.3916  0.0928
  670MPD2     C 9963   3.873   0.238  13.166 -0.6433  0.4587 -0.3496
  670MPD2    C1 9964   3.951   0.187  13.268  0.1068  0.4541  0.1760
  670MPD2    C2 9965   3.885   0.129  13.372  0.0816  0.5646  0.4235
  670MPD2    C3 9966   3.746   0.125  13.394  1.3128 -0.4162  0.1860
  670MPD2    C4 9967   3.673   0.196  13.303 -0.3398 -0.3864 -0.4861
  670MPD2    C5 9968   3.734   0.243  13.187 -0.8065  0.8367  0.3444
  670MPD2     H 9969   3.939   0.061  13.436  0.4040 -0.6143 -1.1001
  670MPD2    H1 9970   3.565   0.206  13.312 -0.1561  0.2071  1.0914
  670MPD2    H2 9971   3.918   0.278  13.076 -1.1520  3.0271  0.5415
  670MPD2    H3 9972   3.669   0.277  13.108 -0.0208 -0.1872 -0.7524
  670MPD2     N 9973   3.694   0.065  13.512  0.1997 -0.2024 -0.0148
  670MPD2    H5 9974   3.753   0.022  13.583 -1.1060 -0.9641  0.6003
  670MPD2    N1 9975   4.095   0.179  13.274 -0.4903  0.0198 -0.4680
  670MPD2    H7 9976   4.129   0.129  13.356 -1.2328 -0.6390 -0.5664
  671TMC3    C1 9977   3.540   4.727  13.659  0.1567 -1.1379  0.4934
  671TMC3    C2 9978   3.618   0.024  13.772 -0.5963 -0.3320  0.1596
  671TMC3    C3 9979   3.586   4.718  13.894 -0.3217  0.4811 -0.4061
  671TMC3    C4 9980   3.428   4.652  13.676 -0.7964  0.1693 -0.0770
  671TMC3    C5 9981   3.395   4.605  13.801  0.3061 -0.5206  0.0503
  671TMC3    C6 9982   3.471   4.632  13.918  0.3946 -0.1174 -0.3005
  671TMC3     C 9983   3.563   0.038  13.523  0.5269  0.3165 -0.1089
  671TMC3     O 9984   3.463   0.046  13.447 -0.3325  0.2085 -0.2431
  671TMC3     H 9985   3.712   0.076  13.762 -1.3523  1.0600  0.2817
  671TMC3    H1 9986   3.363   4.639  13.591  0.8176  0.1351 -1.3119
  671TMC3    H2 9987   3.441   4.582  14.009  1.0606 -0.5712 -0.3283
  671TMC3    C7 9988   3.291   4.504  13.809  0.3693  0.6697 -0.0862
  671TMC3    C8 9989   3.711   4.694  13.967 -0.2345 -0.0112  0.6094
  671TMC3    O1 9990   3.236   4.488  13.917 -0.4682 -0.1130  0.2598
  671TMC3    O2 9991   3.780   0.057  13.990  0.6714  0.7243  0.1953
  672MPD2     C 9992   4.220   0.880   0.695 -0.5550 -0.0351 -0.5983
  672MPD2    C1 9993   4.293   0.777   0.632 -0.4534  0.3906 -0.0510
  672MPD2    C2 9994   4.433   0.778   0.645 -0.1795  0.3742 -0.1928
  672MPD2    C3 9995   4.500   0.875   0.715  0.2607  0.6546  0.6387
  672MPD2    C4 9996   4.428   0.981   0.765  0.3446 -0.3368 -0.2894
  672MPD2    C5 9997   4.290   0.975   0.753 -0.5671  0.2150 -0.3553
  672MPD2     H 9998   4.488   0.693   0.607  0.1049  0.2994  0.3870
  672MPD2    H1 9999   4.472   1.064   0.818  0.2977 -1.0339  0.8410
  672MPD2    H210000   4.111   0.879   0.700 -0.4801 -1.1645  0.7816
  672MPD2    H310001   4.230   1.048   0.807  0.5159  0.4448  0.5196
  672MPD2     N10002   4.636   0.882   0.735 -0.2790  0.0897  0.7095
  672MPD2    H510003   4.672   0.956   0.794  0.0670  1.5083 -1.2697
  672MPD2    N110004   4.235   0.670   0.555 -0.0886  0.1079 -0.1903
  672MPD2    H710005   4.294   0.590   0.531 -0.5846  0.7182 -3.4752
  673TMC3    C110006   4.040   0.533   0.467  0.2105  0.0157  0.4615
  673TMC3    C210007   4.123   0.419   0.451  0.0968 -0.3573  0.0747
  673TMC3    C310008   4.051   0.319   0.382  0.1798 -0.1594 -0.7013
  673TMC3    C410009   3.909   0.548   0.427 -0.5356 -1.1715 -0.0968
  673TMC3    C510010   3.855   0.450   0.356 -0.5551 -0.0042  0.9961
  673TMC3    C610011   3.926   0.336   0.333 -0.1021  0.2451 -0.3987
  673TMC3     C10012   4.101   0.658   0.529 -0.2195 -0.5093  0.4986
  673TMC3     O10013   4.020   0.743   0.557  0.0411 -0.2538  0.0348
  673TMC3     H10014   4.216   0.402   0.503 -0.3037 -1.7584  0.3408
  673TMC3    H110015   3.847   0.624   0.472 -1.0282 -2.3230  1.1659
  673TMC3    H210016   3.873   0.258   0.280 -0.2121 -0.1253  0.2538
  673TMC3    C710017   3.733   0.482   0.276  0.6762  0.1214 -0.7257
  673TMC3    C810018   4.135   0.215   0.314  0.1075 -0.0574 -0.5887
  673TMC3    O110019   3.676   0.393   0.214  0.9418  0.2235  0.3582
  673TMC3    O210020   4.083   0.169   0.216  0.1559  0.0408  0.5579
  674MPD2     C10021   3.837   0.978  17.639 -0.2076 -0.6734  1.0328
  674MPD2    C110022   3.755   0.865  17.618  0.2945 -0.6537  0.0178
  674MPD2    C210023   3.633   0.901  17.563  0.4306  0.3533 -0.7486
  674MPD2    C310024   3.587   1.028  17.537 -1.2084  0.0015 -0.5576
  674MPD2    C410025   3.671   1.131  17.567 -0.3894 -0.9115 -0.2866
  674MPD2    C510026   3.792   1.104  17.624 -0.0048  0.2961 -0.0058
  674MPD2     H10027   3.559   0.824  17.548  1.6365 -1.2392  1.6029
  674MPD2    H110028   3.644   1.235  17.556  0.6432 -0.6643 -0.5455
  674MPD2    H210029   3.933   0.959  17.687 -0.9171  0.1564  2.7712
  674MPD2    H310030   3.864   1.184  17.634  1.9792 -1.5035 -0.0302
  674MPD2     N10031   3.461   1.042  17.486 -0.6359  0.1870  0.5553
  674MPD2    H510032   3.414   0.957  17.456  0.2424  0.3631 -1.3292
  674MPD2    N110033   3.807   0.736  17.644 -0.3118 -0.1166  0.9706
  674MPD2    H710034   3.889   0.733  17.703 -0.6501 -0.8981  1.4003
  675TMC3    C110035   3.851   0.506  17.640  0.3756 -0.4058 -0.2942
  675TMC3    C210036   3.794   0.385  17.622 -0.6224 -0.8277 -0.1797
  675TMC3    C310037   3.863   0.275  17.666  0.2719 -0.3988 -0.8008
  675TMC3    C410038   3.981   0.512  17.676  0.5671  0.5361 -0.7261
  675TMC3    C510039   4.052   0.400  17.704 -0.8409 -0.3588  0.4051
  675TMC3    C610040   3.987   0.281  17.710 -0.1439 -0.4106 -0.0518
  675TMC3     C10041   3.775   0.618  17.585 -0.6766 -0.5319 -0.5560
  675TMC3     O10042   3.675   0.600  17.515  0.2129  0.1261 -0.6420
  675TMC3     H10043   3.696   0.369  17.577 -0.5676 -1.8568  0.0481
  675TMC3    H110044   4.037   0.604  17.667 -0.0724  0.7412 -2.8524
  675TMC3    H210045   4.030   0.186  17.741  0.0896 -0.7025 -1.2592
  675TMC3    C710046   4.191   0.414   0.004 -0.5601  0.4018 -1.0990
  675TMC3    C810047   3.789   0.151  17.687 -0.3969 -0.4182  0.4489
  675TMC3    O110048   4.266   0.320  17.727  0.8449  0.0171  0.1593
  675TMC3    O210049   3.687   0.140  17.621 -0.0522  0.0787  0.3662
  676MPD2     C10050   2.214   3.188  10.974 -0.6948  0.0306  0.9101
  676MPD2    C110051   2.174   3.115  11.076 -0.1615  0.3071  0.3057
  676MPD2    C210052   2.142   2.985  11.059 -0.3558  0.3278 -0.0820
  676MPD2    C310053   2.168   2.923  10.934  0.0408  0.6449 -0.3993
  676MPD2    C410054   2.211   2.996  10.829 -0.1401 -0.2571 -0.3488
  676MPD2    C510055   2.244   3.132  10.854 -0.2791 -0.2691  0.1773
  676MPD2     H10056   2.107   2.944  11.153 -0.5556 -0.2735 -0.4192
  676MPD2    H110057   2.231   2.940  10.738  2.7040  1.3519 -0.7057
  676MPD2    H210058   2.221   3.296  10.982  1.1603  0.1154 -2.0003
  676MPD2    H310059   2.298   3.194  10.783 -1.7620 -0.1734 -0.8611
  676MPD2     N10060   2.162   2.780  10.922 -0.5446 -0.6564  0.3326
  676MPD2    H510061   2.186   2.742  10.831  0.4162  4.0694 -1.4154
  676MPD2    N110062   2.143   3.172  11.203  0.1903 -0.2971 -0.5776
  676MPD2    H710063   2.108   3.103  11.269  1.1855  0.0643  0.3466
  677TMC3    C110064   2.106   3.326  11.383 -0.1204  0.3719 -0.3740
  677TMC3    C210065   2.101   3.227  11.473  0.3737  0.2429  0.2227
  677TMC3    C310066   2.099   3.273  11.601  0.9132 -0.6897  0.3578
  677TMC3    C410067   2.107   3.459  11.415 -0.2128 -0.1340 -0.1083
  677TMC3    C510068   2.133   3.499  11.548  0.1244 -0.1394 -0.6432
  677TMC3    C610069   2.118   3.400  11.639  0.0176 -0.5103 -0.1116
  677TMC3     C10070   2.154   3.302  11.242 -0.2432 -0.0689 -0.0080
  677TMC3     O10071   2.207   3.400  11.189 -0.0320  0.3276  0.1057
  677TMC3     H10072   2.090   3.123  11.443 -1.1959  0.4762 -0.0173
  677TMC3    H110073   2.098   3.535  11.339 -1.0685  1.0640  1.1774
  677TMC3    H210074   2.125   3.421  11.745  0.4042  1.3218 -0.4980
  677TMC3    C710075   2.233   3.603  11.574 -0.6698  0.2839  0.7222
  677TMC3    C810076   2.161   3.186  11.693 -0.6507  0.0404  1.1652
  677TMC3    O110077   2.280   3.623  11.685  0.3694  0.1570 -0.3525
  677TMC3    O210078   2.275   3.153  11.667 -0.6979  0.3912  0.4311
  678MPD2     C10079   2.910   3.610   0.990 -0.0025  0.2253 -0.2246
  678MPD2    C110080   2.934   3.502   0.909 -0.0854  0.2446  0.0400
  678MPD2    C210081   2.831   3.407   0.890 -0.5894 -0.2241 -0.5947
  678MPD2    C310082   2.704   3.428   0.941 -0.2784  0.0129 -0.2997
  678MPD2    C410083   2.677   3.536   1.014  0.4256  1.0010 -0.2107
  678MPD2    C510084   2.779   3.632   1.033 -0.5589  0.3022 -1.1691
  678MPD2     H10085   2.849   3.319   0.830 -0.9541 -1.7412  1.5132
  678MPD2    H110086   2.582   3.565   1.056  1.1802  1.4957  1.1698
  678MPD2    H210087   2.983   3.683   1.024 -2.1159  1.7745  0.9508
  678MPD2    H310088   2.758   3.701   1.114  1.1366  0.3166 -0.7353
  678MPD2     N10089   2.604   3.325   0.911  0.4643  0.1426 -0.6777
  678MPD2    H510090   2.632   3.261   0.837 -1.4116 -0.0758 -1.2046
  678MPD2    N110091   3.057   3.480   0.840 -0.1293 -0.6108  0.1495
  678MPD2    H710092   3.060   3.390   0.794  1.7670 -0.2712 -0.3734
  679TMC3    C110093   3.364   3.372   0.609  0.2644  0.2547 -0.4457
  679TMC3    C210094   3.280   3.403   0.716  0.9836 -0.1151  0.0135
  679TMC3    C310095   3.255   3.541   0.731  0.5770  0.4765 -0.6699
  679TMC3    C410096   3.430   3.472   0.536 -0.3535  0.2128 -0.4671
  679TMC3    C510097   3.407   3.600   0.561  0.1290  0.0296 -0.7500
  679TMC3    C610098   3.316   3.635   0.653 -0.4076  0.9687 -0.4696
  679TMC3     C10099   3.416   3.240   0.592  0.3214  0.3767 -0.0722
  679TMC3     O10100   3.529   3.229   0.541 -0.5137 -0.7030 -0.3570
  679TMC3     H10101   3.251   3.330   0.790  2.1340 -1.7212 -1.1194
  679TMC3    H110102   3.476   3.444   0.442 -0.9438  0.0838 -0.7210
  679TMC3    H210103   3.283   3.737   0.668 -0.9391  0.4559  1.7458
  679TMC3    C710104   3.452   3.703   0.474  0.2479  0.1683  0.2169
  679TMC3    C810105   3.148   3.579   0.819 -0.1870  0.2224 -0.0031
  679TMC3    O110106   3.388   3.802   0.456 -0.2100  0.3028  0.4906
  679TMC3    O210107   3.136   3.694   0.843 -0.8586 -0.4105 -0.1107
  680MPD2     C10108   3.670   1.432  13.443 -0.4315 -0.4510 -0.0332
  680MPD2    C110109   3.761   1.486  13.354  0.3453  0.3784 -0.4098
  680MPD2    C210110   3.850   1.579  13.410 -0.4381 -0.2899  0.1602
  680MPD2    C310111   3.857   1.588  13.552 -0.6821 -0.1377  0.1886
  680MPD2    C410112   3.763   1.523  13.631  0.5186  0.5718 -0.2180
  680MPD2    C510113   3.670   1.449  13.577 -0.7460 -0.5252 -0.1390
  680MPD2     H10114   3.924   1.632  13.351 -0.8892 -0.5082 -0.5946
  680MPD2    H110115   3.775   1.519  13.739 -1.0895  1.7460 -0.0091
  680MPD2    H210116   3.594   1.363  13.407 -1.0885  0.9223 -1.3157
  680MPD2    H310117   3.591   1.408  13.640  0.7274 -0.0268  2.0485
  680MPD2     N10118   3.955   1.659  13.625 -0.1562 -0.3117 -0.2378
  680MPD2    H510119   3.946   1.664  13.726  1.6251 -1.5264 -0.0245
  680MPD2    N110120   3.768   1.470  13.214  0.4875 -0.1694  0.2417
  680MPD2    H710121   3.850   1.505  13.165  0.9426 -1.9264 -0.2387
  681TMC3    C110122   3.693   1.364  13.014 -0.9644 -0.6881  0.3330
  681TMC3    C210123   3.582   1.291  12.983  0.3808  0.1637 -0.0694
  681TMC3    C310124   3.609   1.157  12.955  0.0218 -0.4335 -0.1451
  681TMC3    C410125   3.819   1.316  12.993 -0.1921 -0.2492 -0.3701
  681TMC3    C510126   3.837   1.190  12.946 -0.3812 -0.0702  0.5704
  681TMC3    C610127   3.730   1.104  12.943 -0.0101  0.0571 -0.2332
  681TMC3     C10128   3.662   1.425  13.139  0.1062 -0.2887 -0.0450
  681TMC3     O10129   3.547   1.395  13.184 -0.4981  0.9306 -0.1392
  681TMC3     H10130   3.482   1.332  12.981  1.4105  2.7439  0.3145
  681TMC3    H110131   3.899   1.387  13.013 -1.1363  0.6108  0.3074
  681TMC3    H210132   3.740   0.999  12.920 -1.5868 -0.2445  0.4514
  681TMC3    C710133   3.973   1.151  12.899 -0.3239 -0.3620  0.3903
  681TMC3    C810134   3.520   1.073  13.025  0.3854  0.3142  0.3544
  681TMC3    O110135   4.003   1.033  12.881  1.0841 -0.2602  1.0911
  681TMC3    O210136   3.543   0.953  13.015  0.1629  0.2872 -0.0496
  682MPD2     C10137   0.865   3.280  10.468 -0.7079  1.1500  0.3427
  682MPD2    C110138   0.798   3.176  10.526 -0.0383 -0.3713 -0.0047
  682MPD2    C210139   0.742   3.187  10.652  0.6123  0.4988  0.8439
  682MPD2    C310140   0.731   3.316  10.712  0.5131 -1.1991 -0.7464
  682MPD2    C410141   0.801   3.418  10.652 -0.6803 -0.2193 -0.1177
  682MPD2    C510142   0.861   3.402  10.535  0.7616  0.1765 -0.5108
  682MPD2     H10143   0.697   3.101  10.700  3.3088 -0.6039  1.3997
  682MPD2    H110144   0.798   3.519  10.692 -1.3490 -0.4382  0.3967
  682MPD2    H210145   0.914   3.278  10.372  1.5876 -0.9027  1.5478
  682MPD2    H310146   0.923   3.482  10.496  0.3540 -0.6762 -2.8847
  682MPD2     N10147   0.672   3.340  10.838 -0.1687 -0.0172  0.8898
  682MPD2    H510148   0.693   3.422  10.894 -0.5654  1.1821 -0.7327
  682MPD2    N110149   0.796   3.042  10.472  0.1917  0.1252  0.7139
  682MPD2    H710150   0.763   2.969  10.534  0.2036  0.7854  1.4913
  683TMC3    C110151   0.687   3.279  11.245 -0.3916  0.5048  0.3207
  683TMC3    C210152   0.579   3.231  11.309 -0.0227  0.0284 -0.6054
  683TMC3    C310153   0.468   3.211  11.233  0.6772 -0.0209  0.3225
  683TMC3    C410154   0.694   3.296  11.108  0.1615  0.2280  0.0590
  683TMC3    C510155   0.576   3.280  11.037 -0.4426  0.3964  0.2385
  683TMC3    C610156   0.466   3.235  11.096 -0.3861  0.8023 -0.3006
  683TMC3     C10157   0.817   3.307  11.320 -0.0265 -0.3404 -0.3284
  683TMC3     O10158   0.813   3.295  11.441  0.0358 -0.7299  0.0271
  683TMC3     H10159   0.575   3.223  11.417  2.1117 -0.7344 -0.5905
  683TMC3    H110160   0.789   3.317  11.060  0.3434  2.6817  1.4602
  683TMC3    H210161   0.376   3.222  11.037  0.2432  0.9042 -1.2965
  683TMC3    C710162   0.592   3.246  10.899 -0.2848  0.0796  0.4990
  683TMC3    C810163   0.352   3.156  11.294 -0.7063  0.5138  0.0266
  683TMC3    O110164   0.541   3.144  10.857  0.1978  0.4634 -0.4374
  683TMC3    O210165   0.250   3.185  11.236 -0.1464 -0.1031  0.0999
  684MPD2     C10166   3.906   2.756  15.925  0.2043 -0.0653  0.4006
  684MPD2    C110167   3.865   2.866  15.852  0.4487 -0.4243 -0.0904
  684MPD2    C210168   3.843   2.990  15.915  0.4071  0.4055  0.1165
  684MPD2    C310169   3.905   3.013  16.037  0.6182  0.3590 -0.4977
  684MPD2    C410170   3.959   2.905  16.109  0.3293 -0.6102  0.6805
  684MPD2    C510171   3.940   2.779  16.061 -0.3354 -0.5560  0.1846
  684MPD2     H10172   3.814   3.079  15.860  0.8616 -1.1510 -2.6242
  684MPD2    H110173   4.012   2.927  16.201  1.9323 -0.5193 -0.2705
  684MPD2    H210174   3.904   2.657  15.882 -1.0597  0.2039 -0.1755
  684MPD2    H310175   3.976   2.697  16.123 -2.7619 -0.2124  2.0452
  684MPD2     N10176   3.931   3.141  16.077  0.1192 -0.2395 -0.2310
  684MPD2    H510177   3.982   3.149  16.165  1.5700 -0.5720 -1.0437
  684MPD2    N110178   3.844   2.860  15.710 -0.2380 -0.0160 -0.0011
  684MPD2    H710179   3.786   2.933  15.670 -1.9953 -0.6818  1.3254
  685TMC3    C110180   3.913   2.822  15.491  0.0986 -0.1500  0.7329
  685TMC3    C210181   3.804   2.884  15.450  0.1431 -0.1414  0.4369
  685TMC3    C310182   3.822   2.997  15.371  0.7192  0.1292 -0.0456
  685TMC3    C410183   4.036   2.852  15.446 -0.2269  0.1391  0.4835
  685TMC3    C510184   4.053   2.963  15.362  0.9677 -0.1306 -0.4843
  685TMC3    C610185   3.946   3.041  15.325 -0.3067 -0.2830 -0.6101
  685TMC3     C10186   3.911   2.774  15.631 -0.4700  0.1596 -0.1543
  685TMC3     O10187   4.010   2.706  15.658  0.1925  0.4090  0.6976
  685TMC3     H10188   3.704   2.860  15.482  0.0098 -1.1687 -0.7657
  685TMC3    H110189   4.124   2.797  15.478 -0.1773 -0.4674 -0.6988
  685TMC3    H210190   3.948   3.137  15.275 -5.0582  0.6552  0.9907
  685TMC3    C710191   4.176   3.037  15.376 -0.7274  0.2637 -0.1574
  685TMC3    C810192   3.714   3.055  15.295 -0.6299 -0.7313  0.4690
  685TMC3    O110193   4.185   3.138  15.302  0.0764  0.2612  0.2049
  685TMC3    O210194   3.741   3.081  15.181  0.0104  0.1935 -0.2596
  686MPD2     C10195   0.589   2.396  15.284 -0.2720  0.2322  0.4925
  686MPD2    C110196   0.596   2.387  15.418  0.6515 -0.5317 -0.1803
  686MPD2    C210197   0.642   2.269  15.470 -0.2323 -0.0591 -0.4436
  686MPD2    C310198   0.656   2.152  15.390  0.3205  0.3293 -0.1672
  686MPD2    C410199   0.653   2.169  15.257 -0.0603 -0.4751  0.9544
  686MPD2    C510200   0.624   2.292  15.199 -0.8596 -0.2906  0.2398
  686MPD2     H10201   0.663   2.268  15.577 -2.4647  1.7988  0.0013
  686MPD2    H110202   0.685   2.094  15.186  0.9198 -0.4709  1.3894
  686MPD2    H210203   0.554   2.490  15.243  0.5529  0.6077  0.6605
  686MPD2    H310204   0.636   2.301  15.092  0.9789  0.3065  0.4950
  686MPD2     N10205   0.689   2.021  15.442  0.4285  0.5320 -1.3311
  686MPD2    H510206   0.698   1.959  15.362 -2.3201  1.2583 -2.2099
  686MPD2    N110207   0.542   2.491  15.498 -0.3874 -0.5324  0.2125
  686MPD2    H710208   0.492   2.567  15.454 -1.9129 -1.2575  0.6750
  687TMC3    C110209   0.603   2.056  15.673  0.1515  0.1670 -0.3168
  687TMC3    C210210   0.482   2.098  15.629  0.6163  0.5714 -0.2791
  687TMC3    C310211   0.396   2.143  15.719  1.2155  0.0437 -0.4939
  687TMC3    C410212   0.649   2.066  15.797 -0.6120  0.0468  0.2256
  687TMC3    C510213   0.562   2.110  15.886 -0.3005 -0.3254  0.4906
  687TMC3    C610214   0.433   2.150  15.848 -0.5605 -0.0135  0.1982
  687TMC3     C10215   0.692   1.984  15.580  0.6587 -0.1448  0.0801
  687TMC3     O10216   0.738   1.881  15.631  0.5705 -0.2333  0.3432
  687TMC3     H10217   0.456   2.068  15.528 -0.4448  1.0477 -0.1479
  687TMC3    H110218   0.751   2.040  15.823 -0.5331 -1.6401 -1.6995
  687TMC3    H210219   0.371   2.211  15.913 -0.0440  1.0465 -0.3048
  687TMC3    C710220   0.617   2.199  15.994 -0.0264 -0.1894  0.2622
  687TMC3    C810221   0.265   2.193  15.686 -0.2018 -0.9446  0.0905
  687TMC3    O110222   0.547   2.293  16.033 -0.1682  0.2498 -0.0423
  687TMC3    O210223   0.186   2.195  15.779 -0.9155  0.5515 -0.3060
  688MPD2     C10224   4.686   1.639  17.382  0.4396 -0.4024  0.4607
  688MPD2    C110225   4.646   1.514  17.348 -0.5208  0.4577  0.6536
  688MPD2    C210226   4.681   1.461  17.226  0.5353  0.0951  0.3070
  688MPD2    C310227   0.018   1.537  17.135  0.6734 -0.2993 -0.5697
  688MPD2    C410228   0.044   1.671  17.171 -0.1093 -0.3778  1.5300
  688MPD2    C510229   0.015   1.722  17.294  0.1401 -0.0142 -0.1689
  688MPD2     H10230   4.646   1.363  17.197  1.5912 -1.3171  3.7720
  688MPD2    H110231   0.085   1.730  17.090 -0.1956 -0.3024  1.5411
  688MPD2    H210232   4.660   1.690  17.474  1.1867  1.5622 -0.4258
  688MPD2    H310233   0.051   1.823  17.314  1.6490 -0.1454 -2.1530
  688MPD2     N10234   0.083   1.496  17.016 -0.2531  0.4607 -0.3111
  688MPD2    H510235   0.114   1.570  16.954  3.4794  0.3987  1.4705
  688MPD2    N110236   4.587   1.422  17.436  0.4376  0.4466 -0.4062
  688MPD2    H710237   4.567   1.335  17.389 -0.3824  1.2291 -1.5067
  689TMC3    C110238   4.435   1.372  17.612  0.3887  0.0464  0.5270
  689TMC3    C210239   4.359   1.424  17.721  0.2742 -0.1037  0.4389
  689TMC3    C310240   4.232   1.377  17.737 -0.2897  0.0512  0.1438
  689TMC3    C410241   4.393   1.264  17.534 -0.3864 -0.6113  0.3184
  689TMC3    C510242   4.276   1.202  17.581 -0.0141 -0.2212  0.2070
  689TMC3    C610243   4.193   1.262  17.670  0.3678  0.4866  0.5018
  689TMC3     C10244   4.547   1.445  17.566  1.1622 -0.6166 -0.0563
  689TMC3     O10245   4.589   1.536  17.632  0.4308 -0.4018  0.4544
  689TMC3     H10246   4.385   1.512   0.033 -3.0910  0.9749  0.2776
  689TMC3    H110247   4.454   1.222  17.455 -0.4599  0.8866 -0.5347
  689TMC3    H210248   4.106   1.209  17.708  0.4309 -0.1865 -0.2938
  689TMC3    C710249   4.231   1.108  17.485  0.2724 -0.5348 -0.1744
  689TMC3    C810250   4.177   1.410   0.122 -0.1677  0.0221  0.2097
  689TMC3    O110251   4.231   1.137  17.367  0.7344  0.1480  0.6001
  689TMC3    O210252   4.251   1.442   0.209  0.2296  0.1122 -0.1513
  690MPD2     C10253   1.793   3.773  15.263  0.4208  0.4247  0.3864
  690MPD2    C110254   1.898   3.684  15.317  0.4890 -0.1139  0.0831
  690MPD2    C210255   2.024   3.695  15.255 -0.8136  0.3844  0.3520
  690MPD2    C310256   2.045   3.763  15.136  0.0926 -0.2624  0.3877
  690MPD2    C410257   1.946   3.851  15.096  0.2807 -0.1202 -0.0726
  690MPD2    C510258   1.828   3.854  15.159  0.1008  0.1356  0.0272
  690MPD2     H10259   2.099   3.622  15.282  0.1612  0.5052 -2.0415
  690MPD2    H110260   1.964   3.921  15.015  0.4689  1.1085  1.0342
  690MPD2    H210261   1.691   3.789  15.295 -0.0495 -1.0765 -0.3720
  690MPD2    H310262   1.747   3.911  15.113  0.0195  1.0901  1.3669
  690MPD2     N10263   2.172   3.745  15.068 -0.1630  0.3584  0.2721
  690MPD2    H510264   2.237   3.688  15.121  1.3674  1.8613  0.0216
  690MPD2    N110265   1.873   3.595  15.426 -0.0520  0.3203 -0.6022
  690MPD2    H710266   1.954   3.542  15.456 -0.7470 -0.8300 -0.7650
  691TMC3    C110267   1.747   3.487  15.595  0.1769  0.6214  0.4926
  691TMC3    C210268   1.622   3.473  15.643 -0.5890 -0.0383 -0.6207
  691TMC3    C310269   1.591   3.367  15.721  0.1621 -0.2353  0.1394
  691TMC3    C410270   1.842   3.390  15.608 -0.9550 -0.4457  0.1348
  691TMC3    C510271   1.807   3.279  15.676  0.3893  0.2170  0.0561
  691TMC3    C610272   1.687   3.285  15.748  0.1898 -1.2571 -0.0110
  691TMC3     C10273   1.753   3.588  15.485 -0.7858 -0.2339  0.6202
  691TMC3     O10274   1.646   3.631  15.442 -0.5416  0.1588  0.2063
  691TMC3     H10275   1.541   3.537  15.609  0.9300  1.8983 -0.5377
  691TMC3    H110276   1.930   3.386  15.545 -0.5050  1.4592  0.6624
  691TMC3    H210277   1.664   3.200  15.812  2.1063 -2.8596 -1.4339
  691TMC3    C710278   1.828   3.155  15.604  1.2880 -0.3849  0.4578
  691TMC3    C810279   1.463   3.304  15.703 -0.4628  0.6458  0.3183
  691TMC3    O110280   1.939   3.136  15.550 -0.0558 -0.6867  0.5153
  691TMC3    O210281   1.467   3.185  15.678  0.5831 -0.3590 -0.1059
  692TMC3    C110282   3.570   4.507  15.696 -0.1933  0.0001  0.3990
  692TMC3    C210283   3.657   4.535  15.803  0.0437 -0.1563 -0.0372
  692TMC3    C310284   3.762   4.451  15.817 -0.6565  0.2942 -0.3348
  692TMC3    C410285   3.586   4.397  15.616  0.2031  0.4383 -0.0944
  692TMC3    C510286   3.696   4.317  15.632  0.5010 -0.8122 -0.6885
  692TMC3    C610287   3.789   4.351  15.727  0.9186  0.0005 -0.4348
  692TMC3     C10288   3.443   4.571  15.681  0.5321 -0.6490  0.0528
  692TMC3     O10289   3.355   4.504  15.631  0.0680 -0.5258 -0.7000
  692TMC3     H10290   3.637   4.605  15.883 -0.5915 -0.6222  0.2154
  692TMC3    H110291   3.508   4.371  15.545 -0.5694 -0.6408  1.1445
  692TMC3    H210292   3.883   4.300  15.747  1.6633  1.8854  0.8049
  692TMC3    C710293   3.696   4.189  15.563  0.3827 -0.3615 -0.1500
  692TMC3    C810294   3.879   4.508  15.880 -0.4264  0.4380 -0.2155
  692TMC3    O110295   3.627   4.160  15.465 -0.0638  0.0172  0.4304
  692TMC3    O210296   3.946   4.419  15.937 -0.0515 -0.7281  0.1357
  693MPD2     C10297   3.244   2.289  11.178 -0.1148 -0.2324 -0.4587
  693MPD2    C110298   3.193   2.176  11.106  1.0674 -0.3703 -0.6064
  693MPD2    C210299   3.243   2.050  11.130 -0.3880 -0.2591  0.2786
  693MPD2    C310300   3.341   2.036  11.225  0.5324 -0.7192 -0.7254
  693MPD2    C410301   3.400   2.146  11.285 -0.1380 -0.7831  0.0100
  693MPD2    C510302   3.349   2.267  11.267 -0.3394 -1.0002  0.3505
  693MPD2     H10303   3.198   1.959  11.092  1.5781 -1.3102  0.4305
  693MPD2    H110304   3.481   2.119  11.352  0.4826 -0.0416 -0.4309
  693MPD2    H210305   3.202   2.389  11.173 -0.3119 -0.3706 -1.5770
  693MPD2    H310306   3.405   2.351  11.307  1.4336 -1.7878 -0.4813
  693MPD2     N10307   3.390   1.905  11.255 -0.3415  0.0889 -0.1138
  693MPD2    H510308   3.460   1.893  11.327  0.0532  1.4813 -0.2825
  693MPD2    N110309   3.098   2.208  11.017  0.8080 -0.2511 -0.4347
  693MPD2    H710310   3.057   2.301  11.025 -1.4901 -1.3335  0.1845
  694TMC3    C110311   2.905   2.152  10.880  0.4946  0.2748 -0.2089
  694TMC3    C210312   2.855   2.057  10.782 -0.1343 -0.3760 -0.6980
  694TMC3    C310313   2.752   1.982  10.829 -0.1188 -0.0201 -0.2254
  694TMC3    C410314   2.831   2.192  10.987  0.4708 -0.1685 -0.2618
  694TMC3    C510315   2.716   2.122  11.019 -0.1760  0.0651  0.0695
  694TMC3    C610316   2.682   2.008  10.947  0.0988 -0.1521 -0.1286
  694TMC3     C10317   3.041   2.119  10.922  0.3608  0.3985 -0.2739
  694TMC3     O10318   3.080   2.006  10.896  0.1600 -0.0025  0.1911
  694TMC3     H10319   2.918   2.017  10.703 -0.0799  1.3990 -1.5418
  694TMC3    H110320   2.853   2.282  11.043  0.4323 -0.6541  0.5354
  694TMC3    H210321   2.596   1.948  10.973 -1.1626  0.6357 -2.4780
  694TMC3    C710322   2.685   2.130  11.160 -0.1489  0.7639  0.1823
  694TMC3    C810323   2.686   1.899  10.736  0.2000  0.2940 -0.2883
  694TMC3    O110324   2.734   2.221  11.221  0.1769  0.7227 -0.3629
  694TMC3    O210325   2.608   1.818  10.782 -0.2374  0.3561  0.0019
  695MPD2     C10326   3.993   4.553  13.150  0.8462 -0.7709 -0.0450
  695MPD2    C110327   3.944   4.447  13.218 -0.1888 -0.0468 -0.7587
  695MPD2    C210328   3.804   4.434  13.230 -0.2870  0.2211  0.1380
  695MPD2    C310329   3.718   4.529  13.178 -0.3431  0.4422 -0.0794
  695MPD2    C410330   3.772   4.631  13.107  0.2672 -0.0800 -0.0078
  695MPD2    C510331   3.908   4.646  13.091 -0.2314  0.0831  0.0042
  695MPD2     H10332   3.756   4.350  13.279 -0.9905  0.2839 -0.4472
  695MPD2    H110333   3.721   4.718  13.067  0.4553 -0.4683 -1.0936
  695MPD2    H210334   4.097   4.565  13.121  1.5846 -1.3230  2.3225
  695MPD2    H310335   3.945   4.732  13.036 -0.2164 -0.8984 -1.5408
  695MPD2     N10336   3.580   4.502  13.200  1.1341 -0.2129  0.4582
  695MPD2    H510337   3.555   4.422  13.258 -1.7041 -0.6431 -1.3851
  695MPD2    N110338   4.034   4.354  13.289 -0.6382  0.5241 -0.3119
  695MPD2    H710339   3.987   4.281  13.343 -0.0066 -0.6371 -1.3276
  696TMC3    C110340   3.341   4.534  13.200 -0.0449 -0.4138  0.1478
  696TMC3    C210341   3.327   4.399  13.201  0.6477 -0.6107  0.0432
  696TMC3    C310342   3.214   4.348  13.246  0.0888 -0.2959 -0.0065
  696TMC3    C410343   3.246   4.619  13.245 -0.2756  0.0706  0.5381
  696TMC3    C510344   3.124   4.562  13.270 -0.8203  0.4446  0.2801
  696TMC3    C610345   3.110   4.425  13.285  0.2524  0.0120  0.1898
  696TMC3     C10346   3.470   4.579  13.162 -0.8792 -0.0100 -0.0237
  696TMC3     O10347   3.468   4.698  13.127  0.0121  0.1107  0.8136
  696TMC3     H10348   3.410   4.332  13.182  2.3676  0.2723  4.4990
  696TMC3    H110349   3.257   4.726  13.232  0.1341  0.3183  2.7801
  696TMC3    H210350   3.023   4.382  13.334 -0.1800  2.2813  1.4539
  696TMC3    C710351   3.037   4.626  13.368  0.3979 -0.2500 -0.4842
  696TMC3    C810352   3.212   4.206  13.253  0.2439 -0.5605 -0.1662
  696TMC3    O110353   2.919   4.592  13.388  0.5331  0.1211  0.1567
  696TMC3    O210354   3.253   4.143  13.155  0.1339  0.1035  0.0481
  697MPD2     C10355   2.846   1.282  15.622 -0.3627  0.5992  0.5010
  697MPD2    C110356   2.928   1.229  15.532 -0.2749 -0.0456 -0.1696
  697MPD2    C210357   3.014   1.314  15.458 -0.0112  0.0093  0.2605
  697MPD2    C310358   3.018   1.449  15.490  0.6137 -0.2312 -0.1206
  697MPD2    C410359   2.933   1.499  15.585  0.5507  0.0341 -0.2704
  697MPD2    C510360   2.847   1.413  15.646 -0.3698  0.4014  0.3613
  697MPD2     H10361   3.078   1.280  15.377 -1.7984  0.3316 -1.2827
  697MPD2    H110362   2.931   1.603  15.616 -0.7435 -0.5726  1.6375
  697MPD2    H210363   2.769   1.226  15.674  0.2741 -1.4908 -0.7833
  697MPD2    H310364   2.776   1.470  15.705 -0.8285  0.4501 -0.2313
  697MPD2     N10365   3.118   1.527  15.427  0.9325  0.1932 -0.5058
  697MPD2    H510366   3.186   1.474  15.373 -0.3992 -2.1035  0.0892
  697MPD2    N110367   2.934   1.096  15.494  0.1987  0.3309  0.3545
  697MPD2    H710368   2.991   1.073  15.414 -0.2189  2.8577 -0.6535
  698TMC3    C110369   3.236   1.707  15.353  0.7203  1.2784  0.2476
  698TMC3    C210370   3.312   1.814  15.394 -0.3456 -0.2395  0.9429
  698TMC3    C310371   3.397   1.863  15.299 -0.2478  0.5715  0.1585
  698TMC3    C410372   3.238   1.656  15.227  0.8676  0.4114  0.3346
  698TMC3    C510373   3.317   1.718  15.136 -0.0008 -0.4587 -0.2275
  698TMC3    C610374   3.407   1.820  15.171 -0.6233  0.1098  0.3121
  698TMC3     C10375   3.143   1.657  15.454  0.5462  0.3426  0.1302
  698TMC3     O10376   3.090   1.734  15.538  0.4336  0.1087  0.2979
  698TMC3     H10377   3.330   1.840  15.497  0.2345  0.0826  0.7654
  698TMC3    H110378   3.170   1.579  15.195  1.2803 -0.2381  1.0221
  698TMC3    H210379   3.455   1.872  15.089  0.4481  1.4804  1.8204
  698TMC3    C710380   3.322   1.665  15.000 -0.5976 -0.4701  0.6361
  698TMC3    C810381   3.506   1.947  15.346 -0.3701 -0.7848 -0.1659
  698TMC3    O110382   3.251   1.568  14.983 -0.0951  0.9315 -0.0090
  698TMC3    O210383   3.499   1.983  15.464  0.7427 -0.5769  0.5048
  699TMC3    C110384   3.929   4.379  12.759  0.3006 -0.5611  0.6878
  699TMC3    C210385   4.008   4.299  12.833 -0.0801 -0.2156 -0.6457
  699TMC3    C310386   3.947   4.223  12.935 -1.0496  0.1208  0.7907
  699TMC3    C410387   3.792   4.376  12.776 -0.5936  0.3351  0.6003
  699TMC3    C510388   3.739   4.308  12.879  0.1701 -0.2410 -0.5403
  699TMC3    C610389   3.813   4.214  12.946 -0.3131  0.3374  0.8181
  699TMC3     C10390   3.978   4.488  12.687 -1.0210  0.4426 -0.3512
  699TMC3     O10391   3.899   4.535  12.606 -0.0436 -0.2388  0.5369
  699TMC3     H10392   4.115   4.283  12.826 -0.3989 -0.4965 -4.7329
  699TMC3    H110393   3.731   4.434  12.707 -0.2390 -1.8503 -1.5537
  699TMC3    H210394   3.773   4.171  13.037 -0.6534 -0.2440  0.3929
  699TMC3    C710395   3.599   4.277  12.891  0.1564  0.7764  0.6904
  699TMC3    C810396   4.022   4.101  12.969  0.1916 -0.0446  0.5305
  699TMC3    O110397   3.569   4.168  12.940  0.0230  0.1197  0.8267
  699TMC3    O210398   4.142   4.103  12.964 -0.0763 -0.2458 -0.0304
  700TMC3    C110399   2.244   2.010  16.988  0.1836 -0.4388  0.1697
  700TMC3    C210400   2.338   1.922  16.937  0.0137  0.1098  0.9741
  700TMC3    C310401   2.452   1.898  17.010 -0.0783 -0.4323 -0.6743
  700TMC3    C410402   2.278   2.079  17.100  0.1636 -0.6310 -0.2697
  700TMC3    C510403   2.392   2.052  17.173 -0.6571  0.5412  0.3329
  700TMC3    C610404   2.488   1.965  17.127  0.1444 -0.1904 -1.0840
  700TMC3     C10405   2.171   2.088  16.885 -0.0301 -0.2481  0.7450
  700TMC3     O10406   2.053   2.058  16.868 -0.2358 -0.2459  0.3189
  700TMC3     H10407   2.321   1.868  16.844 -0.7086  1.8343  0.0977
  700TMC3    H110408   2.212   2.161  17.124 -0.3392 -0.6130 -1.7278
  700TMC3    H210409   2.570   1.933  17.190 -1.6233  0.6298  1.6453
  700TMC3    C710410   2.436   2.145  17.264 -0.0270 -1.2295  0.4909
  700TMC3    C810411   2.538   1.791  16.967 -0.5380  0.0013  0.1703
  700TMC3    O110412   2.556   2.132  17.293 -0.4577  0.5195  0.0663
  700TMC3    O210413   2.653   1.780  17.008  0.0091 -0.8888  0.5740
  701TMC3    C110414   2.387   0.492  15.599 -0.8050  0.9933  0.1053
  701TMC3    C210415   2.393   0.394  15.501  0.3210 -0.1505  0.2357
  701TMC3    C310416   2.439   0.430  15.377 -0.5795  0.1730 -0.2766
  701TMC3    C410417   2.444   0.618  15.583 -0.0883  0.4183  0.1749
  701TMC3    C510418   2.488   0.650  15.456 -0.1734 -0.0975 -0.3666
  701TMC3    C610419   2.480   0.561  15.349 -0.1345  0.5456  0.1923
  701TMC3     C10420   2.301   0.473  15.718 -0.2221 -0.1580 -0.2997
  701TMC3     O10421   2.287   0.571  15.790 -0.2763 -0.7237 -0.1078
  701TMC3     H10422   2.363   0.292  15.524 -1.8755  0.1316 -1.3340
  701TMC3    H110423   2.446   0.686  15.667  0.0201  0.5636  0.0554
  701TMC3    H210424   2.507   0.599  15.251  0.2299 -1.1423 -0.3654
  701TMC3    C710425   2.501   0.789  15.424  0.3714  0.9976 -0.0841
  701TMC3    C810426   2.423   0.339  15.275 -0.2398 -0.2507 -0.3529
  701TMC3    O110427   2.555   0.815  15.319  0.5080  0.3002  0.3113
  701TMC3    O210428   2.410   0.224  15.317  0.3664  0.3136  0.0579
  702MPD2     C10429   2.318   2.286  10.438 -0.5101 -0.7803  0.5143
  702MPD2    C110430   2.319   2.414  10.500 -0.1098 -0.1295  1.0302
  702MPD2    C210431   2.372   2.509  10.419 -0.1590 -0.3997 -0.1860
  702MPD2    C310432   2.430   2.489  10.296 -0.2888  0.0528  0.2755
  702MPD2    C410433   2.449   2.357  10.250 -0.2669  0.5377 -0.2687
  702MPD2    C510434   2.386   2.265  10.324 -0.6966 -0.1648  0.0474
  702MPD2     H10435   2.367   2.607  10.466 -1.2838 -0.7158  0.3475
  702MPD2    H110436   2.497   2.321  10.160 -0.1408 -2.3164  0.9577
  702MPD2    H210437   2.278   2.198  10.486  0.2365  0.0639  2.6587
  702MPD2    H310438   2.412   2.163  10.297  1.0576 -0.1411  1.6560
  702MPD2     N10439   2.468   2.590  10.208  0.1468  0.1303 -0.0756
  702MPD2    H510440   2.482   2.574  10.109  0.3899 -0.4432  0.0516
  702MPD2    N110441   2.250   2.445  10.621 -0.2810 -0.0205  0.5425
  702MPD2    H710442   2.275   2.536  10.659 -3.2086  0.1087  2.1721
  703TMC3    C110443   2.537   2.812  10.157 -0.1356 -0.1678  0.6604
  703TMC3    C210444   2.430   2.881  10.117 -0.1520  0.1925  0.3625
  703TMC3    C310445   2.450   3.010  10.088  0.1087  0.6798  0.6651
  703TMC3    C410446   2.651   2.878  10.198  0.3310 -0.5709  0.4301
  703TMC3    C510447   2.661   3.012  10.182 -0.0942 -0.3562  0.5041
  703TMC3    C610448   2.567   3.082  10.117 -0.5078 -0.6174  0.5207
  703TMC3     C10449   2.506   2.714  10.258  0.3256 -0.3050 -0.0478
  703TMC3     O10450   2.546   2.737  10.372 -0.1389  0.0068 -0.2323
  703TMC3     H10451   2.344   2.828  10.077 -1.8301  1.7994  1.8337
  703TMC3    H110452   2.723   2.824  10.258 -1.9781 -3.6866  0.3973
  703TMC3    H210453   2.586   3.181  10.076 -2.4338  0.7735  2.9764
  703TMC3    C710454   2.743   3.093  10.269  0.8055 -0.2942 -0.8329
  703TMC3    C810455   2.341   3.085  10.035  0.6771 -0.0390 -0.0044
  703TMC3    O110456   2.756   3.208  10.243 -0.8491 -0.1102  0.0324
  703TMC3    O210457   2.364   3.198   9.989  0.0505 -0.4882 -0.1256
  704TMC3    C110458   0.526   1.171  12.430  0.1686  0.0547 -0.4795
  704TMC3    C210459   0.589   1.112  12.321 -0.5154 -0.1885 -0.5596
  704TMC3    C310460   0.671   1.003  12.352  0.1592  0.4409  0.4202
  704TMC3    C410461   0.544   1.130  12.559 -0.3313  0.2098 -0.4015
  704TMC3    C510462   0.637   1.029  12.584  0.6971  0.3015 -0.2433
  704TMC3    C610463   0.704   0.964  12.481 -0.3614 -0.6130 -0.4471
  704TMC3     C10464   0.398   1.233  12.412  0.1924  0.7083  0.2192
  704TMC3     O10465   0.362   1.321  12.490  0.2116  0.5023 -0.1380
  704TMC3     H10466   0.569   1.138  12.218 -1.4675 -0.4924 -0.4549
  704TMC3    H110467   0.506   1.181  12.647  1.3790 -0.7482  0.8889
  704TMC3    H210468   0.757   0.871  12.498 -0.3927 -0.6690 -0.6630
  704TMC3    C710469   0.595   0.948  12.697 -0.0305 -0.7690 -0.5223
  704TMC3    C810470   0.718   0.926  12.238 -0.2055 -0.8059  0.0928
  704TMC3    O110471   0.476   0.941  12.730 -0.2755  0.0799 -0.0485
  704TMC3    O210472   0.802   0.845  12.267 -0.2079 -0.2355  0.3349
  705MPD2     C10473   4.010   3.807  16.343  0.3243 -0.2160 -0.1053
  705MPD2    C110474   3.981   3.931  16.296 -0.1612 -0.1241  0.3951
  705MPD2    C210475   3.861   3.993  16.331 -0.5505 -0.3002 -0.5415
  705MPD2    C310476   3.765   3.921  16.403  0.2672  0.6600  0.2964
  705MPD2    C410477   3.785   3.789  16.436  0.4479  0.2815 -0.0295
  705MPD2    C510478   3.914   3.741  16.417  0.2612  0.4276  0.6408
  705MPD2     H10479   3.838   4.090  16.289  1.1557  0.1772 -0.3697
  705MPD2    H110480   3.707   3.736  16.489  0.3597  0.4223 -0.0183
  705MPD2    H210481   4.103   3.756  16.322 -0.2735 -2.6975  3.2665
  705MPD2    H310482   3.940   3.640  16.447  2.5254  1.1091  0.9808
  705MPD2     N10483   3.637   3.972  16.426 -0.4558  0.1351 -0.0126
  705MPD2    H510484   3.560   3.912  16.453 -1.2844  0.3767 -1.8527
  705MPD2    N110485   4.072   4.001  16.215  0.6958 -0.4930 -0.8399
  705MPD2    H710486   4.031   4.087  16.181  3.1401 -0.0505 -2.6927
  706TMC3    C110487   4.378   4.021  15.866  0.3699  0.7904  0.2937
  706TMC3    C210488   4.340   4.149  15.829  0.1930  0.1450  0.0299
  706TMC3    C310489   4.277   4.214  15.924 -0.8720  0.2954  0.1972
  706TMC3    C410490   4.349   3.964  15.990  0.3134  0.5169 -0.1307
  706TMC3    C510491   4.279   4.037  16.083 -0.0675  0.1573  0.3989
  706TMC3    C610492   4.237   4.164  16.050  0.2328  0.4744  0.1758
  706TMC3     C10493   4.492   3.957  15.794  0.8743  0.6289  0.2553
  706TMC3     O10494   4.547   3.861  15.849  0.2587 -0.9936 -0.4240
  706TMC3     H10495   4.362   4.197  15.735  1.1144 -1.8079 -0.7528
  706TMC3    H110496   4.376   3.861  16.011  0.9476  0.5908 -0.5965
  706TMC3    H210497   4.174   4.218  16.119  1.4380  0.3202  1.3908
  706TMC3    C710498   4.201   3.962  16.184 -0.3878 -0.2278 -0.7084
  706TMC3    C810499   4.262   4.359  15.920  0.1547 -0.1579  0.1081
  706TMC3    O110500   4.259   3.867  16.235 -0.1617  0.2271 -0.3440
  706TMC3    O210501   4.270   4.412  15.807  0.5398 -0.0130 -0.2312
  707TMC3    C110502   1.450   3.321   1.099  0.0823 -0.3446 -0.2055
  707TMC3    C210503   1.569   3.273   1.134 -0.5775 -0.1771 -0.9358
  707TMC3    C310504   1.577   3.149   1.199 -0.3482 -0.0121  0.0031
  707TMC3    C410505   1.338   3.266   1.154  0.2748 -0.5622  0.1563
  707TMC3    C510506   1.350   3.145   1.219 -0.0325  0.1249  0.3425
  707TMC3    C610507   1.470   3.085   1.243 -0.3388 -0.4178 -0.3023
  707TMC3     C10508   1.438   3.454   1.034  0.5366 -0.0236 -0.6080
  707TMC3     O10509   1.499   3.550   1.087  0.4850 -0.2043 -0.3870
  707TMC3     H10510   1.658   3.321   1.095  0.3601 -0.8316  0.4142
  707TMC3    H110511   1.238   3.292   1.121  0.7517 -0.6322 -1.3451
  707TMC3    H210512   1.469   2.983   1.280  3.1208 -0.7451 -1.1181
  707TMC3    C710513   1.228   3.067   1.245  0.1534  0.4013 -0.6100
  707TMC3    C810514   1.707   3.091   1.209 -0.4631  0.4717 -0.2644
  707TMC3    O110515   1.242   2.973   1.322 -0.1334  0.6330 -0.3682
  707TMC3    O210516   1.806   3.153   1.240  0.1903 -0.2376 -0.3102
  708MPD2     C10517   1.955   2.264  14.093  0.0345 -0.3648  0.6027
  708MPD2    C110518   2.050   2.364  14.093 -0.0052 -0.3707 -0.0960
  708MPD2    C210519   2.132   2.376  14.202  1.0862 -0.8313  0.1817
  708MPD2    C310520   2.121   2.289  14.312 -0.0468 -0.1895  0.5526
  708MPD2    C410521   2.015   2.204  14.314  0.1190  0.6548  0.3382
  708MPD2    C510522   1.939   2.189  14.205  0.5395 -0.3676  0.6788
  708MPD2     H10523   2.208   2.453  14.196  0.4918 -0.3647 -1.1777
  708MPD2    H110524   1.984   2.145  14.400 -1.2837  0.3008 -0.4246
  708MPD2    H210525   1.888   2.252  14.008 -0.8425  1.6940  1.0041
  708MPD2    H310526   1.853   2.124  14.218 -1.4871  2.0428 -0.5792
  708MPD2     N10527   2.213   2.310  14.417  0.4659 -0.6988  0.2615
  708MPD2    H510528   2.280   2.386  14.409  0.8351 -0.7755  2.7759
  708MPD2    N110529   2.062   2.460  13.985 -0.1282  0.1583 -0.4112
  708MPD2    H710530   2.140   2.522  14.002 -1.4431  2.0536 -1.3523
  709TMC3    C110531   1.964   2.633  13.871  0.0304 -0.1766  0.3937
  709TMC3    C210532   2.081   2.675  13.809  0.4752  0.7227 -0.6946
  709TMC3    C310533   2.148   2.786  13.862 -0.1175 -0.7760 -0.1790
  709TMC3    C410534   1.907   2.708  13.974 -0.3615 -0.1440  0.5159
  709TMC3    C510535   1.975   2.808  14.032  0.6857  0.5029  0.0898
  709TMC3    C610536   2.092   2.846  13.970  0.1503 -0.1691 -0.3111
  709TMC3     C10537   1.954   2.493  13.906 -0.0421 -0.0785  0.3829
  709TMC3     O10538   1.840   2.452  13.905  0.4585  0.1854  0.3518
  709TMC3     H10539   2.135   2.615  13.737 -0.3806 -1.4834  0.4964
  709TMC3    H110540   1.817   2.674  14.022  0.0988 -1.4106  0.4757
  709TMC3    H210541   2.138   2.935  14.011 -0.5144  0.0956 -0.1332
  709TMC3    C710542   2.007   2.795  14.174  0.1931  0.1691 -0.0844
  709TMC3    C810543   2.253   2.852  13.790 -0.2941 -0.8922 -0.1063
  709TMC3    O110544   2.125   2.783  14.202 -0.2602  0.6730  0.7556
  709TMC3    O210545   2.307   2.953  13.836 -0.4840  0.3797 -0.3615
  710TMC3    C110546   3.192   4.203  17.555 -0.7935 -0.2721 -0.5244
  710TMC3    C210547   3.239   4.164  17.431 -0.2879 -0.1802  0.0650
  710TMC3    C310548   3.371   4.115  17.429 -0.6819  0.0817  0.4402
  710TMC3    C410549   3.253   4.161  17.671  0.5411 -0.0280 -0.3929
  710TMC3    C510550   3.374   4.096  17.662  0.3373 -0.2201  0.1791
  710TMC3    C610551   3.444   4.077  17.542  1.0025 -0.4987  0.2762
  710TMC3     C10552   3.052   4.247  17.550 -0.4025  0.1377 -1.1177
  710TMC3     O10553   2.994   4.260  17.442  0.5013 -0.0334  0.1606
  710TMC3     H10554   3.179   4.178  17.343 -0.7443  0.7537  0.5233
  710TMC3    H110555   3.224   4.191   0.025 -0.4824 -1.9970 -0.1047
  710TMC3    H210556   3.534   4.018  17.528  0.5080 -0.5755 -2.6896
  710TMC3    C710557   3.437   4.044   0.044  0.2205 -0.5424  0.4198
  710TMC3    C810558   3.423   4.096  17.296 -0.4021  0.2031 -0.4746
  710TMC3    O110559   3.388   4.069   0.152 -0.2049  0.0895  0.4689
  710TMC3    O210560   3.542   4.075  17.289  0.1992  0.2159  0.2314
  711TMC3    C110561   3.171   0.471  14.801 -0.0763  0.3769 -0.0900
  711TMC3    C210562   3.168   0.465  14.933 -0.6133  0.6031  0.2457
  711TMC3    C310563   3.279   0.472  15.014  0.3956  0.0874 -0.1447
  711TMC3    C410564   3.296   0.488  14.738 -0.2021  1.2574 -0.0490
  711TMC3    C510565   3.411   0.488  14.812  0.5917  0.5764  0.1551
  711TMC3    C610566   3.398   0.496  14.952  0.2754 -0.8353 -0.4416
  711TMC3     C10567   3.119   0.348  14.742  0.0825  0.3180  1.1585
  711TMC3     O10568   3.136   0.338  14.622 -0.1834  0.3657 -0.0892
  711TMC3     H10569   3.073   0.454  14.985 -1.3201  1.6410 -0.8372
  711TMC3    H110570   3.303   0.510  14.633  2.6716 -1.1606 -0.3745
  711TMC3    H210571   3.490   0.485  15.008  0.2787 -0.4662 -0.3735
  711TMC3    C710572   3.506   0.381  14.769 -0.0551  0.7984  0.2120
  711TMC3    C810573   3.277   0.371  15.113 -0.3282 -0.2870 -0.1677
  711TMC3    O110574   3.607   0.367  14.839  0.1778  0.3261 -0.3433
  711TMC3    O210575   3.183   0.289  15.111 -0.0435 -0.4080  0.0118
  712MPD2     C10576   0.121   0.680  13.233 -0.4042 -0.3837  0.3553
  712MPD2    C110577   4.728   0.719  13.231  0.2070  0.3989 -0.5910
  712MPD2    C210578   4.696   0.838  13.297 -0.3211  0.5326  1.3552
  712MPD2    C310579   0.052   0.904  13.373 -0.3014 -0.6652 -0.5526
  712MPD2    C410580   0.187   0.869  13.376 -0.1571  0.3677 -0.2582
  712MPD2    C510581   0.215   0.748  13.310  0.2464 -0.0374  0.0089
  712MPD2     H10582   4.592   0.868  13.288  0.0002  0.7476 -1.8364
  712MPD2    H110583   0.268   0.914  13.433  0.0183  0.2877 -0.4471
  712MPD2    H210584   0.160   0.586  13.194 -0.3936 -0.1274 -0.2594
  712MPD2    H310585   0.316   0.712  13.317  0.0787 -0.0220  2.6974
  712MPD2     N10586   0.022   1.026  13.438 -0.1277 -0.3017 -0.5352
  712MPD2    H510587   0.107   1.076  13.463 -0.9461 -0.4133  2.5612
  712MPD2    N110588   4.620   0.651  13.166 -0.1616  0.6604  0.4993
  712MPD2    H710589   4.529   0.693  13.184  0.1880  1.3719  0.6192
  713TMC3    C110590   4.633   1.209  13.524 -0.0659  0.3245  0.3269
  713TMC3    C210591   4.725   1.216  13.629 -0.3315  0.1913 -0.2957
  713TMC3    C310592   4.713   1.325  13.712  0.0125 -0.8101 -0.2865
  713TMC3    C410593   4.530   1.301  13.504 -0.1822 -0.1820 -0.4014
  713TMC3    C510594   4.513   1.393  13.604  0.6301  0.2474 -0.0956
  713TMC3    C610595   4.607   1.409  13.702  0.5888  0.1322  0.5694
  713TMC3     C10596   4.635   1.089  13.433  0.3818 -0.2352 -0.0285
  713TMC3     O10597   4.522   1.064  13.385  0.3164  0.2595  0.3156
  713TMC3     H10598   0.074   1.153  13.648 -0.5393  0.5337  1.7228
  713TMC3    H110599   4.460   1.288  13.422  0.7795 -0.6591 -1.1525
  713TMC3    H210600   4.614   1.497  13.764  2.3416 -0.7695  1.6499
  713TMC3    C710601   4.457   1.519  13.570  0.0457  0.2622 -0.4822
  713TMC3    C810602   0.103   1.395  13.764  0.1067  0.2828  0.9479
  713TMC3    O110603   4.377   1.577  13.646  0.1387  0.1483  0.4645
  713TMC3    O210604   0.098   1.515  13.785  0.1913 -0.2576 -0.2188
  714MPD2     C10605   1.626   0.348   1.412  0.2577  0.8803 -0.5499
  714MPD2    C110606   1.645   0.217   1.370  0.2577  1.1921  0.6110
  714MPD2    C210607   1.532   0.152   1.323 -0.0241 -0.4750 -0.0583
  714MPD2    C310608   1.407   0.210   1.333  0.7244  0.2335  0.0871
  714MPD2    C410609   1.387   0.340   1.383  0.0006 -0.5407  0.3081
  714MPD2    C510610   1.503   0.411   1.418 -0.5385  0.1833 -0.1178
  714MPD2     H10611   1.541   0.052   1.282  0.1759 -0.4530 -0.0685
  714MPD2    H110612   1.289   0.380   1.407  0.4325  0.2823  0.6988
  714MPD2    H210613   1.712   0.396   1.457  0.7473 -1.6762  1.2596
  714MPD2    H310614   1.488   0.510   1.461 -1.9264 -0.8316  1.7603
  714MPD2     N10615   1.301   0.125   1.297 -0.2718 -0.5739  0.4381
  714MPD2    H510616   1.325   0.030   1.271 -0.7345  0.1977 -2.8542
  714MPD2    N110617   1.773   0.161   1.378 -0.0217  0.5432  0.1531
  714MPD2    H710618   1.843   0.220   1.422 -0.8241 -0.3748  2.7052
  715TMC3    C110619   1.947   4.736   1.348  0.4132  0.2413 -0.1426
  715TMC3    C210620   1.982   4.608   1.326 -0.1389 -0.6249  0.0042
  715TMC3    C310621   2.114   4.573   1.353  0.4843 -0.9943  0.0126
  715TMC3    C410622   2.048   0.096   1.349 -0.9899  0.1190  0.0848
  715TMC3    C510623   2.178   0.057   1.365  0.5474 -0.2014 -0.3270
  715TMC3    C610624   2.214   4.662   1.362  0.3503 -0.0276  1.0629
  715TMC3     C10625   1.807   0.039   1.328 -0.4984 -0.5147 -0.3040
  715TMC3     O10626   1.742   4.687   1.276  0.0268 -0.4401 -0.1802
  715TMC3     H10627   1.912   4.525   1.326  0.2538 -0.9546 -0.3649
  715TMC3    H110628   2.024   0.200   1.331  2.6854  1.0556  0.6006
  715TMC3    H210629   2.313   4.629   1.392 -0.0255 -2.3093 -0.2247
  715TMC3    C710630   2.278   0.155   1.380 -0.3716 -0.2176 -0.3484
  715TMC3    C810631   2.165   4.431   1.354  0.3671  0.0188 -0.4784
  715TMC3    O110632   2.391   0.109   1.359 -0.8788  0.0455 -0.0038
  715TMC3    O210633   2.280   4.406   1.321  0.2307 -0.8487 -0.2296
  716MPD2     C10634   2.019   2.424  10.075  0.4543  0.6989  0.5769
  716MPD2    C110635   1.974   2.397   9.947 -0.4979  0.1431  0.0821
  716MPD2    C210636   2.017   2.281   9.887 -0.6623  0.5596  0.5691
  716MPD2    C310637   2.105   2.192   9.943  0.5288 -0.2873  0.0051
  716MPD2    C410638   2.145   2.221  10.073  0.5755 -0.0860 -0.2563
  716MPD2    C510639   2.098   2.329  10.136 -0.1975  0.0360 -0.1501
  716MPD2     H10640   1.977   2.251   9.790 -1.1861  0.2362  0.8844
  716MPD2    H110641   2.219   2.156  10.119  0.4088  0.5797  0.9366
  716MPD2    H210642   1.973   2.504  10.131 -0.8077  1.3151 -1.3445
  716MPD2    H310643   2.122   2.352  10.239 -1.2630  2.3692 -0.4080
  716MPD2     N10644   2.146   2.081   9.868 -0.2386 -0.0460 -0.4174
  716MPD2    H510645   2.109   2.077   9.774 -0.0972  1.5115 -0.5432
  716MPD2    N110646   1.887   2.496   9.894  0.2541  0.1612 -0.0568
  716MPD2    H710647   1.856   2.569   9.957 -0.2320  0.9344 -1.1989
  717TMC3    C110648   2.257   1.881   9.799  0.4069 -0.0702 -0.0361
  717TMC3    C210649   2.185   1.885   9.681  0.2698 -0.0406  0.1192
  717TMC3    C310650   2.216   1.790   9.589 -0.4776  0.6422  0.2261
  717TMC3    C410651   2.343   1.781   9.831 -0.4534  1.1776 -0.9248
  717TMC3    C510652   2.365   1.680   9.728  0.2478 -0.4681 -0.0326
  717TMC3    C610653   2.309   1.691   9.607  0.4733  0.0138 -0.0291
  717TMC3     C10654   2.241   1.987   9.901  0.0504 -0.7454  0.7176
  717TMC3     O10655   2.319   1.992   9.991 -0.1121  0.0149 -0.5060
  717TMC3     H10656   2.105   1.953   9.655 -1.4599 -2.3079 -0.4413
  717TMC3    H110657   2.401   1.775   9.923  0.7376 -1.6295 -1.8787
  717TMC3    H210658   2.303   1.607   9.538  0.8321 -0.5990  0.6778
  717TMC3    C710659   2.398   1.548   9.778 -0.0970  0.5476  0.8120
  717TMC3    C810660   2.131   1.782   9.468 -0.5946 -0.2199  0.4971
  717TMC3    O110661   2.372   1.526   9.891  0.4849  0.1411  0.1571
  717TMC3    O210662   2.022   1.835   9.490  0.2404 -0.1462 -0.1669
  718MPD2     C10663   0.958   1.922  12.838  0.6563 -0.9927 -0.3439
  718MPD2    C110664   1.012   1.826  12.750  0.1738 -0.6927  0.0844
  718MPD2    C210665   1.082   1.721  12.815 -0.3920 -0.0346 -0.5057
  718MPD2    C310666   1.055   1.689  12.947 -0.6065  0.1041 -0.3707
  718MPD2    C410667   0.991   1.787  13.025 -0.3064  0.7046 -0.3417
  718MPD2    C510668   0.950   1.902  12.974  0.0055 -0.0024  0.0285
  718MPD2     H10669   1.124   1.655  12.741  1.9120  1.1713 -0.2772
  718MPD2    H110670   0.975   1.775  13.132  0.2249 -1.4895 -0.5160
  718MPD2    H210671   0.934   2.023  12.807  0.5736 -0.9162 -0.0245
  718MPD2    H310672   0.905   1.980  13.035  0.1063 -0.3934  0.6131
  718MPD2     N10673   1.102   1.574  13.013 -0.2028 -0.0085 -0.3635
  718MPD2    H510674   1.095   1.570  13.114  0.3962  0.8371 -0.2953
  718MPD2    N110675   1.025   1.854  12.613  0.4116 -0.1451 -0.0084
  718MPD2    H710676   1.021   1.951  12.586  0.4972 -0.7139 -2.0507
  719TMC3    C110677   1.100   1.820  12.391  0.7043 -0.1096 -0.6847
  719TMC3    C210678   1.072   1.714  12.306 -0.6668  0.0103  0.2670
  719TMC3    C310679   1.174   1.673  12.221  0.3076 -0.1390  0.4414
  719TMC3    C410680   1.222   1.887  12.379  0.1105 -0.6804  0.1817
  719TMC3    C510681   1.310   1.851  12.282  0.4423  0.0960 -0.1525
  719TMC3    C610682   1.281   1.747  12.197  0.4351  0.5038 -0.4015
  719TMC3     C10683   1.065   1.762  12.523 -0.2766  0.0553  0.1243
  719TMC3     O10684   1.053   1.641  12.528  0.4180  1.0862 -0.6739
  719TMC3     H10685   0.984   1.651  12.305 -2.0198  1.8926  1.1178
  719TMC3    H110686   1.239   1.966  12.450  1.2682 -1.0291  0.2916
  719TMC3    H210687   1.349   1.706  12.124  0.8056  1.0277 -0.3526
  719TMC3    C710688   1.448   1.879  12.290  0.4214  0.6251  0.4370
  719TMC3    C810689   1.200   1.533  12.212 -1.2785  0.5312 -0.2516
  719TMC3    O110690   1.518   1.790  12.247  0.5335 -0.4685 -0.9936
  719TMC3    O210691   1.272   1.491  12.121  0.1000  0.3934 -0.6535
  720MPD2     C10692   0.061   3.296  14.144 -0.0755 -0.6314  0.1993
  720MPD2    C110693   0.136   3.295  14.028  0.0027 -0.4446  0.4757
  720MPD2    C210694   0.277   3.287  14.039  0.8228  0.6899  0.6781
  720MPD2    C310695   0.344   3.288  14.160 -0.9909 -0.2349 -0.1322
  720MPD2    C410696   0.264   3.306  14.271  0.0971 -0.5780  0.1039
  720MPD2    C510697   0.128   3.297  14.261  0.0790  0.0815  0.4623
  720MPD2     H10698   0.333   3.290  13.946 -0.1438 -1.3751  0.0083
  720MPD2    H110699   0.303   3.317  14.372 -0.2750 -2.7601  0.4970
  720MPD2    H210700   4.690   3.291  14.152 -0.3204 -0.0534 -2.7887
  720MPD2    H310701   0.065   3.306  14.349 -0.3877 -0.7445  0.2101
  720MPD2     N10702   0.483   3.279  14.162 -0.1247 -0.7722  0.5513
  720MPD2    H510703   0.524   3.256  14.072 -0.8114  0.7093 -0.1362
  720MPD2    N110704   0.087   3.315  13.895  0.3703 -0.2328 -0.2076
  720MPD2    H710705   0.158   3.320  13.823  0.9948 -0.8410  0.3717
  721TMC3    C110706   0.704   3.256  14.272  0.1502  0.2093  0.1224
  721TMC3    C210707   0.757   3.195  14.377  0.3335  0.2578 -0.6299
  721TMC3    C310708   0.887   3.148  14.370  0.5661  0.1123  0.2000
  721TMC3    C410709   0.771   3.282  14.152  0.4507  0.3082  0.0212
  721TMC3    C510710   0.895   3.231  14.143  0.1463 -0.0688  0.3091
  721TMC3    C610711   0.957   3.169  14.253 -1.0689 -0.2924  0.0957
  721TMC3     C10712   0.557   3.283  14.278 -0.4374  0.1501 -0.2906
  721TMC3     O10713   0.533   3.342  14.382 -0.6252  0.2337  0.2118
  721TMC3     H10714   0.694   3.181  14.464 -2.5302 -1.5449 -2.9698
  721TMC3    H110715   0.716   3.338  14.078  2.7947  2.1282 -0.3608
  721TMC3    H210716   1.062   3.140  14.252 -1.3059 -1.2164  2.8869
  721TMC3    C710717   0.976   3.245  14.020  0.0785 -0.7702  0.2009
  721TMC3    C810718   0.950   3.094  14.489  0.3400 -0.7265 -0.0983
  721TMC3    O110719   1.091   3.206  14.012 -0.1642  0.4445 -0.1226
  721TMC3    O210720   1.066   3.058  14.485  0.2655  0.0952 -0.0862
  722MPD2     C10721   3.657   1.727  12.950 -0.0415  1.0129  0.4681
  722MPD2    C110722   3.607   1.809  13.050  0.1942  0.5188  0.9263
  722MPD2    C210723   3.474   1.808  13.084 -0.6739 -0.0906  0.1344
  722MPD2    C310724   3.393   1.707  13.021 -0.0303 -0.1036 -0.4939
  722MPD2    C410725   3.445   1.635  12.918 -0.2104  0.0706  0.9186
  722MPD2    C510726   3.578   1.638  12.881  0.9173 -0.2718  0.4707
  722MPD2     H10727   3.431   1.871  13.161 -0.4129  0.5498 -0.2386
  722MPD2    H110728   3.389   1.553  12.873 -0.1875  0.9647 -0.7523
  722MPD2    H210729   3.761   1.718  12.920  0.1413  0.0086  1.4243
  722MPD2    H310730   3.611   1.577  12.798  0.5177  0.4033 -0.1873
  722MPD2     N10731   3.259   1.699  13.073  0.5113 -0.4371  0.1985
  722MPD2    H510732   3.235   1.757  13.153 -2.1008 -0.0267 -0.8735
  722MPD2    N110733   3.699   1.893  13.122  0.1086 -0.3840 -0.0282
  722MPD2    H710734   3.660   1.958  13.188  0.6920 -0.9236  0.8541
  723TMC3    C110735   3.025   1.638  13.099 -0.2259  0.4127  0.2042
  723TMC3    C210736   2.923   1.567  13.040  0.0035 -0.3187  0.1697
  723TMC3    C310737   2.796   1.579  13.097  0.2556 -0.2000  0.5507
  723TMC3    C410738   3.005   1.721  13.205 -0.1784  0.1530 -0.0861
  723TMC3    C510739   2.876   1.730  13.252  0.0178 -0.2121  0.2757
  723TMC3    C610740   2.767   1.666  13.200  0.0381  0.1109 -0.4716
  723TMC3     C10741   3.156   1.628  13.022 -0.5062  0.1000  0.2546
  723TMC3     O10742   3.147   1.550  12.928  0.2847  0.6575  0.0685
  723TMC3     H10743   2.936   1.510  12.949 -0.6937  1.0600 -0.7778
  723TMC3    H110744   3.087   1.771  13.256  0.8383 -1.8651  0.2448
  723TMC3    H210745   2.661   1.683  13.219 -0.0574  0.8347 -1.6174
  723TMC3    C710746   2.848   1.849  13.333 -0.0729 -1.0139  0.8507
  723TMC3    C810747   2.691   1.492  13.042 -0.5031 -0.0843 -0.2976
  723TMC3    O110748   2.923   1.940  13.346  0.2798  0.4352 -0.2592
  723TMC3    O210749   2.581   1.528  13.070 -0.7152 -0.0224 -0.4696
  724TMC3    C110750   4.268   4.355  10.384 -0.6930  1.1684 -0.3023
  724TMC3    C210751   4.164   4.435  10.342  0.6494 -0.3571 -0.0725
  724TMC3    C310752   4.209   4.543  10.264  0.8344  0.7252 -0.3095
  724TMC3    C410753   4.396   4.370  10.341  0.1477 -0.9629 -0.0709
  724TMC3    C510754   4.429   4.467  10.252 -0.9353  0.5076 -0.4311
  724TMC3    C610755   4.336   4.558  10.215 -0.1116  0.5805 -0.4602
  724TMC3     C10756   4.227   4.237  10.460 -0.0546  0.1410 -0.2319
  724TMC3     O10757   4.316   4.166  10.511 -0.7134 -0.3543  0.3230
  724TMC3     H10758   4.072   4.443  10.400  0.3021 -1.5902 -0.4504
  724TMC3    H110759   4.477   4.312  10.383  1.1522 -0.3796 -1.1879
  724TMC3    H210760   4.357   4.613  10.124  1.7022 -1.8651 -1.5421
  724TMC3    C710761   4.569   4.498  10.230  0.4164  0.3895  0.1409
  724TMC3    C810762   4.101   4.611  10.205  0.5340 -0.1751  0.1777
  724TMC3    O110763   4.641   4.416  10.286  0.5202 -0.5031 -0.4151
  724TMC3    O210764   3.993   4.558  10.222 -0.1826 -0.4390 -0.1863
  725TMC3    C110765   1.097   3.486  12.526  0.6850  0.2382  0.0502
  725TMC3    C210766   0.963   3.510  12.547  0.4729 -0.7415  0.6064
  725TMC3    C310767   0.900   3.408  12.615  0.7235  1.1292  0.8189
  725TMC3    C410768   1.158   3.363  12.555  0.1744 -0.0448 -0.3380
  725TMC3    C510769   1.084   3.269  12.613  0.5585 -0.1956  0.0608
  725TMC3    C610770   0.954   3.287  12.643 -0.1550  0.2915  0.0347
  725TMC3     C10771   1.183   3.593  12.566 -0.0166 -0.0643  0.6183
  725TMC3     O10772   1.230   3.591  12.680  0.2922 -0.6112 -0.2920
  725TMC3     H10773   0.928   3.612  12.551 -2.1025 -1.6668  1.5912
  725TMC3    H110774   1.264   3.352  12.539  0.2271 -1.3039  0.8534
  725TMC3    H210775   0.895   3.207  12.685 -0.1238 -0.8353 -2.0838
  725TMC3    C710776   1.148   3.139  12.615 -0.3849  0.0950  0.2048
  725TMC3    C810777   0.756   3.430  12.643  0.0233 -0.1204 -0.2034
  725TMC3    O110778   1.227   3.122  12.526  0.1493  0.1384  0.1756
  725TMC3    O210779   0.703   3.393  12.749  0.0773 -0.0146  0.0743
  726MPD2     C10780   3.492   0.308  10.560 -0.4459 -0.0709 -0.1582
  726MPD2    C110781   3.423   0.368  10.458 -0.3709  0.0141 -0.1543
  726MPD2    C210782   3.354   0.293  10.361 -0.0011 -0.8809 -0.0626
  726MPD2    C310783   3.361   0.157  10.373  0.0440 -0.2715 -0.2069
  726MPD2    C410784   3.439   0.095  10.466 -0.2895 -0.2782 -0.4391
  726MPD2    C510785   3.505   0.173  10.558  0.6021 -0.5649  0.2810
  726MPD2     H10786   3.296   0.345  10.285 -0.4215 -1.2264  0.0247
  726MPD2    H110787   3.451   4.725  10.481 -2.9447 -0.8325 -2.3327
  726MPD2    H210788   3.543   0.358  10.641 -0.6780  0.0106 -0.0604
  726MPD2    H310789   3.564   0.128  10.636 -0.9221  0.3046  1.9393
  726MPD2     N10790   3.289   0.068  10.293 -0.4465 -1.2446 -0.1505
  726MPD2    H510791   3.302   4.707  10.317  2.9005 -0.9838 -0.8424
  726MPD2    N110792   3.409   0.509  10.456 -0.3493 -0.0353  0.0580
  726MPD2    H710793   3.354   0.548  10.381 -1.1518  0.6397  0.9897
  727TMC3    C110794   3.490   0.727  10.484  0.3663 -0.3848 -0.4803
  727TMC3    C210795   3.603   0.795  10.511  0.2343 -0.2681 -0.4219
  727TMC3    C310796   3.610   0.931  10.515 -0.1139  0.4082 -0.0540
  727TMC3    C410797   3.373   0.787  10.480 -0.2439 -0.1622  0.5566
  727TMC3    C510798   3.377   0.924  10.499  0.0001 -0.0765 -0.4008
  727TMC3    C610799   3.496   1.002  10.505  0.1113 -0.3565  1.5112
  727TMC3     C10800   3.481   0.599  10.535  0.3453  0.0076 -0.1088
  727TMC3     O10801   3.562   0.570  10.621  0.1346  0.4444 -0.1266
  727TMC3     H10802   3.695   0.739  10.511  0.6647  0.4429 -0.6285
  727TMC3    H110803   3.284   0.724  10.477 -0.6208  0.4326 -0.7478
  727TMC3    H210804   3.481   1.102  10.543 -2.7356 -0.5137  0.7424
  727TMC3    C710805   3.253   0.998  10.501 -0.2000  0.3446 -0.0529
  727TMC3    C810806   3.731   0.980  10.587  0.4108 -0.0708 -0.3602
  727TMC3    O110807   3.260   1.119  10.479 -0.1421 -0.2201  0.2362
  727TMC3    O210808   3.836   0.922  10.573 -0.4430 -0.3903 -0.4236
  728TMC3    C110809   2.337   3.778  14.908 -0.2900  0.1428 -0.2879
  728TMC3    C210810   2.430   3.742  15.001  0.0709  1.3232 -0.2302
  728TMC3    C310811   2.553   3.698  14.959  0.4073 -0.3075  0.2596
  728TMC3    C410812   2.363   3.781  14.776 -0.2100 -0.1516 -0.7267
  728TMC3    C510813   2.487   3.746  14.737  0.7143 -0.2945  0.2567
  728TMC3    C610814   2.587   3.700  14.823  0.2118  0.0332 -0.1416
  728TMC3     C10815   2.201   3.789  14.946 -0.4191 -1.0006 -0.0127
  728TMC3     O10816   2.126   3.833  14.860 -0.1489  0.2271 -0.4241
  728TMC3     H10817   2.423   3.747  15.109  1.2562  3.4158 -0.2546
  728TMC3    H110818   2.283   3.803  14.706 -0.5286 -0.3568 -0.4267
  728TMC3    H210819   2.684   3.663  14.792  0.6582  1.0046  0.0852
  728TMC3    C710820   2.503   3.736  14.592  0.1782  0.0127  0.0477
  728TMC3    C810821   2.648   3.648  15.066 -0.3067  0.2000  0.7439
  728TMC3    O110822   2.404   3.730  14.520 -0.0409 -0.1197 -0.2730
  728TMC3    O210823   2.630   3.695  15.174 -0.0434  0.3454  0.6132
  729MPD2     C10824   4.332   0.464  16.827 -0.0016  0.2051 -1.2482
  729MPD2    C110825   4.410   0.348  16.808  0.1426 -0.4375  0.3350
  729MPD2    C210826   4.462   0.278  16.913  0.1252 -0.2473  0.2274
  729MPD2    C310827   4.451   0.324  17.040  0.3719 -0.0240  0.9507
  729MPD2    C410828   4.380   0.434  17.062 -0.1983 -0.2994  0.6718
  729MPD2    C510829   4.308   0.491  16.964 -0.1922  0.2686 -0.1547
  729MPD2     H10830   4.522   0.189  16.900 -1.8324 -1.4483 -0.6620
  729MPD2    H110831   4.356   0.472  17.161  1.5744 -1.1512  1.4203
  729MPD2    H210832   4.299   0.526  16.745 -0.3653  2.1154  0.3418
  729MPD2    H310833   4.240   0.571  16.992 -1.0789  0.0163 -1.6182
  729MPD2     N10834   4.504   0.264  17.150  0.1230 -0.2981  0.1179
  729MPD2    H510835   4.506   0.315  17.238  0.2352 -0.9366  0.4863
  729MPD2    N110836   4.431   0.304  16.673 -0.4360  0.1380 -0.0648
  729MPD2    H710837   4.380   0.357  16.603 -0.9130  0.6564  0.6826
  730TMC3    C110838   4.626   0.124  17.288  0.1508 -0.5381  0.0942
  730TMC3    C210839   0.027   0.135  17.271 -0.5381  0.2293  0.2286
  730TMC3    C310840   0.101   0.209  17.364 -0.8789  0.7166  0.2428
  730TMC3    C410841   4.565   0.193  17.385 -0.2097 -0.3275  0.4370
  730TMC3    C510842   4.637   0.268  17.478 -0.1867 -0.1586 -0.6787
  730TMC3    C610843   0.036   0.269  17.474 -0.5736 -0.0222  0.1892
  730TMC3     C10844   4.574   0.149  17.157 -0.5483  0.3696  0.3262
  730TMC3     O10845   4.595   0.067  17.072  0.4802 -0.1279  0.0855
  730TMC3     H10846   0.074   0.100  17.180  1.5900 -0.9264  1.7719
  730TMC3    H110847   4.457   0.197  17.392 -0.0733  2.0042  1.0528
  730TMC3    H210848   0.099   0.318  17.547 -1.0442  0.5833  0.1829
  730TMC3    C710849   4.585   0.405  17.477  0.0418  0.1169 -0.3636
  730TMC3    C810850   0.201   0.289  17.295 -0.0752  0.5614 -0.5328
  730TMC3    O110851   4.518   0.424  17.379 -0.9447 -0.3365  0.5324
  730TMC3    O210852   0.262   0.241  17.198  0.1752  0.9605  0.8135
  731MPD2     C10853   0.668   2.609  12.301 -0.5612  0.2731 -0.0219
  731MPD2    C110854   0.576   2.706  12.316 -0.1722  0.1359 -0.2090
  731MPD2    C210855   0.489   2.711  12.423 -0.3606 -0.7552  0.5571
  731MPD2    C310856   0.496   2.610  12.512  0.8598 -0.6509 -0.0163
  731MPD2    C410857   0.582   2.500  12.494  0.0575  0.4629  0.6422
  731MPD2    C510858   0.668   2.499  12.383 -0.3608 -0.4988  0.3459
  731MPD2     H10859   0.415   2.789  12.438  3.1887  2.0708  3.4805
  731MPD2    H110860   0.600   2.422  12.567  0.1896 -1.5306 -1.5205
  731MPD2    H210861   0.740   2.614  12.220  2.2116 -0.3802  2.3850
  731MPD2    H310862   0.728   2.410  12.366  0.1116 -0.3436  1.1877
  731MPD2     N10863   0.414   2.620  12.623  0.3860  0.1160  0.2336
  731MPD2    H510864   0.366   2.708  12.635  1.0056  0.3891  0.7056
  731MPD2    N110865   0.589   2.808  12.220  0.2744 -0.2186  1.0000
  731MPD2    H710866   0.657   2.796  12.146 -0.5805  0.3628  0.1073
  732TMC3    C110867   0.551   3.006  12.097  0.8831 -0.4548  0.0590
  732TMC3    C210868   0.451   3.088  12.047  0.8525  0.0805  0.3941
  732TMC3    C310869   0.470   3.154  11.921 -0.0763 -0.0879 -0.5092
  732TMC3    C410870   0.663   2.974  12.018 -0.4303 -0.2861 -0.2213
  732TMC3    C510871   0.674   3.040  11.896  0.3214  0.3428  0.5976
  732TMC3    C610872   0.570   3.116  11.842  0.2578 -0.3107  0.0098
  732TMC3     C10873   0.515   2.921  12.220  0.4353 -1.4369  0.5888
  732TMC3     O10874   0.410   2.947  12.279  0.6179 -0.2934 -0.6251
  732TMC3     H10875   0.365   3.098  12.112  0.8979  1.2966  0.2825
  732TMC3    H110876   0.749   2.925  12.062 -0.8278 -2.1752 -1.5533
  732TMC3    H210877   0.577   3.161  11.743  0.1646  1.9578  1.0473
  732TMC3    C710878   0.801   3.045  11.822  0.1448  0.1858 -0.9830
  732TMC3    C810879   0.369   3.245  11.864 -0.2587 -0.2106 -0.4631
  732TMC3    O110880   0.809   3.121  11.727  0.0520 -0.1405  1.4034
  732TMC3    O210881   0.376   3.260  11.745  0.4258  0.6914 -0.5838
  733TMC3    C110882   1.028   1.185  13.070 -0.3258  0.1738  0.0360
  733TMC3    C210883   1.066   1.314  13.085 -0.1066  0.0776  0.0405
  733TMC3    C310884   1.188   1.360  13.026  0.0970  0.1982  0.2199
  733TMC3    C410885   1.109   1.101  12.997 -0.5317  0.0299  0.0778
  733TMC3    C510886   1.222   1.150  12.940  0.0706 -0.0403  0.2751
  733TMC3    C610887   1.261   1.277  12.954  0.3827  0.1548 -0.2468
  733TMC3     C10888   0.883   1.172  13.046 -0.5550  0.1686 -0.5194
  733TMC3     O10889   0.835   1.263  12.981 -0.0495  0.1722 -1.0272
  733TMC3     H10890   0.995   1.387  13.124 -0.6740  0.1238 -1.0843
  733TMC3    H110891   1.059   1.009  12.970  0.5577  0.0177 -1.9030
  733TMC3    H210892   1.356   1.310  12.913  1.0473  0.1119  1.2551
  733TMC3    C710893   1.244   1.102  12.808 -0.5071  0.2384 -0.8588
  733TMC3    C810894   1.167   1.474  12.948 -0.5759 -0.5857 -0.0090
  733TMC3    O110895   1.222   0.987  12.775 -0.3805  0.7953  0.1492
  733TMC3    O210896   1.192   1.461  12.830  0.3904  0.2242  0.2322
  734MPD2     C10897   3.082   3.503  12.397  0.0624 -0.0242 -0.2405
  734MPD2    C110898   3.038   3.395  12.310 -0.4087  0.2458  0.5106
  734MPD2    C210899   3.094   3.389  12.181  0.1219 -0.3494 -0.2908
  734MPD2    C310900   3.177   3.487  12.128 -0.2052  0.0168 -0.4909
  734MPD2    C410901   3.219   3.585  12.217  0.0427 -0.9575  0.5996
  734MPD2    C510902   3.170   3.594  12.346 -0.4553 -0.1334 -0.5370
  734MPD2     H10903   3.072   3.308  12.113  1.3274  0.1719 -1.3084
  734MPD2    H110904   3.285   3.664  12.183 -0.9815  0.0859  1.0100
  734MPD2    H210905   3.049   3.516  12.499  0.5741 -1.5393  0.1192
  734MPD2    H310906   3.204   3.679  12.404  0.0222 -0.8326  0.1957
  734MPD2     N10907   3.204   3.488  11.993  0.3628 -0.4507 -0.7036
  734MPD2    H510908   3.161   3.413  11.939 -0.0459  0.0535 -1.0713
  734MPD2    N110909   2.943   3.302  12.352 -0.5069  0.0025  0.2954
  734MPD2    H710910   2.912   3.312  12.449  0.2026 -0.1333  0.5311
  735TMC3    C110911   2.823   3.100  12.343  0.3460  0.1404 -0.6295
  735TMC3    C210912   2.770   3.024  12.242 -0.0042 -0.4190 -0.0317
  735TMC3    C310913   2.817   2.900  12.218  0.6785  0.6903 -0.2707
  735TMC3    C410914   2.915   3.051  12.426  0.0665  0.0704 -0.5335
  735TMC3    C510915   2.961   2.925  12.400 -0.6516 -0.1454 -0.0870
  735TMC3    C610916   2.920   2.854  12.290  0.2179  0.4505 -0.6231
  735TMC3     C10917   2.887   3.200  12.271 -0.1709  0.0836  0.2633
  735TMC3     O10918   2.891   3.181  12.150  0.4735  0.1121 -0.3050
  735TMC3     H10919   2.688   3.075  12.192  1.1509  1.1303 -0.3300
  735TMC3    H110920   2.968   3.099  12.508 -0.6580 -0.2234  0.1007
  735TMC3    H210921   2.961   2.756  12.265  0.0081  0.2583 -0.2097
  735TMC3    C710922   3.085   2.885  12.453 -0.5220 -1.1793  0.1625
  735TMC3    C810923   2.825   2.865  12.078 -0.6704 -0.1407 -1.1091
  735TMC3    O110924   3.173   2.972  12.475 -0.2709  0.1252  0.2630
  735TMC3    O210925   2.824   2.748  12.040 -0.4726 -0.3507 -0.3536
  736MPD2     C10926   3.154   2.555  12.603  0.2980 -0.2377 -0.4019
  736MPD2    C110927   3.178   2.677  12.543  0.6692 -0.2949 -0.0933
  736MPD2    C210928   3.308   2.719  12.540 -0.3852  0.0085 -0.6085
  736MPD2    C310929   3.413   2.642  12.584 -0.5173 -0.3070 -0.2013
  736MPD2    C410930   3.388   2.526  12.654  0.4746 -0.4241  0.2638
  736MPD2    C510931   3.255   2.482  12.662 -0.2100  0.1415 -0.5179
  736MPD2     H10932   3.332   2.810  12.486  0.9288 -0.3284 -0.6038
  736MPD2    H110933   3.466   2.473  12.707 -0.8119 -0.0383  2.5684
  736MPD2    H210934   3.055   2.511  12.608  0.8573 -1.5130 -0.2812
  736MPD2    H310935   3.231   2.391  12.716 -3.1359  1.0067 -0.3456
  736MPD2     N10936   3.547   2.677  12.569 -0.5288 -0.5734 -0.3305
  736MPD2    H510937   3.608   2.601  12.595 -0.7142 -0.0394  1.6450
  736MPD2    N110938   3.073   2.758  12.502 -0.5662 -0.5135 -0.2809
  736MPD2    H710939   2.982   2.713  12.503 -0.9208  0.2091  0.0625
  737TMC3    C110940   3.729   2.787  12.479  0.0911 -0.0567 -0.1520
  737TMC3    C210941   3.776   2.915  12.460  0.1155  0.3659  0.2504
  737TMC3    C310942   3.822   2.949  12.339 -0.1764  0.0834 -0.2333
  737TMC3    C410943   3.736   2.698  12.379 -0.8118  0.6367 -0.5456
  737TMC3    C510944   3.784   2.740  12.257  0.0931 -0.3068 -1.0020
  737TMC3    C610945   3.837   2.863  12.239  0.9135 -0.1810  0.7792
  737TMC3     C10946   3.593   2.800  12.525  0.6270  0.2349  0.5107
  737TMC3     O10947   3.543   2.892  12.470  0.0330  0.7917 -0.1401
  737TMC3     H10948   3.764   2.990  12.537 -1.1225 -0.8367  1.2278
  737TMC3    H110949   3.712   2.593  12.387 -1.0919  0.7020 -0.5413
  737TMC3    H210950   3.866   2.896  12.140 -0.0256 -0.5411  0.3806
  737TMC3    C710951   3.779   2.633  12.152  0.6366 -0.4356 -0.8615
  737TMC3    C810952   3.829   3.094  12.306  0.5279 -0.1568 -0.0630
  737TMC3    O110953   3.726   2.523  12.177 -0.3647 -0.1722  0.7750
  737TMC3    O210954   3.823   3.175  12.398 -0.7886 -0.0813 -0.0682
  738MPD2     C10955   3.738   2.124  15.382 -0.8654 -0.3156 -0.3287
  738MPD2    C110956   3.724   2.042  15.269 -0.4699 -0.1190  0.1286
  738MPD2    C210957   3.823   2.040  15.171  0.0403  0.1369 -0.3949
  738MPD2    C310958   3.947   2.094  15.199  0.1021  0.2856 -0.4339
  738MPD2    C410959   3.966   2.160  15.323  0.6178 -0.1181  0.5957
  738MPD2    C510960   3.863   2.177  15.412  0.3139 -0.4806 -0.6334
  738MPD2     H10961   3.792   2.007  15.072  0.4983  0.0548 -0.5116
  738MPD2    H110962   4.058   2.209  15.351  0.4557 -0.4610  1.7105
  738MPD2    H210963   3.656   2.144  15.449 -0.6773 -1.0286  0.1092
  738MPD2    H310964   3.873   2.230  15.505 -0.8607 -1.0899 -0.1535
  738MPD2     N10965   4.052   2.107  15.101  0.0357 -0.2860  0.1902
  738MPD2    H510966   4.140   2.150  15.128  1.1188 -0.9919 -2.1608
  738MPD2    N110967   3.605   1.963  15.249  0.1268  0.0078 -0.1709
  738MPD2    H710968   3.612   1.910  15.162 -1.2986 -2.4202  1.2158
  739TMC3    C110969   4.145   2.144  14.885 -0.1252  0.3515  0.4094
  739TMC3    C210970   4.158   2.067  14.774  0.6043  0.7774  0.2686
  739TMC3    C310971   4.176   2.131  14.651 -0.0487 -0.4019 -0.1016
  739TMC3    C410972   4.121   2.282  14.869  0.0601 -0.0888 -0.1968
  739TMC3    C510973   4.143   2.346  14.744  0.2858  0.1844  0.4344
  739TMC3    C610974   4.174   2.266  14.639 -0.6280 -0.8794 -0.2050
  739TMC3     C10975   4.038   2.081  14.964 -0.5654  0.3068 -0.5717
  739TMC3     O10976   3.959   2.006  14.908  0.4280  0.3749 -0.3534
  739TMC3     H10977   4.148   1.959  14.773  0.6175  0.7684  1.6752
  739TMC3    H110978   4.076   2.333  14.954 -3.1802 -3.5893  0.1385
  739TMC3    H210979   4.194   2.316  14.545 -0.0015 -3.1828 -1.2877
  739TMC3    C710980   4.143   2.484  14.728  0.0742  0.5796  0.0554
  739TMC3    C810981   4.174   2.054  14.528  0.0246  0.3977 -0.2298
  739TMC3    O110982   4.158   2.524  14.615 -0.0568  0.4902  0.7467
  739TMC3    O210983   4.128   2.112  14.429  0.3473 -0.2617 -0.8393
  740TMC3    C110984   4.465   3.635  14.181  0.3898 -0.6311  0.4552
  740TMC3    C210985   4.477   3.610  14.319  0.0961 -0.2955 -0.4943
  740TMC3    C310986   4.604   3.591  14.364  1.1601 -0.1001 -0.0674
  740TMC3    C410987   4.575   3.667  14.098  0.0123  0.6838  0.1884
  740TMC3    C510988   4.701   3.647  14.162  0.6308 -0.5509 -0.0444
  740TMC3    C610989   4.715   3.611  14.296  0.2297 -0.3744 -0.8022
  740TMC3     C10990   4.330   3.665  14.127  0.9081 -0.3710 -0.8454
  740TMC3     O10991   4.326   3.711  14.014 -0.8363 -0.2896 -0.4120
  740TMC3     H10992   4.397   3.600  14.391  0.8629 -0.5586  0.3316
  740TMC3    H110993   4.553   3.673  13.992 -1.6025 -1.5518  0.4008
  740TMC3    H210994   0.078   3.608  14.338 -0.7374 -1.7361  1.4119
  740TMC3    C710995   0.087   3.670  14.091 -1.6028 -0.2683  0.2949
  740TMC3    C810996   4.617   3.507  14.491 -0.4023  0.8401 -0.0111
  740TMC3    O110997   0.196   3.665  14.152 -0.1199 -0.1231  0.1559
  740TMC3    O210998   4.516   3.469  14.549 -0.6303  0.8360  0.0878
  741TMC3    C110999   4.035   2.729  13.846 -0.1942 -0.3259  0.1018
  741TMC3    C211000   3.921   2.742  13.918 -0.4318 -0.0189  0.1977
  741TMC3    C311001   3.907   2.648  14.016  0.3505 -0.3227 -0.7437
  741TMC3    C411002   4.131   2.626  13.852  0.3760 -0.1399 -0.6916
  741TMC3    C511003   4.102   2.535  13.946  0.1639 -0.5833  0.1950
  741TMC3    C611004   3.996   2.549  14.034  0.6094  0.1514  0.2221
  741TMC3     C11005   4.037   2.820  13.728  0.1707  0.1910 -0.7281
  741TMC3     O11006   3.936   2.888  13.705 -0.4420  0.1493 -0.1796
  741TMC3     H11007   3.852   2.821  13.895  0.7429  1.3448  1.3823
  741TMC3    H111008   4.222   2.632  13.793  1.8371  1.6839  1.7481
  741TMC3    H211009   3.983   2.464  14.100 -0.5344  0.7171  0.7186
  741TMC3    C711010   4.163   2.406  13.931 -0.2646 -0.3156 -0.6978
  741TMC3    C811011   3.778   2.654  14.084 -0.7380 -0.1240 -0.2981
  741TMC3    O111012   4.144   2.317  14.020 -0.1700 -0.1413  0.1147
  741TMC3    O211013   3.687   2.725  14.048  0.4384  0.0235 -0.5628
  742TMC3    C111014   3.560   1.365  15.216  0.7373  0.3416 -0.3226
  742TMC3    C211015   3.513   1.375  15.087 -0.4142  0.6118 -0.3925
  742TMC3    C311016   3.605   1.358  14.983  0.1894  0.2873 -0.4489
  742TMC3    C411017   3.699   1.370  15.239  0.4716 -0.1550  0.0229
  742TMC3    C511018   3.790   1.372  15.133  0.5459 -0.3864  0.5158
  742TMC3    C611019   3.741   1.368  15.004  0.2935  0.3842  0.1285
  742TMC3     C11020   3.471   1.410  15.316  0.1408  0.3284 -0.5116
  742TMC3     O11021   3.355   1.372  15.317  0.0951  0.3709 -0.4661
  742TMC3     H11022   3.408   1.354  15.073 -0.4373  0.8453 -0.5611
  742TMC3    H111023   3.737   1.340  15.336  0.3046  0.6980  0.3438
  742TMC3    H211024   3.816   1.383  14.926  1.6012 -1.2687  1.0629
  742TMC3    C711025   3.931   1.326  15.152 -0.3844  0.1335  0.0583
  742TMC3    C811026   3.573   1.332  14.844 -0.4357 -0.4906  0.1958
  742TMC3    O111027   3.981   1.297  15.043 -0.1203 -0.1211  0.3703
  742TMC3    O211028   3.672   1.310  14.770  0.1342  0.2750 -0.3446
  743MPD2     C11029   1.864   1.657   1.244 -0.3565  0.3234 -0.2787
  743MPD2    C111030   1.928   1.778   1.228 -0.0603 -0.0892  0.2851
  743MPD2    C211031   2.068   1.788   1.247 -0.1916  0.0892  0.4003
  743MPD2    C311032   2.138   1.678   1.294 -0.6345 -0.0308  0.0261
  743MPD2    C411033   2.074   1.559   1.315  0.6430 -0.4447  0.4602
  743MPD2    C511034   1.940   1.555   1.294 -0.0263 -0.3932  0.2835
  743MPD2     H11035   2.117   1.881   1.223  0.1600  0.0277  0.8679
  743MPD2    H111036   2.114   1.466   1.354  0.3006 -0.8354 -0.1172
  743MPD2    H211037   1.756   1.648   1.245 -0.4627  1.7938  1.4972
  743MPD2    H311038   1.882   1.470   1.329  0.0648 -1.3998 -1.9908
  743MPD2     N11039   2.276   1.694   1.306  0.0638  0.0642 -0.1620
  743MPD2    H511040   2.301   1.792   1.301 -0.6538  0.3057  0.9253
  743MPD2    N111041   1.853   1.882   1.178  0.2757  0.0678 -0.6947
  743MPD2    H711042   1.752   1.869   1.173  0.1121  1.5111 -1.2027
  744TMC3    C111043   1.783   2.088   1.103 -0.0415 -0.3238 -0.6201
  744TMC3    C211044   1.780   2.213   1.158  0.0997  0.7137  0.6657
  744TMC3    C311045   1.671   2.291   1.129 -0.6221 -0.0227 -0.7479
  744TMC3    C411046   1.698   2.036   1.010 -0.7850 -0.1228 -0.4295
  744TMC3    C511047   1.593   2.119   0.980  0.8425  0.2072  0.1153
  744TMC3    C611048   1.571   2.234   1.048  0.8321 -0.2135  0.1524
  744TMC3     C11049   1.893   2.008   1.139 -0.5697  0.3011  0.4817
  744TMC3     O11050   2.002   2.061   1.140  0.0493 -0.5094  0.0927
  744TMC3     H11051   1.850   2.241   1.236  1.6776 -2.0408  0.2172
  744TMC3    H111052   1.710   1.942   0.956  2.9448 -0.4776  1.0135
  744TMC3    H211053   1.493   2.298   1.010 -0.1287 -1.6595 -0.3129
  744TMC3    C711054   1.540   2.107   0.846 -0.3921 -0.5533  0.0572
  744TMC3    C811055   1.679   2.431   1.149 -0.4373 -0.7234 -0.6053
  744TMC3    O111056   1.513   2.213   0.787  0.8160 -0.2287 -0.1189
  744TMC3    O211057   1.574   2.493   1.155 -0.1823  0.3823 -0.2797
  745TMC3    C111058   4.496   0.493  13.058  0.6980 -0.2721  0.4413
  745TMC3    C211059   4.391   0.532  13.142  0.5754  0.1204  0.1979
  745TMC3    C311060   4.264   0.538  13.089 -0.5767 -0.3731 -0.0713
  745TMC3    C411061   4.476   0.455  12.925  0.2254 -0.1991  0.6369
  745TMC3    C511062   4.342   0.447  12.882  0.1203 -0.6417 -0.6994
  745TMC3    C611063   4.241   0.488  12.965 -0.3782 -0.4086 -1.3004
  745TMC3     C11064   4.631   0.538  13.085  0.4537 -0.0142 -0.1271
  745TMC3     O11065   4.724   0.487  13.026  0.3053  0.0641  0.5213
  745TMC3     H11066   4.412   0.560  13.244 -0.3458 -0.4178  0.5375
  745TMC3    H111067   4.557   0.417  12.863 -0.1531 -0.0979  0.0784
  745TMC3    H211068   4.146   0.502  12.913 -1.2434  0.5881  0.5634
  745TMC3    C711069   4.315   0.510  12.755  0.6896 -0.0793 -0.1333
  745TMC3    C811070   4.165   0.636  13.134  0.8509  0.1214  0.3345
  745TMC3    O111071   4.226   0.485  12.682  0.5605  0.0565 -0.0153
  745TMC3    O211072   4.065   0.640  13.065  0.1577  0.4567  0.5556
  746TMC3    C111073   2.116   2.564  10.987 -0.3074  0.0831  0.2911
  746TMC3    C211074   2.178   2.518  10.877 -0.4740 -0.8604  0.3935
  746TMC3    C311075   2.131   2.405  10.822  0.2042  0.0347 -0.0517
  746TMC3    C411076   2.017   2.494  11.045  0.8186  0.1281 -0.3486
  746TMC3    C511077   1.972   2.383  10.981  0.4775  0.4983 -0.0102
  746TMC3    C611078   2.028   2.337  10.872  0.5255  0.5148 -0.3117
  746TMC3     C11079   2.136   2.696  11.029 -0.1448  0.3606 -0.2055
  746TMC3     O11080   2.106   2.717  11.144 -0.4326 -0.6527  0.4793
  746TMC3     H11081   2.270   2.559  10.836 -0.5532 -0.2194  0.8597
  746TMC3    H111082   1.972   2.535  11.134 -0.1012  1.5117 -1.4577
  746TMC3    H211083   1.985   2.251  10.821 -2.1479  2.6935 -1.7346
  746TMC3    C711084   1.854   2.316  11.019  0.3260  0.8068 -0.1906
  746TMC3    C811085   2.174   2.356  10.697  0.0174  0.2016  0.4366
  746TMC3    O111086   1.789   2.271  10.926 -0.1193  0.2946  0.9226
  746TMC3    O211087   2.134   2.247  10.658  0.9868 -0.3103  0.1758
  747TMC3    C111088   3.918   2.759  11.093  0.4633  0.1735 -0.0014
  747TMC3    C211089   3.894   2.677  11.198 -0.8362 -0.9674 -0.1760
  747TMC3    C311090   3.949   2.709  11.321 -0.1224  0.2956 -0.5719
  747TMC3    C411091   3.992   2.870  11.095 -0.3224 -0.9702  1.3104
  747TMC3    C511092   4.047   2.897  11.221 -0.2379 -0.4947  0.0156
  747TMC3    C611093   4.035   2.814  11.329 -0.5622  0.1229  0.3957
  747TMC3     C11094   3.835   2.743  10.970  0.4355  0.5441 -0.7841
  747TMC3     O11095   3.803   2.843  10.904 -0.5870 -0.0149  0.2499
  747TMC3     H11096   3.813   2.607  11.185 -1.8287  0.3449 -0.9295
  747TMC3    H111097   4.009   2.922  11.001  2.0408 -2.8233  0.6933
  747TMC3    H211098   4.084   2.834  11.424 -0.2088 -0.0199  0.2422
  747TMC3    C711099   4.149   3.005  11.228  0.6100 -0.3790  0.5201
  747TMC3    C811100   3.930   2.610  11.430 -0.0145 -0.8629 -0.8676
  747TMC3    O111101   4.210   3.020  11.334 -0.3790  0.3479  0.1390
  747TMC3    O211102   3.910   2.493  11.393  0.2600  0.3219  0.2773
  748MPD2     C11103   0.884   3.503   0.996 -0.5727  0.8433  0.3027
  748MPD2    C111104   0.987   3.521   1.088 -0.0584  0.0419  0.0301
  748MPD2    C211105   1.081   3.623   1.078  0.0806  0.4984  0.7693
  748MPD2    C311106   1.067   3.705   0.975  0.2224 -0.4129  0.3654
  748MPD2    C411107   0.959   3.701   0.886  0.4285 -0.1996 -0.0108
  748MPD2    C511108   0.876   3.595   0.893 -0.0896 -0.0040 -0.5130
  748MPD2     H11109   1.169   3.637   1.140  0.1925 -0.3442  0.8011
  748MPD2    H111110   0.960   3.772   0.804 -0.2675  0.6934  0.7475
  748MPD2    H211111   0.802   3.435   1.012  0.6425 -0.1392  2.2830
  748MPD2    H311112   0.787   3.591   0.832  1.4171  1.6700 -2.7902
  748MPD2     N11113   1.162   3.810   0.960  0.6259  0.5943  0.4097
  748MPD2    H511114   1.243   3.797   1.020  0.0255  0.0116  1.1080
  748MPD2    N111115   0.987   3.437   1.207 -0.0270 -0.2505  0.1635
  748MPD2    H711116   1.059   3.466   1.272 -2.0524 -0.1266  2.3718
  749TMC3    C111117   1.256   4.016   0.890 -0.3921  0.9568  0.2529
  749TMC3    C211118   1.380   3.954   0.864  1.1575  0.4338 -0.3879
  749TMC3    C311119   1.480   4.033   0.811 -0.1233  0.0497 -0.0838
  749TMC3    C411120   1.233   4.149   0.875 -0.5053  0.1642  0.4990
  749TMC3    C511121   1.349   4.218   0.842  0.0572 -0.7374  0.4772
  749TMC3    C611122   1.466   4.165   0.803 -0.1189  0.0059 -0.2710
  749TMC3     C11123   1.141   3.936   0.897 -0.0618  0.2327 -0.1516
  749TMC3     O11124   1.046   3.977   0.832 -0.3211 -0.1292  0.4154
  749TMC3     H11125   1.389   3.849   0.889  0.0362  0.7159  1.1847
  749TMC3    H111126   1.142   4.197   0.910 -1.6017 -1.0631 -0.6635
  749TMC3    H211127   1.546   4.229   0.768  0.9845 -0.5961  1.1928
  749TMC3    C711128   1.339   4.362   0.836  0.1896 -0.4205  0.0763
  749TMC3    C811129   1.617   3.987   0.839  0.0148 -0.2753 -0.7427
  749TMC3    O111130   1.430   4.434   0.864  0.5472 -0.6314  0.6229
  749TMC3    O211131   1.695   4.075   0.877 -0.2141 -0.3518  0.2724
  750MPD2     C11132   2.399   4.521  10.934  0.3271 -0.6313 -0.1520
  750MPD2    C111133   2.312   4.432  10.986 -0.1743 -0.0959 -0.4929
  750MPD2    C211134   2.302   4.310  10.916  0.4317 -0.3344 -0.1887
  750MPD2    C311135   2.346   4.299  10.787  0.4195 -0.8023  0.2254
  750MPD2    C411136   2.411   4.400  10.732  0.2002 -0.6571 -0.2399
  750MPD2    C511137   2.446   4.512  10.806  0.5301  0.7587  0.0861
  750MPD2     H11138   2.243   4.229  10.957  1.1997 -1.5047 -1.3992
  750MPD2    H111139   2.447   4.404  10.630  0.5614 -3.3854 -0.2179
  750MPD2    H211140   2.418   4.613  10.989  1.0603 -0.9913  0.1885
  750MPD2    H311141   2.503   4.594  10.763  3.2591 -0.6468  1.0383
  750MPD2     N11142   2.317   4.189  10.700  0.3201 -0.0167  0.7608
  750MPD2    H511143   2.347   4.199  10.604  0.4733  3.0910  1.1505
  750MPD2    N111144   2.227   4.474  11.093 -0.3933  0.5572  0.4021
  750MPD2    H711145   2.225   4.571  11.122 -1.3317  0.1976  1.5344
  751TMC3    C111146   2.195   4.010  10.616 -0.3397 -0.2111  0.0723
  751TMC3    C211147   2.079   3.942  10.623  0.0576 -0.4238  0.4786
  751TMC3    C311148   2.020   3.897  10.508 -0.3052  0.1521  0.2009
  751TMC3    C411149   2.257   4.030  10.492 -0.1792 -0.5785  0.2103
  751TMC3    C511150   2.200   3.966  10.379 -0.2409  0.0728 -0.1369
  751TMC3    C611151   2.078   3.905  10.381  0.1514  0.6538 -0.1178
  751TMC3     C11152   2.231   4.084  10.730 -0.3955 -0.1568  0.0501
  751TMC3     O11153   2.171   4.052  10.833  0.1042  0.4494  0.0132
  751TMC3     H11154   2.035   3.906  10.716  3.0917 -1.6789  1.4383
  751TMC3    H111155   2.347   4.090  10.486 -1.2745  0.9765 -0.5266
  751TMC3    H211156   2.044   3.835  10.305  2.5802 -0.1454 -0.4651
  751TMC3    C711157   2.290   3.949  10.263  0.0502 -0.0271 -0.1806
  751TMC3    C811158   1.919   3.792  10.533 -0.1799  0.0730  0.3845
  751TMC3    O111159   2.405   3.974  10.289  0.1141  0.0781 -0.0237
  751TMC3    O211160   1.901   3.710  10.442 -0.0012  0.3909  0.0014
  752TMC3    C111161   0.645   4.701  16.991  1.1887 -0.5700 -0.1764
  752TMC3    C211162   0.721   4.598  17.043 -0.4019 -0.1313 -0.4262
  752TMC3    C311163   0.799   4.620  17.158 -0.7480 -0.2358 -0.0026
  752TMC3    C411164   0.639   0.087  17.046 -0.3232 -0.0409  0.3797
  752TMC3    C511165   0.712   0.105  17.155  0.0609 -0.2469 -0.0902
  752TMC3    C611166   0.791   0.005  17.217  0.1968  0.3284  0.2444
  752TMC3     C11167   0.633   4.688  16.844 -0.2097 -0.7837 -0.0831
  752TMC3     O11168   0.726   4.620  16.795  0.4349  0.2588  0.1065
  752TMC3     H11169   0.718   4.500  16.999 -2.1693 -1.3648  2.4327
  752TMC3    H111170   0.569   0.162  17.010  1.1328  0.4390 -1.4692
  752TMC3    H211171   0.859   0.016  17.301 -1.3910  0.5838  1.5042
  752TMC3    C711172   0.721   0.234  17.224 -1.1958  1.4210 -0.6855
  752TMC3    C811173   0.849   4.503  17.230 -0.5566  0.0308  0.8612
  752TMC3    O111174   0.748   0.229  17.345  0.0951  0.1012 -0.0187
  752TMC3    O211175   0.854   4.406  17.155  0.6537  0.0747  0.4504
  753TMC3    C111176   2.531   1.210  13.332  0.1898 -0.2802 -0.0737
  753TMC3    C211177   2.616   1.229  13.440 -0.0785 -0.6258  0.5004
  753TMC3    C311178   2.719   1.151  13.460  0.2868  0.0605 -0.5124
  753TMC3    C411179   2.559   1.105  13.242 -0.3916  0.2745 -0.0974
  753TMC3    C511180   2.671   1.035  13.253  0.7367 -0.0961  0.4992
  753TMC3    C611181   2.753   1.052  13.368 -0.0002 -0.3016  0.2811
  753TMC3     C11182   2.422   1.301  13.300  0.5322  0.1537  0.4460
  753TMC3     O11183   2.329   1.259  13.235 -0.0344  0.2500  0.2273
  753TMC3     H11184   2.587   1.292  13.524  0.7298 -0.6138  0.7720
  753TMC3    H111185   2.485   1.085  13.165 -0.8376 -0.6391  0.5804
  753TMC3    H211186   2.833   0.980  13.383  0.6285  0.8434  2.5852
  753TMC3    C711187   2.665   0.909  13.182 -0.6225  0.7538 -0.0730
  753TMC3    C811188   2.785   1.149  13.593 -0.7205 -0.5591 -0.0077
  753TMC3    O111189   2.550   0.861  13.160 -0.2891 -0.4652  0.3108
  753TMC3    O211190   2.739   1.226  13.679  0.2955 -0.0196 -0.4217
  754MPD2     C11191   2.125   4.549  12.708 -0.5211  0.5173 -0.8000
  754MPD2    C111192   2.109   4.414  12.700  0.1849  1.0938  0.3591
  754MPD2    C211193   1.999   4.359  12.756  0.6874 -0.0909  0.5432
  754MPD2    C311194   1.903   4.430  12.830  0.2403 -0.3582 -0.6104
  754MPD2    C411195   1.928   4.567  12.844 -0.6098  0.6107 -0.3696
  754MPD2    C511196   2.039   4.620  12.783  0.0936 -0.5550  0.1250
  754MPD2     H11197   1.971   4.259  12.725  0.0055  0.1295  0.4510
  754MPD2    H111198   1.873   4.640  12.902 -0.5221 -2.0955  3.0717
  754MPD2    H211199   2.211   4.601  12.667  0.2409 -2.0058 -2.4054
  754MPD2    H311200   2.059   4.727  12.791  1.1107 -0.6745 -0.8665
  754MPD2     N11201   1.787   4.370  12.882  0.2288  0.1943 -0.4952
  754MPD2    H511202   1.733   4.437  12.935  0.6000  0.3409 -0.3015
  754MPD2    N111203   2.210   4.345  12.623  0.1216  0.2624 -0.0384
  754MPD2    H711204   2.270   4.415  12.578 -0.0309 -0.3634 -1.2123
  755MPD2     C11205   1.113   0.059  13.185  0.0126  0.2368 -0.2052
  755MPD2    C111206   1.080   4.668  13.227 -0.6239 -0.2172 -0.3999
  755MPD2    C211207   1.162   4.565  13.197  0.0222  0.1548 -0.5912
  755MPD2    C311208   1.279   4.588  13.122  0.2768  0.4140  0.6146
  755MPD2    C411209   1.318   4.713  13.092  0.0347 -0.3539 -0.3534
  755MPD2    C511210   1.236   0.081  13.124  0.0827 -0.0635  0.2937
  755MPD2     H11211   1.130   4.465  13.221  0.3800  0.7160  2.2372
  755MPD2    H111212   1.410   4.722  13.037  0.8004 -1.6156  0.7130
  755MPD2    H211213   1.058   0.149  13.209  0.2443  0.0113  1.1592
  755MPD2    H311214   1.258   0.183  13.093 -1.0024  0.0766 -0.0034
  755MPD2     N11215   1.375   4.483  13.098  0.2781 -0.5940  0.0845
  755MPD2    H511216   1.470   4.513  13.078 -0.2253  1.8712  1.3531
  755MPD2    N111217   0.961   4.643  13.301  0.3041 -0.0614  0.3929
  755MPD2    H711218   0.951   4.547  13.332  0.4986 -0.2261 -0.0544
  756MPD2     C11219   1.075   0.501   9.580  0.2530 -0.9816 -0.1283
  756MPD2    C111220   1.137   0.378   9.584  0.5851 -1.1079 -0.6003
  756MPD2    C211221   1.059   0.275   9.522 -0.1909  0.3056 -0.0011
  756MPD2    C311222   0.939   0.285   9.462  0.0672  0.0536  0.2472
  756MPD2    C411223   0.887   0.410   9.468 -0.2657 -0.4090 -0.9264
  756MPD2    C511224   0.948   0.514   9.531  0.5048 -0.1561 -0.3406
  756MPD2     H11225   1.105   0.178   9.507  0.6715  0.7824 -0.4497
  756MPD2    H111226   0.787   0.438   9.435  0.4497  2.4906 -0.6392
  756MPD2    H211227   1.123   0.586   9.625 -1.6898  0.2861 -0.4521
  756MPD2    H311228   0.898   0.611   9.533  0.1894 -0.3153 -0.4823
  756MPD2     N11229   0.883   0.177   9.391 -0.4459 -0.1630 -0.1025
  756MPD2    H511230   0.937   0.091   9.392 -0.0778  0.0521 -0.9688
  756MPD2    N111231   1.260   0.340   9.640  0.3771  0.7435  0.7833
  756MPD2    H711232   1.274   0.240   9.638  1.0057  0.8530 -0.3505
  757MPD2     C11233   1.141   4.017   9.221 -0.3450  0.0603  0.1492
  757MPD2    C111234   1.012   4.007   9.274 -0.7133  0.1326  0.0864
  757MPD2    C211235   0.944   4.116   9.307  0.5239 -0.1306 -0.5638
  757MPD2    C311236   0.999   4.241   9.291  0.4704 -0.2590  0.8552
  757MPD2    C411237   1.127   4.247   9.251  0.3705  0.0537  0.1410
  757MPD2    C511238   1.199   4.136   9.215 -0.2362 -0.0189  0.0174
  757MPD2     H11239   0.845   4.113   9.350  0.1199  0.6941 -1.4129
  757MPD2    H111240   1.177   4.343   9.244 -0.4102  0.3476 -1.4414
  757MPD2    H211241   1.194   3.926   9.196  0.6727  0.8818 -0.6365
  757MPD2    H311242   1.304   4.146   9.189 -0.1836  0.2231  0.3140
  757MPD2     N11243   0.917   4.350   9.328  0.0581 -0.3219  0.4764
  757MPD2    H511244   0.827   4.328   9.369 -0.4560 -0.1840 -0.5725
  757MPD2    N111245   0.959   3.878   9.285  0.2062 -0.0451 -0.4196
  757MPD2    H711246   1.027   3.804   9.275  1.3992  1.3367 -2.5733
  758MPD2     C11247   1.338   4.076  15.601  0.3360 -0.1786 -0.7160
  758MPD2    C111248   1.426   4.000  15.675 -0.1889 -0.0929  0.1668
  758MPD2    C211249   1.396   3.966  15.809  0.4954  0.2623 -0.1603
  758MPD2    C311250   1.277   4.016  15.863 -0.0455  0.2599  0.1305
  758MPD2    C411251   1.186   4.089  15.787 -0.0900  0.4290  0.2042
  758MPD2    C511252   1.222   4.124  15.661 -0.0483  0.5595  0.3117
  758MPD2     H11253   1.455   3.899  15.869  0.6635 -0.6640 -1.3649
  758MPD2    H111254   1.095   4.130  15.828 -1.1970 -0.7854 -0.9986
  758MPD2    H211255   1.372   4.101  15.502  3.1028 -1.8729 -0.1714
  758MPD2    H311256   1.157   4.188  15.603  1.1582  1.0140 -0.5206
  758MPD2     N11257   1.245   3.994  16.000 -0.5084  0.2775  0.5275
  758MPD2    H511258   1.158   4.028  16.040 -1.6274 -1.1963 -0.6434
  758MPD2    N111259   1.554   3.969  15.618  0.2719 -0.0550  0.1962
  758MPD2    H711260   1.569   4.019  15.531 -2.1647  2.4332  1.2056
  759MPD2     C11261   0.488   2.488  10.465  0.4541 -0.0589 -0.2991
  759MPD2    C111262   0.567   2.380  10.485 -0.1962  0.0070  0.0725
  759MPD2    C211263   0.662   2.352  10.389 -0.4588  0.0943 -0.8321
  759MPD2    C311264   0.668   2.428  10.270 -0.2132 -0.2288  0.8282
  759MPD2    C411265   0.584   2.538  10.254 -0.0965 -0.3968 -0.7883
  759MPD2    C511266   0.490   2.558  10.351  0.2728  0.2550  0.6547
  759MPD2     H11267   0.724   2.264  10.402  0.3028  1.1333  2.4817
  759MPD2    H111268   0.584   2.607  10.170  1.7777  0.9285  0.3152
  759MPD2    H211269   0.410   2.517  10.535 -1.2256 -2.8055 -1.0108
  759MPD2    H311270   0.417   2.635  10.329  2.9459  1.8755 -2.4654
  759MPD2     N11271   0.763   2.393  10.169 -0.5808  0.1910  0.9458
  759MPD2    H511272   0.825   2.316  10.191 -1.6267 -0.4822  1.5389
  759MPD2    N111273   0.566   2.322  10.611  0.5277  0.2230  0.6782
  759MPD2    H711274   0.642   2.257  10.631 -0.1150 -0.5968  0.4789
  760MPD2     C11275   0.183   4.612  11.992  0.0870 -0.1953 -0.2470
  760MPD2    C111276   0.251   4.540  11.894  0.1399  0.1269 -0.0108
  760MPD2    C211277   0.223   4.405  11.877 -0.4996 -0.0998  0.1079
  760MPD2    C311278   0.143   4.333  11.967  0.0124 -0.8114 -0.1246
  760MPD2    C411279   0.069   4.407  12.056  0.3609 -0.2216  0.1929
  760MPD2    C511280   0.092   4.543  12.066  0.7202  0.2910  0.3587
  760MPD2     H11281   0.271   4.355  11.794 -0.1709  1.0496 -0.3974
  760MPD2    H111282   0.003   4.370  12.135 -1.7301  0.0495 -1.4214
  760MPD2    H211283   0.201   4.715  12.017  2.8170 -0.1636 -2.3264
  760MPD2    H311284   0.047   4.589  12.153  1.3550  0.5605  0.5435
  760MPD2     N11285   0.131   4.189  11.967  0.1292  0.1295  0.3275
  760MPD2    H511286   0.062   4.154  12.033  1.3201 -0.5353  1.2215
  760MPD2    N111287   0.356   4.590  11.811 -0.3789 -0.4990 -0.6603
  760MPD2    H711288   0.391   4.527  11.739 -0.9710 -0.5308 -0.9179
  761MPD2     C11289   1.567   3.530  10.816 -0.0260 -0.5248 -0.3575
  761MPD2    C111290   1.651   3.485  10.725  0.4150  0.4094 -0.3196
  761MPD2    C211291   1.737   3.579  10.658  0.2670  0.6316 -0.3581
  761MPD2    C311292   1.746   3.708  10.700  0.1187 -0.5192 -0.4048
  761MPD2    C411293   1.666   3.746  10.804 -0.7514  0.0616  0.4953
  761MPD2    C511294   1.566   3.662  10.852  0.2988  0.0398 -0.0212
  761MPD2     H11295   1.807   3.539  10.586  1.0554 -1.3875  1.5382
  761MPD2    H111296   1.659   3.849  10.838 -1.6591 -0.0740  0.7103
  761MPD2    H211297   1.489   3.467  10.856 -0.3119 -0.2786 -0.5235
  761MPD2    H311298   1.495   3.695  10.928  1.3686  0.1212  0.9401
  761MPD2     N11299   1.842   3.808  10.648 -0.0637  0.1411  0.9239
  761MPD2    H511300   1.853   3.897  10.695  1.3121  0.1341  0.6091
  761MPD2    N111301   1.639   3.352  10.693 -0.8677  0.0869 -0.2509
  761MPD2    H711302   1.563   3.301  10.738 -0.9274  0.2077 -0.2141
  762MPD2     C11303   1.840   3.196  10.034 -0.3355 -0.4123 -0.0212
  762MPD2    C111304   1.862   3.102  10.130  0.6902  1.2108 -0.7000
  762MPD2    C211305   1.986   3.046  10.146  0.1495 -0.4392 -0.2673
  762MPD2    C311306   2.094   3.104  10.083 -0.4913  0.1241 -0.3859
  762MPD2    C411307   2.076   3.206   9.988  0.0359 -0.0493  1.0622
  762MPD2    C511308   1.945   3.249   9.970 -0.6571 -0.1457  0.2759
  762MPD2     H11309   1.991   2.975  10.227  0.7319 -1.0320 -0.8278
  762MPD2    H111310   2.157   3.248   9.930 -0.5915 -1.0134 -0.5311
  762MPD2    H211311   1.747   3.251  10.033 -0.2462 -0.2351  1.7162
  762MPD2    H311312   1.926   3.330   9.901  0.8499 -0.5645 -0.6280
  762MPD2     N11313   2.218   3.042  10.098  0.2563  0.2368  0.0818
  762MPD2    H511314   2.216   2.965  10.164  1.7285  1.1995  1.2520
  762MPD2    N111315   1.754   3.060  10.206  0.3352 -0.1788  0.1282
  762MPD2    H711316   1.671   3.118  10.204 -0.1864 -0.9318 -0.3262
  763MPD2     C11317   3.568   4.347  16.053 -0.0779  0.0628  0.4268
  763MPD2    C111318   3.452   4.374  15.991  0.3270 -0.6421 -1.2784
  763MPD2    C211319   3.385   4.490  16.012 -0.9690 -0.5851  0.5132
  763MPD2    C311320   3.419   4.580  16.113 -0.0027  0.1365  0.2842
  763MPD2    C411321   3.527   4.542  16.194 -0.5997 -0.3148  0.2736
  763MPD2    C511322   3.602   4.426  16.162  0.0258  0.7484  0.1103
  763MPD2     H11323   3.306   4.519  15.944 -1.2847 -0.2290  1.0302
  763MPD2    H111324   3.556   4.604  16.278  0.8502 -0.7770  0.1226
  763MPD2    H211325   3.625   4.257  16.038  1.0242  0.6575  0.9932
  763MPD2    H311326   3.680   4.394  16.230 -1.7942 -1.1962  1.3070
  763MPD2     N11327   3.347   4.704  16.124  0.5544 -0.2016 -0.0476
  763MPD2    H511328   3.260   4.719  16.074  0.7431  0.0043 -0.3139
  763MPD2    N111329   3.398   4.286  15.895  0.3203  0.2434 -0.2214
  763MPD2    H711330   3.308   4.309  15.855  0.2182 -0.5194 -0.4414
  764MPD2     C11331   1.305   0.790  17.599 -0.0731 -0.2912 -0.3890
  764MPD2    C111332   1.177   0.815  17.573 -0.7118 -0.0078  0.7519
  764MPD2    C211333   1.088   0.824  17.683 -0.5260 -0.8488 -0.0394
  764MPD2    C311334   1.128   0.791   0.067 -0.4729 -0.0203 -0.3900
  764MPD2    C411335   1.261   0.752   0.091 -0.3789  0.3222 -0.3550
  764MPD2    C511336   1.345   0.764  17.728  0.0961 -0.1331 -0.1456
  764MPD2     H11337   0.985   0.843  17.658  0.1586 -0.2180 -2.3673
  764MPD2    H111338   1.304   0.734   0.189 -1.4565  0.5474  0.1608
  764MPD2    H211339   1.386   0.797  17.527  0.3216  0.6599  0.1494
  764MPD2    H311340   1.453   0.755  17.731  0.1623  0.5443 -0.5319
  764MPD2     N11341   1.024   0.795   0.163  0.2040  0.4008 -0.4372
  764MPD2    H511342   0.933   0.826   0.130 -0.5902  1.0172  2.3324
  764MPD2    N111343   1.126   0.841  17.445 -0.4296 -0.1051  0.0535
  764MPD2    H711344   1.031   0.876  17.450  0.2800  1.5218  2.1181
  765MPD2     C11345   0.958   3.314  15.554 -0.5695 -0.1135 -0.2707
  765MPD2    C111346   1.000   3.442  15.588  0.1791  0.2016 -0.5332
  765MPD2    C211347   1.128   3.457  15.643  0.1679 -0.4692 -0.0324
  765MPD2    C311348   1.213   3.353  15.662  0.0895  0.0580 -0.0351
  765MPD2    C411349   1.170   3.226  15.624  0.3244  0.8391  0.4667
  765MPD2    C511350   1.046   3.207  15.571  0.4456 -0.0740 -0.1370
  765MPD2     H11351   1.165   3.555  15.671  1.6356 -0.8941 -0.4795
  765MPD2    H111352   1.240   3.144  15.613 -0.4075  0.5952 -2.2795
  765MPD2    H211353   0.858   3.290  15.518 -1.1796  0.6298  0.9374
  765MPD2    H311354   1.016   3.112  15.529 -1.6575  1.1393 -1.4304
  765MPD2     N11355   1.349   3.386  15.676 -0.3997  0.1960 -0.3388
  765MPD2    H511356   1.367   3.479  15.710  2.1494 -0.4408  0.0790
  765MPD2    N111357   0.916   3.554  15.554 -0.2592 -0.2632 -0.2364
  765MPD2    H711358   0.821   3.532  15.526  0.1633 -0.7807 -1.2642
  766MPD2     C11359   0.396   3.707  15.093  0.0901  0.0743 -0.4331
  766MPD2    C111360   0.530   3.719  15.113  0.1846  0.1313 -0.0060
  766MPD2    C211361   0.616   3.716  15.007 -0.8769  0.2075  0.2958
  766MPD2    C311362   0.563   3.704  14.881  0.1853  0.5093 -0.1157
  766MPD2    C411363   0.431   3.688  14.857 -0.0651 -0.1476 -0.2026
  766MPD2    C511364   0.343   3.688  14.966 -0.1040  0.0870  0.3362
  766MPD2     H11365   0.721   3.741  15.020 -0.8527  1.3266 -1.9797
  766MPD2    H111366   0.386   3.682  14.758  0.7077 -0.8065 -0.5125
  766MPD2    H211367   0.321   3.723  15.170 -0.4883 -1.3027 -0.7072
  766MPD2    H311368   0.235   3.697  14.957 -0.0006  0.3516 -0.6548
  766MPD2     N11369   0.644   3.720  14.765  0.6580 -0.6007 -0.5623
  766MPD2    H511370   0.597   3.721  14.675 -0.7097 -0.0794  0.1503
  766MPD2    N111371   0.591   3.730  15.242 -0.5550 -0.1630 -0.6740
  766MPD2    H711372   0.686   3.696  15.252 -0.5768 -0.1164 -0.3125
  767MPD2     C11373   0.221   4.121  14.765 -0.5956  0.5809  0.7909
  767MPD2    C111374   0.352   4.085  14.740  0.5837 -0.2997 -0.1509
  767MPD2    C211375   0.390   4.057  14.610  1.1981 -0.1322 -0.5888
  767MPD2    C311376   0.302   4.061  14.504  0.8812 -0.7641 -0.0643
  767MPD2    C411377   0.171   4.099  14.526 -0.1165  0.7753  0.9344
  767MPD2    C511378   0.129   4.129  14.658 -0.8455  0.4652 -0.7190
  767MPD2     H11379   0.493   4.035  14.585  1.5996  0.2895  0.7086
  767MPD2    H111380   0.103   4.103  14.442  0.7109  0.9791  0.2631
  767MPD2    H211381   0.190   4.147  14.865  0.4125  0.0439  1.2462
  767MPD2    H311382   0.024   4.152  14.669 -0.5297  1.4165  0.3080
  767MPD2     N11383   0.350   4.029  14.373 -0.1329  0.5559 -0.3103
  767MPD2    H511384   0.445   3.997  14.361 -0.7252 -0.8972 -1.1023
  767MPD2    N111385   0.436   4.092  14.851  0.0084  0.9714 -0.8152
  767MPD2    H711386   0.392   4.122  14.937  0.6340 -3.4249  1.0473
  768MPD2     C11387   1.733   1.943  10.753 -0.2757 -0.6083  0.3728
  768MPD2    C111388   1.684   1.912  10.875 -0.2886 -0.0154  0.3242
  768MPD2    C211389   1.765   1.910  10.984  0.1270  0.3908  0.4770
  768MPD2    C311390   1.899   1.939  10.977  0.3828  0.2570  0.0673
  768MPD2    C411391   1.948   1.989  10.851  0.2240 -0.2330 -0.4277
  768MPD2    C511392   1.858   1.983  10.742 -0.3415  0.8653  0.0976
  768MPD2     H11393   1.725   1.866  11.075 -1.1951 -1.5680 -1.0375
  768MPD2    H111394   2.049   2.024  10.836 -0.6070  2.3944  0.1443
  768MPD2    H211395   1.664   1.946  10.669 -0.2887 -0.9922  0.3691
  768MPD2    H311396   1.888   2.012  10.642  0.5601 -0.5666 -0.0407
  768MPD2     N11397   1.981   1.947  11.092  0.2746  0.0475 -0.0366
  768MPD2    H511398   2.079   1.963  11.070  0.1635  0.7802 -0.0114
  768MPD2    N111399   1.551   1.868  10.904  1.0267  0.2406  0.3168
  768MPD2    H711400   1.534   1.839  11.000 -2.0561 -1.0697 -0.6208
  769MPD2     C11401   2.162   0.234  14.843 -0.0160  0.3028  0.1863
  769MPD2    C111402   2.179   0.366  14.857 -0.0758  0.2833 -0.1821
  769MPD2    C211403   2.260   0.414  14.952 -0.1786 -0.2002  0.1579
  769MPD2    C311404   2.316   0.339  15.049 -0.1799  0.8877 -0.0711
  769MPD2    C411405   2.295   0.202  15.042 -0.0141  0.2600 -0.5431
  769MPD2    C511406   2.229   0.154  14.933 -0.2877  0.5508  0.3841
  769MPD2     H11407   2.284   0.520  14.952  0.9689 -0.4601  1.5193
  769MPD2    H111408   2.342   0.132  15.110 -1.7852  1.0731  1.5021
  769MPD2    H211409   2.114   0.184  14.760  0.2141 -0.1312  0.3145
  769MPD2    H311410   2.205   0.048  14.927 -1.4741  0.7688  1.2797
  769MPD2     N11411   2.379   0.400  15.162 -0.1897  0.0054 -0.0086
  769MPD2    H511412   2.379   0.500  15.148 -1.6254  0.0572  0.3308
  769MPD2    N111413   2.107   0.453  14.774  0.1938  0.1188  0.0865
  769MPD2    H711414   2.060   0.414  14.693  0.7262 -0.1688 -0.0913
  770MPD2     C11415   1.384   0.146  14.810 -0.0186  0.6686  0.1421
  770MPD2    C111416   1.516   0.150  14.832  0.0549 -0.2932 -0.2305
  770MPD2    C211417   1.580   0.272  14.801 -0.1691 -0.3556  0.0995
  770MPD2    C311418   1.502   0.388  14.774  0.5306 -0.1539  0.3690
  770MPD2    C411419   1.367   0.374  14.749  0.3420 -0.6315 -0.3720
  770MPD2    C511420   1.307   0.246  14.770  0.3963  0.0362  0.2995
  770MPD2     H11421   1.685   0.285  14.824  0.1377 -2.3020 -0.2363
  770MPD2    H111422   1.313   0.459  14.709  3.2918  0.9094 -1.0337
  770MPD2    H211423   1.328   0.054  14.819  2.4985 -0.8122  0.5242
  770MPD2    H311424   1.202   0.225  14.752  0.3565  2.1254 -2.0145
  770MPD2     N11425   1.559   0.516  14.753  0.5597  0.2774 -0.0109
  770MPD2    H511426   1.502   0.584  14.703  0.1582  0.1589  0.2778
  770MPD2    N111427   1.597   0.039  14.865  0.3455  0.5395  0.4136
  770MPD2    H711428   1.543   4.691  14.875 -1.6876  1.8403  0.5703
  771MPD2     C11429   3.487   2.960  13.720 -0.0139 -0.1198  0.1504
  771MPD2    C111430   3.415   3.008  13.612 -0.2224  0.1044 -0.4593
  771MPD2    C211431   3.279   2.970  13.601  0.6384  0.4245 -0.4213
  771MPD2    C311432   3.227   2.867  13.678  0.8724 -0.3671 -0.3248
  771MPD2    C411433   3.302   2.816  13.778 -0.2148  0.0205 -1.3054
  771MPD2    C511434   3.432   2.866  13.808 -0.6626 -0.3526 -0.0076
  771MPD2     H11435   3.223   3.003  13.515 -0.0027 -0.3237 -0.2964
  771MPD2    H111436   3.264   2.730  13.833 -0.8602 -0.1146 -1.9634
  771MPD2    H211437   3.588   2.998  13.723 -0.7438  2.0979 -2.9073
  771MPD2    H311438   3.487   2.840  13.898 -0.0481  3.8820  0.8462
  771MPD2     N11439   3.095   2.825  13.645  0.2716 -0.2108 -0.0574
  771MPD2    H511440   3.050   2.879  13.572 -0.3822  0.8864  1.1484
  771MPD2    N111441   3.464   3.106  13.517 -0.0015 -0.0760  0.1933
  771MPD2    H711442   3.396   3.147  13.454  2.8342 -0.1111 -2.9087
  772MPD2     C11443   3.088   3.492  13.034 -0.5380 -0.8797 -0.2117
  772MPD2    C111444   3.112   3.427  13.154  0.4282 -0.8510  0.0732
  772MPD2    C211445   3.012   3.421  13.249 -0.8337 -0.0582 -0.5491
  772MPD2    C311446   2.887   3.472  13.224  0.4091 -0.0234 -0.3335
  772MPD2    C411447   2.860   3.531  13.102 -0.8801  0.0819  0.0702
  772MPD2    C511448   2.958   3.534  13.004  0.1655  0.0256 -0.6391
  772MPD2     H11449   3.047   3.367  13.336  0.8676  1.5897 -0.2270
  772MPD2    H111450   2.761   3.566  13.078 -1.3173 -1.3389 -0.1856
  772MPD2    H211451   3.160   3.512  12.956 -0.0203 -0.8521  0.2715
  772MPD2    H311452   2.926   3.564  12.904 -1.1868  0.9129  0.0547
  772MPD2     N11453   2.782   3.470  13.310  0.0829  0.1077 -0.7071
  772MPD2    H511454   2.694   3.486  13.262 -0.7300  0.4022  0.8675
  772MPD2    N111455   3.240   3.380  13.197  0.4447 -0.2259 -0.1667
  772MPD2    H711456   3.242   3.337  13.289  0.7567 -1.7375 -0.8754
  773MPD2     C11457   1.906   4.326  17.594 -0.4008  0.1849  0.1227
  773MPD2    C111458   1.897   4.189  17.576 -0.7617 -0.0482 -0.1747
  773MPD2    C211459   2.002   4.115  17.617  0.1421 -0.2802  0.3730
  773MPD2    C311460   2.105   4.178  17.694  0.1597 -0.9103  0.6059
  773MPD2    C411461   2.098   4.314  17.724 -0.3090  0.2446 -0.3056
  773MPD2    C511462   1.999   4.387  17.669 -0.2970 -0.2346  0.3523
  773MPD2     H11463   2.003   4.008  17.602 -0.4830 -0.3816  1.0491
  773MPD2    H111464   2.165   4.372   0.042  0.7494  1.0850 -2.1976
  773MPD2    H211465   1.835   4.399  17.557  0.1150 -0.1414 -1.4843
  773MPD2    H311466   1.990   4.493  17.689  0.8472  0.3642 -2.3082
  773MPD2     N11467   2.209   4.100   0.004  0.2432 -0.3764 -0.5747
  773MPD2    H511468   2.211   4.007  17.709 -2.7457 -1.6079  2.1252
  773MPD2    N111469   1.802   4.122  17.496 -0.4901 -0.0125 -0.2613
  773MPD2    H711470   1.816   4.023  17.481 -2.5302 -0.1756 -1.0782
  774MPD2     C11471   1.543   3.650  12.893 -0.1756 -0.3531 -0.2836
  774MPD2    C111472   1.612   3.704  12.999  0.1792 -0.2320  0.4530
  774MPD2    C211473   1.737   3.756  12.972 -0.3262 -0.1021 -0.5718
  774MPD2    C311474   1.784   3.766  12.846  0.2652  0.2170  0.0663
  774MPD2    C411475   1.716   3.718  12.736  0.5325  0.7849 -0.3030
  774MPD2    C511476   1.593   3.662  12.763 -0.1392  0.5489  0.0039
  774MPD2     H11477   1.793   3.787  13.059  0.7118  1.0183 -1.6576
  774MPD2    H111478   1.732   3.729  12.629  1.9860 -1.1739 -0.2834
  774MPD2    H211479   1.448   3.602  12.916 -0.1439 -0.7078 -0.8898
  774MPD2    H311480   1.529   3.625  12.684 -1.2415 -0.7566  1.5188
  774MPD2     N11481   1.907   3.829  12.837  0.5625 -0.9257  0.0515
  774MPD2    H511482   1.948   3.870  12.921  1.1896  0.9588 -1.1702
  774MPD2    N111483   1.553   3.678  13.132 -0.0697  0.8379  0.3257
  774MPD2    H711484   1.468   3.624  13.134 -0.1927  1.0672  1.5638
  775MPD2     C11485   2.597   0.054  15.633  0.0014 -0.3553 -0.3335
  775MPD2    C111486   2.580   0.165  15.712  0.3082  0.1947  0.1476
  775MPD2    C211487   2.648   0.281  15.674  0.2174  0.0539 -0.3268
  775MPD2    C311488   2.708   0.287  15.545  0.5366 -1.0559  0.3344
  775MPD2    C411489   2.726   0.168  15.473  0.5482 -0.1063  0.0593
  775MPD2    C511490   2.668   0.055  15.522  0.1862 -0.6558  0.4156
  775MPD2     H11491   2.642   0.374  15.729 -0.6714 -0.7515  0.9124
  775MPD2    H111492   2.778   0.165  15.378  1.1373  3.4800  0.2859
  775MPD2    H211493   2.553   4.700  15.673  0.5659  0.1290  1.4139
  775MPD2    H311494   2.674   4.708  15.454 -0.1166  0.5804 -1.1314
  775MPD2     N11495   2.777   0.402  15.494 -0.7997 -0.2674  0.0579
  775MPD2    H511496   2.824   0.388  15.405 -0.1205 -1.0655  0.5434
  775MPD2    N111497   2.496   0.157  15.825  0.3045 -0.3412 -0.3701
  775MPD2    H711498   2.438   0.074  15.831  0.4320 -0.3910  0.1603
  776MPD2     C11499   2.017   0.203  11.782 -0.1027  0.1903 -0.3999
  776MPD2    C111500   2.060   0.197  11.653  0.0535  0.8692  0.3072
  776MPD2    C211501   2.115   0.310  11.595 -0.0216  0.2167 -0.2349
  776MPD2    C311502   2.113   0.432  11.656  0.2992 -0.5994  0.0337
  776MPD2    C411503   2.070   0.437  11.779 -1.0078  0.4671 -0.5240
  776MPD2    C511504   2.035   0.324  11.848 -0.1598  0.6091  0.1965
  776MPD2     H11505   2.152   0.297  11.494 -0.0498 -1.8410  0.0269
  776MPD2    H111506   2.068   0.534  11.827 -0.3419  0.6353 -0.8381
  776MPD2    H211507   1.962   0.125  11.834 -0.7440  0.0804 -1.2318
  776MPD2    H311508   2.003   0.335  11.951  1.2429  1.7385  0.5226
  776MPD2     N11509   2.161   0.549  11.587  0.2489  1.0294 -0.0179
  776MPD2    H511510   2.166   0.543  11.486 -3.2371 -0.5025 -0.1058
  776MPD2    N111511   2.047   0.070  11.578  0.2416 -0.6969  0.5827
  776MPD2    H711512   1.975   0.003  11.603  1.1054 -1.2785  1.5061
  777MPD2     C11513   1.333   3.013   0.374  0.6474 -0.3014  0.4263
  777MPD2    C111514   1.436   2.926   0.415 -0.9334 -0.0989 -0.7122
  777MPD2    C211515   1.455   2.803   0.356 -0.2709  1.0295 -0.1663
  777MPD2    C311516   1.369   2.766   0.252  0.0538  0.3080 -0.6858
  777MPD2    C411517   1.274   2.852   0.206 -0.4775  0.4139 -0.8427
  777MPD2    C511518   1.249   2.969   0.270  0.1276  0.5536  0.1064
  777MPD2     H11519   1.525   2.729   0.394 -1.6359  0.8685  2.0959
  777MPD2    H111520   1.199   2.815   0.136  0.5745 -1.1066 -1.1481
  777MPD2    H211521   1.307   3.103   0.428  1.9305 -0.4018  1.2137
  777MPD2    H311522   1.157   3.017   0.239 -0.6958 -1.1259 -0.0760
  777MPD2     N11523   1.394   2.634   0.193  0.2437  0.4911 -0.1496
  777MPD2    H511524   1.461   2.573   0.238 -0.4100 -1.0147 -1.2083
  777MPD2    N111525   1.527   2.982   0.507 -0.0142  0.0788 -0.0546
  777MPD2    H711526   1.500   3.069   0.552  0.0296 -0.8055  1.6648
  778MPD2     C11527   3.170   3.203  14.730 -0.1379  0.2502  0.5077
  778MPD2    C111528   3.158   3.093  14.648 -0.5052 -0.5287  0.4116
  778MPD2    C211529   3.179   3.115  14.515  0.5267 -0.2177  0.8167
  778MPD2    C311530   3.231   3.234  14.475  0.0682  0.3832 -0.9443
  778MPD2    C411531   3.231   3.345  14.552 -0.4741  0.1110 -0.1779
  778MPD2    C511532   3.190   3.333  14.681 -0.4431 -0.3950  0.7265
  778MPD2     H11533   3.160   3.032  14.448  1.7376  0.3685 -0.2642
  778MPD2    H111534   3.274   3.437  14.515 -0.9316  0.4748  0.1952
  778MPD2    H211535   3.162   3.191  14.838 -0.2923 -0.0614  0.4621
  778MPD2    H311536   3.204   3.416  14.749  2.7927  1.9504 -2.8185
  778MPD2     N11537   3.284   3.225  14.345 -0.2425  0.6022 -0.1164
  778MPD2    H511538   3.275   3.133  14.303  0.3985 -0.4842  2.1232
  778MPD2    N111539   3.125   2.960  14.692 -0.0515 -0.0828 -0.0223
  778MPD2    H711540   3.120   2.884  14.624  0.3119  0.0160 -0.1649
  779MPD2     C11541   2.637   1.876  14.380 -1.5644 -0.5646  0.1352
  779MPD2    C111542   2.765   1.875  14.319  0.3583  0.4987  0.1721
  779MPD2    C211543   2.830   1.993  14.276  0.3227  0.3961  0.5082
  779MPD2    C311544   2.769   2.113  14.290 -0.8447  0.4361 -0.5937
  779MPD2    C411545   2.643   2.120  14.345  0.2956  0.0490 -0.0273
  779MPD2    C511546   2.577   2.010  14.389 -0.5538 -0.0558 -0.3739
  779MPD2     H11547   2.932   1.982  14.239 -0.2127 -0.1899 -0.8139
  779MPD2    H111548   2.593   2.216  14.346 -0.3090 -0.2745  0.6533
  779MPD2    H211549   2.580   1.791  14.416 -1.6121  0.4943  2.5739
  779MPD2    H311550   2.486   2.031  14.444  0.0088  1.7606 -0.1469
  779MPD2     N11551   2.848   2.230  14.249  0.1225  0.1315  0.3966
  779MPD2    H511552   2.944   2.213  14.220  0.5606  0.0060  1.8739
  779MPD2    N111553   2.838   1.754  14.305 -0.4624 -0.5691 -0.5050
  779MPD2    H711554   2.924   1.756  14.250  0.2276 -2.8575  0.4492
  780MPD2     C11555   2.672   1.633   0.554  0.2704 -0.4735 -0.5638
  780MPD2    C111556   2.563   1.644   0.467  0.2316  0.3757 -0.5105
  780MPD2    C211557   2.584   1.707   0.348 -0.5029 -0.3628  0.8949
  780MPD2    C311558   2.709   1.746   0.305  0.5691 -0.2316 -0.1402
  780MPD2    C411559   2.821   1.724   0.388 -0.3359  0.1995 -0.7054
  780MPD2    C511560   2.796   1.673   0.512 -0.5097  0.4508 -0.1388
  780MPD2     H11561   2.503   1.733   0.279  1.0591  1.3624 -0.3047
  780MPD2    H111562   2.917   1.765   0.360  1.1446 -2.5665  0.4009
  780MPD2    H211563   2.667   1.609   0.660 -1.8576 -2.5371 -1.1355
  780MPD2    H311564   2.880   1.662   0.579  1.1082 -1.7673 -2.5409
  780MPD2     N11565   2.711   1.796   0.176 -0.2345 -0.0137  0.3282
  780MPD2    H511566   2.626   1.799   0.120 -0.1189 -0.9782  0.1005
  780MPD2    N111567   2.436   1.610   0.514 -0.0669  0.0491  0.2313
  780MPD2    H711568   2.426   1.581   0.611 -1.2576  0.4789  0.2458
  781MPD2     C11569   3.958   3.844  11.967 -0.7872  0.5079  0.0216
  781MPD2    C111570   4.091   3.851  12.016 -0.4899  0.2690 -0.1251
  781MPD2    C211571   4.190   3.795  11.937 -0.9021 -0.1416  0.4709
  781MPD2    C311572   4.173   3.745  11.806  0.4845 -0.3603  0.0639
  781MPD2    C411573   4.039   3.735  11.762  0.0410  0.4230 -0.2714
  781MPD2    C511574   3.942   3.781  11.842  0.1601 -0.3949 -0.7511
  781MPD2     H11575   4.288   3.780  11.982 -1.2032  0.0035  1.1709
  781MPD2    H111576   4.009   3.696  11.666 -0.8306  0.1920  0.0985
  781MPD2    H211577   3.871   3.877  12.022 -1.3941 -0.4925 -0.3491
  781MPD2    H311578   3.843   3.779  11.798  0.7662  1.6488 -2.1995
  781MPD2     N11579   4.278   3.701  11.724  0.1319  0.2616  0.0009
  781MPD2    H511580   4.256   3.650  11.639  0.7183 -0.6764  0.4120
  781MPD2    N111581   4.119   3.906  12.141 -0.3278  0.4558  0.1484
  781MPD2    H711582   4.201   3.874  12.192  0.1012  3.6673  1.5003
  782MPD2     C11583   3.044   4.125   9.490  0.5948  0.2503 -0.6803
  782MPD2    C111584   3.071   4.076   9.622 -0.0979 -0.0133 -0.1337
  782MPD2    C211585   3.067   4.164   9.734  0.3174 -0.0142  0.2783
  782MPD2    C311586   3.055   4.296   9.717  0.4875 -0.0954  0.1114
  782MPD2    C411587   3.024   4.339   9.590  0.3094  0.5782  0.0506
  782MPD2    C511588   3.017   4.263   9.480 -0.0245  0.3108  0.5680
  782MPD2     H11589   3.070   4.122   9.834  1.1347 -0.6002  0.0164
  782MPD2    H111590   2.998   4.443   9.574  0.5986  0.5160 -0.8081
  782MPD2    H211591   3.032   4.062   9.403 -0.1260 -1.9964  1.0602
  782MPD2    H311592   3.013   4.311   9.383  1.0107  0.1751  0.4536
  782MPD2     N11593   3.073   4.377   9.836 -0.7644  0.5093 -0.4998
  782MPD2    H511594   3.106   4.328   9.918 -2.4229  1.2008  0.5749
  782MPD2    N111595   3.093   3.938   9.635 -0.1033  0.1818  0.4416
  782MPD2    H711596   3.079   3.874   9.557 -1.1599  3.2966 -1.9368
  783MPD2     C11597   2.227   3.818   9.916 -0.0170  0.4609  0.1945
  783MPD2    C111598   2.302   3.864  10.029 -0.5141 -0.6194 -0.1422
  783MPD2    C211599   2.440   3.856  10.015  0.5748 -0.8852  0.2008
  783MPD2    C311600   2.503   3.796   9.906 -0.0021 -0.2431 -0.4626
  783MPD2    C411601   2.428   3.747   9.799 -0.0307 -0.1196  0.2183
  783MPD2    C511602   2.289   3.758   9.805 -0.1483 -0.4544 -0.2450
  783MPD2     H11603   2.510   3.892  10.090  0.8549  0.7622 -0.8610
  783MPD2    H111604   2.474   3.685   9.723 -2.9454 -0.6091 -1.1718
  783MPD2    H211605   2.120   3.811   9.930  0.2962 -0.3594  2.0873
  783MPD2    H311606   2.230   3.712   9.727  1.1800 -1.4362 -0.6728
  783MPD2     N11607   2.641   3.782   9.919 -0.9722 -0.2615  0.7993
  783MPD2    H511608   2.694   3.803  10.003  0.1267 -1.0595  0.3058
  783MPD2    N111609   2.231   3.899  10.148  0.2570 -0.2735 -0.3865
  783MPD2    H711610   2.130   3.884  10.145  0.4791 -1.6430 -0.7626
  784MPD2     C11611   4.581   4.676   0.281  0.3187 -0.6504 -0.2918
  784MPD2    C111612   4.563   4.714   0.413 -0.6732 -0.6534  0.1280
  784MPD2    C211613   4.449   0.057   0.442  0.4008  0.0986 -0.0243
  784MPD2    C311614   4.361   0.103   0.348 -0.3417 -0.1320  0.0477
  784MPD2    C411615   4.384   0.062   0.219  0.5415 -0.0311 -0.6223
  784MPD2    C511616   4.485   4.711   0.186 -0.4627 -0.1432 -0.2189
  784MPD2     H11617   4.437   0.083   0.546 -1.2992 -1.0377  0.0523
  784MPD2    H111618   4.299   0.076   0.152 -0.4349 -4.2347 -0.2982
  784MPD2    H211619   4.663   4.617   0.241  0.2700 -1.7967  1.2956
  784MPD2    H311620   4.489   4.671   0.086  0.0359  0.1268 -0.3070
  784MPD2     N11621   4.245   0.174   0.390 -0.3714 -0.1660 -0.5613
  784MPD2    H511622   4.231   0.209   0.485 -2.7826  1.2106 -1.4074
  784MPD2    N111623   4.650   4.681   0.522 -0.3586 -0.9177  0.1623
  784MPD2    H711624   4.614   4.692   0.616 -0.2569  1.4492 -0.0662
  785MPD2     C11625   0.095   2.543  11.056  0.7166 -0.0193  0.2790
  785MPD2    C111626   0.015   2.654  11.015  0.8080  0.1360 -1.1747
  785MPD2    C211627   4.616   2.645  11.006  0.0344 -0.4086  0.6940
  785MPD2    C311628   4.555   2.521  11.015 -0.4444  0.1845  0.3762
  785MPD2    C411629   4.632   2.407  11.047 -0.6055  0.2695  0.8872
  785MPD2    C511630   0.032   2.420  11.070  1.0045 -0.2900 -0.0097
  785MPD2     H11631   4.556   2.731  10.980  1.2484  0.2330  0.0262
  785MPD2    H111632   4.589   2.307  11.051  0.5931 -0.3149 -1.1311
  785MPD2    H211633   0.201   2.551  11.080  0.3209 -0.6663  2.2208
  785MPD2    H311634   0.088   2.335  11.106  2.4042 -0.2574 -2.1294
  785MPD2     N11635   4.421   2.515  10.976  0.6171  0.6021  0.7206
  785MPD2    H511636   4.380   2.599  10.935 -1.1516 -0.7940 -0.3802
  785MPD2    N111637   0.086   2.777  11.008 -0.2679 -0.3188 -0.0886
  785MPD2    H711638   0.187   2.783  11.010 -0.0794 -3.1762 -1.8060
  786MPD2     C11639   3.247   1.194  14.470  0.0602 -0.2167 -0.5383
  786MPD2    C111640   3.381   1.185  14.479  1.0030  0.7225  0.1901
  786MPD2    C211641   3.442   1.222  14.597  0.1869 -0.5746 -0.2350
  786MPD2    C311642   3.368   1.281  14.701  0.6657  0.1430 -0.2381
  786MPD2    C411643   3.236   1.292  14.686 -0.1566  0.4656  0.2272
  786MPD2    C511644   3.171   1.243  14.572 -0.1372 -0.3157  0.2513
  786MPD2     H11645   3.550   1.211  14.605  0.1621  0.6075  1.6162
  786MPD2    H111646   3.169   1.336  14.759 -1.9280  0.4371 -1.3892
  786MPD2    H211647   3.200   1.170  14.376 -3.4576  1.3681  0.8063
  786MPD2    H311648   3.064   1.240  14.561  0.0325 -0.4190 -1.3778
  786MPD2     N11649   3.433   1.327  14.821 -0.3130 -0.5964  0.3449
  786MPD2    H511650   3.374   1.360  14.896 -0.4790 -2.4155  1.0127
  786MPD2    N111651   3.467   1.127  14.375 -0.2343  0.0833 -0.1638
  786MPD2    H711652   3.564   1.120  14.401 -0.4862 -0.8247  0.5431
  787MPD2     C11653   3.778   0.609  14.633  0.2664 -0.3152  0.3407
  787MPD2    C111654   3.813   0.611  14.500 -0.3473 -0.6704  0.3410
  787MPD2    C211655   3.917   0.536  14.458 -0.4947 -0.7953  1.0721
  787MPD2    C311656   3.985   0.451  14.544  0.3097 -0.7571 -0.4942
  787MPD2    C411657   3.956   0.452  14.677  0.1056  0.0250  0.2025
  787MPD2    C511658   3.855   0.533  14.717  0.0378 -0.0728  0.4042
  787MPD2     H11659   3.943   0.534  14.353 -0.5058  0.5976  1.0361
  787MPD2    H111660   4.012   0.402  14.755 -0.1105 -0.3869  0.0932
  787MPD2    H211661   3.692   0.662  14.673  1.1050  1.9000 -0.7741
  787MPD2    H311662   3.822   0.520  14.820  0.5579 -0.8718  0.4785
  787MPD2     N11663   4.090   0.371  14.496 -0.2292  0.7755  1.1695
  787MPD2    H511664   4.110   0.386  14.398  0.6720 -2.8653  0.7799
  787MPD2    N111665   3.740   0.699  14.421 -0.3753 -0.3227 -0.3435
  787MPD2    H711666   3.676   0.759  14.471 -0.7592 -2.9885  2.3442
  788MPD2     C11667   0.672   4.230   0.853 -0.3282 -0.5027 -0.2324
  788MPD2    C111668   0.628   4.216   0.725  0.2775 -0.1688 -1.3449
  788MPD2    C211669   0.591   4.323   0.646  0.2300  1.0028 -0.0811
  788MPD2    C311670   0.583   4.448   0.695  0.0984  0.2347 -0.2668
  788MPD2    C411671   0.636   4.462   0.817 -0.2698  0.3087 -0.4736
  788MPD2    C511672   0.679   4.362   0.896 -0.5272  0.5589  0.1114
  788MPD2     H11673   0.551   4.306   0.547  1.0277  0.0473 -0.2356
  788MPD2    H111674   0.645   4.563   0.853 -1.5801  0.2801 -0.0589
  788MPD2    H211675   0.727   4.150   0.901  0.0726 -0.2598 -0.2872
  788MPD2    H311676   0.730   4.382   0.990 -0.3049 -3.0103  0.7487
  788MPD2     N11677   0.544   4.562   0.617  0.3326  0.3283 -0.3697
  788MPD2    H511678   0.583   4.651   0.649  0.9242 -0.2251  0.4530
  788MPD2    N111679   0.638   4.088   0.673  0.0457 -0.0970  0.4019
  788MPD2    H711680   0.607   4.074   0.578  2.8888  0.9059 -0.6433
  789MPD2     C11681   1.117   3.771  16.533 -0.5200  0.6795 -0.0347
  789MPD2    C111682   1.034   3.813  16.430  0.2489 -0.2879 -0.0766
  789MPD2    C211683   0.943   3.919  16.457 -0.1334  0.2480 -0.8413
  789MPD2    C311684   0.927   3.974  16.582 -0.9922  0.0858  0.5059
  789MPD2    C411685   1.014   3.928  16.681 -0.0948 -0.1899  0.3490
  789MPD2    C511686   1.109   3.836  16.655 -0.2744 -0.1868  0.1076
  789MPD2     H11687   0.878   3.947  16.375 -0.3246 -0.9447 -1.1036
  789MPD2    H111688   1.002   3.971  16.780 -1.7467 -1.4804  0.7222
  789MPD2    H211689   1.191   3.693  16.524 -0.0358  0.9936  1.1711
  789MPD2    H311690   1.172   3.809  16.738  1.2306 -2.9861 -1.9497
  789MPD2     N11691   0.832   4.078  16.614 -0.6556  0.6630 -0.2269
  789MPD2    H511692   0.832   4.116  16.708 -1.8721 -0.0750  0.0631
  789MPD2    N111693   1.014   3.746  16.305  0.2518  0.0490  0.0096
  789MPD2    H711694   0.938   3.777  16.246  0.1619 -0.6228 -0.2293
  790MPD2     C11695   1.615   1.096  13.163  0.4042 -0.1346  0.2778
  790MPD2    C111696   1.730   1.028  13.203 -0.3220  0.0941 -0.2710
  790MPD2    C211697   1.784   0.924  13.127  0.7178 -0.9403  0.1176
  790MPD2    C311698   1.717   0.878  13.017 -0.2305  0.4772  0.5349
  790MPD2    C411699   1.598   0.943  12.981 -0.0701  0.2762  0.5903
  790MPD2    C511700   1.551   1.048  13.055 -0.2747  0.1513  0.1649
  790MPD2     H11701   1.874   0.868  13.150  2.6733  1.7529 -0.9786
  790MPD2    H111702   1.529   0.915  12.902  1.5561 -0.4715 -0.5729
  790MPD2    H211703   1.583   1.190  13.207  0.0409 -0.4739  0.7391
  790MPD2    H311704   1.462   1.100  13.020 -0.4420  0.3264  0.8485
  790MPD2     N11705   1.776   0.767  12.949  0.3520  0.0808  0.3580
  790MPD2    H511706   1.860   0.728  12.989  1.0524  0.7549 -0.4503
  790MPD2    N111707   1.817   1.088  13.300 -0.3570 -0.2551  0.3192
  790MPD2    H711708   1.803   1.185  13.329 -2.2891 -0.1420 -1.0460
  791MPD2     C11709   1.506   0.345  12.282 -0.2651 -0.1189  0.2397
  791MPD2    C111710   1.553   0.291  12.397 -0.3135  0.7062  1.0901
  791MPD2    C211711   1.497   0.179  12.444  0.4687  0.0099 -0.4421
  791MPD2    C311712   1.380   0.123  12.393 -0.1272 -0.3613 -0.3829
  791MPD2    C411713   1.332   0.172  12.275 -0.3205 -0.0153 -0.7369
  791MPD2    C511714   1.396   0.281  12.223  0.3020 -0.1314 -0.0520
  791MPD2     H11715   1.539   0.135  12.534  0.4238  0.3662 -0.2438
  791MPD2    H111716   1.248   0.113  12.238  0.3802 -0.3927 -1.7056
  791MPD2    H211717   1.546   0.431  12.230  0.7900  0.0669  1.3653
  791MPD2    H311718   1.359   0.331  12.133  1.0723 -0.3904 -0.5077
  791MPD2     N11719   1.319   0.017  12.463 -0.6962  0.0745  0.5599
  791MPD2    H511720   1.362   4.724  12.550 -1.7354 -2.6139  0.1446
  791MPD2    N111721   1.656   0.351  12.465  0.2296  0.2844  0.2015
  791MPD2    H711722   1.704   0.432  12.426  0.7465 -0.2603 -0.2965
  792MPD2     C11723   2.023   0.289  11.258  0.3076 -0.0339 -0.0224
  792MPD2    C111724   2.123   0.274  11.166  0.0120  0.7376  0.6410
  792MPD2    C211725   2.100   0.176  11.070  0.0389  0.6286 -0.3026
  792MPD2    C311726   1.992   0.087  11.083  0.1429 -0.1861  0.0425
  792MPD2    C411727   1.908   0.100  11.190  0.0042 -0.1599 -0.6519
  792MPD2    C511728   1.916   0.208  11.271  0.1680  0.1599  0.3072
  792MPD2     H11729   2.174   0.179  10.990  0.5074 -0.2308  0.1094
  792MPD2    H111730   1.816   0.043  11.195 -0.4417  0.7697  1.8794
  792MPD2    H211731   2.036   0.364  11.335  1.9597 -0.8523  0.4787
  792MPD2    H311732   1.835   0.231  11.340  0.2691 -1.8538  1.0915
  792MPD2     N11733   1.963   4.721  10.988  0.4057 -0.1555  0.1233
  792MPD2    H511734   1.880   4.664  10.995  0.4796 -0.0521  1.7811
  792MPD2    N111735   2.237   0.346  11.160  0.2321 -0.9536  0.7390
  792MPD2    H711736   2.287   0.329  11.073  1.3902 -0.0697  1.2290
  793MPD2     C11737   1.402   4.632  10.195 -0.1847  0.7856  0.2589
  793MPD2    C111738   1.522   4.693  10.179  0.1636 -0.1481 -0.1616
  793MPD2    C211739   1.619   4.678  10.279  0.1838  0.2572  0.5298
  793MPD2    C311740   1.591   4.610  10.400 -0.2590  0.5401 -0.5015
  793MPD2    C411741   1.470   4.540  10.414  0.0131 -0.2471  0.0525
  793MPD2    C511742   1.373   4.556  10.314 -0.3374  0.0011  0.0703
  793MPD2     H11743   1.711   4.733  10.261 -0.0729  0.4037 -0.3517
  793MPD2    H111744   1.431   4.478  10.494  1.9105 -0.7481  0.5823
  793MPD2    H211745   1.314   4.643  10.132  0.1877  1.6591 -0.1123
  793MPD2    H311746   1.280   4.502  10.327 -0.4770  1.0575  3.4005
  793MPD2     N11747   1.689   4.583  10.488  0.1498 -0.1308 -0.3508
  793MPD2    H511748   1.783   4.615  10.467  0.7494 -2.0416 -0.5949
  793MPD2    N111749   1.555   0.029  10.061  0.8435 -0.1068  0.3409
  793MPD2    H711750   1.644   0.078  10.066  1.0590 -0.5428  0.7368
  794MPD2     C11751   1.710   4.173  16.700  0.0201 -0.5418  0.0287
  794MPD2    C111752   1.609   4.226  16.780  0.4118 -0.4204 -0.0290
  794MPD2    C211753   1.537   4.333  16.734 -0.0425  0.4036  0.2715
  794MPD2    C311754   1.540   4.371  16.599 -0.1047 -0.7466  0.6749
  794MPD2    C411755   1.634   4.312  16.519 -0.1640  0.3439 -0.0472
  794MPD2    C511756   1.714   4.210  16.570  0.2799 -0.0706 -0.1838
  794MPD2     H11757   1.456   4.372  16.794  2.0072  1.7771  2.1156
  794MPD2    H111758   1.659   4.340  16.418  1.9239  1.9460  0.9154
  794MPD2    H211759   1.777   4.095  16.733  2.1945  0.9693 -0.8198
  794MPD2    H311760   1.789   4.150  16.519  1.5939  1.3490  0.0807
  794MPD2     N11761   1.465   4.472  16.544  0.2737  0.4323  0.4380
  794MPD2    H511762   1.472   4.486  16.444  0.4300 -0.8913  0.2664
  794MPD2    N111763   1.578   4.172  16.912 -0.3007  0.5629  0.2680
  794MPD2    H711764   1.500   4.218  16.958  0.1770  2.0790 -0.4064
  795MPD2     C11765   4.504   1.918  13.247 -0.8472  0.6131  0.0293
  795MPD2    C111766   4.405   1.884  13.330 -0.1599 -0.2062  0.4848
  795MPD2    C211767   4.418   1.768  13.408  0.5120  0.0585  0.2155
  795MPD2    C311768   4.530   1.686  13.398 -0.7482 -0.1648 -0.6908
  795MPD2    C411769   4.634   1.726  13.312  0.4177  0.2403 -0.4851
  795MPD2    C511770   4.616   1.845  13.241  0.3022  0.6342 -0.4959
  795MPD2     H11771   4.333   1.732  13.464 -1.7372  1.7886 -2.0788
  795MPD2    H111772   4.724   1.666  13.306 -0.9659 -1.8240 -0.5778
  795MPD2    H211773   4.496   2.009  13.190 -0.4675 -0.3721 -1.5815
  795MPD2    H311774   4.706   1.875  13.190  0.0756  1.9654 -0.1265
  795MPD2     N11775   4.539   1.558  13.468 -1.0440 -0.0379 -0.3131
  795MPD2    H511776   4.609   1.488  13.448  2.1164  3.1644 -0.5300
  795MPD2    N111777   4.275   1.943  13.324 -1.0304 -0.2248 -0.4065
  795MPD2    H711778   4.199   1.896  13.373 -0.2319 -0.2252  0.8577
  796MPD2     C11779   3.823   3.689  15.545 -0.1337 -0.1199  1.0441
  796MPD2    C111780   3.869   3.746  15.660  0.2157 -0.0076 -0.2165
  796MPD2    C211781   3.874   3.882  15.674 -0.2991  0.7527  0.1305
  796MPD2    C311782   3.820   3.970  15.585 -0.0291  0.1311  0.3045
  796MPD2    C411783   3.786   3.914  15.460  0.0098 -0.9857 -0.5334
  796MPD2    C511784   3.783   3.778  15.444 -0.1558 -0.0562  0.4512
  796MPD2     H11785   3.904   3.927  15.768  2.5519  0.9652 -0.9010
  796MPD2    H111786   3.745   3.972  15.378 -2.6181 -2.7724 -0.4642
  796MPD2    H211787   3.805   3.583  15.526  4.0104 -0.6284 -0.2062
  796MPD2    H311788   3.746   3.749  15.346  1.3121 -0.7454  0.1028
  796MPD2     N11789   3.787   4.105  15.620 -0.7328 -0.0667 -0.0442
  796MPD2    H511790   3.825   4.131  15.710 -0.0756  0.7045 -0.5467
  796MPD2    N111791   3.910   3.666  15.770 -0.9626 -0.1243  0.1928
  796MPD2    H711792   3.884   3.567  15.764 -1.8189  0.0239  1.4409
  797MPD2     C11793   0.442   3.198  17.165 -0.4779 -0.3056 -0.6852
  797MPD2    C111794   0.418   3.318  17.221 -0.6830 -0.1701  0.3165
  797MPD2    C211795   0.291   3.379  17.200  0.4064 -0.5433  0.1350
  797MPD2    C311796   0.198   3.324  17.113  0.3064  1.2169  0.5288
  797MPD2    C411797   0.223   3.203  17.060 -0.1891  0.3812  0.2960
  797MPD2    C511798   0.343   3.142  17.085  0.4503 -0.6499  0.4430
  797MPD2     H11799   0.269   3.473  17.249 -1.4849 -1.3512  0.8474
  797MPD2    H111800   0.151   3.147  17.002  0.0513 -0.1252  0.4812
  797MPD2    H211801   0.536   3.145  17.170 -0.3861 -0.3583 -2.8429
  797MPD2    H311802   0.345   3.045  17.036 -0.4189 -0.2765 -0.3442
  797MPD2     N11803   0.069   3.379  17.109 -0.2959  0.5667  0.3536
  797MPD2    H511804   0.055   3.470  17.151 -0.6212 -0.0079  1.5171
  797MPD2    N111805   0.509   3.385  17.306  0.1188 -0.3637  0.1878
  797MPD2    H711806   0.472   3.461  17.362  0.3782  0.7209 -1.1229
  798MPD2     C11807   0.204   4.037  17.208  0.0337  0.2643 -0.0145
  798MPD2    C111808   0.189   3.898  17.207 -0.2970  1.0476  0.3159
  798MPD2    C211809   0.291   3.821  17.266 -0.0862  0.1191  0.1208
  798MPD2    C311810   0.401   3.871  17.323  0.0018 -0.0443 -0.4336
  798MPD2    C411811   0.414   4.010  17.320  0.3261  0.8791 -0.1030
  798MPD2    C511812   0.317   4.089  17.264 -0.0752 -0.4902  0.0869
  798MPD2     H11813   0.303   3.714  17.256 -1.4551  0.0220 -0.4408
  798MPD2    H111814   0.493   4.062  17.373  1.9936 -1.2114 -0.5432
  798MPD2    H211815   0.118   4.093  17.174  1.1567 -0.1757 -3.5145
  798MPD2    H311816   0.321   4.197  17.269 -1.4076 -0.4729  0.6083
  798MPD2     N11817   0.504   3.782  17.363 -0.2364  0.1017 -0.2354
  798MPD2    H511818   0.477   3.684  17.356 -1.9059  0.4812  0.9075
  798MPD2    N111819   0.072   3.848  17.147 -0.3925 -0.1131 -0.4549
  798MPD2    H711820   4.737   3.908  17.108 -1.5645  0.2263  2.1966
  799MPD2     C11821   3.809   4.641  14.556 -1.0785  0.0795 -0.1652
  799MPD2    C111822   3.741   4.595  14.442 -0.5424  0.0767 -0.8267
  799MPD2    C211823   3.662   4.685  14.370 -0.1936  0.4898  0.2109
  799MPD2    C311824   3.659   0.084  14.404 -0.0176 -0.6166 -0.7074
  799MPD2    C411825   3.731   0.128  14.518  0.3048  0.2656 -0.4292
  799MPD2    C511826   3.795   0.035  14.593 -0.2033  0.4277  0.0821
  799MPD2     H11827   3.607   4.648  14.284 -1.3723  0.2066  1.0900
  799MPD2    H111828   3.732   0.233  14.544  0.9658  0.1894 -0.1347
  799MPD2    H211829   3.863   4.580  14.628  1.6604  0.3019 -2.0621
  799MPD2    H311830   3.854   0.057  14.681 -1.3964 -1.2584  1.3139
  799MPD2     N11831   3.596   0.182  14.323  0.6544 -0.1032  0.7008
  799MPD2    H511832   3.615   0.279  14.347  2.0531 -0.0990 -0.4397
  799MPD2    N111833   3.754   4.459  14.395 -0.3771  0.8893  0.7023
  799MPD2    H711834   3.697   4.428  14.317  0.5945  0.7479  0.0404
  800MPD2     C11835   4.054   1.076  13.389  0.4333  0.2608  0.1452
  800MPD2    C111836   4.160   1.013  13.457  0.5152  0.1174  0.0175
  800MPD2    C211837   4.201   0.887  13.405 -1.0255  0.2298 -0.1596
  800MPD2    C311838   4.146   0.835  13.288  0.0537 -0.5702  0.2158
  800MPD2    C411839   4.047   0.901  13.232  0.0758 -0.4695 -0.3781
  800MPD2    C511840   4.014   1.028  13.268 -0.6547 -0.6057 -0.0527
  800MPD2     H11841   4.286   0.836  13.449 -0.9319  1.0456  0.5930
  800MPD2    H111842   3.981   0.859  13.158 -0.6152  2.4492 -1.4318
  800MPD2    H211843   4.006   1.169  13.417 -0.0581  0.0186  0.0979
  800MPD2    H311844   3.947   1.094  13.213  0.4124 -0.1145 -0.7704
  800MPD2     N11845   4.207   0.716  13.235 -0.0770  0.0847 -0.2572
  800MPD2    H511846   4.296   0.699  13.281 -0.0112  0.6956 -0.1653
  800MPD2    N111847   4.213   1.070  13.575  0.7188 -0.1080 -0.2855
  800MPD2    H711848   4.167   1.152  13.614  0.4335 -1.1616  1.6190
  801MPD2     C11849   3.945   1.554  14.056 -0.2949  0.5827  0.1659
  801MPD2    C111850   3.924   1.435  13.990 -0.0124  0.2957  0.5221
  801MPD2    C211851   3.794   1.395  13.976 -0.4753  0.4618  0.7467
  801MPD2    C311852   3.690   1.471  14.019 -0.6270 -0.5926  0.2273
  801MPD2    C411853   3.718   1.584  14.091 -0.9398  0.2140  0.4088
  801MPD2    C511854   3.846   1.626  14.101 -0.1921 -0.2638  0.7568
  801MPD2     H11855   3.779   1.308  13.913  1.2731 -0.2790  1.3472
  801MPD2    H111856   3.640   1.641  14.139 -0.7903 -0.2059  1.1464
  801MPD2    H211857   4.042   1.595  14.079 -0.0977 -0.3160  0.9239
  801MPD2    H311858   3.862   1.721  14.153  0.1210  0.3773 -0.5170
  801MPD2     N11859   3.557   1.437  13.992 -0.0100  0.3590  0.2855
  801MPD2    H511860   3.494   1.509  14.027 -1.1831 -1.1936  1.3328
  801MPD2    N111861   4.029   1.351  13.937  0.8434 -0.0416  0.4357
  801MPD2    H711862   4.009   1.258  13.901  0.1840  0.3982 -0.3241
  802MPD2     C11863   3.707   2.817   0.140 -0.6572 -0.7636  0.2292
  802MPD2    C111864   3.601   2.730   0.111  0.5214  0.6291 -0.1701
  802MPD2    C211865   3.606   2.626   0.017  0.8071 -0.1712 -0.2191
  802MPD2    C311866   3.728   2.612  17.693 -0.4972 -0.1844 -0.3700
  802MPD2    C411867   3.828   2.699  17.722 -0.0138 -0.2517 -0.6428
  802MPD2    C511868   3.827   2.795   0.078  0.0699  0.5972 -0.2883
  802MPD2     H11869   3.519   2.561   0.011  0.9855 -0.7123  2.9991
  802MPD2    H111870   3.924   2.691  17.672 -0.9483  2.1016 -2.7774
  802MPD2    H211871   3.717   2.894   0.215  1.4221 -0.9676  0.1681
  802MPD2    H311872   3.920   2.842   0.109  0.3559 -0.5075  0.5320
  802MPD2     N11873   3.735   2.506  17.601  0.0465  0.4186  0.0709
  802MPD2    H511874   3.650   2.452  17.585  0.0954  0.8729 -1.7328
  802MPD2    N111875   3.471   2.755   0.164  0.7998 -0.4194  0.2356
  802MPD2    H711876   3.402   2.681   0.158  0.2222  0.3023 -2.1615
  803MPD2     C11877   0.183   0.030  12.398  0.0984  0.7475  0.7019
  803MPD2    C111878   0.292   0.110  12.428 -0.1578 -0.2983 -0.2277
  803MPD2    C211879   0.286   0.176  12.553  0.1227  0.5083  0.4200
  803MPD2    C311880   0.183   0.150  12.646 -0.2053  0.4601 -0.0780
  803MPD2    C411881   0.086   0.063  12.613  0.5060  0.2532  0.0309
  803MPD2    C511882   0.080   0.008  12.488  0.0851  0.2837  0.0940
  803MPD2     H11883   0.369   0.241  12.576  0.6035 -0.0131  0.1537
  803MPD2    H111884   0.007   0.035  12.683  2.5046 -0.8932  1.8173
  803MPD2    H211885   0.179   4.716  12.303  0.8254  1.6741  0.1709
  803MPD2    H311886   4.730   4.691  12.452  0.1695  0.2848 -0.1151
  803MPD2     N11887   0.172   0.204  12.773 -0.6382  0.0803  0.5302
  803MPD2    H511888   0.102   0.168  12.837 -1.0113 -1.4175 -0.7407
  803MPD2    N111889   0.403   0.127  12.340 -0.4175 -0.0535 -0.1689
  803MPD2    H711890   0.465   0.205  12.361 -0.4673 -0.5229  1.7029
  804MPD2     C11891   4.095   2.010  17.032 -0.6749 -0.0253 -0.6044
  804MPD2    C111892   4.143   1.960  17.153  0.1393  0.1423 -0.1759
  804MPD2    C211893   4.230   2.042  17.230 -0.7512 -0.0237 -0.0703
  804MPD2    C311894   4.280   2.156  17.168  0.8114 -0.4778  0.1146
  804MPD2    C411895   4.224   2.201  17.054  0.5838  0.1890  1.1497
  804MPD2    C511896   4.139   2.133  16.986  0.2765 -0.5880 -0.0495
  804MPD2     H11897   4.273   2.004  17.322  0.1448  0.6219 -0.2258
  804MPD2    H111898   4.248   2.296  17.008  1.2676  0.6802  2.5077
  804MPD2    H211899   4.030   1.943  16.976 -0.1275  0.5541 -1.9189
  804MPD2    H311900   4.116   2.173  16.888 -1.1967  3.6520  2.0091
  804MPD2     N11901   4.384   2.223  17.231  0.3047  0.2142 -0.4549
  804MPD2    H511902   4.413   2.193  17.323  0.1231 -2.0044 -1.0979
  804MPD2    N111903   4.106   1.835  17.201 -0.7208 -0.3398  0.2507
  804MPD2    H711904   4.158   1.802  17.282 -1.9913  0.4165  1.3791
  805MPD2     C11905   3.375   0.140  15.288  0.8316 -0.2620 -0.0559
  805MPD2    C111906   3.421   0.276  15.288 -0.4518  0.6158  0.1788
  805MPD2    C211907   3.531   0.294  15.369 -0.2356 -0.0512  0.2165
  805MPD2    C311908   3.585   0.203  15.458  0.3626  0.3313  1.1101
  805MPD2    C411909   3.531   0.079  15.459  0.0329 -0.0509 -0.3086
  805MPD2    C511910   3.428   0.047  15.377  0.2068  0.1549  0.4749
  805MPD2     H11911   3.590   0.384  15.358  1.0269 -1.1921 -2.1704
  805MPD2    H111912   3.571   4.734  15.517  0.0279 -0.3255 -0.6943
  805MPD2    H211913   3.291   0.115  15.225  0.4535 -1.1287  0.7919
  805MPD2    H311914   3.392   4.682  15.370  0.3781  0.0855  0.6128
  805MPD2     N11915   3.688   0.249  15.546 -0.6653  0.2218 -0.4326
  805MPD2    H511916   3.716   0.345  15.527  2.5845 -0.3498  1.3189
  805MPD2    N111917   3.383   0.380  15.199  0.1047 -0.3303 -0.2338
  805MPD2    H711918   3.436   0.466  15.196 -3.4693  1.8654  0.1754
  806MPD2     C11919   3.583   4.562   0.283  0.0573  0.1618  0.0065
  806MPD2    C111920   3.695   4.629   0.341 -0.1651 -0.2771  0.1743
  806MPD2    C211921   3.776   4.703   0.254 -0.4943  0.0730  0.2935
  806MPD2    C311922   3.733   0.003   0.129 -0.4725  0.2478  0.0689
  806MPD2    C411923   3.617   4.683   0.077 -0.1783 -0.2441 -0.6178
  806MPD2    C511924   3.545   4.598   0.152 -0.5015  0.2770  0.2661
  806MPD2     H11925   3.874   0.003   0.283  0.4746 -0.5923 -2.1101
  806MPD2    H111926   3.580   4.722  17.729  0.0386 -0.3426 -0.7449
  806MPD2    H211927   3.525   4.493   0.343 -0.0664  0.1594 -0.1153
  806MPD2    H311928   3.455   4.547   0.118  0.4208 -1.1494 -0.0289
  806MPD2     N11929   3.821   0.084   0.061  0.2570 -0.0354  0.1017
  806MPD2    H511930   3.912   0.095   0.103 -0.4362  0.9405  1.3071
  806MPD2    N111931   3.729   4.595   0.477  0.1801 -0.1548 -0.1833
  806MPD2    H711932   3.676   4.529   0.532  0.3249 -0.8610 -0.8891
  807MPD2     C11933   3.332   4.660   1.002 -0.0985  0.2155 -0.4949
  807MPD2    C111934   3.432   4.578   1.023 -0.3626  0.5075  0.0461
  807MPD2    C211935   3.413   4.469   1.114  0.2778  0.1435 -0.1325
  807MPD2    C311936   3.288   4.445   1.176  0.6845  0.4715 -0.1085
  807MPD2    C411937   3.196   4.540   1.151 -0.7323  0.5556 -0.5685
  807MPD2    C511938   3.216   4.642   1.065 -0.7915 -0.0347 -0.5278
  807MPD2     H11939   3.495   4.402   1.141 -1.7340 -2.6482 -0.9971
  807MPD2    H111940   3.100   4.537   1.201 -0.0325 -1.4371  0.6254
  807MPD2    H211941   3.332   0.012   0.939  0.7301  0.3053 -0.3686
  807MPD2    H311942   3.139   4.713   1.038 -1.0626  0.7540  2.3799
  807MPD2     N11943   3.268   4.331   1.256  0.5539 -0.2413 -0.7107
  807MPD2    H511944   3.334   4.254   1.247  0.2720 -0.9033  3.0446
  807MPD2    N111945   3.555   4.599   0.950  0.2680 -0.0740  0.8074
  807MPD2    H711946   3.556   4.670   0.878  1.1214 -1.0807 -0.1722
  808MPD2     C11947   4.608   1.053  10.139 -0.4650 -0.0562 -0.4410
  808MPD2    C111948   4.484   1.108  10.179  0.3424  0.8280 -0.5814
  808MPD2    C211949   4.484   1.234  10.230 -0.5523 -0.3115  0.0501
  808MPD2    C311950   4.600   1.308  10.236 -0.3263  0.8008 -0.2843
  808MPD2    C411951   4.724   1.255  10.197  0.7111  0.0797 -0.0896
  808MPD2    C511952   4.725   1.126  10.147  0.8992 -0.1547  0.4882
  808MPD2     H11953   4.387   1.281  10.247  0.0917  1.2064 -0.4931
  808MPD2    H111954   0.077   1.312  10.217 -0.7877  1.9519  1.2502
  808MPD2    H211955   4.626   0.951  10.108  0.6317  0.5024 -1.5999
  808MPD2    H311956   0.084   1.078  10.126  1.4548  0.8897  0.6470
  808MPD2     N11957   4.603   1.444  10.280 -0.6965  0.1002 -0.2307
  808MPD2    H511958   4.689   1.491  10.253 -0.2276 -0.7780 -0.2985
  808MPD2    N111959   4.361   1.044  10.165 -0.4448  0.3289 -0.1404
  808MPD2    H711960   4.275   1.075  10.208  0.4504  1.2411  0.9633
  809MPD2     C11961   0.239   2.164   9.775  0.2510  0.2133  0.4278
  809MPD2    C111962   0.248   2.025   9.806  0.1255 -0.6370 -0.5281
  809MPD2    C211963   0.171   1.978   9.906 -0.0464 -0.2550  0.4293
  809MPD2    C311964   0.079   2.050   9.979 -0.0702 -1.2029 -0.2874
  809MPD2    C411965   0.074   2.179   9.947  0.3243  0.1366 -0.2639
  809MPD2    C511966   0.143   2.238   9.842 -0.4365  1.1890 -1.1502
  809MPD2     H11967   0.190   1.873   9.922 -1.9530 -0.5129  1.0403
  809MPD2    H111968   0.008   2.248   9.997  1.2398 -0.6188  2.0168
  809MPD2    H211969   0.294   2.212   9.696 -1.6342 -0.0005 -1.0213
  809MPD2    H311970   0.121   2.341   9.815 -0.4881  1.2739 -0.7833
  809MPD2     N11971   0.003   1.997  10.090 -0.1531 -0.0507 -0.2997
  809MPD2    H511972   4.679   2.063  10.136  0.2348 -0.0401  0.1992
  809MPD2    N111973   0.347   1.932   9.754  0.1739  0.1577  0.0988
  809MPD2    H711974   0.352   1.842   9.800 -1.0425 -0.2926 -0.6412
  810MPD2     C11975   4.436   0.509  10.328 -0.0537  0.2733  0.0517
  810MPD2    C111976   4.347   0.568  10.417  0.1317  0.1860 -0.9325
  810MPD2    C211977   4.368   0.696  10.467  0.4276 -0.0016  0.1305
  810MPD2    C311978   4.482   0.763  10.443 -0.0821  1.1612 -0.2694
  810MPD2    C411979   4.576   0.710  10.348  0.2846 -0.0049  0.7535
  810MPD2    C511980   4.552   0.581  10.303 -0.0614  0.1185  0.1034
  810MPD2     H11981   4.293   0.736  10.535 -1.2955  0.5966 -2.1287
  810MPD2    H111982   4.669   0.754  10.313 -0.6923  1.8740  0.5268
  810MPD2    H211983   4.424   0.411  10.284 -0.6350  0.2694  0.2141
  810MPD2    H311984   4.622   0.533  10.235 -0.5565  2.7915 -2.2747
  810MPD2     N11985   4.513   0.887  10.489  0.0617 -0.2546  0.8743
  810MPD2    H511986   4.603   0.925  10.462 -1.2405  1.5889 -0.8922
  810MPD2    N111987   4.227   0.497  10.447 -0.0637  0.3835 -0.5209
  810MPD2    H711988   4.162   0.556  10.499  0.4223  0.4774 -0.0164
  811MPD2     C11989   3.491   0.502  10.064 -0.0270  0.1063 -0.6353
  811MPD2    C111990   3.582   0.561  10.155 -0.0313  0.3275  0.3720
  811MPD2    C211991   3.576   0.704  10.163  0.4186  0.2588 -0.1044
  811MPD2    C311992   3.512   0.782  10.072  0.0810 -0.1052  0.0083
  811MPD2    C411993   3.423   0.720   9.986 -0.4139  0.9130  0.4519
  811MPD2    C511994   3.418   0.585   9.986 -0.1860 -0.3776  0.3437
  811MPD2     H11995   3.640   0.752  10.236 -1.9315  0.4885  1.7873
  811MPD2    H111996   3.374   0.783   9.912 -1.2232 -0.7113 -0.3946
  811MPD2    H211997   3.475   0.395  10.055 -0.1162  0.1935 -1.5008
  811MPD2    H311998   3.359   0.540   9.907 -0.0338  1.6530 -0.9236
  811MPD2     N11999   3.537   0.919  10.077  0.4642  0.3651 -0.0048
  811MPD2    H512000   3.596   0.950  10.154 -0.5212 -0.7866  1.2230
  811MPD2    N112001   3.668   0.474  10.224  0.2249  0.5106  0.0401
  811MPD2    H712002   3.665   0.376  10.199 -1.8037  0.2131  1.4266
  812MPD2     C12003   2.921   0.290  12.181  0.1864  0.0893  0.0084
  812MPD2    C112004   2.853   0.346  12.284  0.3648 -1.0742 -0.8815
  812MPD2    C212005   2.824   0.264  12.389 -1.1019 -0.9199  0.0375
  812MPD2    C312006   2.862   0.134  12.400  0.4142 -0.2626 -0.4249
  812MPD2    C412007   2.923   0.074  12.288  0.3283  0.6550 -0.1356
  812MPD2    C512008   2.949   0.156  12.177 -0.0573 -0.0997 -0.2263
  812MPD2     H12009   2.763   0.301  12.470  0.5077 -0.7515  1.1877
  812MPD2    H112010   2.953   4.707  12.277  1.1386  0.9513 -0.7336
  812MPD2    H212011   2.968   0.355  12.107  1.1721 -1.0243 -0.3443
  812MPD2    H312012   3.011   0.117  12.097  0.1664  0.6100 -0.3993
  812MPD2     N12013   2.826   0.063  12.514 -0.1042 -0.0581  0.0550
  812MPD2    H512014   2.784   0.117  12.589 -0.4562  2.4142 -1.9001
  812MPD2    N112015   2.816   0.479  12.280 -0.2149  0.0920  0.4109
  812MPD2    H712016   2.846   0.538  12.203 -0.9343 -0.0641  0.0144
  813MPD2     C12017   1.813   2.397  12.809 -0.3094  0.4061  0.3796
  813MPD2    C112018   1.832   2.514  12.869 -0.4359  0.0410 -0.5022
  813MPD2    C212019   1.744   2.557  12.972 -0.1100  0.0747  0.1755
  813MPD2    C312020   1.638   2.472  13.014  0.2363 -0.3489 -0.5706
  813MPD2    C412021   1.623   2.353  12.951 -0.4161 -0.0751 -0.0560
  813MPD2    C512022   1.711   2.323  12.848 -0.0374 -0.8749  1.1454
  813MPD2     H12023   1.768   2.647  13.027 -0.3994 -1.5450  2.9454
  813MPD2    H112024   1.553   2.277  12.985  0.0727  0.6381  2.5340
  813MPD2    H212025   1.878   2.354  12.734  2.0712  0.2728  2.5131
  813MPD2    H312026   1.694   2.227  12.801  1.2359  0.1329 -1.3833
  813MPD2     N12027   1.549   2.518  13.105  0.3105 -0.4642 -0.4193
  813MPD2    H512028   1.543   2.619  13.115  2.5628 -0.4186  0.4231
  813MPD2    N112029   1.955   2.579  12.861 -0.0311  0.2114 -0.1995
  813MPD2    H712030   1.973   2.656  12.925  1.4551 -0.0102 -0.3531
  814MPD2     C12031   2.870   3.995  12.473 -0.2971 -0.2629 -1.2152
  814MPD2    C112032   2.837   4.001  12.336  0.1261 -0.3330 -0.1606
  814MPD2    C212033   2.837   4.121  12.270  0.3716 -0.1544  0.3300
  814MPD2    C312034   2.859   4.242  12.334  0.6706 -0.4201 -0.0231
  814MPD2    C412035   2.886   4.238  12.471 -0.7000 -0.4689  0.2988
  814MPD2    C512036   2.899   4.110  12.529 -0.0275 -0.2742 -0.4448
  814MPD2     H12037   2.786   4.121  12.174  0.3960  0.8779  0.3154
  814MPD2    H112038   2.902   4.330  12.527  2.9490 -0.3536 -0.9649
  814MPD2    H212039   2.882   3.908  12.535  3.2044  0.3548 -1.0555
  814MPD2    H312040   2.934   4.105  12.632  0.1463  1.4385 -0.4174
  814MPD2     N12041   2.834   4.364  12.273 -0.5049 -0.1907  0.5095
  814MPD2    H512042   2.851   4.448  12.328  0.1390 -0.0789  0.1373
  814MPD2    N112043   2.817   3.875  12.268 -0.2680 -0.1648 -0.3595
  814MPD2    H712044   2.796   3.880  12.168  0.8165 -2.6158 -0.7200
  815MPD2     C12045   2.947   1.891  12.284 -0.9878 -0.0830 -0.3499
  815MPD2    C112046   2.914   1.763  12.247 -0.2027 -0.8571 -0.8655
  815MPD2    C212047   2.789   1.709  12.269  0.1017 -0.2070  0.1288
  815MPD2    C312048   2.694   1.775  12.336 -0.0966  0.2630  0.3721
  815MPD2    C412049   2.723   1.906  12.374 -0.1302  0.2865 -0.5079
  815MPD2    C512050   2.843   1.958  12.343  0.3200  0.5364  0.3768
  815MPD2     H12051   2.755   1.614  12.228 -2.5990  0.8417 -0.0906
  815MPD2    H112052   2.655   1.967  12.432 -1.1802 -1.3252 -0.0538
  815MPD2    H212053   3.046   1.931  12.269  0.2959 -3.1730 -0.0747
  815MPD2    H312054   2.860   2.061  12.375  0.2114  0.3287  1.1085
  815MPD2     N12055   2.567   1.715  12.352 -0.5967 -0.2559  0.1746
  815MPD2    H512056   2.558   1.622  12.313 -1.2560  0.5723 -1.6441
  815MPD2    N112057   3.011   1.692  12.175  0.1478 -0.1956 -0.1737
  815MPD2    H712058   3.103   1.735  12.175 -0.8848  2.0093  0.2057
  816MPD2     C12059   2.463   1.544  16.709  0.0243 -0.5980  0.2331
  816MPD2    C112060   2.543   1.621  16.782  0.0971  0.0612  0.3876
  816MPD2    C212061   2.681   1.615  16.769 -0.2501 -0.3292 -0.5153
  816MPD2    C312062   2.741   1.527  16.679 -0.1049 -0.2058 -0.6356
  816MPD2    C412063   2.661   1.449  16.596  0.1650 -0.8427  0.1124
  816MPD2    C512064   2.521   1.470  16.613  0.0308 -0.1144  0.6406
  816MPD2     H12065   2.749   1.676  16.826 -0.7217 -0.2818 -0.0075
  816MPD2    H112066   2.693   1.389  16.511  0.6955 -1.6704  0.8917
  816MPD2    H212067   2.357   1.564  16.704  0.4662  1.6636  0.1080
  816MPD2    H312068   2.466   1.414  16.539  0.0144 -3.2503  2.9840
  816MPD2     N12069   2.882   1.527  16.665  0.1752  0.1936  0.1029
  816MPD2    H512070   2.937   1.599  16.710  0.3758  0.7210 -0.9748
  816MPD2    N112071   2.478   1.711  16.874 -0.2632  0.2013  0.3124
  816MPD2    H712072   2.378   1.724  16.872  0.0262  2.5745  0.9621
  817MPD2     C12073   2.186   2.665   9.887 -0.0050 -0.4381  0.1769
  817MPD2    C112074   2.206   2.613   9.760 -0.6049  0.4713  0.5667
  817MPD2    C212075   2.144   2.668   9.654  0.1050 -0.4582 -0.6871
  817MPD2    C312076   2.079   2.792   9.663  0.0441 -0.0876 -0.1977
  817MPD2    C412077   2.072   2.847   9.787  0.5615 -0.0624  0.1451
  817MPD2    C512078   2.117   2.786   9.897  0.1941  0.4702  0.7094
  817MPD2     H12079   2.175   2.625   9.560  2.5000  1.4971 -0.7934
  817MPD2    H112080   2.026   2.944   9.802 -1.2621 -1.1271  1.4324
  817MPD2    H212081   2.240   2.631   9.975  1.3344  1.6170  0.1332
  817MPD2    H312082   2.102   2.826   9.996 -0.9177  0.4549  0.5477
  817MPD2     N12083   2.025   2.848   9.543 -0.2553 -0.3633 -0.5884
  817MPD2    H512084   2.031   2.790   9.459 -0.9899  0.7215 -1.3927
  817MPD2    N112085   2.295   2.506   9.735 -0.0070  0.3442  0.0321
  817MPD2    H712086   2.306   2.474   9.640  1.9218  1.3745 -0.0979
  818MPD2     C12087   1.266   2.643   9.838  0.3000 -0.5254 -0.4379
  818MPD2    C112088   1.291   2.594   9.965  0.3669  0.9009  0.2411
  818MPD2    C212089   1.398   2.506   9.979  0.2055 -0.2236 -0.6755
  818MPD2    C312090   1.474   2.461   9.866  0.2850  0.2623  0.2114
  818MPD2    C412091   1.434   2.504   9.742  0.5470  1.0895  0.2152
  818MPD2    C512092   1.343   2.598   9.731 -0.2921  0.1819 -0.8490
  818MPD2     H12093   1.421   2.462  10.075  0.0443 -3.0997 -1.9396
  818MPD2    H112094   1.484   2.456   9.659 -0.5866  0.4136 -0.0911
  818MPD2    H212095   1.185   2.711   9.812  0.4725 -0.6513 -1.3157
  818MPD2    H312096   1.305   2.634   9.636 -1.6935  0.4941 -0.1797
  818MPD2     N12097   1.570   2.365   9.886  0.3286 -0.3997  0.2911
  818MPD2    H512098   1.610   2.330   9.799  1.3862 -3.8385  2.1595
  818MPD2    N112099   1.213   2.626  10.079 -0.2426  0.1108 -0.1019
  818MPD2    H712100   1.255   2.588  10.162 -1.0770 -0.4611  0.0531
  819MPD2     C12101   4.066   0.152  15.452  0.8286 -0.0781 -0.1029
  819MPD2    C112102   4.041   0.013  15.463  0.5522 -1.0160 -0.4227
  819MPD2    C212103   4.137   4.674  15.529  0.0884 -0.1428 -0.0192
  819MPD2    C312104   4.247   4.733  15.586 -0.6016  0.4731  0.7370
  819MPD2    C412105   4.269   0.132  15.572  0.0417  0.6452 -0.6040
  819MPD2    C512106   4.183   0.201  15.503 -0.2159  0.1521 -0.7915
  819MPD2     H12107   4.140   4.566  15.527  0.1113 -0.1198 -1.1828
  819MPD2    H112108   4.356   0.192  15.598  0.7824 -1.0427  0.8130
  819MPD2    H212109   3.999   0.223  15.404 -1.3376 -1.2981  1.1134
  819MPD2    H312110   4.207   0.306  15.495 -0.2087  0.1150 -1.2916
  819MPD2     N12111   4.337   4.649  15.661  1.0096 -0.0183 -0.2671
  819MPD2    H512112   4.318   4.550  15.674  2.3062 -0.0518  1.2952
  819MPD2    N112113   3.940   4.688  15.390 -0.1195 -1.3718 -0.0844
  819MPD2    H712114   3.891   0.017  15.330 -1.2807 -1.1292  1.1408
  820MPD2     C12115   3.399   0.069  14.596  0.3862 -0.4157 -0.6954
  820MPD2    C112116   3.455   0.145  14.696  0.0303  0.5531 -0.2045
  820MPD2    C212117   3.518   0.080  14.803  0.6329  0.6847 -0.0044
  820MPD2    C312118   3.532   4.677  14.800 -0.5108  0.1056 -0.1376
  820MPD2    C412119   3.491   4.604  14.692 -0.6241 -0.1547 -0.3708
  820MPD2    C512120   3.432   4.672  14.589 -0.9342  0.8878 -0.2910
  820MPD2     H12121   3.558   0.138  14.886  0.3028 -1.3461  1.5670
  820MPD2    H112122   3.523   4.502  14.675  1.1512  0.6953 -2.1190
  820MPD2    H212123   3.345   0.107  14.511  2.7758 -1.7618 -2.8290
  820MPD2    H312124   3.378   4.613  14.515  0.9484 -0.0952 -0.8907
  820MPD2     N12125   3.589   4.610  14.911  0.9657 -0.3421 -0.5951
  820MPD2    H512126   3.589   4.509  14.908 -0.1571 -0.4061  1.8125
  820MPD2    N112127   3.446   0.288  14.681  1.0250  0.3260  0.2122
  820MPD2    H712128   3.365   0.315  14.626  1.0885 -0.5125 -0.2842
  821MPD2     C12129   4.341   0.710  12.516 -0.4506  0.3572 -0.3543
  821MPD2    C112130   4.419   0.706  12.634  0.3705  0.3483 -0.5444
  821MPD2    C212131   4.524   0.806  12.648 -1.3351 -0.8035  1.0936
  821MPD2    C312132   4.543   0.902  12.549  0.0340  0.6141  0.2722
  821MPD2    C412133   4.463   0.899  12.431 -0.4478 -0.2097  0.0973
  821MPD2    C512134   4.365   0.800  12.412  0.3832  0.3357  0.4475
  821MPD2     H12135   4.578   0.805  12.743  1.3027  0.4247 -0.4089
  821MPD2    H112136   4.485   0.963  12.346 -3.4462 -0.5508 -0.9234
  821MPD2    H212137   4.267   0.634  12.496  0.0112 -0.1164 -0.2804
  821MPD2    H312138   4.320   0.788  12.314  0.2413  1.1660  0.4098
  821MPD2     N12139   4.644   0.998  12.555 -0.2391  0.3154  0.4714
  821MPD2    H512140   4.647   1.083  12.500  0.0685  1.3013  2.0196
  821MPD2    N112141   4.401   0.615  12.742 -0.3409 -0.9262 -0.0024
  821MPD2    H712142   4.466   0.634  12.817 -0.7016 -0.9010  0.3057
  822MPD2     C12143   4.315   1.255  15.848  0.1862  0.8779 -0.5893
  822MPD2    C112144   4.430   1.333  15.850  0.2245 -0.7074  0.2486
  822MPD2    C212145   4.439   1.455  15.917  0.0520 -0.0989 -0.0986
  822MPD2    C312146   4.326   1.505  15.989 -0.5243 -0.6063  0.4543
  822MPD2    C412147   4.219   1.416  15.993 -0.1309  0.4987  0.0883
  822MPD2    C512148   4.216   1.299  15.929  0.4146  0.3255 -0.2513
  822MPD2     H12149   4.535   1.504  15.925 -1.2305  2.3645  0.2012
  822MPD2    H112150   4.137   1.435  16.061  0.0303  3.5030 -0.5374
  822MPD2    H212151   4.306   1.162  15.794 -1.3865  1.7335 -1.8171
  822MPD2    H312152   4.129   1.236  15.914 -0.2857  1.0308  0.8520
  822MPD2     N12153   4.331   1.616  16.078  0.0994 -0.6079 -0.0208
  822MPD2    H512154   4.257   1.619  16.147 -0.4631  0.7982 -0.6714
  822MPD2    N112155   4.549   1.301  15.783 -0.4201  0.2355  0.5158
  822MPD2    H712156   4.627   1.365  15.792  0.8968 -1.3948  0.6567
  823MPD2     C12157   4.448   1.835  16.922  0.1379 -0.3182 -0.6858
  823MPD2    C112158   4.416   1.747  16.815 -0.2302  0.1508  0.3125
  823MPD2    C212159   4.402   1.615  16.846 -0.1167 -0.6416  0.5700
  823MPD2    C312160   4.408   1.559  16.968  0.7639 -0.5676 -0.1274
  823MPD2    C412161   4.433   1.644  17.078 -0.3212  0.6146  0.9304
  823MPD2    C512162   4.449   1.782  17.057  0.6890 -0.4429  0.6754
  823MPD2     H12163   4.394   1.552  16.758 -0.8367 -1.0692  0.9444
  823MPD2    H112164   4.458   1.610  17.177 -0.7651  0.6568  1.0588
  823MPD2    H212165   4.464   1.939  16.897  0.6749  0.3855  2.5856
  823MPD2    H312166   4.467   1.848  17.141 -0.4872 -0.0304  0.6074
  823MPD2     N12167   4.400   1.421  16.990 -0.2985 -0.2735  0.1754
  823MPD2    H512168   4.404   1.393  17.088 -3.4721  0.1226  0.4038
  823MPD2    N112169   4.404   1.801  16.679 -0.0037  0.8231 -0.1684
  823MPD2    H712170   4.426   1.898  16.659  1.3579  0.5348 -0.0472
  824MPD2     C12171   0.145   0.586  15.449  0.3419  0.4131  1.0283
  824MPD2    C112172   0.225   0.639  15.554  0.2259 -0.2824  0.2195
  824MPD2    C212173   0.325   0.569  15.614  0.2360 -0.7779  0.0190
  824MPD2    C312174   0.356   0.444  15.563  0.1977 -0.0741  1.1188
  824MPD2    C412175   0.273   0.387  15.473 -0.2995 -0.6451 -0.0611
  824MPD2    C512176   0.171   0.452  15.415 -0.5606  1.0044 -0.1506
  824MPD2     H12177   0.384   0.614  15.693 -0.3403  1.6204 -0.9075
  824MPD2    H112178   0.276   0.282  15.444  0.8699 -1.1236  1.7986
  824MPD2    H212179   0.060   0.640  15.409 -0.3195 -0.3519  1.3978
  824MPD2    H312180   0.105   0.398  15.348 -0.5556  0.5275  0.2310
  824MPD2     N12181   0.466   0.381  15.611 -0.1265 -1.1131  0.0295
  824MPD2    H512182   0.507   0.427  15.692 -2.5739  2.6936 -0.9173
  824MPD2    N112183   0.207   0.766  15.608 -0.1725  0.0954 -0.2983
  824MPD2    H712184   0.258   0.792  15.692 -0.6597  0.4810 -0.1200
  825MPD2     C12185   1.256   0.538  15.737 -0.9066  0.1094  0.4245
  825MPD2    C112186   1.146   0.558  15.657 -0.0508  0.4107  0.5007
  825MPD2    C212187   1.117   0.686  15.618  0.6119  0.9641  0.6580
  825MPD2    C312188   1.208   0.785  15.625  0.3049 -0.0116 -0.1530
  825MPD2    C412189   1.327   0.756  15.686  0.2114 -0.5219  0.3990
  825MPD2    C512190   1.346   0.630  15.743 -0.5310 -0.1190  0.0584
  825MPD2     H12191   1.018   0.706  15.580 -0.7462 -2.0675  2.6107
  825MPD2    H112192   1.409   0.826  15.703  0.8396 -1.2964  0.5672
  825MPD2    H212193   1.284   0.439  15.774 -0.5275 -0.3197 -1.0268
  825MPD2    H312194   1.438   0.614  15.799 -0.2758 -0.7252 -0.5353
  825MPD2     N12195   1.177   0.924  15.597  0.3966  0.1664 -0.4657
  825MPD2    H512196   1.234   0.999  15.636  1.5157 -0.6860 -0.4561
  825MPD2    N112197   1.057   0.453  15.653 -0.5032  0.1312 -0.0213
  825MPD2    H712198   1.099   0.369  15.693 -0.7669  0.7208  1.5159
  826MPD2     C12199   1.563   0.361  13.028  0.0251  0.7779  0.5633
  826MPD2    C112200   1.662   0.414  13.113  0.0452 -0.3476 -0.7916
  826MPD2    C212201   1.627   0.537  13.169  0.2192 -0.1111  0.8090
  826MPD2    C312202   1.503   0.597  13.152  0.4446  0.1464 -0.0282
  826MPD2    C412203   1.411   0.537  13.074  0.2554  0.1246 -0.2172
  826MPD2    C512204   1.437   0.416  13.015  0.2086 -0.6051  0.2199
  826MPD2     H12205   1.691   0.592  13.237  1.3684 -2.9571  2.0462
  826MPD2    H112206   1.313   0.582  13.072  0.1911 -0.0189 -0.3380
  826MPD2    H212207   1.598   0.268  12.985  1.2687  1.5268 -0.0473
  826MPD2    H312208   1.366   0.368  12.948 -1.5161  0.5855  1.1680
  826MPD2     N12209   1.481   0.714  13.230 -0.8105  0.4984 -0.5835
  826MPD2    H512210   1.539   0.739  13.309 -2.0229 -1.2033  0.8494
  826MPD2    N112211   1.789   0.351  13.139  0.6292  0.2127 -0.7205
  826MPD2    H712212   1.790   0.255  13.105  2.5408 -0.2189  0.5553
  827MPD2     C12213   1.988   1.595   9.946 -0.5108  0.4187 -0.5113
  827MPD2    C112214   1.907   1.524  10.036 -0.6472 -0.1555 -0.0609
  827MPD2    C212215   1.789   1.478   9.993  0.3314  0.1983 -0.6492
  827MPD2    C312216   1.751   1.497   9.859  0.7941  0.2674 -0.1025
  827MPD2    C412217   1.829   1.574   9.777  0.4988 -0.3231 -0.0179
  827MPD2    C512218   1.955   1.609   9.811  0.7342  0.4166  0.4791
  827MPD2     H12219   1.719   1.421  10.054  1.1945 -0.9481 -0.7389
  827MPD2    H112220   1.794   1.581   9.675  1.0579  2.9428  0.0134
  827MPD2    H212221   2.092   1.619   9.962 -1.4479  2.5855  2.2944
  827MPD2    H312222   2.014   1.661   9.737 -0.4322 -1.8367 -2.0419
  827MPD2     N12223   1.629   1.437   9.821 -0.3587  0.5959  0.6108
  827MPD2    H512224   1.582   1.366   9.876  0.7305 -1.3211 -0.9447
  827MPD2    N112225   1.970   1.508  10.160  0.0227 -0.7763 -0.3229
  827MPD2    H712226   2.070   1.520  10.164  0.1596 -2.2803  0.7488
  828MPD2     C12227   0.462   1.109  11.630  0.3077  0.2787  0.3626
  828MPD2    C112228   0.364   1.136  11.533 -0.6577  0.7977  0.3669
  828MPD2    C212229   0.386   1.115  11.399  0.4267  0.0807 -0.3845
  828MPD2    C312230   0.514   1.080  11.354  0.3758  0.5985 -0.0717
  828MPD2    C412231   0.615   1.057  11.450 -0.1224  0.0478 -0.2983
  828MPD2    C512232   0.586   1.074  11.586  0.2798  1.3024  0.1123
  828MPD2     H12233   0.299   1.129  11.336  0.4261  0.4791 -0.2959
  828MPD2    H112234   0.711   1.016  11.423  0.2585 -0.3336  1.6161
  828MPD2    H212235   0.437   1.117  11.735  0.8347 -0.6155  0.5578
  828MPD2    H312236   0.671   1.048  11.648 -1.6790 -0.7474  1.9554
  828MPD2     N12237   0.543   1.048  11.223 -0.1922  0.4749  0.1610
  828MPD2    H512238   0.637   1.021  11.194  0.3157  0.1027  2.1462
  828MPD2    N112239   0.235   1.176  11.569  0.0682  0.4371  0.2983
  828MPD2    H712240   0.166   1.180  11.495 -0.1510 -0.9818  0.4092
  829MPD2     C12241   4.502   0.562  11.284  0.3217  0.2639  0.2741
  829MPD2    C112242   4.392   0.645  11.310  0.0626  0.4036 -0.2183
  829MPD2    C212243   4.408   0.769  11.372 -0.9229  0.1118  0.2192
  829MPD2    C312244   4.540   0.809  11.390 -0.1886 -0.1232 -0.7961
  829MPD2    C412245   4.650   0.737  11.353  0.0193 -0.1215  0.4612
  829MPD2    C512246   4.629   0.611  11.301  0.3352  0.2632  0.1652
  829MPD2     H12247   4.319   0.822  11.402 -2.4409 -1.1869 -1.9166
  829MPD2    H112248   0.013   0.779  11.362 -1.4186  2.9464  2.1828
  829MPD2    H212249   4.485   0.465  11.238 -1.0262  0.8350 -0.4193
  829MPD2    H312250   4.713   0.548  11.277  0.2671  0.1208  0.2944
  829MPD2     N12251   4.582   0.923  11.460 -0.0769 -0.3163 -0.4043
  829MPD2    H512252   4.682   0.929  11.477 -0.2194  1.1432 -0.0900
  829MPD2    N112253   4.265   0.586  11.294  0.1062 -0.0569  0.2126
  829MPD2    H712254   4.259   0.487  11.273 -1.0043 -0.1078  0.7879
  830MPD2     C12255   0.272   4.210  15.485  0.3360  0.1248 -0.3404
  830MPD2    C112256   0.159   4.282  15.477 -0.0839  0.5610 -0.2054
  830MPD2    C212257   0.149   4.391  15.388  0.0135  0.0994 -0.6625
  830MPD2    C312258   0.248   4.417  15.308  0.1702 -0.0806 -0.1218
  830MPD2    C412259   0.360   4.342  15.308 -0.1019  0.1382  1.0737
  830MPD2    C512260   0.373   4.239  15.397 -0.5729  0.3456  0.2099
  830MPD2     H12261   0.056   4.445  15.376  0.1225  0.9685  2.2910
  830MPD2    H112262   0.428   4.356  15.225 -1.1483  1.6822  0.4805
  830MPD2    H212263   0.293   4.130  15.555  1.4380  0.2682 -0.4963
  830MPD2    H312264   0.470   4.190  15.398 -0.5785  0.3304 -0.6257
  830MPD2     N12265   0.251   4.509  15.205  0.4024  0.4180  0.2591
  830MPD2    H512266   0.324   4.493  15.137  1.1560 -0.3866  1.2517
  830MPD2    N112267   0.065   4.276  15.576 -0.5204 -0.0146  0.4465
  830MPD2    H712268   0.087   4.222  15.659 -1.2625 -0.8931  0.0702
  831MPD2     C12269   0.056   1.469  16.453  1.4154 -0.0026  0.7075
  831MPD2    C112270   0.049   1.410  16.336  0.1673  0.0942 -0.0787
  831MPD2    C212271   4.668   1.350  16.292 -0.3998  0.1230 -0.1049
  831MPD2    C312272   4.551   1.350  16.375  0.4682  0.0758 -0.2925
  831MPD2    C412273   4.560   1.414  16.498  0.0059  0.4287 -1.1686
  831MPD2    C512274   4.675   1.474  16.530  0.2463 -0.4896  0.5708
  831MPD2     H12275   4.679   1.298  16.198 -1.6409 -0.1318 -0.1044
  831MPD2    H112276   4.472   1.421  16.561  0.3046 -0.3645 -0.6488
  831MPD2    H212277   0.149   1.514  16.487  1.4927  2.2302 -2.4433
  831MPD2    H312278   4.686   1.522  16.627 -0.6243  0.2101  0.3243
  831MPD2     N12279   4.433   1.286  16.342  0.2240 -0.0427 -0.3702
  831MPD2    H512280   4.353   1.305  16.401  0.1963  0.4556 -0.5724
  831MPD2    N112281   0.153   1.404  16.245  0.1121  0.0595  0.0209
  831MPD2    H712282   0.123   1.367  16.155  0.5039 -0.1922 -0.0094
  832MPD2     C12283   3.358   2.786  16.905  0.2244  0.0132 -0.5566
  832MPD2    C112284   3.297   2.903  16.877 -0.1383 -0.1193 -0.0070
  832MPD2    C212285   3.165   2.905  16.823  0.0090 -0.0263  0.5237
  832MPD2    C312286   3.116   2.782  16.785  0.7103  0.3293 -0.3298
  832MPD2    C412287   3.177   2.670  16.813  0.3841 -0.1180  0.2453
  832MPD2    C512288   3.302   2.668  16.873  0.5153  1.1285  0.5682
  832MPD2     H12289   3.125   2.999  16.786 -1.4160 -0.8450  0.0100
  832MPD2    H112290   3.147   2.571  16.782  2.5533 -0.4980 -0.6714
  832MPD2    H212291   3.453   2.784  16.956  0.2955 -1.3559 -0.7489
  832MPD2    H312292   3.354   2.577  16.901  1.8301  1.4220 -0.9080
  832MPD2     N12293   3.002   2.761  16.708 -0.5933  0.3967 -0.1783
  832MPD2    H512294   2.992   2.670  16.665  1.7297  0.0090  0.1221
  832MPD2    N112295   3.364   3.028  16.898  0.5167 -0.2944 -0.1015
  832MPD2    H712296   3.309   3.112  16.900 -0.2527 -0.8034  0.0537
  833MPD2     C12297   0.528   3.979  12.202  0.0462 -0.1506 -0.3393
  833MPD2    C112298   0.643   3.909  12.230 -0.2913 -0.4139 -0.0169
  833MPD2    C212299   0.725   3.866  12.128  0.0940 -0.9290 -0.5814
  833MPD2    C312300   0.704   3.900  11.997 -0.1217 -0.1799 -0.1382
  833MPD2    C412301   0.595   3.973  11.969  0.3408 -0.3088 -0.6783
  833MPD2    C512302   0.504   4.006  12.064  0.0812 -0.6419 -0.2958
  833MPD2     H12303   0.813   3.807  12.149 -0.0681 -0.4133  1.6472
  833MPD2    H112304   0.581   4.010  11.868  1.9344  1.6468 -0.1992
  833MPD2    H212305   0.465   4.023  12.278  1.5224  0.7765  0.3396
  833MPD2    H312306   0.421   4.074  12.047 -0.6436 -1.3009  0.6593
  833MPD2     N12307   0.793   3.874  11.892 -0.1766  0.5410  0.1545
  833MPD2    H512308   0.796   3.938  11.813 -1.8608  2.2129  1.4310
  833MPD2    N112309   0.682   3.895  12.369  0.4455  0.2533  0.7848
  833MPD2    H712310   0.612   3.911  12.440  0.1926  0.7850  0.4211
  834MPD2     C12311   1.131   3.441  11.188  0.2663  0.7882  0.3519
  834MPD2    C112312   1.042   3.412  11.284  0.5078 -0.3496  0.0444
  834MPD2    C212313   1.061   3.474  11.402  0.2970  0.9978  0.7620
  834MPD2    C312314   1.162   3.562  11.429  1.0803 -0.1365 -0.1355
  834MPD2    C412315   1.260   3.581  11.335  0.1068 -0.3267  0.2641
  834MPD2    C512316   1.239   3.520  11.213 -0.1936 -0.4103 -0.3440
  834MPD2     H12317   0.998   3.463  11.490  1.1892  0.3471  1.3154
  834MPD2    H112318   1.335   3.659  11.343 -1.9822  1.4684  2.3460
  834MPD2    H212319   1.126   3.389  11.093 -4.4865  0.4881  0.7707
  834MPD2    H312320   1.308   3.548  11.134 -0.8564  0.5834 -0.5747
  834MPD2     N12321   1.160   3.627  11.558  0.1578  0.0400  0.5661
  834MPD2    H512322   1.092   3.594  11.625 -1.1019  0.6983 -0.3979
  834MPD2    N112323   0.921   3.346  11.242  0.8338 -0.4997  0.2754
  834MPD2    H712324   0.914   3.330  11.142  2.5953 -0.7966  0.2006
  835MPD2     C12325   0.785   1.196  10.998  0.0585  0.5580 -1.1311
  835MPD2    C112326   0.676   1.285  11.005 -0.7151  0.5153  0.5232
  835MPD2    C212327   0.645   1.340  11.122  0.0362 -0.4202 -0.3996
  835MPD2    C312328   0.725   1.319  11.234  0.1368 -0.4247  0.6497
  835MPD2    C412329   0.836   1.236  11.226 -0.0598 -0.9727  0.3663
  835MPD2    C512330   0.872   1.183  11.105  0.2707  0.0224  1.1257
  835MPD2     H12331   0.558   1.404  11.125  0.0664 -0.3780 -0.4207
  835MPD2    H112332   0.903   1.226  11.310  0.1749  1.8570  0.5201
  835MPD2    H212333   0.827   1.159  10.905  3.1763  1.0868  0.0530
  835MPD2    H312334   0.960   1.119  11.103 -0.4555 -0.9753  0.9878
  835MPD2     N12335   0.694   1.371  11.359  0.5574 -0.3388  0.5712
  835MPD2    H512336   0.754   1.337  11.434  2.9427 -0.5017 -1.4345
  835MPD2    N112337   0.599   1.314  10.888  0.1832 -0.4327  0.4252
  835MPD2    H712338   0.521   1.379  10.901 -0.0192 -0.4279 -0.7586
  836MPD2     C12339   4.669   1.485  11.567 -0.8196 -0.2358 -0.2170
  836MPD2    C112340   0.018   1.547  11.654  0.4323 -0.2642 -1.1543
  836MPD2    C212341   4.697   1.621  11.757  0.2238  0.2372 -0.9562
  836MPD2    C312342   4.555   1.633  11.759 -0.1451  0.2555 -0.5402
  836MPD2    C412343   4.480   1.565  11.672 -0.1116 -0.0495  0.3145
  836MPD2    C512344   4.536   1.483  11.585 -0.7136  0.1013  0.3335
  836MPD2     H12345   0.026   1.656  11.836 -0.0597 -0.5258 -0.3883
  836MPD2    H112346   4.372   1.577  11.669  0.0639  1.6190  0.5626
  836MPD2    H212347   4.697   1.429  11.479 -0.3669  4.1030 -2.8131
  836MPD2    H312348   4.469   1.440  11.512 -0.2680 -0.3266  0.1741
  836MPD2     N12349   4.494   1.701  11.866  0.3689  0.2475 -0.1961
  836MPD2    H512350   4.395   1.686  11.881  0.3770 -0.6105 -1.0180
  836MPD2    N112351   0.160   1.525  11.633  0.1708 -0.0570  0.0505
  836MPD2    H712352   0.193   1.478  11.549 -1.9530 -0.9019 -0.3170
  837MPD2     C12353   3.756   1.476  10.562 -0.0078  0.1402  0.0286
  837MPD2    C112354   3.646   1.515  10.495  0.1537  0.0559 -1.4398
  837MPD2    C212355   3.610   1.648  10.504 -0.5051  0.5193 -0.4797
  837MPD2    C312356   3.678   1.739  10.581  0.4955  0.5092  0.4336
  837MPD2    C412357   3.786   1.697  10.651  0.4580  0.2560  0.0273
  837MPD2    C512358   3.829   1.563  10.637  0.2244 -0.6604  0.5337
  837MPD2     H12359   3.536   1.681  10.432  0.8814  2.1851 -1.1524
  837MPD2    H112360   3.867   1.760  10.686 -0.7065  1.7216  0.1022
  837MPD2    H212361   3.801   1.378  10.550 -1.0542 -0.4209  0.7184
  837MPD2    H312362   3.923   1.530  10.680 -0.1903 -2.7841 -0.1648
  837MPD2     N12363   3.631   1.867  10.568 -0.2097  0.1469 -0.3365
  837MPD2    H512364   3.554   1.876  10.503 -0.3380  1.5790  0.0208
  837MPD2    N112365   3.574   1.440  10.408 -0.4940 -0.4002  0.6515
  837MPD2    H712366   3.495   1.478  10.357 -1.2720 -2.0003  0.6636
  838MPD2     C12367   2.225   3.529  10.675  0.8402 -0.0036  0.3783
  838MPD2    C112368   2.251   3.623  10.770 -0.0430 -0.4611  0.9980
  838MPD2    C212369   2.145   3.643  10.860  0.8464  0.1353  0.0946
  838MPD2    C312370   2.035   3.556  10.876  0.9108  0.2644  0.7118
  838MPD2    C412371   2.022   3.451  10.787 -0.3888 -0.0174 -0.2228
  838MPD2    C512372   2.115   3.450  10.681 -0.3930  0.3231 -0.0823
  838MPD2     H12373   2.148   3.711  10.945 -0.4479 -1.8882  1.7733
  838MPD2    H112374   1.932   3.392  10.791  0.4190 -1.2580 -0.3379
  838MPD2    H212375   2.290   3.501  10.593 -0.2344 -0.0321 -0.4677
  838MPD2    H312376   2.112   3.384  10.596  1.1239  1.0300 -0.6862
  838MPD2     N12377   1.939   3.579  10.979  0.7146 -0.6530  0.1706
  838MPD2    H512378   1.941   3.671  11.021 -1.4402 -0.6112  0.1904
  838MPD2    N112379   2.360   3.713  10.777  0.0479 -0.7229 -0.3253
  838MPD2    H712380   2.359   3.781  10.853 -2.6570 -0.4420 -0.6101
  839MPD2     C12381   2.483   3.753  11.531  0.3805 -0.2851  0.0083
  839MPD2    C112382   2.386   3.734  11.439  0.0840  0.2156 -0.6101
  839MPD2    C212383   2.416   3.776  11.310  0.1751 -0.5856 -0.4782
  839MPD2    C312384   2.534   3.830  11.281  0.3973 -0.0242 -0.3819
  839MPD2    C412385   2.630   3.856  11.381 -0.2423 -0.2929  0.4163
  839MPD2    C512386   2.604   3.821  11.509  0.0760 -0.7042  0.3399
  839MPD2     H12387   2.349   3.748  11.230  0.1034  1.1191 -1.0208
  839MPD2    H112388   2.730   3.889  11.356 -0.2435  0.8419  1.8777
  839MPD2    H212389   2.475   3.730  11.636 -0.0496 -0.5670 -0.0858
  839MPD2    H312390   2.672   3.842  11.591 -1.2597 -0.5996  1.4195
  839MPD2     N12391   2.570   3.847  11.143 -0.1889  0.2175 -0.5997
  839MPD2    H512392   2.502   3.830  11.070 -1.3374 -0.8059  0.7070
  839MPD2    N112393   2.271   3.658  11.455  0.1130 -0.2129 -0.0344
  839MPD2    H712394   2.209   3.641  11.376  0.9175 -2.3306 -0.1998
  840MPD2     C12395   2.504   1.741  10.280 -0.8601  0.1577 -0.2654
  840MPD2    C112396   2.467   1.701  10.406  0.9837  0.1649  0.6153
  840MPD2    C212397   2.542   1.752  10.511 -0.4109  0.1919 -0.1118
  840MPD2    C312398   2.641   1.849  10.495  0.9461  0.1190  0.1912
  840MPD2    C412399   2.665   1.890  10.371 -0.1536 -0.2076  0.1045
  840MPD2    C512400   2.596   1.843  10.264  0.6127  0.1205 -0.7094
  840MPD2     H12401   2.509   1.725  10.611 -1.9614  3.0955  0.1801
  840MPD2    H112402   2.743   1.963  10.353 -0.5234  0.1967  0.1412
  840MPD2    H212403   2.463   1.694  10.192  0.7447  2.0604 -2.0425
  840MPD2    H312404   2.615   1.887  10.166 -1.4011 -0.8813 -1.5393
  840MPD2     N12405   2.707   1.921  10.597 -0.2430  0.0833 -0.3835
  840MPD2    H512406   2.765   1.998  10.565  0.8197 -0.5452  0.0585
  840MPD2    N112407   2.364   1.602  10.419  0.1246 -0.1011 -0.7143
  840MPD2    H712408   2.320   1.574  10.332 -1.8192 -1.3935  0.6804
  841MPD2     C12409   2.001   1.758  14.347  0.4041  0.8209  0.0207
  841MPD2    C112410   1.982   1.661  14.447 -0.5281  0.1521 -0.2684
  841MPD2    C212411   2.060   1.674  14.569  0.4195 -0.6787 -0.3616
  841MPD2    C312412   2.170   1.762  14.572 -0.4781 -0.0740 -0.0512
  841MPD2    C412413   2.180   1.867  14.479  0.1039  0.0160 -0.2752
  841MPD2    C512414   2.088   1.865  14.373 -0.1279  0.2438 -0.2506
  841MPD2     H12415   2.063   1.601  14.649  0.4066  0.6483  0.8433
  841MPD2    H112416   2.260   1.941  14.476 -0.7996  0.9736 -0.7426
  841MPD2    H212417   1.944   1.746  14.256  0.0184 -1.4791  0.5651
  841MPD2    H312418   2.086   1.948  14.302 -2.2133  0.3673 -0.0483
  841MPD2     N12419   2.265   1.754  14.680 -0.3141  0.4681  0.1607
  841MPD2    H512420   2.247   1.683  14.750  0.8398 -0.8313 -0.8676
  841MPD2    N112421   1.887   1.555  14.430 -0.3389  0.2439  0.4534
  841MPD2    H712422   1.844   1.551  14.338 -0.4605  0.4195  0.5020
  842MPD2     C12423   2.505   3.052  16.660 -0.2669  0.4173  0.1175
  842MPD2    C112424   2.384   2.988  16.625 -0.2950  0.0636 -0.3572
  842MPD2    C212425   2.339   2.890  16.716  0.2606 -0.0208 -0.2016
  842MPD2    C312426   2.419   2.846  16.824  0.5776 -0.1275 -0.2049
  842MPD2    C412427   2.544   2.902  16.843 -0.1766  0.0668  0.0949
  842MPD2    C512428   2.579   3.011  16.762  0.2606  0.0425  1.3119
  842MPD2     H12429   2.246   2.839  16.695 -0.0432 -0.1352  1.4076
  842MPD2    H112430   2.615   2.879  16.922 -1.1078  1.1842  1.2283
  842MPD2    H212431   2.549   3.129  16.598 -0.4878  0.5022  0.0662
  842MPD2    H312432   2.668   3.068  16.788  1.9503 -2.5109  1.1444
  842MPD2     N12433   2.374   2.741  16.920 -0.2090  0.1955 -0.6290
  842MPD2    H512434   2.443   2.719  16.990 -0.8623  0.1652 -0.0024
  842MPD2    N112435   2.309   3.030  16.510 -0.4984 -0.7176  0.3367
  842MPD2    H712436   2.341   3.112  16.459  2.3318 -2.7171 -1.1535
  843MPD2     C12437   4.213   3.618  17.085  0.3919  0.1164  0.0904
  843MPD2    C112438   4.268   3.572  17.204  0.1122 -1.1558  0.0519
  843MPD2    C212439   4.340   3.659  17.274  0.1592  0.1446  0.4506
  843MPD2    C312440   4.369   3.790  17.228 -0.4184  0.1265 -0.8135
  843MPD2    C412441   4.312   3.831  17.110 -0.1351  0.6221  0.5573
  843MPD2    C512442   4.235   3.744  17.035  0.2086  0.0387 -0.6738
  843MPD2     H12443   4.392   3.628  17.363 -1.3533 -0.6430  1.0763
  843MPD2    H112444   4.337   3.926  17.064  0.0668 -0.0083 -0.6048
  843MPD2    H212445   4.164   3.547  17.019 -0.9274  2.7248 -1.7109
  843MPD2    H312446   4.199   3.763  16.935  0.5458 -0.2108 -0.8447
  843MPD2     N12447   4.461   3.868  17.298 -0.1279 -0.1198  0.2673
  843MPD2    H512448   4.490   3.956  17.259  0.2839  0.5280  2.0095
  843MPD2    N112449   4.236   3.444  17.247  0.0625 -0.2191  0.0918
  843MPD2    H712450   4.172   3.391  17.188 -1.1635  1.1037  0.2138
  844MPD2     C12451   2.841   2.523  16.006 -0.1541 -0.2344 -0.1555
  844MPD2    C112452   2.939   2.442  16.050  0.3989 -0.4456  0.7739
  844MPD2    C212453   3.023   2.485  16.151 -0.5029  0.3082 -0.3218
  844MPD2    C312454   3.021   2.620  16.195 -0.4892 -0.7339 -0.4118
  844MPD2    C412455   2.920   2.703  16.146 -0.2879  0.0493 -0.1212
  844MPD2    C512456   2.825   2.646  16.057  0.0351 -0.0869 -0.8157
  844MPD2     H12457   3.102   2.422  16.191 -0.7615  0.1518 -0.0561
  844MPD2    H112458   2.909   2.804  16.182 -0.5192 -0.3456  0.9180
  844MPD2    H212459   2.775   2.490  15.926  1.5314  0.7567 -1.9540
  844MPD2    H312460   2.746   2.714  16.028  0.3276  0.0067 -1.3947
  844MPD2     N12461   3.107   2.675  16.294 -0.0682  0.0767  0.1089
  844MPD2    H512462   3.089   2.772  16.320 -0.8002 -0.1460  0.4509
  844MPD2    N112463   2.981   2.318  15.995 -0.4569  0.6190  0.0877
  844MPD2    H712464   3.038   2.253  16.048 -0.6645  0.3384 -0.0325
  845MPD2     C12465   3.578   3.486  16.632  0.1013  0.0262  0.1589
  845MPD2    C112466   3.471   3.419  16.690 -0.5215 -0.1593  0.0732
  845MPD2    C212467   3.435   3.294  16.641  0.0229  0.7334 -0.1350
  845MPD2    C312468   3.516   3.228  16.547 -0.1913 -0.4117 -0.2040
  845MPD2    C412469   3.625   3.297  16.500  0.4264  0.0680  0.6945
  845MPD2    C512470   3.653   3.423  16.534 -0.2413 -0.0833  0.0857
  845MPD2     H12471   3.342   3.254  16.678  1.6139 -3.4085 -0.6661
  845MPD2    H112472   3.687   3.255  16.422  0.2081  2.2386 -0.6367
  845MPD2    H212473   3.607   3.587  16.661  2.6123 -0.2793 -1.2608
  845MPD2    H312474   3.734   3.474  16.483 -0.0326 -1.1614 -0.6459
  845MPD2     N12475   3.478   3.100  16.500 -0.3804  0.0073  0.0517
  845MPD2    H512476   3.549   3.053  16.443 -0.6067 -0.5734  0.2516
  845MPD2    N112477   3.405   3.497  16.790  0.6140  0.8053  0.1632
  845MPD2    H712478   3.423   3.596  16.802 -1.9202  1.0095  2.4584
  846MPD2     C12479   0.317   3.687  13.642 -0.0458  0.0400 -0.0971
  846MPD2    C112480   0.204   3.753  13.621 -0.0583 -0.2799  0.3563
  846MPD2    C212481   0.110   3.767  13.728 -0.4210 -0.6759  0.0790
  846MPD2    C312482   0.148   3.717  13.853  0.2919  0.2556 -0.4898
  846MPD2    C412483   0.275   3.660  13.870 -0.4591 -0.8350 -0.6441
  846MPD2    C512484   0.356   3.642  13.761  0.3732  0.1044  0.7684
  846MPD2     H12485   0.020   3.816  13.692  0.5176  0.7825 -0.2961
  846MPD2    H112486   0.293   3.604  13.960  1.5693  1.4295  0.3638
  846MPD2    H212487   0.381   3.661  13.559  1.6398 -0.5751  1.4074
  846MPD2    H312488   0.447   3.585  13.780 -0.4163 -1.2335  0.5081
  846MPD2     N12489   0.058   3.718  13.963  0.2434 -0.5169  0.0994
  846MPD2    H512490   4.702   3.750  13.935  0.8161 -1.3877 -2.8398
  846MPD2    N112491   0.195   3.815  13.496 -0.3285  0.2488  0.1778
  846MPD2    H712492   0.281   3.812  13.442 -1.5727 -1.8517 -1.6707
  847MPD2     C12493   0.179   0.092  14.047 -0.7019 -0.5933 -0.3516
  847MPD2    C112494   0.318   0.110  14.063  0.1821 -0.0808 -0.1918
  847MPD2    C212495   0.379   0.012  14.141 -0.3205 -0.2724 -0.2770
  847MPD2    C312496   0.311   4.640  14.198  0.5807 -1.0822  0.2066
  847MPD2    C412497   0.180   4.621  14.168 -0.7812 -0.5119  0.4956
  847MPD2    C512498   0.118   4.716  14.091  0.6254  0.2339 -0.3405
  847MPD2     H12499   0.485   0.027  14.161 -0.2683  1.1301 -1.5709
  847MPD2    H112500   0.127   4.530  14.194 -0.6395 -0.4355  1.0449
  847MPD2    H212501   0.112   0.154  13.990 -0.4318 -0.6463 -0.7284
  847MPD2    H312502   0.018   4.695  14.055  1.5819 -2.1323 -1.6200
  847MPD2     N12503   0.387   4.557  14.280 -0.1278  0.0630 -0.0105
  847MPD2    H512504   0.476   4.594  14.310 -0.7420  0.9351  0.7580
  847MPD2    N112505   0.395   0.225  14.031 -0.8227  0.9176  0.0223
  847MPD2    H712506   0.494   0.222  14.052 -1.3755  1.2999  2.6072
  848MPD2     C12507   2.591   3.013  16.005  0.0534  0.4260  0.1372
  848MPD2    C112508   2.683   3.060  16.099 -0.4927  0.4624  0.7823
  848MPD2    C212509   2.765   3.164  16.058  0.3883  1.0375  0.8899
  848MPD2    C312510   2.766   3.203  15.922 -0.6981  0.2049 -0.3144
  848MPD2    C412511   2.676   3.145  15.832  0.5102  0.0515  0.2552
  848MPD2    C512512   2.591   3.051  15.876  0.1755  0.5603 -0.3152
  848MPD2     H12513   2.837   3.214  16.122  2.0917 -1.9453  1.3068
  848MPD2    H112514   2.673   3.164  15.726  1.8200  1.4115  0.4633
  848MPD2    H212515   2.519   2.942  16.044 -2.0337  0.9978 -2.6822
  848MPD2    H312516   2.518   3.011  15.807 -0.8678 -1.1668  1.8172
  848MPD2     N12517   2.843   3.312  15.873  0.3727 -0.2981 -0.0092
  848MPD2    H512518   2.823   3.339  15.778 -0.8891 -1.0634  0.0442
  848MPD2    N112519   2.699   3.005  16.229 -0.0703 -0.1672  0.2467
  848MPD2    H712520   2.776   3.042  16.284 -1.0338  0.2691  1.2924
  849MPD2     C12521   1.757   2.766  14.438 -0.2608 -0.6143  0.1084
  849MPD2    C112522   1.881   2.767  14.385  0.4212  0.0963  0.1002
  849MPD2    C212523   1.991   2.740  14.464 -0.3185  1.0370  0.1665
  849MPD2    C312524   1.969   2.711  14.600  0.0176 -0.0403  0.8437
  849MPD2    C412525   1.836   2.710  14.649 -0.1715  0.1823 -0.2762
  849MPD2    C512526   1.737   2.738  14.569  0.3317  0.0558  0.8031
  849MPD2     H12527   2.088   2.745  14.417 -0.8686 -0.9194 -1.1372
  849MPD2    H112528   1.818   2.677  14.751 -0.8257  1.0867 -0.1041
  849MPD2    H212529   1.670   2.780  14.376 -1.0660  0.5257  1.4982
  849MPD2    H312530   1.634   2.746  14.601  0.2594 -1.3024  0.8966
  849MPD2     N12531   2.068   2.665  14.676  0.1653  0.2019 -0.7247
  849MPD2    H512532   2.157   2.673  14.627  1.4525 -2.4298  1.1333
  849MPD2    N112533   1.893   2.792  14.243  0.0130 -0.1487  0.2570
  849MPD2    H712534   1.814   2.820  14.186  0.3859 -1.5873 -0.9568
  850MPD2     C12535   0.012   0.879  14.499 -0.0025  0.1708  0.2611
  850MPD2    C112536   4.709   0.919  14.626  0.1938  0.1588  0.4690
  850MPD2    C212537   0.069   0.950  14.719 -0.2816  0.1986 -0.0269
  850MPD2    C312538   0.201   0.916  14.701  0.5663  0.0851  1.3812
  850MPD2    C412539   0.233   0.868  14.579 -0.7479 -0.2273 -0.2297
  850MPD2    C512540   0.143   0.859  14.479  0.3328  0.0701  0.4864
  850MPD2     H12541   0.040   1.007  14.807 -1.1146 -0.5510  0.1835
  850MPD2    H112542   0.334   0.831  14.565  0.6367  3.4021  0.0785
  850MPD2    H212543   4.680   0.860  14.417 -1.3791 -0.4571  1.5659
  850MPD2    H312544   0.173   0.824  14.381 -0.9878  0.9986 -0.2452
  850MPD2     N12545   0.312   0.927  14.791  0.2192  0.0787  0.4449
  850MPD2    H512546   0.400   0.896  14.750 -0.8633 -1.5819 -0.5971
  850MPD2    N112547   4.569   0.939  14.640  0.0538  0.2364  0.4419
  850MPD2    H712548   4.513   0.940  14.555  0.2846  0.1368  0.2890
  851MPD2     C12549   0.325   0.652  15.207  0.2390 -0.1328  0.0682
  851MPD2    C112550   0.219   0.629  15.123 -0.4856 -0.5712 -0.4134
  851MPD2    C212551   0.227   0.514  15.054 -0.9611 -0.0999 -0.3672
  851MPD2    C312552   0.334   0.425  15.062  0.0739 -0.4926 -0.0814
  851MPD2    C412553   0.448   0.463  15.134 -0.0310  0.2222  0.7644
  851MPD2    C512554   0.432   0.569  15.208 -0.7385 -0.4553  0.5049
  851MPD2     H12555   0.151   0.484  14.983 -0.4803  1.8122 -1.6780
  851MPD2    H112556   0.542   0.410  15.138 -0.4556 -0.6199 -0.4909
  851MPD2    H212557   0.315   0.742  15.266 -0.9924 -0.1761 -0.0906
  851MPD2    H312558   0.506   0.588  15.285  1.8140 -0.5745 -1.9243
  851MPD2     N12559   0.320   0.304  14.995 -0.7060  0.0122  0.2851
  851MPD2    H512560   0.235   0.295  14.940  0.2987  0.9351 -1.4097
  851MPD2    N112561   0.106   0.709  15.122 -0.4308 -0.4675  0.2221
  851MPD2    H712562   0.119   0.802  15.161 -2.5119  0.2339 -0.7431
  852MPD2     C12563   4.305   2.415  10.235  0.5393 -0.2750  0.2667
  852MPD2    C112564   4.357   2.517  10.313 -0.7617  0.0340  0.3948
  852MPD2    C212565   4.439   2.609  10.255 -0.6104 -0.1138 -0.0956
  852MPD2    C312566   4.483   2.600  10.124  0.0200 -0.1871 -0.1001
  852MPD2    C412567   4.431   2.503  10.040  0.0895  0.2100 -0.1932
  852MPD2    C512568   4.334   2.419  10.096 -0.1966  0.1731  0.2070
  852MPD2     H12569   4.481   2.688  10.317  0.7893  0.4270 -1.7342
  852MPD2    H112570   4.469   2.481   9.940 -1.9822 -1.6305 -0.5728
  852MPD2    H212571   4.238   2.338  10.271  0.2788  0.2444  0.8895
  852MPD2    H312572   4.272   2.361  10.028  2.4920 -1.6206 -0.6981
  852MPD2     N12573   4.578   2.695  10.074  0.1504 -0.1519  0.2224
  852MPD2    H512574   4.615   2.759  10.143  0.7308 -1.1189  0.8105
  852MPD2    N112575   4.329   2.531  10.448  0.0193  0.3762  0.2006
  852MPD2    H712576   4.352   2.624  10.482 -0.1143  1.0481 -1.5588
  853MPD2     C12577   1.972   2.843  12.344  0.4600  0.1010 -0.5237
  853MPD2    C112578   1.873   2.893  12.262  0.5266 -0.7505 -0.0052
  853MPD2    C212579   1.884   2.882  12.121 -0.2778  0.1169  0.1474
  853MPD2    C312580   1.999   2.820  12.070  0.1976 -0.0911 -0.4792
  853MPD2    C412581   2.089   2.767  12.158 -0.3306 -0.8263 -0.3916
  853MPD2    C512582   2.077   2.766  12.293  0.1928 -0.3683 -0.6238
  853MPD2     H12583   1.810   2.936  12.063  1.3059 -0.3842 -2.3213
  853MPD2    H112584   2.172   2.710  12.118  1.3744  0.5278  1.2187
  853MPD2    H212585   1.969   2.863  12.450  0.1468 -1.3521 -0.2644
  853MPD2    H312586   2.155   2.724  12.355  1.0003  2.2682  0.1746
  853MPD2     N12587   2.031   2.814  11.935 -0.3888 -0.1792 -0.0096
  853MPD2    H512588   2.120   2.770  11.918  0.4014  0.3796  2.6298
  853MPD2    N112589   1.765   2.959  12.337 -0.5576  0.2472  0.5176
  853MPD2    H712590   1.760   2.967  12.438 -1.0293 -0.6742  0.5647
  854MPD2     C12591   3.304   2.927  12.833  0.3622  0.3928  0.8071
  854MPD2    C112592   3.419   3.008  12.822 -0.6365  0.3070  0.2229
  854MPD2    C212593   3.523   2.995  12.914 -0.0661  0.1200 -0.3844
  854MPD2    C312594   3.516   2.888  13.008 -0.0418 -0.4767 -0.1280
  854MPD2    C412595   3.409   2.799  12.999 -0.0399  0.1518 -0.0647
  854MPD2    C512596   3.306   2.817  12.914  0.6051 -0.4510  0.1199
  854MPD2     H12597   3.603   3.068  12.904 -0.6408  0.9053  0.8354
  854MPD2    H112598   3.406   2.710  13.061  0.4676  0.2295  0.0718
  854MPD2    H212599   3.217   2.942  12.770  1.2247  1.3140 -0.1785
  854MPD2    H312600   3.235   2.735  12.912 -1.7022  1.5107  2.2386
  854MPD2     N12601   3.613   2.867  13.106  0.1844 -0.0370 -0.2416
  854MPD2    H512602   3.611   2.789  13.170 -1.2812  1.4361  1.4891
  854MPD2    N112603   3.411   3.104  12.714  0.6516  0.0940 -0.1983
  854MPD2    H712604   3.323   3.092  12.665  0.0234 -1.3367  1.2986
  855MPD2     C12605   3.719   2.402  13.824 -0.4214 -0.0068 -0.1458
  855MPD2    C112606   3.823   2.362  13.744  0.4148  0.4233 -0.2899
  855MPD2    C212607   3.856   2.440  13.632  0.1927 -0.1297 -0.3251
  855MPD2    C312608   3.787   2.555  13.595 -0.0786  0.1274 -0.1505
  855MPD2    C412609   3.690   2.595  13.670  0.0872 -0.2817  0.3132
  855MPD2    C512610   3.662   2.527  13.789  0.5003  0.1666  0.3170
  855MPD2     H12611   3.942   2.410  13.573 -0.3097 -2.3285  0.0417
  855MPD2    H112612   3.642   2.689  13.646 -0.2123 -0.3275  0.7384
  855MPD2    H212613   3.683   2.354  13.914  1.7327  0.4115  0.9296
  855MPD2    H312614   3.576   2.568  13.841 -1.1839 -1.7438 -0.9910
  855MPD2     N12615   3.817   2.635  13.480  0.2337  0.2608  0.7349
  855MPD2    H512616   3.755   2.711  13.456  0.1442  0.1088  0.4814
  855MPD2    N112617   3.886   2.234  13.764 -0.0613 -0.1226 -0.1964
  855MPD2    H712618   3.874   2.186  13.853  0.3169 -1.2586 -0.7572
  856MPD2     C12619   1.475   3.575  13.884 -0.1594 -0.5135  0.2287
  856MPD2    C112620   1.546   3.681  13.832  0.1432  0.0246 -0.7151
  856MPD2    C212621   1.488   3.754  13.728  0.8955 -0.5768 -0.0710
  856MPD2    C312622   1.363   3.720  13.687 -0.7219  0.2942 -0.8891
  856MPD2    C412623   1.279   3.629  13.758  0.0505 -0.3459  0.2420
  856MPD2    C512624   1.340   3.554  13.855 -0.1338 -0.2605  0.0076
  856MPD2     H12625   1.556   3.816  13.671 -1.7863  1.0878 -1.4278
  856MPD2    H112626   1.177   3.603  13.731  0.2092 -0.6944 -0.0266
  856MPD2    H212627   1.510   3.522  13.972 -0.3531 -0.2588  0.4598
  856MPD2    H312628   1.279   3.472  13.894 -1.1723  0.1892 -0.6855
  856MPD2     N12629   1.296   3.787  13.576  0.0321  0.3062 -0.5414
  856MPD2    H512630   1.202   3.753  13.558  0.5409 -2.0570  1.1743
  856MPD2    N112631   1.676   3.705  13.879 -0.4660 -0.2326  0.9298
  856MPD2    H712632   1.720   3.789  13.844  0.4999 -0.9281  0.4945
  857MPD2     C12633   2.502   1.057  12.867  0.2952 -0.2732  0.3210
  857MPD2    C112634   2.638   1.064  12.835  0.8382 -0.1426 -0.4550
  857MPD2    C212635   2.719   1.174  12.868 -0.5348  0.6273 -0.4664
  857MPD2    C312636   2.653   1.280  12.931 -0.0447  0.7491  0.2983
  857MPD2    C412637   2.519   1.273  12.966 -0.4693 -0.4411 -0.6539
  857MPD2    C512638   2.445   1.164  12.937 -0.1132 -0.1610 -0.0296
  857MPD2     H12639   2.826   1.174  12.854 -0.5820  4.0864 -0.8461
  857MPD2    H112640   2.467   1.348  13.025 -0.8149  0.3568 -1.9589
  857MPD2    H212641   2.447   0.963  12.861 -0.5725  0.2016  0.7183
  857MPD2    H312642   2.342   1.158  12.970  0.1782  2.1729  1.3008
  857MPD2     N12643   2.734   1.386  12.973 -0.2482 -0.4141  0.1636
  857MPD2    H512644   2.831   1.359  12.963  0.2215  1.2356  0.2839
  857MPD2    N112645   2.693   0.948  12.791  0.0121  0.5732 -0.2848
  857MPD2    H712646   2.634   0.866  12.793 -0.0773  0.6291 -0.7053
  858MPD2     C12647   3.658   0.128  16.601  0.7025  0.1751  0.0965
  858MPD2    C112648   3.592   0.251  16.575 -0.0980  0.4836 -0.1641
  858MPD2    C212649   3.599   0.352  16.673  0.0845  0.0930 -0.2202
  858MPD2    C312650   3.675   0.332  16.794 -0.1995 -0.0044  0.3215
  858MPD2    C412651   3.753   0.217  16.802 -0.0846  0.4529  0.1102
  858MPD2    C512652   3.734   0.120  16.712  0.8687 -0.2920  1.6285
  858MPD2     H12653   3.543   0.443  16.656  0.6121  1.4231  5.0425
  858MPD2    H112654   3.814   0.196  16.889  0.0107  0.4918  0.0527
  858MPD2    H212655   3.663   0.042  16.535  2.3520  0.3851 -0.0512
  858MPD2    H312656   3.796   0.031  16.715 -0.6310 -1.4288 -0.7285
  858MPD2     N12657   3.664   0.417  16.901 -0.0084  1.5206 -0.2534
  858MPD2    H512658   3.699   0.385  16.990  0.0395 -2.1897 -1.6146
  858MPD2    N112659   3.508   0.272  16.458 -0.6436  0.2026  0.2008
  858MPD2    H712660   3.491   0.195  16.393  0.1740 -1.8696  2.4672
  859MPD2     C12661   1.517   2.802  14.965 -0.3330 -0.0750  0.1279
  859MPD2    C112662   1.636   2.761  15.015  0.7709  0.2640  0.1860
  859MPD2    C212663   1.635   2.631  15.067 -0.4453  0.1215 -0.1503
  859MPD2    C312664   1.525   2.547  15.059  0.3651  0.1499  0.3649
  859MPD2    C412665   1.411   2.589  14.998  0.5164 -0.4266 -0.1544
  859MPD2    C512666   1.402   2.723  14.967  0.5746 -0.6434  0.3739
  859MPD2     H12667   1.724   2.594  15.115  0.2221  0.9471 -0.7538
  859MPD2    H112668   1.324   2.526  14.984 -1.0439  1.9392 -1.1428
  859MPD2    H212669   1.496   2.905  14.937 -1.4639 -0.5573 -0.8152
  859MPD2    H312670   1.309   2.768  14.935  0.6374 -0.0206  1.0700
  859MPD2     N12671   1.520   2.409  15.109 -0.4137 -1.1039 -0.7414
  859MPD2    H512672   1.432   2.360  15.118 -1.9910  2.0166  0.8515
  859MPD2    N112673   1.748   2.843  15.004 -0.0185 -0.1265 -0.4343
  859MPD2    H712674   1.727   2.938  14.975 -0.9670  0.1062  1.0392
  860MPD2     C12675   0.141   3.429  11.811 -0.0596 -0.0481  0.9381
  860MPD2    C112676   0.168   3.371  11.940 -0.6749 -0.2367 -0.5978
  860MPD2    C212677   0.086   3.395  12.048  0.4291 -0.0169  0.2291
  860MPD2    C312678   4.703   3.454  12.033 -0.3189 -0.1136 -0.1441
  860MPD2    C412679   4.670   3.510  11.906 -0.6990 -0.1647 -0.4430
  860MPD2    C512680   0.020   3.488  11.802  0.1753  0.4073  0.4923
  860MPD2     H12681   0.109   3.342  12.140  1.4856 -1.4149 -0.8358
  860MPD2    H112682   4.582   3.561  11.868  0.3213  1.7422 -0.2014
  860MPD2    H212683   0.200   3.428  11.721  0.7181  3.5442  1.3833
  860MPD2    H312684   4.724   3.520  11.704  0.7580  0.0738  0.1828
  860MPD2     N12685   4.613   3.464  12.147 -0.1446 -0.4251  0.0454
  860MPD2    H512686   4.654   3.419  12.228  0.7889  0.7483  0.2210
  860MPD2    N112687   0.277   3.284  11.961  0.2518  0.2889  0.4901
  860MPD2    H712688   0.298   3.256  12.056 -1.0343 -0.5543  0.5330
  861MPD2     C12689   2.820   0.498  11.009 -0.6866  0.5498  0.1657
  861MPD2    C112690   2.942   0.552  11.048 -0.2760 -0.2708  0.1837
  861MPD2    C212691   2.972   0.678  10.993  0.0429  0.0455 -0.3929
  861MPD2    C312692   2.891   0.748  10.905  0.3342 -0.2499 -0.1158
  861MPD2    C412693   2.773   0.691  10.876  0.2398 -0.4135 -0.5694
  861MPD2    C512694   2.735   0.564  10.920  0.0021  0.0656  0.1357
  861MPD2     H12695   3.061   0.729  11.029 -0.1542  0.0869  0.0363
  861MPD2    H112696   2.710   0.745  10.806 -0.0688  0.0236  0.0500
  861MPD2    H212697   2.779   0.403  11.042 -1.4823  0.9011  0.1741
  861MPD2    H312698   2.642   0.519  10.886  0.5615 -0.1169 -1.1514
  861MPD2     N12699   2.907   0.890  10.876 -0.1835 -0.4668 -0.2457
  861MPD2    H512700   2.826   0.942  10.843  0.5580  0.9682  0.1942
  861MPD2    N112701   3.008   0.494  11.158 -0.3016 -0.2612  0.0467
  861MPD2    H712702   3.097   0.535  11.186  0.4782 -1.3456 -0.8545
  862MPD2     C12703   2.738   1.416  10.459 -0.0867 -0.1857 -0.4153
  862MPD2    C112704   2.710   1.318  10.554  0.9063  0.1568 -0.5713
  862MPD2    C212705   2.608   1.233  10.530 -0.2425 -0.5167  0.6656
  862MPD2    C312706   2.529   1.237  10.414  0.1127 -0.5758  0.1130
  862MPD2    C412707   2.551   1.339  10.326 -0.2658 -0.0782  0.0808
  862MPD2    C512708   2.662   1.426  10.348 -0.1766 -0.1345 -0.2443
  862MPD2     H12709   2.600   1.150  10.598  0.9728 -0.0788  1.3477
  862MPD2    H112710   2.484   1.351  10.241 -0.2803 -1.5416 -0.1188
  862MPD2    H212711   2.827   1.476  10.474 -0.6645  0.7250 -0.6192
  862MPD2    H312712   2.693   1.497  10.271  0.8156 -0.4646 -0.1505
  862MPD2     N12713   2.431   1.139  10.389  0.7140 -0.2977 -0.0834
  862MPD2    H512714   2.388   1.136  10.297  0.7115  1.0970 -0.1177
  862MPD2    N112715   2.789   1.291  10.667 -0.0523 -0.4039  0.1968
  862MPD2    H712716   2.775   1.202  10.714 -1.4030 -0.5465 -0.4887
  863MPD2     C12717   1.862   3.804  16.236  0.1537  0.0570 -0.6853
  863MPD2    C112718   1.797   3.816  16.359  0.1862  0.4879 -0.6547
  863MPD2    C212719   1.874   3.824  16.475  0.4406 -0.7275  0.0003
  863MPD2    C312720   2.014   3.812  16.463  0.1336 -0.2243 -1.6613
  863MPD2    C412721   2.073   3.806  16.337  0.0914 -0.1979 -0.2224
  863MPD2    C512722   2.000   3.801  16.224  0.5421  0.0873 -0.8607
  863MPD2     H12723   1.827   3.848  16.570 -1.0024 -2.1225 -0.3601
  863MPD2    H112724   2.181   3.806  16.340  0.0936  0.5008 -0.4423
  863MPD2    H212725   1.798   3.796  16.150  1.0950  0.3655 -1.4151
  863MPD2    H312726   2.050   3.807  16.128 -1.6593  3.8966 -1.7948
  863MPD2     N12727   2.099   3.812  16.579  0.3057  0.0151 -0.8742
  863MPD2    H512728   2.198   3.797  16.567  0.4749  0.7959 -0.4214
  863MPD2    N112729   1.658   3.849  16.361  0.0454  0.6690  0.1660
  863MPD2    H712730   1.608   3.853  16.273 -2.0495  0.6630  1.3495
  864MPD2     C12731   2.008   4.725  17.291  0.1437  0.1176 -0.0868
  864MPD2    C112732   2.095   4.685  17.191 -0.2388 -0.9384  0.5967
  864MPD2    C212733   2.165   0.049  17.130  0.7182 -0.1647  0.6228
  864MPD2    C312734   2.138   0.180  17.137 -1.2413  0.3579  0.0649
  864MPD2    C412735   2.049   0.218  17.237  0.2482  0.4233 -0.7063
  864MPD2    C512736   1.986   0.125  17.309 -0.1513  0.1830  0.4602
  864MPD2     H12737   2.254   0.018  17.076  0.6952  0.9088 -0.0230
  864MPD2    H112738   2.017   0.319  17.260 -1.1514 -0.4017  1.0106
  864MPD2    H212739   1.954   4.654  17.352  0.7360  0.6343  1.0342
  864MPD2    H312740   1.922   0.150  17.393 -1.9958  0.7850 -1.1258
  864MPD2     N12741   2.177   0.273  17.041 -0.5930 -0.9668 -0.2806
  864MPD2    H512742   2.137   0.364  17.059 -0.8526 -1.5523  2.0911
  864MPD2    N112743   2.105   4.547  17.161 -0.7590 -0.1185 -0.3406
  864MPD2    H712744   2.045   4.484  17.212  2.3965 -1.5174  1.6158
  865MPD2     C12745   2.358   0.749  16.321  0.1580  0.0450  0.2300
  865MPD2    C112746   2.316   0.633  16.387 -0.5605  0.4081 -0.2668
  865MPD2    C212747   2.256   0.656  16.508 -0.3400 -0.7353 -0.5444
  865MPD2    C312748   2.258   0.781  16.567 -0.5955 -0.5092  0.8930
  865MPD2    C412749   2.317   0.888  16.506 -0.0424  0.1790 -0.7796
  865MPD2    C512750   2.356   0.873  16.380 -0.0496  0.5140 -0.1574
  865MPD2     H12751   2.207   0.583  16.572  0.3569 -0.6315  0.1082
  865MPD2    H112752   2.319   0.981  16.562 -2.2681 -1.3583  1.8661
  865MPD2    H212753   2.399   0.753  16.221  1.2586 -0.3257  0.6687
  865MPD2    H312754   2.383   0.960  16.322  0.2901  0.9153  0.6018
  865MPD2     N12755   2.199   0.806  16.687  0.0466  0.1960  0.0107
  865MPD2    H512756   2.175   0.904  16.702  0.0576  0.4268 -1.5313
  865MPD2    N112757   2.323   0.511  16.317  0.1333  0.4141 -0.0827
  865MPD2    H712758   2.351   0.525  16.220 -1.7018 -0.2499 -0.7185
  866MPD2     C12759   3.921   0.275  11.208 -0.2827 -0.1362 -0.0720
  866MPD2    C112760   3.952   0.337  11.088  0.0642 -0.2704 -0.0499
  866MPD2    C212761   3.861   0.423  11.028 -0.0576  0.4474  0.3829
  866MPD2    C312762   3.731   0.419  11.075  0.7077  0.2300  0.6282
  866MPD2    C412763   3.699   0.328  11.175 -0.2995 -0.4952  0.6525
  866MPD2    C512764   3.793   0.247  11.231 -0.4279 -0.0855  0.1975
  866MPD2     H12765   3.892   0.493  10.951  0.9394 -2.6217 -2.0143
  866MPD2    H112766   3.598   0.306  11.207 -0.5946  0.0967  0.1295
  866MPD2    H212767   3.988   0.207  11.260 -0.4023  1.9781  2.8462
  866MPD2    H312768   3.767   0.172  11.304 -2.5947  0.0219 -0.4561
  866MPD2     N12769   3.635   0.520  11.058  0.2656 -0.1802 -0.4352
  866MPD2    H512770   3.544   0.510  11.103  1.1930  0.4063  1.5541
  866MPD2    N112771   4.083   0.345  11.050 -0.2076  0.4016 -0.2263
  866MPD2    H712772   4.149   0.298  11.112 -0.3499  1.3420  0.6404
  867MPD2     C12773   0.816   0.403  16.507  0.0912  0.5639  0.0421
  867MPD2    C112774   0.915   0.365  16.588 -0.2687  0.5974 -0.6242
  867MPD2    C212775   0.957   0.447  16.695  0.7668  0.2927 -0.0711
  867MPD2    C312776   0.878   0.554  16.735 -0.7305  0.0627  0.2972
  867MPD2    C412777   0.774   0.593  16.650  0.0355 -1.1352  0.5686
  867MPD2    C512778   0.743   0.513  16.536  0.1355  0.7749 -0.7907
  867MPD2     H12779   1.048   0.424  16.749 -0.1397 -1.0362  0.9102
  867MPD2    H112780   0.719   0.685  16.668  0.1769 -1.1790  1.2201
  867MPD2    H212781   0.778   0.345  16.424 -0.6136 -0.0233  0.7786
  867MPD2    H312782   0.659   0.537  16.471  0.2695  0.2722 -1.1461
  867MPD2     N12783   0.911   0.650  16.834 -0.4582 -0.2060  0.2421
  867MPD2    H512784   0.848   0.729  16.844  2.1089  1.4548  3.5095
  867MPD2    N112785   0.986   0.247  16.556  1.0847  0.0589  0.1737
  867MPD2    H712786   0.954   0.201  16.472  1.2707  0.5355 -0.1601
  868MPD2     C12787   3.332   4.521  12.796  0.6017 -0.5908  0.1910
  868MPD2    C112788   3.379   4.408  12.853  0.5431  0.2839 -0.1337
  868MPD2    C212789   3.301   4.302  12.882 -0.5151 -0.3904 -0.1625
  868MPD2    C312790   3.165   4.319  12.870 -0.8477 -0.2882 -0.7344
  868MPD2    C412791   3.108   4.436  12.813  0.2965 -0.1218  0.5085
  868MPD2    C512792   3.197   4.535  12.779  0.4545  0.0376 -0.2279
  868MPD2     H12793   3.340   4.206  12.917  0.5946 -0.3618 -1.3524
  868MPD2    H112794   3.002   4.454  12.800  0.6692  0.6428 -1.5177
  868MPD2    H212795   3.403   4.598  12.768 -1.4589  0.1839 -2.9620
  868MPD2    H312796   3.156   4.626  12.738  1.2590  0.1089 -0.8641
  868MPD2     N12797   3.087   4.216  12.908 -0.2724  0.0225  0.0675
  868MPD2    H512798   3.123   4.122  12.921 -3.1721 -1.1571 -0.5452
  868MPD2    N112799   3.527   4.389  12.852  0.3661 -0.4505 -1.0175
  868MPD2    H712800   3.578   4.467  12.811 -0.2043 -0.5642 -1.9433
  869MPD2     C12801   3.949   2.075  17.604  0.0091  0.0077 -0.2773
  869MPD2    C112802   3.828   2.080  17.677  0.1922 -0.1242 -0.0590
  869MPD2    C212803   3.809   2.171   0.029 -0.5272 -0.6006 -0.2380
  869MPD2    C312804   3.910   2.266   0.056  0.0099  0.2221 -0.0790
  869MPD2    C412805   4.026   2.261  17.729 -0.2282  0.1324  0.8879
  869MPD2    C512806   4.040   2.168  17.627  0.4191  0.6602 -0.1397
  869MPD2     H12807   3.716   2.180   0.085 -0.8718  0.2449 -0.9416
  869MPD2    H112808   4.112   2.324   0.004  0.0549  0.5295 -1.4953
  869MPD2    H212809   3.973   1.999  17.530  1.2963 -1.8103  1.9905
  869MPD2    H312810   4.137   2.170  17.579  0.7437  0.0999  0.4911
  869MPD2     N12811   3.907   2.357   0.156  0.2605 -0.2473  0.4291
  869MPD2    H512812   3.995   2.403   0.179 -0.8689  1.6260  0.9786
  869MPD2    N112813   3.738   1.978  17.650  0.2789 -0.6800  0.4874
  869MPD2    H712814   3.768   1.910  17.580  2.8737  1.2923 -0.3168
  870MPD2     C12815   4.298   1.220   1.332 -0.5242 -0.4939 -0.7798
  870MPD2    C112816   4.208   1.158   1.249 -0.2490 -0.3939 -0.2693
  870MPD2    C212817   4.088   1.212   1.230  0.4838 -0.3861  0.8224
  870MPD2    C312818   4.053   1.320   1.306  0.8240 -0.7629  0.1660
  870MPD2    C412819   4.142   1.384   1.390 -0.1286 -0.2195  0.4588
  870MPD2    C512820   4.264   1.336   1.400 -0.2905 -0.3372  0.0874
  870MPD2     H12821   4.009   1.155   1.183 -0.1963 -1.9213  3.8146
  870MPD2    H112822   4.111   1.465   1.455  1.3198 -1.1791  2.3314
  870MPD2    H212823   4.396   1.178   1.351 -0.4237  0.0677 -0.0258
  870MPD2    H312824   4.330   1.376   1.476  1.8880 -0.2221 -1.8453
  870MPD2     N12825   3.922   1.355   1.291 -0.4447  0.2821  0.3728
  870MPD2    H512826   3.874   1.291   1.230 -0.3765  0.6792 -0.0972
  870MPD2    N112827   4.245   1.032   1.194 -0.3182  0.1723  0.0561
  870MPD2    H712828   4.329   0.987   1.229 -1.8836 -2.8259 -0.0733
  871MPD2     C12829   4.631   0.949  16.427  0.7487 -0.1302 -0.1828
  871MPD2    C112830   4.604   0.873  16.535 -0.1177 -0.4233  0.1615
  871MPD2    C212831   4.588   0.740  16.519 -0.5323 -0.2332 -0.0550
  871MPD2    C312832   4.596   0.685  16.394 -0.1754  0.2549 -0.4951
  871MPD2    C412833   4.616   0.763  16.283 -0.1806  0.3106  0.5187
  871MPD2    C512834   4.641   0.895  16.302 -0.1649  0.4311  0.0114
  871MPD2     H12835   4.547   0.679  16.599  1.5120  0.5037  1.5405
  871MPD2    H112836   4.614   0.724  16.182 -0.0138  2.7810 -0.4216
  871MPD2    H212837   4.640   1.057  16.440 -0.7900 -0.2800  1.9431
  871MPD2    H312838   4.654   0.957  16.214  0.5453 -1.3234 -1.1261
  871MPD2     N12839   4.562   0.551  16.378  0.3273 -0.2454  0.2917
  871MPD2    H512840   4.521   0.505  16.459  1.9276 -1.6961  0.2573
  871MPD2    N112841   4.576   0.936  16.657  0.4266  0.4525  0.3595
  871MPD2    H712842   4.567   1.036  16.645 -1.3993  0.3234  0.7134
  872MPD2     C12843   0.977   3.358  13.515  0.0299 -0.6391  0.5065
  872MPD2    C112844   1.083   3.349  13.602 -0.1853  0.2356  0.1492
  872MPD2    C212845   1.058   3.314  13.736 -0.0595  0.3515 -0.3179
  872MPD2    C312846   0.928   3.291  13.776  0.3546  0.4081 -0.3157
  872MPD2    C412847   0.825   3.298  13.687  0.0107  0.0317  0.2654
  872MPD2    C512848   0.846   3.328  13.557 -0.5624 -0.1696 -0.1858
  872MPD2     H12849   1.139   3.313  13.808  1.0019  0.4522 -1.5128
  872MPD2    H112850   0.723   3.295  13.722 -0.3122 -1.5593 -0.8655
  872MPD2    H212851   0.987   3.382  13.409 -0.6192 -0.1033  0.5679
  872MPD2    H312852   0.765   3.343  13.487 -0.4743  0.5262 -0.1329
  872MPD2     N12853   0.892   3.272  13.916 -0.1226 -0.1238 -0.3500
  872MPD2    H512854   0.792   3.261  13.928  0.1359  0.7632  2.5977
  872MPD2    N112855   1.216   3.378  13.554  0.4814  0.3549  0.6270
  872MPD2    H712856   1.290   3.367  13.622  0.6540 -3.1072 -0.1217
  873MPD2     C12857   2.788   2.908   0.587 -0.0452 -0.0176  0.1990
  873MPD2    C112858   2.655   2.892   0.557 -0.7285 -0.0842 -0.6783
  873MPD2    C212859   2.610   2.763   0.529 -0.2729 -0.2183 -0.5838
  873MPD2    C312860   2.702   2.662   0.525 -0.4126  0.6599 -0.1322
  873MPD2    C412861   2.834   2.679   0.564  0.7063  0.1044  0.1489
  873MPD2    C512862   2.873   2.804   0.584  0.3950 -0.2836  0.2840
  873MPD2     H12863   2.504   2.747   0.510 -0.6540  1.6835 -0.0344
  873MPD2    H112864   2.913   2.607   0.548  0.7679  0.6072 -1.8904
  873MPD2    H212865   2.832   3.002   0.618 -1.0967 -0.1275  2.0291
  873MPD2    H312866   2.977   2.826   0.606  0.0705  1.0347  0.5393
  873MPD2     N12867   2.665   2.529   0.496  0.0618 -0.3567 -0.0338
  873MPD2    H512868   2.742   2.462   0.497 -0.0893 -0.4924  2.8724
  873MPD2    N112869   2.575   3.010   0.573 -0.1954 -0.2516  0.6446
  873MPD2    H712870   2.629   3.087   0.613  0.4444 -0.5079  0.2772
  874MPD2     C12871   2.243   3.356  15.735  0.1356 -0.4224 -0.5193
  874MPD2    C112872   2.318   3.327  15.850 -0.5140  0.4374 -0.3886
  874MPD2    C212873   2.437   3.395  15.876 -0.5172 -0.7346  0.2431
  874MPD2    C312874   2.489   3.483  15.785  0.2795 -0.2507  0.0020
  874MPD2    C412875   2.415   3.507  15.666  0.2490  0.4028 -0.5307
  874MPD2    C512876   2.291   3.447  15.646  0.3379 -0.6910  0.5868
  874MPD2     H12877   2.497   3.374  15.964 -0.3243  1.3220  0.5967
  874MPD2    H112878   2.450   3.563  15.581 -0.4549  1.1799 -0.3034
  874MPD2    H212879   2.140   3.322  15.727  0.0066 -0.0562 -0.3989
  874MPD2    H312880   2.241   3.475  15.554  0.8514  1.2222  0.8956
  874MPD2     N12881   2.617   3.544  15.805 -0.0296  0.5086 -0.0129
  874MPD2    H512882   2.654   3.541  15.899  0.6621  0.2887 -0.2980
  874MPD2    N112883   2.252   3.251  15.946  0.0527 -0.0704 -0.2588
  874MPD2    H712884   2.160   3.215  15.921 -0.6343  1.1895  0.4247
  875MPD2     C12885   3.495   1.644  14.517  0.5295 -0.3417  0.4117
  875MPD2    C112886   3.382   1.598  14.576 -0.4998 -0.0393  0.5429
  875MPD2    C212887   3.357   1.616  14.713  0.3310 -0.6236  0.3526
  875MPD2    C312888   3.455   1.675  14.786 -0.5345 -0.3238  0.0942
  875MPD2    C412889   3.573   1.715  14.729 -0.6814  1.1540  0.3282
  875MPD2    C512890   3.587   1.700  14.595  0.3218 -0.1962  0.8392
  875MPD2     H12891   3.264   1.580  14.757 -0.6289  1.5266  0.0635
  875MPD2    H112892   3.641   1.772  14.790 -1.9062  1.0357  1.8124
  875MPD2    H212893   3.510   1.648  14.410 -2.4684  1.5200  0.0614
  875MPD2    H312894   3.671   1.753  14.550 -1.0424  0.0035 -1.4860
  875MPD2     N12895   3.436   1.701  14.924 -0.0645 -0.5224 -0.4093
  875MPD2    H512896   3.511   1.752  14.968  0.0032 -2.0504  1.2582
  875MPD2    N112897   3.265   1.563  14.501  0.5124  0.9244  0.0284
  875MPD2    H712898   3.181   1.536  14.551  0.2562 -1.1175 -1.5343
  876MPD2     C12899   2.169   2.988  15.676 -0.3358  0.6463  0.3362
  876MPD2    C112900   2.290   2.941  15.633  0.3371  0.0036 -0.6115
  876MPD2    C212901   2.329   2.816  15.681  0.0440  0.3957  0.2732
  876MPD2    C312902   2.245   2.730  15.752  1.0023  1.0085  0.1567
  876MPD2    C412903   2.119   2.777  15.785 -0.1989 -0.6689 -0.1622
  876MPD2    C512904   2.086   2.907  15.746 -0.1696 -0.0832 -0.6408
  876MPD2     H12905   2.424   2.773  15.650 -0.1869  0.4995 -0.5879
  876MPD2    H112906   2.044   2.715  15.832 -1.4164 -0.4773 -1.8323
  876MPD2    H212907   2.143   3.089  15.646 -2.8320  0.3095  1.3405
  876MPD2    H312908   1.986   2.940  15.770 -0.4148 -0.2247 -1.4530
  876MPD2     N12909   2.289   2.603  15.784 -0.3080 -0.1387 -0.5342
  876MPD2    H512910   2.374   2.559  15.749  0.1351 -1.8579  2.7637
  876MPD2    N112911   2.363   3.021  15.541 -0.1903  0.4249  0.6738
  876MPD2    H712912   2.306   3.093  15.499 -0.3703 -0.7523 -1.0951
  877MPD2     C12913   2.239   3.436  14.937 -0.2324 -0.1560  0.1162
  877MPD2    C112914   2.367   3.391  14.917 -0.0048 -0.4632 -0.2985
  877MPD2    C212915   2.420   3.394  14.788  0.0463  0.2466 -0.0147
  877MPD2    C312916   2.334   3.438  14.686  0.2876  0.6238  0.3291
  877MPD2    C412917   2.206   3.471  14.713  0.4374 -0.5537  0.8698
  877MPD2    C512918   2.158   3.473  14.841 -0.1584  0.3923 -0.4634
  877MPD2     H12919   2.517   3.350  14.770  0.2495  0.4089  0.6739
  877MPD2    H112920   2.142   3.507  14.633  0.6741 -1.5448  0.2368
  877MPD2    H212921   2.203   3.428  15.038  0.2432 -0.4398  0.2665
  877MPD2    H312922   2.055   3.496  14.869 -0.5338 -1.3209 -0.4286
  877MPD2     N12923   2.359   3.418  14.548 -0.3480  0.0862  0.4141
  877MPD2    H512924   2.274   3.399  14.496 -1.1340  1.0981  1.3164
  877MPD2    N112925   2.446   3.341  15.025  0.4249  0.0524  0.6647
  877MPD2    H712926   2.533   3.300  14.992 -2.7897 -4.8342 -1.6361
  878MPD2     C12927   2.533   2.888  13.357 -0.2188 -0.1328  0.0230
  878MPD2    C112928   2.405   2.839  13.328 -0.0022  0.9269 -0.0072
  878MPD2    C212929   2.310   2.822  13.428 -0.2154 -0.7173 -0.2113
  878MPD2    C312930   2.343   2.849  13.561 -0.2610  0.2452  1.1502
  878MPD2    C412931   2.471   2.902  13.586  0.8602  0.6070 -0.2421
  878MPD2    C512932   2.570   2.920  13.487  0.2368  0.2201 -0.8229
  878MPD2     H12933   2.217   2.768  13.414  0.9036 -2.4305 -1.1107
  878MPD2    H112934   2.501   2.897  13.691  2.1718 -1.1523 -0.6898
  878MPD2    H212935   2.605   2.894  13.276  1.7424  2.7435  1.9647
  878MPD2    H312936   2.672   2.943  13.515 -0.0556 -1.0270  1.2517
  878MPD2     N12937   2.249   2.820  13.657 -0.6309 -0.1444  0.7196
  878MPD2    H512938   2.157   2.792  13.623 -0.3778 -1.1556  0.8672
  878MPD2    N112939   2.386   2.797  13.192 -0.5270 -0.3607  0.2541
  878MPD2    H712940   2.458   2.832  13.129 -1.3831 -2.4386 -1.9099
  879MPD2     C12941   2.653   3.388  17.150  0.0690  0.2295  0.3220
  879MPD2    C112942   2.621   3.498  17.082 -0.7690  0.0408 -1.3493
  879MPD2    C212943   2.558   3.491  16.965 -0.2517 -0.3259  0.1298
  879MPD2    C312944   2.511   3.369  16.919 -0.6412  1.1531  0.9583
  879MPD2    C412945   2.542   3.253  16.987 -0.0290  0.4184 -0.2072
  879MPD2    C512946   2.616   3.261  17.106 -0.1355  0.3961  1.0857
  879MPD2     H12947   2.525   3.576  16.906 -1.0309  0.1298  1.2149
  879MPD2    H112948   2.506   3.162  16.939 -3.5978  1.7759 -0.1394
  879MPD2    H212949   2.710   3.390  17.241 -0.2690 -0.1065  0.5402
  879MPD2    H312950   2.645   3.168  17.153 -2.1517 -0.1276  1.2790
  879MPD2     N12951   2.432   3.355  16.806  0.5986 -0.2772  0.4590
  879MPD2    H512952   2.399   3.261  16.786 -1.1577 -0.4408  4.1527
  879MPD2    N112953   2.662   3.624  17.139  0.7754 -0.2726  0.0925
  879MPD2    H712954   2.693   3.621  17.235  2.1125 -0.6057 -0.3542
  880MPD2     C12955   3.402   0.803   0.045  0.5461  0.3241 -0.2564
  880MPD2    C112956   3.471   0.870   0.143  0.3343  0.6011  0.3795
  880MPD2    C212957   3.549   0.799   0.230  0.0875 -0.6327 -0.3291
  880MPD2    C312958   3.584   0.664   0.208 -0.0622 -0.0783 -0.3012
  880MPD2    C412959   3.522   0.599   0.098  0.2227  0.2686 -0.3482
  880MPD2    C512960   3.433   0.676   0.019 -0.0049 -0.4471 -0.4706
  880MPD2     H12961   3.588   0.857   0.312 -0.1333 -2.2023  0.8991
  880MPD2    H112962   3.529   0.495   0.068  2.9209  0.9174 -1.8967
  880MPD2    H212963   3.322   0.851  17.735 -0.3473 -0.2933  0.5096
  880MPD2    H312964   3.384   0.626  17.682 -1.7362 -0.2598  0.4422
  880MPD2     N12965   3.684   0.610   0.289  0.3926 -0.8842 -0.0470
  880MPD2    H512966   3.742   0.676   0.339  2.2653 -2.0912 -0.6048
  880MPD2    N112967   3.447   1.000   0.177  0.0119  0.5362 -0.1348
  880MPD2    H712968   3.492   1.032   0.262 -2.2080  1.6360  0.6200
  881MPD2     C12969   3.994   1.769   0.063  0.3914 -0.3521 -0.2442
  881MPD2    C112970   3.955   1.645   0.003 -0.3805 -0.1666 -0.3452
  881MPD2    C212971   3.837   1.586   0.052 -0.1359  0.1540  0.1743
  881MPD2    C312972   3.757   1.638   0.151  0.0231 -0.3096  0.2739
  881MPD2    C412973   3.810   1.748   0.221 -0.1132  0.0473 -0.2335
  881MPD2    C512974   3.919   1.819   0.168  0.2784 -0.8545 -0.2533
  881MPD2     H12975   3.803   1.498  17.745  0.4033  0.1911 -0.2419
  881MPD2    H112976   3.757   1.787   0.308  2.1461  1.4167  0.5301
  881MPD2    H212977   4.063   1.839   0.018  1.1679 -0.9579  0.0174
  881MPD2    H312978   3.953   1.915   0.205  0.0279 -1.3064  1.1572
  881MPD2     N12979   3.645   1.575   0.203  0.2652 -0.1316 -0.3433
  881MPD2    H512980   3.620   1.592   0.300  0.6822  2.2508 -0.6460
  881MPD2    N112981   3.999   1.619  17.614  0.0059 -0.1807 -0.0641
  881MPD2    H712982   4.058   1.691  17.573 -0.8242  2.2555  3.0525
  882MPD2     C12983   2.064   3.140  13.853  0.4918  0.4186  0.0933
  882MPD2    C112984   2.064   3.186  13.981 -0.3401 -0.7302  0.7320
  882MPD2    C212985   1.957   3.177  14.061 -0.3864  0.9241 -0.1914
  882MPD2    C312986   1.841   3.124  14.013 -0.1960  0.0330 -0.3227
  882MPD2    C412987   1.843   3.071  13.886 -0.1047  0.7453  0.3650
  882MPD2    C512988   1.956   3.072  13.806  0.6314  0.0535 -0.0030
  882MPD2     H12989   1.962   3.216  14.162  1.4124 -0.0524  0.0964
  882MPD2    H112990   1.762   3.008  13.851  0.9915 -1.3859  1.6296
  882MPD2    H212991   2.148   3.156  13.787  0.7218 -1.0200  0.0460
  882MPD2    H312992   1.948   3.024  13.709  1.4786 -2.3577  1.1220
  882MPD2     N12993   1.730   3.109  14.094  0.4576 -0.5568 -0.5536
  882MPD2    H512994   1.727   3.162  14.180 -0.7372  0.3455 -1.1567
  882MPD2    N112995   2.186   3.243  14.027 -0.1664  0.0906 -0.7103
  882MPD2    H712996   2.265   3.233  13.965  2.8934  0.4639  3.1601
  883MPD2     C12997   4.053   3.221  15.671  0.2632 -0.3426  0.3387
  883MPD2    C112998   4.116   3.346  15.661 -0.6872 -0.8043 -0.8961
  883MPD2    C212999   4.211   3.387  15.751  0.1684 -0.0614  0.1068
  883MPD2    C313000   4.258   3.294  15.846 -0.7064 -0.0996 -0.5677
  883MPD2    C413001   4.203   3.168  15.857 -0.0933  0.9489 -0.2589
  883MPD2    C513002   4.101   3.139  15.772 -0.0648 -0.2850  0.3019
  883MPD2     H13003   4.265   3.481  15.745  0.0610  0.0195  0.4194
  883MPD2    H113004   4.244   3.103  15.933  0.6113  0.3264 -1.1764
  883MPD2    H213005   3.980   3.180  15.602  0.9070  2.3924 -1.9858
  883MPD2    H313006   4.057   3.041  15.784  0.1689 -0.2908  1.1012
  883MPD2     N13007   4.357   3.339  15.936  0.3914  0.5810 -0.2469
  883MPD2    H513008   4.399   3.430  15.920  1.7346 -0.1842 -1.0868
  883MPD2    N113009   4.086   3.430  15.551 -0.0348  0.1690 -0.4945
  883MPD2    H713010   4.123   3.524  15.547  0.3088  0.0425 -0.2842
  884MPD2     C13011   1.493   4.086  15.093  0.1811  0.2772  1.2787
  884MPD2    C113012   1.442   4.207  15.049 -0.6032 -0.2845  0.3342
  884MPD2    C213013   1.309   4.230  15.044 -0.0243  0.2632  0.0856
  884MPD2    C313014   1.222   4.131  15.083  0.1647  0.0285 -0.0200
  884MPD2    C413015   1.275   4.009  15.128 -0.4359 -0.7708  0.6810
  884MPD2    C513016   1.408   3.988  15.130 -0.3508  0.0960  0.2671
  884MPD2     H13017   1.274   4.326  15.008  0.9329  0.4772 -0.2884
  884MPD2    H113018   1.217   3.927  15.169  1.3146 -1.8943  0.9046
  884MPD2    H213019   1.599   4.067  15.102  0.3164 -0.1263 -1.0021
  884MPD2    H313020   1.445   3.895  15.170  0.5060  0.4667  0.3513
  884MPD2     N13021   1.081   4.152  15.055  0.5870  0.3633  0.1361
  884MPD2    H513022   1.059   4.239  15.008  0.1155 -0.0186 -0.3455
  884MPD2    N113023   1.521   4.315  15.006 -0.4115  0.6140 -0.7333
  884MPD2    H713024   1.467   4.388  14.961 -2.8079  0.4126  1.8786
  885MPD2     C13025   4.234   4.565   0.010  0.1845 -0.1454 -0.2951
  885MPD2    C113026   4.300   4.460  17.697  0.0843 -0.3921  0.3276
  885MPD2    C213027   4.321   4.454  17.559 -0.2823 -0.2818 -0.2840
  885MPD2    C313028   4.274   4.556  17.477  0.1166  0.8979  0.2675
  885MPD2    C413029   4.222   4.667  17.543  0.3770 -0.2813 -0.7008
  885MPD2    C513030   4.188   4.663  17.676  0.0474  0.4783 -0.6468
  885MPD2     H13031   4.379   4.375  17.511 -2.0339 -1.6132 -0.2252
  885MPD2    H113032   4.177   0.012  17.488 -0.6512  0.4190  1.1900
  885MPD2    H213033   4.223   4.571   0.117  2.7800 -0.7454 -0.0057
  885MPD2    H313034   4.148   0.017  17.721 -0.2949  0.5661 -1.1349
  885MPD2     N13035   4.294   4.543  17.343 -0.1758  0.7190  0.2952
  885MPD2    H513036   4.328   4.452  17.312 -0.1822  0.8713 -0.1646
  885MPD2    N113037   4.359   4.364   0.042  0.0552 -0.6102  0.6918
  885MPD2    H713038   4.355   4.377   0.142  0.2473  0.0848  0.6093
  886MPD2     C13039   0.779   2.989  15.405 -0.0899 -0.3372  0.0963
  886MPD2    C113040   0.901   2.952  15.343 -0.4353  0.3357 -0.0351
  886MPD2    C213041   0.955   3.038  15.246 -0.0321 -0.3995  0.0656
  886MPD2    C313042   0.874   3.143  15.198 -0.5661 -0.0264  0.2063
  886MPD2    C413043   0.754   3.172  15.251  0.0607  0.0883  0.4307
  886MPD2    C513044   0.706   3.098  15.350  0.5652  0.7097  0.0641
  886MPD2     H13045   1.053   3.027  15.203  0.7427  0.5638  1.5849
  886MPD2    H113046   0.691   3.252  15.214 -0.4696 -1.5007 -2.1271
  886MPD2    H213047   0.729   2.926  15.478  1.5287  0.1601  1.6581
  886MPD2    H313048   0.603   3.112  15.381 -0.4526 -1.7968 -2.1174
  886MPD2     N13049   0.936   3.214  15.088 -0.7330 -0.3309  0.6338
  886MPD2    H513050   1.027   3.183  15.054 -1.0996 -0.1525 -0.4870
  886MPD2    N113051   0.980   2.846  15.384 -0.1701 -0.2074  0.1079
  886MPD2    H713052   1.076   2.838  15.353 -0.5368 -0.1723 -1.0523
  887MPD2     C13053   1.674   2.691  15.440  0.0914 -0.2601  0.1323
  887MPD2    C113054   1.569   2.755  15.494 -0.8819 -0.0073 -0.7733
  887MPD2    C213055   1.592   2.881  15.548  0.0420  0.0103  1.0508
  887MPD2    C313056   1.717   2.937  15.550  0.3740 -0.0475  0.9788
  887MPD2    C413057   1.822   2.869  15.496  0.0145 -0.2257 -0.3888
  887MPD2    C513058   1.798   2.745  15.441  0.2368  1.0218 -0.0750
  887MPD2     H13059   1.514   2.940  15.594 -0.5165 -0.3846  0.6069
  887MPD2    H113060   1.923   2.908  15.489 -0.1966  0.5194  0.6539
  887MPD2    H213061   1.656   2.597  15.389 -1.0771  1.7859 -3.1924
  887MPD2    H313062   1.877   2.699  15.384 -0.6855  0.1430 -0.6472
  887MPD2     N13063   1.722   3.069  15.614  0.3888  0.2087 -0.0407
  887MPD2    H513064   1.638   3.117  15.645 -0.2256 -1.0490  0.2096
  887MPD2    N113065   1.440   2.711  15.501  0.1795  0.2120  0.2868
  887MPD2    H713066   1.371   2.776  15.536  1.5335  1.1392  1.2072
  888MPD2     C13067   3.750   2.762  14.582 -0.0341  0.2672  0.0909
  888MPD2    C113068   3.746   2.803  14.711 -0.6223  0.4893 -1.0996
  888MPD2    C213069   3.713   2.933  14.742  0.0592 -0.3365 -0.4343
  888MPD2    C313070   3.675   3.024  14.644  0.5436  0.1252  0.5612
  888MPD2    C413071   3.660   2.968  14.524  0.2276  0.2989 -0.6560
  888MPD2    C513072   3.698   2.841  14.486  0.4990  1.3635  0.2906
  888MPD2     H13073   3.704   2.972  14.843 -1.7296  0.3855 -0.8818
  888MPD2    H113074   3.632   3.023  14.435 -0.2437 -0.1326 -0.7754
  888MPD2    H213075   3.774   2.660  14.556  0.3281  0.8375 -1.8703
  888MPD2    H313076   3.688   2.807  14.383 -0.4805  1.0234  0.5041
  888MPD2     N13077   3.639   3.157  14.672  0.4853  0.1248 -0.2601
  888MPD2    H513078   3.621   3.184  14.768  1.5675  2.2463 -0.6523
  888MPD2    N113079   3.772   2.705  14.813 -0.1270  0.5918  0.3907
  888MPD2    H713080   3.753   2.741  14.906  1.9497 -2.0748  1.8743
  889MPD2     C13081   2.588   1.890  13.594 -0.4016 -0.2157  0.0382
  889MPD2    C113082   2.663   1.926  13.483  0.3343  0.2374  0.1695
  889MPD2    C213083   2.697   2.056  13.472  0.1550  0.5637  0.2612
  889MPD2    C313084   2.661   2.157  13.556  0.3407 -0.2340  0.4086
  889MPD2    C413085   2.582   2.127  13.659 -0.0206 -0.1654 -0.2983
  889MPD2    C513086   2.550   1.993  13.680  0.0683 -0.0323  0.0591
  889MPD2     H13087   2.751   2.092  13.386  2.1901  2.4037  2.3134
  889MPD2    H113088   2.548   2.200  13.732 -1.3768 -1.2527  0.1749
  889MPD2    H213089   2.565   1.788  13.622  0.9594 -0.3561  0.6110
  889MPD2    H313090   2.491   1.971  13.768  0.2061 -1.3270 -0.1611
  889MPD2     N13091   2.716   2.285  13.535  0.0169  0.1467 -0.4620
  889MPD2    H513092   2.786   2.296  13.463 -0.0051  0.3727 -0.4482
  889MPD2    N113093   2.728   1.825  13.404 -0.1840 -0.5342 -0.0206
  889MPD2    H713094   2.700   1.728  13.416  0.6549 -1.1279 -2.6981
  890MPD2     C13095   2.709   3.868  14.148  0.6224 -0.0023 -0.0830
  890MPD2    C113096   2.780   3.929  14.253 -0.3023  0.7183  0.1678
  890MPD2    C213097   2.749   3.896  14.383 -0.4054 -0.2322 -0.3685
  890MPD2    C313098   2.653   3.804  14.406  0.2315  0.4685 -0.4411
  890MPD2    C413099   2.584   3.735  14.303  0.0626 -0.2263  0.9406
  890MPD2    C513100   2.617   3.773  14.176 -0.2244 -0.5964 -0.0900
  890MPD2     H13101   2.780   3.963  14.463 -1.4653 -1.3631  0.9748
  890MPD2    H113102   2.518   3.651  14.321 -1.5735  0.7155 -0.7593
  890MPD2    H213103   2.744   3.874  14.046 -1.9944 -1.0483 -1.0442
  890MPD2    H313104   2.574   3.705  14.103 -1.8764 -1.3601  1.5788
  890MPD2     N13105   2.627   3.776  14.541  0.4401 -0.3384 -0.3623
  890MPD2    H513106   2.691   3.817  14.609 -1.8458 -0.7461  1.9832
  890MPD2    N113107   2.868   4.030  14.221  0.1671 -0.7565 -0.3656
  890MPD2    H713108   2.854   4.064  14.126  1.4787  0.6929 -0.0413
  891MPD2     C13109   0.407   2.656  16.205 -0.2764 -0.0418  0.3408
  891MPD2    C113110   0.370   2.764  16.287  0.2019  0.3892  0.4708
  891MPD2    C213111   0.446   2.794  16.399 -0.0942 -0.4656 -0.0911
  891MPD2    C313112   0.541   2.704  16.441  0.5380  0.3197 -0.2624
  891MPD2    C413113   0.571   2.590  16.367  0.4322 -0.4862 -0.4035
  891MPD2    C513114   0.506   2.576  16.248 -0.3412  0.6903  0.2380
  891MPD2     H13115   0.440   2.887  16.453  0.3773  0.1397 -1.0689
  891MPD2    H113116   0.640   2.511  16.393  0.6497 -0.1779 -0.0434
  891MPD2    H213117   0.353   2.633  16.114  0.3891  0.4861 -0.1769
  891MPD2    H313118   0.526   2.487  16.190 -3.9266 -0.2951  0.5382
  891MPD2     N13119   0.599   2.724  16.562 -0.1558 -0.2728  0.0475
  891MPD2    H513120   0.568   2.808  16.609  1.2080 -1.7122  3.5351
  891MPD2    N113121   0.265   2.839  16.235 -0.9477 -0.0829 -0.3846
  891MPD2    H713122   0.230   2.814  16.143  1.3694  2.0616 -1.8375
  892MPD2     C13123   1.445   3.830  14.280 -0.1542  0.0328  0.5082
  892MPD2    C113124   1.342   3.765  14.336  0.4262  0.0264  0.4807
  892MPD2    C213125   1.346   3.628  14.327  0.8606  0.1330 -0.3814
  892MPD2    C313126   1.446   3.559  14.268  0.3588 -0.4610  0.2838
  892MPD2    C413127   1.551   3.631  14.228 -0.8229 -0.5921  0.4123
  892MPD2    C513128   1.550   3.763  14.230 -0.1267  0.0122  0.6543
  892MPD2     H13129   1.263   3.576  14.374  1.3549 -0.1003  0.2456
  892MPD2    H113130   1.635   3.578  14.185  0.0823 -0.0955  1.5740
  892MPD2    H213131   1.454   3.936  14.298 -2.8803  0.3467  0.1431
  892MPD2    H313132   1.635   3.826  14.209  0.7573 -0.6235  2.3444
  892MPD2     N13133   1.463   3.416  14.272 -0.8734 -0.0108  0.1961
  892MPD2    H513134   1.548   3.378  14.231  0.3889  1.5307  1.4067
  892MPD2    N113135   1.234   3.838  14.401 -0.5715 -0.0482 -0.0695
  892MPD2    H713136   1.230   3.937  14.378  0.4256  0.0800  0.3268
  893MPD2     C13137   2.851   1.202   1.207  0.5833  0.6151 -0.0154
  893MPD2    C113138   2.812   1.298   1.120  0.0211  0.2862  0.2182
  893MPD2    C213139   2.680   1.321   1.093  0.1404  0.8290  0.2899
  893MPD2    C313140   2.580   1.256   1.157 -1.3334 -0.3098 -0.5132
  893MPD2    C413141   2.618   1.161   1.252 -0.1521 -0.2861 -0.3957
  893MPD2    C513142   2.751   1.130   1.276  0.3933  0.2436 -0.8129
  893MPD2     H13143   2.661   1.405   1.027  1.0218  0.6035 -0.2417
  893MPD2    H113144   2.552   1.107   1.319 -2.6548  1.5243 -1.3952
  893MPD2    H213145   2.954   1.186   1.238 -0.6800 -1.6239  3.0524
  893MPD2    H313146   2.777   1.066   1.359  2.4795  0.1456 -1.5405
  893MPD2     N13147   2.443   1.279   1.140  0.2682 -0.3433  0.0495
  893MPD2    H513148   2.383   1.218   1.194 -1.3988  2.3074  1.2321
  893MPD2    N113149   2.914   1.374   1.052  0.7581  0.0069 -0.4150
  893MPD2    H713150   3.010   1.364   1.083 -0.9830 -4.8801  3.4388
  894MPD2     C13151   1.072   3.930   1.240  1.1092 -0.5325  0.2995
  894MPD2    C113152   0.943   3.976   1.201 -0.1598  0.0322  0.1193
  894MPD2    C213153   0.919   4.114   1.175  0.2526  0.0814 -0.6633
  894MPD2    C313154   1.026   4.208   1.181  0.5725  0.0935 -0.5212
  894MPD2    C413155   1.144   4.155   1.220  0.0814  0.1423  0.2494
  894MPD2    C513156   1.167   4.026   1.256  0.4123 -0.3013 -0.4939
  894MPD2     H13157   0.818   4.151   1.166 -0.2187 -1.2751 -0.9451
  894MPD2    H113158   1.228   4.224   1.232 -1.1810  1.9569 -1.2192
  894MPD2    H213159   1.088   3.829   1.276 -1.2897 -1.2704 -0.6549
  894MPD2    H313160   1.264   4.001   1.298  0.8398  0.0153 -1.2937
  894MPD2     N13161   1.016   4.346   1.141  0.2105 -0.5683 -0.4473
  894MPD2    H513162   0.922   4.378   1.117  0.5998 -0.8913 -2.3508
  894MPD2    N113163   0.831   3.889   1.193 -0.4042 -0.0719  0.7576
  894MPD2    H713164   0.752   3.931   1.145  1.8870  0.2816 -2.7178
  895MPD2     C13165   0.581   2.630  13.910 -0.9129 -0.2994  1.0944
  895MPD2    C113166   0.504   2.563  13.822  0.2336 -0.5004  0.1296
  895MPD2    C213167   0.534   2.432  13.789  0.3893  0.7055 -0.3394
  895MPD2    C313168   0.650   2.374  13.821 -0.2676  0.0128  0.1717
  895MPD2    C413169   0.733   2.442  13.904  1.0280 -0.1427 -0.0401
  895MPD2    C513170   0.694   2.567  13.961  0.3734 -0.3570 -0.5387
  895MPD2     H13171   0.478   2.378  13.714 -0.7949  0.1696  0.9510
  895MPD2    H113172   0.825   2.398  13.939 -0.2060 -1.1617  1.9292
  895MPD2    H213173   0.555   2.727  13.950 -0.5406  0.1578  0.2248
  895MPD2    H313174   0.762   2.630  14.017 -1.7706  1.0502  0.5065
  895MPD2     N13175   0.684   2.256  13.757 -0.4689 -0.2209 -0.1455
  895MPD2    H513176   0.617   2.206  13.700 -2.5116 -2.5442  4.2614
  895MPD2    N113177   0.377   2.616  13.784 -0.2412  0.0221 -0.3520
  895MPD2    H713178   0.320   2.550  13.732  0.0910  0.5122 -1.3337
  896MPD2     C13179   3.086   0.811   1.161  0.4901 -0.4149  0.6544
  896MPD2    C113180   3.020   0.722   1.078 -0.0981 -0.4892 -0.4830
  896MPD2    C213181   2.887   0.690   1.108 -0.5363 -0.0020  0.0844
  896MPD2    C313182   2.823   0.742   1.216  0.0173 -0.0682  0.1767
  896MPD2    C413183   2.897   0.831   1.296  0.5562  0.7859 -0.6534
  896MPD2    C513184   3.021   0.865   1.269 -0.3455  0.1509  1.1743
  896MPD2     H13185   2.831   0.623   1.043  0.3764 -1.9108  1.2626
  896MPD2    H113186   2.853   0.888   1.378  1.6300  0.4973  0.1230
  896MPD2    H213187   3.185   0.842   1.130  1.2185 -2.2963  1.0871
  896MPD2    H313188   3.065   0.947   1.325 -2.5422  1.0917  1.5162
  896MPD2     N13189   2.684   0.719   1.225 -0.8317 -0.2546  0.5606
  896MPD2    H513190   2.643   0.649   1.163 -1.1827 -0.3591  0.9119
  896MPD2    N113191   3.087   0.685   0.958 -0.0645  0.3689 -0.2545
  896MPD2    H713192   3.174   0.731   0.936  0.7149  0.6541  3.3338
  897MPD2     C13193   4.220   1.753  10.891 -0.2334 -1.2647  0.0162
  897MPD2    C113194   4.109   1.828  10.856 -0.4215 -0.0863  0.1081
  897MPD2    C213195   3.996   1.819  10.935 -0.3022 -0.0782 -0.0681
  897MPD2    C313196   3.979   1.718  11.029 -0.1550  0.2407  0.5673
  897MPD2    C413197   4.092   1.638  11.063  0.8309 -0.0139 -0.1874
  897MPD2    C513198   4.206   1.664  10.997  0.3491  0.6178  0.1018
  897MPD2     H13199   3.903   1.869  10.909 -0.2373  0.8743  1.4989
  897MPD2    H113200   4.088   1.562  11.140 -0.6897 -0.1539 -0.4065
  897MPD2    H213201   4.315   1.764  10.839 -0.3657 -0.3791 -0.0358
  897MPD2    H313202   4.292   1.599  11.008 -0.8964 -1.1193 -0.5622
  897MPD2     N13203   3.849   1.697  11.082 -0.4235 -0.1912 -0.2550
  897MPD2    H513204   3.776   1.753  11.041  1.5804  0.0365 -3.4417
  897MPD2    N113205   4.110   1.922  10.752 -0.3228 -0.0066 -0.6741
  897MPD2    H713206   4.027   1.979  10.740 -0.6354 -0.3334 -0.1364
  898MPD2     C13207   0.869   2.903  17.503  0.6263  0.3768  0.4517
  898MPD2    C113208   0.978   2.855  17.575  0.0982  0.2315  0.4664
  898MPD2    C213209   1.066   2.946  17.629 -0.0373  0.2306  0.0998
  898MPD2    C313210   1.055   3.081  17.595 -0.3221  0.3499 -0.2758
  898MPD2    C413211   0.953   3.126  17.514 -0.4894 -0.1325  0.5744
  898MPD2    C513212   0.856   3.032  17.471  0.4406  0.2286  0.4621
  898MPD2     H13213   1.146   2.914  17.694 -2.3046 -1.5899  1.9925
  898MPD2    H113214   0.941   3.224  17.471 -1.6560 -0.8843 -0.8277
  898MPD2    H213215   0.795   2.833  17.465  1.6740 -0.0377 -0.8319
  898MPD2    H313216   0.779   3.059  17.399  0.8034 -0.7068 -0.2784
  898MPD2     N13217   1.165   3.165  17.632 -0.3372 -0.1136 -0.0285
  898MPD2    H513218   1.251   3.122  17.665 -0.1464 -0.2085 -0.6540
  898MPD2    N113219   0.988   2.716  17.618  0.2832 -0.8943 -0.4032
  898MPD2    H713220   1.044   2.697  17.700  0.8086  0.6770 -0.4035
  899MPD2     C13221   2.010   3.310  17.080 -0.4287  0.6037 -0.0876
  899MPD2    C113222   2.124   3.382  17.129  0.3932  0.4863  0.0170
  899MPD2    C213223   2.169   3.359  17.255  0.4457  0.4658 -0.2227
  899MPD2    C313224   2.107   3.266  17.334  0.0202  0.5757 -0.6854
  899MPD2    C413225   1.990   3.200  17.292  0.0825 -0.6382  0.4022
  899MPD2    C513226   1.945   3.224  17.164  0.0348  0.1252 -0.2286
  899MPD2     H13227   2.229   3.435  17.303 -0.3438  0.0488  1.4379
  899MPD2    H113228   1.941   3.135  17.364 -0.7145 -1.3118 -0.7453
  899MPD2    H213229   1.967   3.332  16.983  2.1567 -1.2897 -1.6609
  899MPD2    H313230   1.851   3.177  17.139  1.3867 -1.5785 -2.0692
  899MPD2     N13231   2.141   3.241  17.468 -0.0370  0.8740  0.3735
  899MPD2    H513232   2.080   3.174  17.513  1.4015 -1.2891 -0.8507
  899MPD2    N113233   2.182   3.480  17.040 -0.0475  0.2124 -0.3373
  899MPD2    H713234   2.135   3.484  16.950  0.9231  0.5281 -0.8287
  900MPD2     C13235   1.516   0.029  11.465  0.2255 -0.4511  0.1979
  900MPD2    C113236   1.486   4.667  11.554  0.4256  0.1759 -0.0432
  900MPD2    C213237   1.440   4.544  11.514 -0.7249  0.0104  0.3265
  900MPD2    C313238   1.437   4.513  11.382  0.1699 -0.3500  0.3203
  900MPD2    C413239   1.475   4.607  11.287  0.1848  0.1598  0.1917
  900MPD2    C513240   1.514   4.734  11.327  0.0742  0.7982  0.2528
  900MPD2     H13241   1.409   4.462  11.579  2.4780  0.8262  2.8650
  900MPD2    H113242   1.470   4.589  11.181  3.8495  0.6556 -0.0383
  900MPD2    H213243   1.549   0.123  11.507  0.6643  0.9600 -3.3188
  900MPD2    H313244   1.535   0.068  11.248  0.0345  0.1738 -0.3163
  900MPD2     N13245   1.398   4.383  11.347  0.2966 -0.0194  0.1747
  900MPD2    H513246   1.375   4.322  11.424  1.3560 -3.9738 -2.6647
  900MPD2    N113247   1.521   4.700  11.690  0.4955  0.1612 -0.1346
  900MPD2    H713248   1.568   0.049  11.716 -0.4605  1.8785 -4.0303
  901MPD2     C13249   1.772   4.092  12.529 -0.6671  0.5500  0.0521
  901MPD2    C113250   1.812   4.067  12.404  0.5436  0.6550 -0.9441
  901MPD2    C213251   1.781   4.159  12.304 -0.2097  0.4220 -0.9361
  901MPD2    C313252   1.702   4.267  12.327  0.7466  0.2639 -0.5347
  901MPD2    C413253   1.657   4.286  12.461 -0.0663  0.4029 -0.0102
  901MPD2    C513254   1.696   4.204  12.561  0.2131  0.4620  0.4894
  901MPD2     H13255   1.828   4.152  12.207  1.7693 -0.8364  0.1137
  901MPD2    H113256   1.597   4.370  12.496  0.3253  0.9157 -0.5673
  901MPD2    H213257   1.808   4.025  12.607 -2.1012  0.7831  0.8984
  901MPD2    H313258   1.658   4.223  12.660  0.9745 -2.9103  1.4230
  901MPD2     N13259   1.685   4.358  12.223 -0.2600 -0.1939  0.6418
  901MPD2    H513260   1.734   4.341  12.135  1.1290 -1.2268  1.6296
  901MPD2    N113261   1.887   3.953  12.385  0.5991  0.4908 -0.1489
  901MPD2    H713262   1.902   3.890  12.463  1.6380 -1.1487 -1.6823
  902MPD2     C13263   1.134   2.858  12.844  0.0692 -0.9270 -0.0007
  902MPD2    C113264   1.165   2.927  12.728 -0.3049  0.4870  0.2473
  902MPD2    C213265   1.218   2.853  12.621  0.5865 -0.4828  0.5180
  902MPD2    C313266   1.247   2.715  12.631  0.2868  0.3382 -0.2093
  902MPD2    C413267   1.229   2.656  12.754  0.6831  0.0881 -0.3483
  902MPD2    C513268   1.167   2.726  12.859 -0.0334  0.0437  0.5365
  902MPD2     H13269   1.214   2.892  12.520 -1.1819 -0.5798  0.5395
  902MPD2    H113270   1.263   2.554  12.768 -0.3565 -0.1716  0.2996
  902MPD2    H213271   1.080   2.905  12.925  0.1111  1.5123 -1.3909
  902MPD2    H313272   1.150   2.668  12.949 -0.8952 -1.1927 -0.4241
  902MPD2     N13273   1.288   2.637  12.513 -0.3349  0.0756  0.2982
  902MPD2    H513274   1.314   2.541  12.532 -0.7835 -0.3047 -0.9751
  902MPD2    N113275   1.112   3.055  12.718  0.3715  0.3403  0.0837
  902MPD2    H713276   1.054   3.092  12.792 -0.6963 -0.7441 -0.2150
  903MPD2     C13277   1.309   2.964  11.812  0.3819  0.2038 -0.1280
  903MPD2    C113278   1.248   2.858  11.874  0.2584  0.0306 -0.8786
  903MPD2    C213279   1.114   2.855  11.880 -0.5938 -1.0880  0.5219
  903MPD2    C313280   1.035   2.959  11.838 -1.3303  0.4045 -0.0788
  903MPD2    C413281   1.097   3.073  11.793  0.2944  0.5920 -0.6182
  903MPD2    C513282   1.231   3.068  11.769 -0.4392  0.1569  0.0679
  903MPD2     H13283   1.056   2.776  11.928 -1.7272 -0.7870 -0.3394
  903MPD2    H113284   1.040   3.159  11.760  0.5544  0.5262 -1.2315
  903MPD2    H213285   1.413   2.978  11.784  0.0543 -0.4672 -1.6696
  903MPD2    H313286   1.271   3.150  11.712  0.4470  0.5284  1.2208
  903MPD2     N13287   0.896   2.956  11.866  0.4890  0.3841 -0.5439
  903MPD2    H513288   0.868   2.874  11.918  1.0642  0.9159  0.6043
  903MPD2    N113289   1.328   2.760  11.937 -0.1987  0.1950 -0.3018
  903MPD2    H713290   1.429   2.773  11.945 -0.3371  0.5812  0.7936
  904MPD2     C13291   0.482   1.988  14.439  0.2051 -0.2505 -0.1281
  904MPD2    C113292   0.461   2.120  14.398 -0.5075 -0.1204  0.5655
  904MPD2    C213293   0.580   2.200  14.396  0.4735 -0.0383  0.2547
  904MPD2    C313294   0.704   2.150  14.422 -0.2049  0.3555 -0.7365
  904MPD2    C413295   0.717   2.023  14.467 -0.5027 -0.1009 -0.0800
  904MPD2    C513296   0.608   1.943  14.469  0.7472  0.5426  0.4352
  904MPD2     H13297   0.575   2.299  14.350 -1.8710 -1.1245 -1.8309
  904MPD2    H113298   0.812   1.976  14.491  1.2084  3.1461 -0.3665
  904MPD2    H213299   0.406   1.911  14.433  1.1388 -1.2772  1.4592
  904MPD2    H313300   0.603   1.835  14.483  1.2366  0.0461 -3.3980
  904MPD2     N13301   0.817   2.232  14.400 -0.3209 -0.7737 -0.5063
  904MPD2    H513302   0.805   2.316  14.343  1.6098 -0.0542  0.1408
  904MPD2    N113303   0.344   2.184  14.350  0.1236  0.1958 -0.0633
  904MPD2    H713304   0.342   2.286  14.356  2.5969  0.2690 -0.4110
  905MPD2     C13305   0.055   1.870  13.725  0.1925 -0.1170 -0.1418
  905MPD2    C113306   0.127   1.982  13.742 -0.7502 -0.2402 -0.8761
  905MPD2    C213307   0.248   2.000  13.672 -0.0502  0.7968  0.3641
  905MPD2    C313308   0.287   1.908  13.579 -0.1279  0.3183 -0.1769
  905MPD2    C413309   0.204   1.797  13.552 -0.5498 -0.3870  0.1606
  905MPD2    C513310   0.086   1.778  13.633 -0.2515 -0.3347  0.4920
  905MPD2     H13311   0.307   2.090  13.682  1.1337 -0.1178  1.7487
  905MPD2    H113312   0.236   1.717  13.486 -0.8943  0.6573 -1.2761
  905MPD2    H213313   4.698   1.852  13.776  1.3584 -0.4560  1.9181
  905MPD2    H313314   0.026   1.690  13.617  2.0625 -1.5048 -1.7945
  905MPD2     N13315   0.410   1.914  13.517  0.3118 -0.1263  0.5454
  905MPD2    H513316   0.427   1.844  13.445  0.4650  0.7040 -0.2226
  905MPD2    N113317   0.094   2.067  13.853 -0.3274 -0.0524  0.3884
  905MPD2    H713318   0.014   2.043  13.910 -1.0416 -0.1276 -0.6395
  906MPD2     C13319   2.656   2.047  11.451  0.2780 -0.3443  0.3818
  906MPD2    C113320   2.591   1.987  11.343 -0.1396  0.2381 -0.5014
  906MPD2    C213321   2.512   1.878  11.369  0.0204 -0.4530  0.4555
  906MPD2    C313322   2.514   1.811  11.489 -0.4687  0.0712  0.4480
  906MPD2    C413323   2.570   1.876  11.596  0.0356  0.5132  0.3091
  906MPD2    C513324   2.638   1.999  11.572 -0.1819  1.0485  0.0135
  906MPD2     H13325   2.454   1.840  11.285  1.3765 -1.8404  0.1469
  906MPD2    H113326   2.577   1.828  11.693  1.1649  1.5725  0.7514
  906MPD2    H213327   2.726   2.129  11.434  2.0178 -2.9800 -4.8579
  906MPD2    H313328   2.676   2.047  11.661  0.3080  2.7723 -1.1244
  906MPD2     N13329   2.445   1.690  11.497  0.2179  0.9671  0.6472
  906MPD2    H513330   2.392   1.656  11.417 -1.5870  1.6941  1.5093
  906MPD2    N113331   2.608   2.025  11.206 -0.9892  0.0588  0.0710
  906MPD2    H713332   2.564   1.964  11.137 -3.0236 -0.1448  1.5344
  907MPD2     C13333   1.243   1.599  15.865 -0.2022  0.3697 -0.1464
  907MPD2    C113334   1.262   1.459  15.857 -0.1096 -0.5205 -0.7035
  907MPD2    C213335   1.334   1.401  15.957  0.4276 -0.1659  0.4050
  907MPD2    C313336   1.377   1.468  16.068  0.5068  0.4310  0.0746
  907MPD2    C413337   1.360   1.601  16.072  0.4274  0.2428 -0.2583
  907MPD2    C513338   1.292   1.663  15.973 -0.8601 -0.2769  0.3503
  907MPD2     H13339   1.338   1.293  15.954 -1.3210 -0.1180 -3.8169
  907MPD2    H113340   1.404   1.664  16.149 -0.9875 -1.2414  1.7587
  907MPD2    H213341   1.194   1.657  15.787  1.9648 -0.4053 -2.0527
  907MPD2    H313342   1.280   1.769  15.988 -0.4213 -0.3219  1.0151
  907MPD2     N13343   1.444   1.405  16.172 -0.0887  0.0532 -0.7322
  907MPD2    H513344   1.456   1.304  16.165 -1.0096 -0.0387 -0.9978
  907MPD2    N113345   1.195   1.381  15.760 -0.1523 -0.7484 -0.0886
  907MPD2    H713346   1.226   1.284  15.755 -1.8589 -1.1275 -3.3237
  908MPD2     C13347   4.491   1.778   9.800 -1.2765  0.3433  0.0242
  908MPD2    C113348   4.435   1.684   9.883 -0.2032  0.1271  0.1253
  908MPD2    C213349   4.348   1.719   9.987 -0.0300 -0.0530  0.3556
  908MPD2    C313350   4.335   1.852  10.022  0.4438 -0.5427  0.0305
  908MPD2    C413351   4.399   1.946   9.940  0.5431  0.0052  0.4955
  908MPD2    C513352   4.473   1.909   9.830  0.1563  0.1747 -0.0286
  908MPD2     H13353   4.304   1.639  10.045  2.0467 -0.9873  0.6494
  908MPD2    H113354   4.392   2.053   9.952 -0.4577 -0.4375  3.8515
  908MPD2    H213355   4.564   1.750   9.726 -0.1002  2.8171  0.2384
  908MPD2    H313356   4.515   1.990   9.772 -0.9051  0.5498 -0.2664
  908MPD2     N13357   4.263   1.885  10.138  0.1474 -0.7105  0.0621
  908MPD2    H513358   4.224   1.809  10.193  0.5945 -0.1763  1.1216
  908MPD2    N113359   4.478   1.552   9.846 -0.9634  0.4296  0.0751
  908MPD2    H713360   4.549   1.543   9.774 -0.6747 -0.4710  0.4693
  909MPD2     C13361   4.650   0.187  12.125  0.2461  1.8829  0.4162
  909MPD2    C113362   4.591   0.210  12.001  0.1230 -0.5847  0.3241
  909MPD2    C213363   4.456   0.247  12.000 -0.0233 -0.2446 -0.2431
  909MPD2    C313364   4.385   0.258  12.117  0.2680  0.0458 -0.0901
  909MPD2    C413365   4.446   0.249  12.235 -0.5280  0.2300 -0.0812
  909MPD2    C513366   4.581   0.205  12.242  0.1898  0.2310 -0.6522
  909MPD2     H13367   4.405   0.268  11.907 -1.0226 -2.9243 -0.2966
  909MPD2    H113368   4.395   0.285  12.324 -2.8924 -2.5213 -0.3320
  909MPD2    H213369   0.020   0.169  12.134  0.0322  0.7349  0.5778
  909MPD2    H313370   4.638   0.190  12.333 -0.3413  1.4412 -0.1215
  909MPD2     N13371   4.247   0.287  12.105 -0.3505  0.8714  0.6202
  909MPD2    H513372   4.189   0.261  12.026  1.9292 -2.9067  0.2240
  909MPD2    N113373   4.669   0.204  11.885 -0.0614  0.4402  0.0750
  909MPD2    H713374   0.030   0.194  11.910 -0.3502 -1.1591  0.5729
  910MPD2     C13375   0.504   1.817  16.066  0.2359  0.7700  0.3453
  910MPD2    C113376   0.552   1.762  15.947  0.5024  0.7027  0.6406
  910MPD2    C213377   0.470   1.753  15.835  0.3650  0.0357 -0.2368
  910MPD2    C313378   0.347   1.823  15.839  0.4401 -0.3890 -0.4617
  910MPD2    C413379   0.301   1.872  15.961 -0.3288  0.2881 -0.9829
  910MPD2    C513380   0.378   1.866  16.077  0.3651  0.2125 -0.0298
  910MPD2     H13381   0.504   1.702  15.745  0.1889 -2.5448  1.1406
  910MPD2    H113382   0.206   1.917  15.985 -0.6710 -0.6615 -0.5607
  910MPD2    H213383   0.564   1.822  16.156  0.3709  3.7087  0.0772
  910MPD2    H313384   0.337   1.900  16.171 -0.4818 -0.0609 -0.3045
  910MPD2     N13385   0.256   1.834  15.731 -0.2319 -0.1012  1.2640
  910MPD2    H513386   0.170   1.886  15.745  0.1850  0.6296  1.1121
  910MPD2    N113387   0.676   1.684  15.938  0.7943  0.3144 -0.8742
  910MPD2    H713388   0.697   1.620  15.863 -2.4976 -2.4110  0.5622
  911MPD2     C13389   3.389   2.462  15.912 -0.5833  0.0497  0.2250
  911MPD2    C113390   3.410   2.574  15.995 -0.8617  0.0515 -0.7722
  911MPD2    C213391   3.319   2.680  15.987  0.7891 -0.3321 -0.2820
  911MPD2    C313392   3.224   2.683  15.888  0.5602 -0.2369 -0.6504
  911MPD2    C413393   3.208   2.577  15.806 -0.4037 -0.3244  0.2329
  911MPD2    C513394   3.291   2.470  15.814  0.3855  0.2906  0.1420
  911MPD2     H13395   3.328   2.762  16.058 -0.9062  1.6768 -2.4113
  911MPD2    H113396   3.128   2.579  15.733 -0.8374  1.4764  0.7555
  911MPD2    H213397   3.449   2.372  15.918  0.1638  0.5230 -0.1294
  911MPD2    H313398   3.278   2.386  15.746 -3.2412  0.4689  0.6038
  911MPD2     N13399   3.132   2.789  15.870 -0.4339 -0.0599 -0.4171
  911MPD2    H513400   3.055   2.773  15.806 -0.4959  1.5396 -0.7643
  911MPD2    N113401   3.514   2.556  16.087 -0.4208 -0.1899 -0.9782
  911MPD2    H713402   3.558   2.465  16.080  1.5390  0.7930 -1.3534
  912MPD2     C13403   3.070   2.702  15.334 -0.7104  0.3750  1.0959
  912MPD2    C113404   2.998   2.687  15.448 -0.0327  0.2105 -0.0128
  912MPD2    C213405   2.983   2.559  15.507 -0.2931 -1.1553  0.5246
  912MPD2    C313406   3.048   2.448  15.448 -0.3422  0.2501  0.4331
  912MPD2    C413407   3.121   2.466  15.331 -0.3803 -0.9433 -0.4399
  912MPD2    C513408   3.132   2.590  15.280 -0.5952 -0.5796  0.8214
  912MPD2     H13409   2.918   2.530  15.589 -0.6491 -1.0014  0.3007
  912MPD2    H113410   3.153   2.378  15.276  0.1973 -1.7287  1.1306
  912MPD2    H213411   3.079   2.797  15.284  1.0986 -0.0314  0.6477
  912MPD2    H313412   3.190   2.601  15.189  0.0700  0.4279  1.3703
  912MPD2     N13413   3.043   2.321  15.512 -0.4811  0.4887 -0.0865
  912MPD2    H513414   2.988   2.321  15.598 -0.9307  2.9039 -0.3663
  912MPD2    N113415   2.941   2.802  15.505  0.7886 -0.3996  0.4176
  912MPD2    H713416   2.967   2.887  15.457 -2.0955  1.4338  2.0832
  913MPD2     C13417   3.542   3.279  10.624 -0.2081  0.3571 -0.4701
  913MPD2    C113418   3.649   3.364  10.619  0.0475 -0.1944  0.6211
  913MPD2    C213419   3.698   3.406  10.492  0.2164  0.6924 -0.0659
  913MPD2    C313420   3.639   3.356  10.370 -0.2819  0.1651 -0.1154
  913MPD2    C413421   3.535   3.268  10.389  0.3057 -0.0608 -0.1557
  913MPD2    C513422   3.481   3.228  10.513 -0.0423  0.0424 -0.2519
  913MPD2     H13423   3.786   3.468  10.487  1.3345 -1.0187 -1.9502
  913MPD2    H113424   3.497   3.222  10.299  2.8101 -1.2467 -0.5877
  913MPD2    H213425   3.490   3.246  10.714  2.5366  1.5306  1.5532
  913MPD2    H313426   3.402   3.156  10.529 -0.4153  1.0200  2.2064
  913MPD2     N13427   3.680   3.381  10.236 -0.2219 -0.6294 -0.0375
  913MPD2    H513428   3.648   3.322  10.160  0.2968  1.1736 -1.6518
  913MPD2    N113429   3.716   3.395  10.744 -0.3366 -0.3481 -0.5928
  913MPD2    H713430   3.672   3.356  10.827 -0.8343  5.0824  1.6795
  914MPD2     C13431   1.725   3.225  11.731  0.4485 -0.2179  0.0052
  914MPD2    C113432   1.757   3.352  11.685  0.3132  0.2354 -0.8912
  914MPD2    C213433   1.812   3.433  11.773 -0.6579  0.3338  0.1932
  914MPD2    C313434   1.834   3.387  11.907 -0.2507  0.2009 -0.1474
  914MPD2    C413435   1.787   3.267  11.949 -0.0208 -0.6679 -0.0286
  914MPD2    C513436   1.745   3.185  11.857  0.4246 -0.4045  0.1853
  914MPD2     H13437   1.854   3.528  11.741 -1.3494  0.4749 -0.2957
  914MPD2    H113438   1.795   3.226  12.049 -1.4842  0.0004  0.3653
  914MPD2    H213439   1.687   3.147  11.665 -0.8531 -0.0756  0.5773
  914MPD2    H313440   1.713   3.085  11.884 -0.5481  0.0361  0.6489
  914MPD2     N13441   1.897   3.481  11.996  0.1123  0.4521  0.1100
  914MPD2    H513442   1.937   3.569  11.965 -0.7120  0.7264 -0.1631
  914MPD2    N113443   1.736   3.381  11.551  0.0863  0.1082 -0.1630
  914MPD2    H713444   1.695   3.312  11.489 -2.2650 -0.3319  1.8779
  915MPD2     C13445   0.065   3.899  15.384  0.2812 -0.0066 -0.3668
  915MPD2    C113446   4.682   3.962  15.345  0.1564 -0.2556 -0.2770
  915MPD2    C213447   4.593   4.008  15.447 -0.2445 -0.6219  0.0326
  915MPD2    C313448   4.610   3.970  15.580 -0.4175 -0.5379 -0.3809
  915MPD2    C413449   4.721   3.905  15.616  0.6172 -0.1553 -1.0047
  915MPD2    C513450   0.085   3.875  15.524  0.0382 -0.4294  0.1891
  915MPD2     H13451   4.507   4.068  15.418 -2.5717 -4.2440 -0.4575
  915MPD2    H113452   0.003   3.878  15.719 -3.4321 -0.5377 -0.4017
  915MPD2    H213453   0.132   3.864  15.307  0.7109  0.8929 -0.4070
  915MPD2    H313454   0.183   3.837  15.552 -1.1263 -2.5395  1.3884
  915MPD2     N13455   4.507   4.005  15.668 -0.2557  0.5718  0.7356
  915MPD2    H513456   4.431   4.061  15.630 -0.0870  0.0330 -0.3816
  915MPD2    N113457   4.641   3.974  15.204 -0.1754  0.2834  0.1372
  915MPD2    H713458   4.543   3.994  15.184 -1.0426 -1.7041  2.4874
  916MPD2     C13459   2.710   2.323  15.448 -0.2598 -0.2448  0.2448
  916MPD2    C113460   2.664   2.221  15.534 -0.1296 -0.4805  0.0547
  916MPD2    C213461   2.683   2.086  15.512  0.4082 -0.1396 -1.0240
  916MPD2    C313462   2.752   2.046  15.398  0.1887 -0.3476  0.8801
  916MPD2    C413463   2.802   2.146  15.310  0.4857  0.1850 -0.2689
  916MPD2    C513464   2.778   2.278  15.341  0.8970  0.2124 -0.0162
  916MPD2     H13465   2.654   2.007  15.581  1.3068  0.6215  0.2193
  916MPD2    H113466   2.865   2.127  15.223 -0.8163 -0.0207 -1.1569
  916MPD2    H213467   2.700   2.429  15.467  0.4134  0.1527 -1.6231
  916MPD2    H313468   2.823   2.353  15.277  1.3020 -0.3499 -0.3905
  916MPD2     N13469   2.769   1.906  15.378  0.0779 -0.4756 -0.0773
  916MPD2    H513470   2.714   1.848  15.440  1.2207  0.6603  2.0212
  916MPD2    N113471   2.596   2.265  15.657  0.3577  0.0316  0.0408
  916MPD2    H713472   2.595   2.367  15.665  0.2742  0.0219  0.1485
  917MPD2     C13473   3.092   4.281  10.950  0.5294 -0.5901  0.5173
  917MPD2    C113474   3.109   4.383  11.040  0.0013 -0.0362 -0.4521
  917MPD2    C213475   3.158   4.505  10.995  0.6358  0.2570  0.0081
  917MPD2    C313476   3.174   4.534  10.862 -0.2126  1.0040  0.0977
  917MPD2    C413477   3.152   4.434  10.780  0.1828  0.1442 -0.0164
  917MPD2    C513478   3.108   4.317  10.823  0.0823 -0.1509  0.1090
  917MPD2     H13479   3.187   4.585  11.062 -0.8631 -0.2177  1.2210
  917MPD2    H113480   3.162   4.441  10.673 -0.6699  0.1310 -0.1037
  917MPD2    H213481   3.066   4.183  10.987 -3.0565 -0.0008 -0.4272
  917MPD2    H313482   3.091   4.241  10.747  0.9367 -0.2120 -0.0173
  917MPD2     N13483   3.216   4.662  10.827  0.0176  0.0319 -0.3711
  917MPD2    H513484   3.233   4.720  10.908  1.5685 -1.2635  0.2299
  917MPD2    N113485   3.077   4.356  11.173 -0.0357  0.4197  0.4404
  917MPD2    H713486   3.054   4.260  11.197  2.5359 -0.8444 -2.0075
  918MPD2     C13487   3.373   0.125  11.897  1.2219  0.1606 -0.2620
  918MPD2    C113488   3.394   4.728  11.932 -0.4701  0.1474 -0.5966
  918MPD2    C213489   3.287   4.638  11.912 -0.5187 -0.8105 -0.0792
  918MPD2    C313490   3.172   4.680  11.842 -0.0155  0.0887 -0.7806
  918MPD2    C413491   3.160   0.075  11.805 -0.6535 -0.3548  0.2548
  918MPD2    C513492   3.257   0.159  11.833 -0.1142 -0.5533  0.6435
  918MPD2     H13493   3.306   4.532  11.927  0.8759 -0.2241  2.2610
  918MPD2    H113494   3.074   0.127  11.764  0.7483  1.1399 -0.7756
  918MPD2    H213495   3.442   0.204  11.923  0.8269  0.8415 -1.2856
  918MPD2    H313496   3.236   0.261  11.801 -2.6682 -1.5786 -0.9840
  918MPD2     N13497   3.085   4.580  11.805 -0.4664 -0.5541 -0.5883
  918MPD2    H513498   3.113   4.484  11.821  3.4640  0.7664  0.5428
  918MPD2    N113499   3.505   4.685  12.008 -0.3800  0.3305 -0.4564
  918MPD2    H713500   3.540   4.591  11.991 -0.1191  0.5488 -1.1261
  919MPD2     C13501   3.826   3.358  12.148 -0.2901 -0.4238  0.2448
  919MPD2    C113502   3.772   3.242  12.109 -0.5015 -0.4988  0.7435
  919MPD2    C213503   3.726   3.244  11.977 -0.1271 -0.7307 -0.0617
  919MPD2    C313504   3.726   3.349  11.888  0.4027  0.3910  0.6443
  919MPD2    C413505   3.786   3.462  11.932 -0.2608  0.4062  1.3082
  919MPD2    C513506   3.829   3.473  12.059  0.7837  0.1603 -0.2086
  919MPD2     H13507   3.681   3.152  11.940  1.2481 -1.2161 -0.5215
  919MPD2    H113508   3.787   3.545  11.862 -2.2343 -3.7828 -3.6778
  919MPD2    H213509   3.858   3.376  12.250 -1.3681 -0.1034  0.5259
  919MPD2    H313510   3.878   3.565  12.087 -1.2341  0.5704  1.9516
  919MPD2     N13511   3.668   3.354  11.754 -0.4948 -0.4184  0.5001
  919MPD2    H513512   3.682   3.424  11.682 -0.0857 -1.9097 -0.8613
  919MPD2    N113513   3.780   3.116  12.174  0.1035  0.2189  0.0259
  919MPD2    H713514   3.730   3.036  12.137  0.7790 -0.1101 -0.1804
  920MPD2     C13515   3.586   3.783  10.872  0.7781  0.3471 -0.6181
  920MPD2    C113516   3.512   3.667  10.845  0.6626  0.2622  0.4243
  920MPD2    C213517   3.513   3.581  10.949  0.1501  0.4278  0.2274
  920MPD2    C313518   3.565   3.594  11.074 -0.7077 -0.1499  0.2609
  920MPD2    C413519   3.640   3.709  11.094  0.2358  0.6549  0.1152
  920MPD2    C513520   3.656   3.797  10.986  0.3232  0.4001 -0.4994
  920MPD2     H13521   3.461   3.488  10.932 -0.5196  0.7061  0.7333
  920MPD2    H113522   3.690   3.733  11.188 -0.8798  0.7182  0.6896
  920MPD2    H213523   3.588   3.873  10.812  2.7488  0.6111 -0.1482
  920MPD2    H313524   3.709   3.889  11.006  2.3196 -0.1953 -3.0745
  920MPD2     N13525   3.540   3.496  11.168 -0.0924 -0.4512 -0.0797
  920MPD2    H513526   3.485   3.418  11.134 -0.4980  0.5288 -1.6354
  920MPD2    N113527   3.437   3.642  10.726  0.0584 -0.3122 -0.3259
  920MPD2    H713528   3.374   3.563  10.714  0.5861 -0.6599 -0.7954
  921MPD2     C13529   4.466   2.557  16.521 -0.0113  0.1974 -0.1917
  921MPD2    C113530   4.407   2.640  16.434  0.0343  0.2489  0.0806
  921MPD2    C213531   4.268   2.652  16.431 -0.1401  0.1118  0.1082
  921MPD2    C313532   4.191   2.567  16.513 -0.3038 -0.3463 -0.6926
  921MPD2    C413533   4.253   2.480  16.597  0.2742  0.7585 -0.6299
  921MPD2    C513534   4.388   2.471  16.595  0.2889  0.1740  0.1066
  921MPD2     H13535   4.219   2.731  16.375 -2.6401 -0.4861  1.4403
  921MPD2    H113536   4.211   2.414  16.672  3.2897  2.0589  2.1438
  921MPD2    H213537   4.571   2.540  16.543  0.5465 -0.2110 -3.0912
  921MPD2    H313538   4.433   2.408  16.670  1.4647  0.7801 -0.1019
  921MPD2     N13539   4.049   2.571  16.517 -0.1557 -0.0543 -0.1064
  921MPD2    H513540   4.009   2.500  16.577  0.9918 -1.4779 -1.0289
  921MPD2    N113541   4.499   2.727  16.371  0.6134 -0.1485  0.1101
  921MPD2    H713542   4.594   2.721  16.407  0.4325 -1.6431  0.3341
  922MPD2     C13543   0.320   0.775  17.143  0.4182  0.3443  0.3163
  922MPD2    C113544   0.238   0.777  17.261 -0.5970  0.7506 -0.2459
  922MPD2    C213545   0.206   0.654  17.327  0.5238 -0.1172  0.0061
  922MPD2    C313546   0.233   0.532  17.269 -0.1979 -0.2307 -0.2057
  922MPD2    C413547   0.302   0.533  17.155  0.6121  0.3128  0.1013
  922MPD2    C513548   0.337   0.649  17.089  0.5033  0.3386  0.4485
  922MPD2     H13549   0.145   0.656  17.417 -0.5375  0.0955 -0.7198
  922MPD2    H113550   0.327   0.449  17.092 -0.2801 -0.4302  0.7426
  922MPD2    H213551   0.381   0.857  17.108  0.1695  1.9620  3.6122
  922MPD2    H313552   0.398   0.629  17.003  1.3034 -0.3375  1.1724
  922MPD2     N13553   0.187   0.418  17.338  0.4164  0.8461  0.0313
  922MPD2    H513554   0.138   0.427  17.427  1.5533  1.4605  0.5871
  922MPD2    N113555   0.210   0.888  17.334 -0.5948  0.3746 -0.2853
  922MPD2    H713556   0.160   0.869  17.420 -0.2929  0.2551 -0.1342
  923MPD2     C13557   2.065   1.739   8.965 -0.2027  0.4320 -0.3124
  923MPD2    C113558   1.985   1.792   9.059 -0.6324  0.2985 -0.2152
  923MPD2    C213559   2.029   1.786   9.189  0.4016 -0.5021 -0.0485
  923MPD2    C313560   2.140   1.720   9.230 -0.2028 -0.3890  0.2540
  923MPD2    C413561   2.208   1.656   9.135  0.5864 -0.0249 -0.1538
  923MPD2    C513562   2.184   1.676   9.000  0.5811  0.0443  0.0344
  923MPD2     H13563   1.971   1.847   9.256  0.5073  0.0583 -0.4664
  923MPD2    H113564   2.301   1.604   9.153 -0.2239 -1.7039 -0.8140
  923MPD2    H213565   2.049   1.764   8.861 -0.1695 -0.3245 -0.5010
  923MPD2    H313566   2.257   1.641   8.928  1.4599 -0.0381  0.9593
  923MPD2     N13567   2.192   1.718   9.362  0.6368  0.2569  0.4115
  923MPD2    H513568   2.274   1.663   9.384 -0.3397 -1.0950  0.6603
  923MPD2    N113569   1.877   1.872   9.025 -0.2994 -0.0012 -0.7393
  923MPD2    H713570   1.867   1.907   8.930  0.5745  0.3774 -0.6864
  924MPD2     C13571   1.670   0.645  16.021 -0.7186  0.0692 -0.7664
  924MPD2    C113572   1.619   0.651  16.149 -0.9704  0.7383 -0.1986
  924MPD2    C213573   1.634   0.766  16.224 -0.3264 -0.0684 -0.1755
  924MPD2    C313574   1.692   0.882  16.182 -0.1012 -0.0508 -0.1693
  924MPD2    C413575   1.732   0.868  16.057  0.5372 -0.0530 -0.1697
  924MPD2    C513576   1.735   0.760  15.979  0.1961 -0.2468  0.0702
  924MPD2     H13577   1.596   0.759  16.325 -2.1642  2.6889 -0.6858
  924MPD2    H113578   1.768   0.956  16.006 -1.7352  1.3802  0.6933
  924MPD2    H213579   1.656   0.558  15.958  0.7398 -0.9577  0.3393
  924MPD2    H313580   1.777   0.771  15.880 -0.3682 -1.4259 -0.3036
  924MPD2     N13581   1.694   1.003  16.255  0.2813  0.5003 -0.0885
  924MPD2    H513582   1.748   1.079  16.218 -1.6580  1.9280  0.0366
  924MPD2    N113583   1.545   0.539  16.189 -0.5563 -0.1346  0.2880
  924MPD2    H713584   1.502   0.478  16.120  1.6306 -0.9560 -0.3704
  925MPD2     C13585   1.020   2.973  14.759  0.4243 -0.4307  0.4301
  925MPD2    C113586   0.897   3.022  14.720 -0.3532 -0.0213  0.3973
  925MPD2    C213587   0.788   2.991  14.797 -0.6557  0.2587  0.2375
  925MPD2    C313588   0.793   2.936  14.922 -0.1542  0.5143  0.0935
  925MPD2    C413589   0.918   2.877  14.960  0.5427  0.7363  0.4529
  925MPD2    C513590   1.030   2.907  14.884  0.0973 -0.3880 -0.0270
  925MPD2     H13591   0.689   3.024  14.767 -0.5686  0.1170 -0.1961
  925MPD2    H113592   0.926   2.822  15.052 -0.0768  2.8807  1.7872
  925MPD2    H213593   1.114   2.987  14.707  0.1687  0.0867  0.1052
  925MPD2    H313594   1.122   2.861  14.919  1.9510  1.7405 -2.1472
  925MPD2     N13595   0.685   2.909  15.000 -0.2141  0.2279 -0.6531
  925MPD2    H513596   0.696   2.848  15.080 -1.5499  1.7296  0.6600
  925MPD2    N113597   0.868   3.087  14.595 -0.7027 -0.1073 -0.2519
  925MPD2    H713598   0.771   3.110  14.577 -0.5589 -0.9480 -2.1667
  926MPD2     C13599   4.224   1.170  12.737 -0.5268  0.0332  0.1131
  926MPD2    C113600   4.159   1.281  12.790 -0.1597  0.2715  0.1368
  926MPD2    C213601   4.217   1.406  12.790  0.0070  0.5561 -0.6386
  926MPD2    C313602   4.327   1.431  12.717 -0.2083 -0.2779 -0.1004
  926MPD2    C413603   4.388   1.322  12.650 -0.1358  0.4282  0.2181
  926MPD2    C513604   4.339   1.192  12.671 -0.6614 -0.0287 -0.6051
  926MPD2     H13605   4.172   1.485  12.849 -1.5773  0.4373 -1.7018
  926MPD2    H113606   4.478   1.347  12.596 -0.9762  0.3679 -1.2225
  926MPD2    H213607   4.185   1.069  12.736 -0.3279 -0.0535  0.9355
  926MPD2    H313608   4.389   1.112  12.617  1.4027  0.4308  0.6119
  926MPD2     N13609   4.394   1.556  12.721 -0.3807 -0.0502  0.3753
  926MPD2    H513610   4.488   1.546  12.684  0.7920 -1.2758  3.7275
  926MPD2    N113611   4.040   1.265  12.857 -0.3203  0.2158 -0.3259
  926MPD2    H713612   3.996   1.352  12.885  0.7939  1.2033 -1.6325
  927MPD2     C13613   3.242   4.034  16.990 -0.2587 -0.0300  0.2714
  927MPD2    C113614   3.351   4.068  17.060  0.2924 -0.3088  0.1700
  927MPD2    C213615   3.477   4.105  17.002  0.1666  0.8206  0.1510
  927MPD2    C313616   3.496   4.090  16.860 -0.8264 -0.1403 -0.1297
  927MPD2    C413617   3.384   4.054  16.792 -0.6176  0.4641  0.4631
  927MPD2    C513618   3.263   4.030  16.853 -0.3296 -0.3869  1.1177
  927MPD2     H13619   3.550   4.156  17.064 -0.6941  0.5776  1.3513
  927MPD2    H113620   3.382   4.048  16.684  0.6362 -0.6671  0.4911
  927MPD2    H213621   3.140   4.019  17.022  0.1866 -0.5494  1.4556
  927MPD2    H313622   3.178   4.016  16.788  0.0727  0.8570  0.3305
  927MPD2     N13623   3.621   4.128  16.792 -0.0640 -0.4858 -0.2101
  927MPD2    H513624   3.630   4.114  16.692  1.4244  3.0872 -0.5783
  927MPD2    N113625   3.329   4.076  17.199  0.8792  0.1966  0.2460
  927MPD2    H713626   3.233   4.057  17.226  1.5002 -2.8646  0.3539
  928MPD2     C13627   1.410   1.805   0.674 -0.4346 -0.4067 -0.2791
  928MPD2    C113628   1.465   1.932   0.683 -0.3514 -0.2528 -0.2045
  928MPD2    C213629   1.464   2.011   0.566  0.2480  0.3367  0.6327
  928MPD2    C313630   1.402   1.962   0.448 -1.0098 -0.1586 -0.0094
  928MPD2    C413631   1.344   1.842   0.444  0.3057 -0.0372  0.0936
  928MPD2    C513632   1.352   1.765   0.558  0.1290 -0.6547 -0.8009
  928MPD2     H13633   1.519   2.104   0.570  1.2862 -0.2719  0.3412
  928MPD2    H113634   1.316   1.794   0.352 -1.3607 -1.3747  1.2983
  928MPD2    H213635   1.396   1.740   0.760 -0.9045  0.1446  0.0534
  928MPD2    H313636   1.290   1.676   0.558 -1.9176  0.7718  1.1687
  928MPD2     N13637   1.381   2.034   0.327  0.0084 -0.6333 -1.0290
  928MPD2    H513638   1.332   1.986   0.252 -3.8931 -1.3066  1.9901
  928MPD2    N113639   1.522   1.976   0.808 -0.1415 -0.1158 -1.2794
  928MPD2    H713640   1.539   1.904   0.878  0.0953  0.8580 -0.3321
  929MPD2     C13641   2.184   1.841  10.562 -0.2887  0.1287 -0.3723
  929MPD2    C113642   2.053   1.796  10.555 -0.2758 -0.2729  0.0350
  929MPD2    C213643   1.976   1.827  10.443  1.3808  0.4601  0.4804
  929MPD2    C313644   2.017   1.931  10.361 -0.5417  0.5321 -0.6822
  929MPD2    C413645   2.147   1.981  10.370  0.3097 -0.1172 -0.5414
  929MPD2    C513646   2.229   1.936  10.473 -0.6502  0.1660 -0.6181
  929MPD2     H13647   1.871   1.803  10.441  1.8099 -1.2579 -1.2987
  929MPD2    H113648   2.180   2.058  10.302 -2.4056  2.7895  1.4351
  929MPD2    H213649   2.239   1.822  10.654 -1.0106 -0.6965 -0.1121
  929MPD2    H313650   2.324   1.987  10.481 -1.1772  0.7160  2.1594
  929MPD2     N13651   1.940   1.994  10.261  0.0944  0.1281 -0.4424
  929MPD2    H513652   1.989   2.066  10.208 -0.0606  1.1911  0.8621
  929MPD2    N113653   2.007   1.720  10.668 -0.3534 -0.2633  0.2277
  929MPD2    H713654   2.072   1.697  10.742 -2.7450 -2.0523  1.7400
  930MPD2     C13655   3.111   4.275  13.752 -0.1300  0.1406 -0.7797
  930MPD2    C113656   3.214   4.321  13.666  0.6098 -0.4771  0.1768
  930MPD2    C213657   3.217   4.282  13.535 -0.4676  0.5033 -0.1593
  930MPD2    C313658   3.122   4.196  13.487 -0.6175  0.1302  0.3094
  930MPD2    C413659   3.035   4.132  13.581  0.3875  0.2042  0.5874
  930MPD2    C513660   3.037   4.169  13.713 -0.0294  0.0111  0.1573
  930MPD2     H13661   3.301   4.315  13.475 -0.7151 -1.8091 -1.7825
  930MPD2    H113662   2.959   4.059  13.556  0.0761  1.4888 -2.1359
  930MPD2    H213663   3.111   4.318  13.852  0.4294  3.4879 -2.1967
  930MPD2    H313664   2.971   4.119  13.784 -2.4670  0.7039 -1.6396
  930MPD2     N13665   3.133   4.147  13.354  0.1583 -0.0096  1.0423
  930MPD2    H513666   3.086   4.059  13.336 -0.7789  1.2378 -2.5605
  930MPD2    N113667   3.297   4.429  13.697  0.0874 -0.2663  0.2179
  930MPD2    H713668   3.366   4.459  13.630  1.2943 -1.0835  1.1040
  931MPD2     C13669   3.736   3.813   0.059 -0.0033 -0.1538  0.2911
  931MPD2    C113670   3.620   3.877   0.100  0.4824  0.2902  0.6719
  931MPD2    C213671   3.564   3.834   0.218 -0.7768 -0.6519  0.5764
  931MPD2    C313672   3.627   3.734   0.295 -0.2346  0.0596  0.4491
  931MPD2    C413673   3.744   3.676   0.256  0.0777  0.1224 -0.6906
  931MPD2    C513674   3.793   3.712   0.132 -0.2784 -0.0552 -0.8390
  931MPD2     H13675   3.462   3.864   0.241 -0.2428  0.3474  1.5944
  931MPD2    H113676   3.783   3.595   0.317  1.3105  1.5193  0.3912
  931MPD2    H213677   3.786   3.836  17.710 -0.6128 -1.1947 -0.2813
  931MPD2    H313678   3.877   3.656   0.093 -1.7083 -2.5855 -0.3079
  931MPD2     N13679   3.571   3.673   0.414 -0.2454 -0.2852  0.7752
  931MPD2    H513680   3.625   3.595   0.451  0.1984  0.8057  2.4355
  931MPD2    N113681   3.554   3.973   0.018 -0.5849 -0.0568 -0.2273
  931MPD2    H713682   3.583   3.969  17.666  0.0507  0.4662 -0.0571
  932MPD2     C13683   0.159   3.095  11.495 -0.2718 -0.6625  0.2017
  932MPD2    C113684   0.288   3.030  11.488  0.7719  0.3462 -0.2685
  932MPD2    C213685   0.319   2.930  11.579  0.5042 -0.4699 -0.9165
  932MPD2    C313686   0.220   2.891  11.674  0.5213  0.6094  0.2669
  932MPD2    C413687   0.096   2.947  11.675  0.6264  0.1165  0.0251
  932MPD2    C513688   0.063   3.048  11.584  0.2521 -0.8423  0.5208
  932MPD2     H13689   0.418   2.887  11.575  0.1556 -1.2863 -0.7087
  932MPD2    H113690   0.015   2.918  11.741  1.4830 -1.9532  0.1581
  932MPD2    H213691   0.133   3.187  11.444  1.1130 -0.2466  0.2603
  932MPD2    H313692   4.702   3.092  11.604  0.6212  0.1305  0.1726
  932MPD2     N13693   0.253   2.804  11.784  0.7905 -0.2591 -0.4933
  932MPD2    H513694   0.169   2.785  11.838  0.6786  2.1603  0.1905
  932MPD2    N113695   0.385   3.071  11.397 -0.1288 -0.0396  0.7381
  932MPD2    H713696   0.480   3.041  11.416 -0.5525 -0.8735  1.6024
  933MPD2     C13697   1.972   2.643   1.213 -0.4977 -0.2847  0.0006
  933MPD2    C113698   1.836   2.613   1.199 -0.7340 -0.2468 -0.1979
  933MPD2    C213699   1.746   2.721   1.190 -0.0288 -0.1464  0.5225
  933MPD2    C313700   1.792   2.853   1.212 -0.3860 -0.0444  0.7696
  933MPD2    C413701   1.924   2.875   1.224  0.5551  0.2146 -0.5861
  933MPD2    C513702   2.012   2.771   1.223  0.2717 -0.1157 -0.0637
  933MPD2     H13703   1.643   2.695   1.168  0.2094 -0.5394 -0.1455
  933MPD2    H113704   1.978   2.969   1.221 -2.5181  1.9109 -1.7247
  933MPD2    H213705   2.047   2.564   1.208  0.3267  0.3964  1.5513
  933MPD2    H313706   2.118   2.793   1.221 -0.0085  1.0901 -1.8794
  933MPD2     N13707   1.692   2.954   1.200 -0.2014  0.0345  0.4330
  933MPD2    H513708   1.599   2.916   1.184  0.2291 -1.9064  2.4154
  933MPD2    N113709   1.805   2.477   1.177  0.3598  0.1000  0.2244
  933MPD2    H713710   1.882   2.415   1.201  0.6989  0.4874  0.1359
  934MPD2     C13711   2.485   0.566   1.599  0.3286 -0.3094 -0.0979
  934MPD2    C113712   2.553   0.459   1.541  0.1388  0.2841 -0.0580
  934MPD2    C213713   2.471   0.366   1.489  1.0604  0.3938 -0.1613
  934MPD2    C313714   2.331   0.370   1.496  0.4647 -0.0475  0.4281
  934MPD2    C413715   2.271   0.467   1.566  0.3495 -0.5745 -0.1963
  934MPD2    C513716   2.349   0.566   1.618  0.1556 -0.1829  0.1255
  934MPD2     H13717   2.515   0.295   1.420  1.0016  2.4459 -2.2657
  934MPD2    H113718   2.164   0.461   1.583  0.0066 -0.0502 -2.2834
  934MPD2    H213719   2.532   0.660   1.624  0.1500 -0.5097  0.9688
  934MPD2    H313720   2.296   0.649   1.664  1.1816  3.5558 -5.4582
  934MPD2     N13721   2.242   0.270   1.444  0.2013  0.7776  0.3442
  934MPD2    H513722   2.143   0.272   1.467 -0.1649 -1.3948 -1.0253
  934MPD2    N113723   2.692   0.455   1.529  0.0702  1.0762  0.1351
  934MPD2    H713724   2.735   0.384   1.471  1.4922  1.1985  1.0370
  935MPD2     C13725   2.127   3.919   1.334 -0.5268  0.3937  0.0882
  935MPD2    C113726   2.202   4.009   1.259 -0.0267 -0.3769 -0.1446
  935MPD2    C213727   2.192   4.140   1.284 -0.1384 -0.0108 -0.1395
  935MPD2    C313728   2.100   4.199   1.376 -0.9796 -0.0124  0.7781
  935MPD2    C413729   2.018   4.111   1.442 -0.3054 -0.5416 -0.4763
  935MPD2    C513730   2.035   3.976   1.419 -0.5613 -0.1995 -0.6611
  935MPD2     H13731   2.255   4.206   1.226  1.9408 -2.0009 -0.1520
  935MPD2    H113732   1.938   4.141   1.509  0.9893 -0.0290  0.8283
  935MPD2    H213733   2.130   3.812   1.315  3.1219  0.5327 -0.2371
  935MPD2    H313734   1.971   3.910   1.477 -0.2098  0.8358  0.9226
  935MPD2     N13735   2.072   4.336   1.395 -0.0029 -0.3192  0.1523
  935MPD2    H513736   1.987   4.370   1.439 -0.7026 -0.6429 -0.9552
  935MPD2    N113737   2.300   3.970   1.166  0.3520 -1.0109 -0.0867
  935MPD2    H713738   2.357   4.044   1.126  3.1513 -1.9514  2.1358
  936MPD2     C13739   1.248   1.097  12.491  0.8119  0.1338  0.0428
  936MPD2    C113740   1.222   1.208  12.576  0.2668 -0.2473 -0.0105
  936MPD2    C213741   1.187   1.335  12.520  0.6928  0.5863  0.1300
  936MPD2    C313742   1.194   1.354  12.383  0.3865  0.3863 -0.7397
  936MPD2    C413743   1.222   1.248  12.301 -0.3787 -0.1481  0.5617
  936MPD2    C513744   1.233   1.123  12.357  0.5999  0.7104 -0.6009
  936MPD2     H13745   1.166   1.416  12.589  0.1634 -0.0437  0.7152
  936MPD2    H113746   1.215   1.262  12.194 -0.4143  1.1534  0.7425
  936MPD2    H213747   1.271   0.995  12.521 -0.5691  0.0750  0.9176
  936MPD2    H313748   1.254   1.038  12.293  0.9195  0.6854 -0.4606
  936MPD2     N13749   1.170   1.483  12.340  0.5206  0.1237 -0.0155
  936MPD2    H513750   1.125   1.542  12.409 -1.4774  0.1459 -1.3067
  936MPD2    N113751   1.225   1.211  12.717  0.5179 -0.3575  0.9966
  936MPD2    H713752   1.221   1.301  12.764  3.0217  1.1510 -1.6939
  937MPD2     C13753   3.778   2.479  11.897 -0.3289 -0.2010 -0.4132
  937MPD2    C113754   3.833   2.601  11.909  0.5611  0.2808  0.1074
  937MPD2    C213755   3.864   2.663  11.793  0.2987 -0.0746  0.0087
  937MPD2    C313756   3.859   2.604  11.665 -0.2019 -0.4809  0.6086
  937MPD2    C413757   3.821   2.471  11.661 -0.8879 -0.2494  0.1289
  937MPD2    C513758   3.782   2.410  11.778  0.4364  0.2716 -0.0603
  937MPD2     H13759   3.894   2.767  11.795 -1.3704  0.4065  0.0081
  937MPD2    H113760   3.804   2.419  11.567  2.5173 -2.1408  0.5824
  937MPD2    H213761   3.727   2.426  11.976 -2.5851  0.3728 -1.4778
  937MPD2    H313762   3.748   2.307  11.774  0.5652  0.1799  1.0302
  937MPD2     N13763   3.902   2.676  11.551  0.1677 -0.6110  0.3020
  937MPD2    H513764   3.915   2.776  11.561 -0.6978 -0.7215  2.6136
  937MPD2    N113765   3.821   2.675  12.028  0.3827 -0.4240  0.8700
  937MPD2    H713766   3.841   2.774  12.017  1.3592 -0.7537 -0.2941
  938MPD2     C13767   1.059   0.044   0.741  0.3501  0.0062 -0.4062
  938MPD2    C113768   1.170   0.035   0.817  0.5474 -0.2806  0.9121
  938MPD2    C213769   1.228   4.650   0.840  0.9029 -0.4787  1.0301
  938MPD2    C313770   1.168   4.532   0.789  0.0874  0.2663 -0.4407
  938MPD2    C413771   1.047   4.540   0.721  0.3125 -0.1769  0.3186
  938MPD2    C513772   0.997   4.667   0.701 -0.4561 -0.4598 -0.1635
  938MPD2     H13773   1.320   4.636   0.896  1.2427  2.1136  1.1278
  938MPD2    H113774   0.998   4.454   0.676  1.3046 -0.3960 -0.3502
  938MPD2    H213775   1.019   0.142   0.720  0.5333  0.1054 -0.2958
  938MPD2    H313776   0.900   4.664   0.653 -0.1836 -2.7799 -0.5310
  938MPD2     N13777   1.221   4.404   0.793  0.4929  0.2200  0.0960
  938MPD2    H513778   1.157   4.329   0.767 -0.4963  1.2739 -0.4817
  938MPD2    N113779   1.235   0.151   0.870 -0.7572  0.2995  0.3653
  938MPD2    H713780   1.328   0.133   0.907 -0.1237  1.9049 -0.4749
  939MPD2     C13781   2.951   0.356   0.562  0.1459  0.1603 -0.1159
  939MPD2    C113782   2.818   0.390   0.548  0.7258  0.2697  1.2364
  939MPD2    C213783   2.750   0.341   0.438 -0.1550 -0.2139 -0.1007
  939MPD2    C313784   2.811   0.256   0.346 -0.5263  0.0574  0.8418
  939MPD2    C413785   2.944   0.223   0.363  0.2321 -0.0871  0.8085
  939MPD2    C513786   3.009   0.276   0.471  0.2523 -0.3851  0.1583
  939MPD2     H13787   2.642   0.346   0.430  0.0981  1.4402 -2.7260
  939MPD2    H113788   2.998   0.161   0.293  0.9149  1.7157 -0.2691
  939MPD2    H213789   3.022   0.395   0.633 -1.9410 -0.0875  2.0982
  939MPD2    H313790   3.115   0.260   0.487  0.7968  2.6204 -0.4342
  939MPD2     N13791   2.737   0.205   0.237 -0.1630 -0.1871  0.6221
  939MPD2    H513792   2.636   0.212   0.249  0.0358  1.2846  1.4484
  939MPD2    N113793   2.754   0.482   0.640  0.0605  0.2145 -0.8458
  939MPD2    H713794   2.807   0.514   0.721  0.1282 -1.3180 -0.2766
  940MPD2     C13795   1.431   1.739  12.879 -0.1040  0.9129  0.4302
  940MPD2    C113796   1.503   1.639  12.934  0.1282 -0.2108 -0.9663
  940MPD2    C213797   1.536   1.525  12.851 -0.2921 -0.7784 -0.0761
  940MPD2    C313798   1.494   1.526  12.723 -0.2411 -0.6864 -1.0144
  940MPD2    C413799   1.435   1.642  12.670 -0.2006  0.0438 -0.4897
  940MPD2    C513800   1.400   1.742  12.752 -0.3236  0.3854  0.3280
  940MPD2     H13801   1.588   1.442  12.898  0.2762 -0.5479 -0.2993
  940MPD2    H113802   1.414   1.659  12.565  1.2835 -0.5636 -0.8849
  940MPD2    H213803   1.390   1.821  12.937  0.3242  1.1545  0.3859
  940MPD2    H313804   1.348   1.831  12.720  0.8777 -0.4322 -3.9003
  940MPD2     N13805   1.505   1.418  12.638  0.0172  0.1468 -0.3858
  940MPD2    H513806   1.496   1.442  12.540 -0.7993  2.2434  0.2034
  940MPD2    N113807   1.553   1.640  13.069  0.2099  0.3048  0.0774
  940MPD2    H713808   1.611   1.561  13.095  0.6348  0.7047  0.3444
  941MPD2     C13809   1.553   0.391  10.295  0.4628 -0.1870  0.2215
  941MPD2    C113810   1.499   0.473  10.200 -0.4334 -0.3404  0.5004
  941MPD2    C213811   1.374   0.427  10.146  0.0364  0.9824  0.4513
  941MPD2    C313812   1.319   0.310  10.189 -0.4787  0.0157  0.0415
  941MPD2    C413813   1.378   0.232  10.286  0.1075  0.1459 -0.3420
  941MPD2    C513814   1.492   0.274  10.343 -0.3253 -0.1561  0.2374
  941MPD2     H13815   1.332   0.471  10.057 -1.3657  1.3303  1.2943
  941MPD2    H113816   1.351   0.127  10.294  0.0384  0.2692  0.9200
  941MPD2    H213817   1.649   0.409  10.343  0.8900  0.1137 -0.7392
  941MPD2    H313818   1.544   0.214  10.417 -1.7484 -1.9966 -0.2951
  941MPD2     N13819   1.203   0.247  10.124 -0.3618  0.5302  1.2229
  941MPD2    H513820   1.175   0.158  10.163 -2.3071  1.5337  2.1141
  941MPD2    N113821   1.558   0.593  10.144  0.5173  0.6096  0.6032
  941MPD2    H713822   1.508   0.651  10.077  1.3733  0.1642 -0.4173
  942MPD2     C13823   0.879   2.002   9.857  1.1511  0.0604  0.0395
  942MPD2    C113824   0.781   2.080   9.799  0.1870 -0.0878 -0.5639
  942MPD2    C213825   0.798   2.114   9.669 -0.5349 -0.3363  0.1791
  942MPD2    C313826   0.911   2.086   9.588 -0.2194 -0.1392 -0.3715
  942MPD2    C413827   1.001   2.004   9.651  0.1831 -0.7293 -0.5246
  942MPD2    C513828   0.986   1.970   9.785  0.0431  0.6311 -0.4361
  942MPD2     H13829   0.718   2.167   9.619 -0.7003  1.0252  1.8988
  942MPD2    H113830   1.098   1.981   9.610 -0.0170  0.3606 -1.6094
  942MPD2    H213831   0.875   1.965   9.959 -1.5790 -0.1316 -0.1386
  942MPD2    H313832   1.066   1.913   9.831 -1.0291 -1.0292 -0.6160
  942MPD2     N13833   0.941   2.134   9.457 -0.1715 -0.0833 -0.0055
  942MPD2    H513834   1.029   2.111   9.413 -0.3820 -0.6280 -0.1374
  942MPD2    N113835   0.661   2.124   9.860 -0.3056 -0.5115 -0.7807
  942MPD2    H713836   0.600   2.187   9.808 -0.9438  2.1496  3.2087
  943MPD2     C13837   0.529   3.937   9.587  0.5019  0.0389 -0.2484
  943MPD2    C113838   0.424   3.995   9.653  0.2272  0.1066 -0.2516
  943MPD2    C213839   0.452   4.068   9.765 -0.2052 -0.3562  0.8444
  943MPD2    C313840   0.582   4.086   9.812 -0.7187 -0.2939 -0.1290
  943MPD2    C413841   0.690   4.042   9.736 -0.1309  0.1744  0.2463
  943MPD2    C513842   0.657   3.965   9.622  0.3616 -0.3132  0.2208
  943MPD2     H13843   0.374   4.113   9.825  0.0406  0.1467  0.7847
  943MPD2    H113844   0.788   4.082   9.759 -0.1536  1.9580 -2.7244
  943MPD2    H213845   0.514   3.883   9.494  0.7306  1.2210 -0.9776
  943MPD2    H313846   0.739   3.923   9.565  1.9038  2.3667  0.4254
  943MPD2     N13847   0.622   4.172   9.916 -0.0455 -0.0681 -0.5214
  943MPD2    H513848   0.722   4.183   9.928 -0.2780  1.6179 -0.1873
  943MPD2    N113849   0.290   3.974   9.615 -0.3966 -0.3294 -0.0661
  943MPD2    H713850   0.270   3.892   9.560 -2.2186  1.8215 -2.6367
  944MPD2     C13851   4.534   4.615  10.592  0.4446 -0.1948 -0.0669
  944MPD2    C113852   4.514   4.521  10.689  0.3617  0.6807 -0.0471
  944MPD2    C213853   4.402   4.542  10.776  0.1725 -0.2450 -0.5680
  944MPD2    C313854   4.329   4.653  10.764  0.2141  0.5330 -0.4085
  944MPD2    C413855   4.354   0.015  10.668 -0.3319  0.3169  0.7349
  944MPD2    C513856   4.455   4.724  10.574 -0.5194  0.0468 -0.2681
  944MPD2     H13857   4.385   4.472  10.857  0.5262 -1.8987 -1.9339
  944MPD2    H113858   4.298   0.107  10.658 -1.7369 -0.6640 -0.4779
  944MPD2    H213859   4.615   4.610  10.520 -1.0636  0.7432 -1.8519
  944MPD2    H313860   4.457   0.064  10.497 -1.4943  1.8975  1.5413
  944MPD2     N13861   4.225   4.670  10.853 -0.0023  0.3573  0.2617
  944MPD2    H513862   4.224   4.594  10.920  2.1562  0.9874  1.0073
  944MPD2    N113863   4.604   4.418  10.697  0.1025 -0.0614 -0.3354
  944MPD2    H713864   4.673   4.428  10.623  0.8571 -0.3629  0.3289
    1TMC1    C113865   2.567   0.277  14.782  0.3105  0.3363 -0.1407
    1TMC1    C213866   2.609   0.364  14.884  0.1166 -0.1160 -0.0230
    1TMC1    C313867   2.709   0.323  14.964 -0.0535  0.0821  0.0311
    1TMC1    C413868   2.625   0.160  14.756  0.3286  0.0599 -1.1055
    1TMC1    C513869   2.720   0.124  14.849  0.2447  0.0768 -0.9222
    1TMC1    C613870   2.774   0.202  14.945 -0.3557 -0.1169  0.4338
    1TMC1     C13871   2.465   0.320  14.677  0.1642 -0.7100  0.0441
    1TMC1     O13872   2.422   0.229  14.612 -0.0245 -0.7603 -0.4702
    1TMC1     H13873   2.544   0.451  14.895 -1.1079 -0.7709 -2.0973
    1TMC1    H113874   2.589   0.097  14.675  1.0640 -0.8157 -0.7540
    1TMC1    H213875   2.844   0.166  15.020  0.6580 -0.2192 -0.5681
    1TMC1    C713876   2.745   4.715  14.860 -0.0687  0.1576 -1.0179
    1TMC1    C813877   2.762   0.402  15.080  0.5885 -0.0290 -0.0781
    1TMC1    O113878   2.740   4.680  14.979  0.2860 -0.4979  0.3120
    1TMC1    O213879   2.825   0.348  15.173  0.9266  0.0061  0.1112
    1TMC1    O313880   2.697   4.646  14.756 -0.0885  0.2563  0.3646
    1TMC1    H313881   2.713   4.684  14.667  2.1227  1.1972  1.1788
    1TMC1    O513882   2.734   0.530  15.057 -0.5965  0.3331  0.0865
    1TMC1    H513883   2.699   0.542  14.966  0.3874 -0.0608 -0.3434
    2MPD2     C13884   2.220   0.638  14.351 -0.1130  0.4700 -0.0210
    2MPD2    C113885   2.256   0.708  14.467  0.0978 -0.1668  1.2882
    2MPD2    C213886   2.333   0.639  14.564 -0.4521  0.0431 -0.2307
    2MPD2    C313887   2.373   0.510  14.558  0.8179 -0.4640 -0.3016
    2MPD2    C413888   2.336   0.445  14.444  0.7205 -0.2848 -0.1965
    2MPD2    C513889   2.270   0.511  14.342  1.2027 -0.2469 -0.3946
    2MPD2     H13890   2.363   0.696  14.652  0.9465 -0.9732 -0.0603
    2MPD2    H113891   2.364   0.342  14.427  0.8013 -0.1505 -0.9014
    2MPD2    H213892   2.172   0.690  14.268  0.0630  0.3478 -0.1981
    2MPD2    H313893   2.248   0.452  14.253  1.4971  2.4406 -2.2551
    2MPD2     N13894   2.453   0.452  14.660  0.6654 -0.3128  0.3364
    2MPD2    H513895   2.487   0.514  14.733  1.6120  1.5846 -1.7197
    2MPD2    N113896   2.221   0.847  14.477  0.1678 -0.2117 -0.7074
    2MPD2    H713897   2.172   0.882  14.395  0.4456  1.5598 -0.1102
    3TMC2    C113898   2.233   1.072  14.550 -0.4149 -0.1176 -0.0943
    3TMC2    C213899   2.309   1.164  14.620  0.2437 -0.7015  0.2323
    3TMC2    C313900   2.306   1.294  14.586  0.0324  0.2441 -0.0751
    3TMC2    C413901   2.156   1.119  14.435  0.2614  0.4521 -0.4533
    3TMC2    C513902   2.157   1.251  14.407  0.2190 -0.8458  0.0774
    3TMC2    C613903   2.220   1.339  14.490 -0.1828  0.6030  0.1881
    3TMC2     C13904   2.258   0.929  14.578 -0.2287  1.1180 -0.1571
    3TMC2     O13905   2.313   0.908  14.686 -0.4880 -0.0849 -0.2994
    3TMC2     H13906   2.370   1.123  14.700  1.7658 -0.5022 -0.8242
    3TMC2    H113907   2.098   1.053  14.371  1.5813 -1.3617  0.2237
    3TMC2    H213908   2.203   1.445  14.474 -1.8423  0.2450 -0.4170
    3TMC2    C713909   2.089   1.294  14.280 -0.0890 -0.0013  0.3276
    3TMC2    C813910   2.370   1.386  14.684 -0.1549  0.6633  0.2839
    3TMC2    O113911   1.997   1.225  14.240 -0.2005  0.0174 -0.4492
    3TMC2    O213912   2.414   1.350  14.793 -0.0457 -0.2889  0.3086
    3TMC2    O513913   2.415   1.493  14.618  0.2735 -0.0866  0.4655
    3TMC2    H513914   2.372   1.494  14.530  0.5702 -0.9284  0.3101
    4TMC2    C113915   2.244   2.197  13.864  0.2937 -0.3647  0.6442
    4TMC2    C213916   2.343   2.267  13.931  0.1080  0.1152 -0.1948
    4TMC2    C313917   2.414   2.196  14.019  0.2855 -0.1589 -0.2749
    4TMC2    C413918   2.211   2.068  13.888 -0.1751 -0.2993 -0.1065
    4TMC2    C513919   2.286   2.006  13.988 -0.4568 -0.1222 -0.4623
    4TMC2    C613920   2.388   2.067  14.049  0.2391 -0.4305  0.4465
    4TMC2     C13921   2.186   2.268  13.747  1.0182  0.7613  0.2321
    4TMC2     O13922   2.237   2.375  13.718 -0.0766 -0.1328  0.3510
    4TMC2     H13923   2.369   2.361  13.883  0.2517  0.3160  0.2769
    4TMC2    H113924   2.154   2.015  13.812 -1.0981 -0.7819  0.9151
    4TMC2    H213925   2.457   2.023  14.120 -0.1793 -0.1940  1.0012
    4TMC2    C713926   2.253   1.883  14.049  0.7505 -0.8554 -0.6303
    4TMC2    C813927   2.546   2.248  14.032 -0.3199 -0.1385 -0.5553
    4TMC2    O113928   2.331   1.830  14.126  0.6714 -0.1446 -0.4082
    4TMC2    O213929   2.643   2.180  14.014  0.3775  0.0084  0.3794
    4TMC2    O513930   2.543   2.379  13.996  0.3163  0.0721 -0.0080
    4TMC2    H513931   2.454   2.404  14.029 -0.8732 -1.4480 -2.0524
    5MPD2     C13932   1.829   2.357  13.382 -0.5293 -0.3950 -0.2784
    5MPD2    C113933   1.782   2.261  13.468 -0.6511 -0.2012 -0.2907
    5MPD2    C213934   1.865   2.212  13.568 -0.0482 -0.1330  0.1731
    5MPD2    C313935   1.988   2.257  13.590 -0.2261  0.1475 -0.8161
    5MPD2    C413936   2.034   2.358  13.509 -0.0096  0.7617 -0.3234
    5MPD2    C513937   1.956   2.404  13.409  0.1075 -0.4074 -0.5184
    5MPD2     H13938   1.830   2.130  13.629 -1.6765  0.4621  0.0278
    5MPD2    H113939   2.136   2.395  13.510  0.0766  0.5557 -2.1856
    5MPD2    H213940   1.760   2.385  13.304  0.6263 -1.5300 -1.6981
    5MPD2    H313941   1.987   2.482  13.340 -0.9872 -0.0225 -0.5836
    5MPD2     N13942   2.068   2.208  13.702 -0.0104 -0.2208  0.0021
    5MPD2    H513943   2.029   2.131  13.754 -1.5893  0.9472  0.5526
    5MPD2    N113944   1.651   2.224  13.449 -0.3277 -0.2219 -0.2611
    5MPD2    H713945   1.605   2.263  13.367 -2.0716 -0.5659  0.5469
    6MPD1     C13946   0.636   3.245  12.331  0.2644  0.0964  0.5051
    6MPD1    C113947   0.744   3.176  12.285 -0.4842  1.1467  0.2037
    6MPD1    C213948   0.787   3.072  12.364 -0.2269  0.1706 -0.1017
    6MPD1    C313949   0.719   3.033  12.478  0.1193 -0.0313 -0.1410
    6MPD1    C413950   0.616   3.107  12.524 -0.7772 -0.0487  0.9627
    6MPD1    C513951   0.571   3.207  12.443 -0.7570  0.7951 -0.1972
    6MPD1     H13952   0.884   3.030  12.338  0.6793  1.7821  0.6663
    6MPD1    H113953   0.558   3.065  12.606 -2.8912  1.4124  0.2244
    6MPD1    H213954   0.598   3.329  12.274  0.9332  0.4930  0.6432
    6MPD1    H313955   0.483   3.266  12.465 -0.4794  0.9822  0.4132
    6MPD1     N13956   0.752   2.923  12.561 -0.1627 -0.0865 -0.0118
    6MPD1    H513957   0.693   2.901  12.640 -2.4231 -0.5057 -1.8389
    6MPD1    N113958   0.825   3.226  12.179 -0.1181  0.5744 -0.8503
    6MPD1    H613959   0.903   3.163  12.163  1.8502  3.1173 -1.2963
    6MPD1    H713960   0.761   3.235  12.100 -1.8216 -1.5186  0.2888
    7MPD2     C13961   0.924   2.659  13.279  0.2314 -0.0769  0.1244
    7MPD2    C113962   0.934   2.558  13.188  0.3748 -0.0374  0.4790
    7MPD2    C213963   0.977   2.431  13.237 -0.3163  0.1041  0.7567
    7MPD2    C313964   1.021   2.409  13.366  0.0829  0.2434  0.2802
    7MPD2    C413965   0.995   2.514  13.455 -0.6369 -0.1561  0.0938
    7MPD2    C513966   0.955   2.639  13.413  0.6453  0.3465  0.0535
    7MPD2     H13967   0.996   2.353  13.164  2.7633  0.5470  1.0623
    7MPD2    H113968   1.009   2.495  13.561  0.7248  0.9105  0.1114
    7MPD2    H213969   0.890   2.757  13.246  0.2265  0.1914  0.9394
    7MPD2    H313970   0.941   2.723  13.481 -0.5549  1.5185 -1.6528
    7MPD2     N13971   1.071   2.289  13.411 -0.9019 -0.4570 -0.3495
    7MPD2    H513972   1.076   2.216  13.340 -0.3518  1.4353 -2.2720
    7MPD2    N113973   0.890   2.571  13.060  0.7109 -0.4238  0.2708
    7MPD2    H713974   0.891   2.486  13.005 -1.9905  0.0580 -0.5304
    8TMC3    C113975   1.207   2.135  13.533 -0.1646 -0.1234  0.3691
    8TMC3    C213976   1.335   2.157  13.580 -0.4419 -0.4406 -0.3604
    8TMC3    C313977   1.438   2.125  13.490 -0.1146  0.0021 -0.6926
    8TMC3    C413978   1.180   2.061  13.428 -0.5158  0.2725 -0.2381
    8TMC3    C513979   1.284   2.046  13.333  0.2012 -0.1660  0.2995
    8TMC3    C613980   1.414   2.079  13.371 -0.6902  0.5364  0.2173
    8TMC3     C13981   1.130   2.261  13.532  0.2468 -0.4737 -0.5994
    8TMC3     O13982   1.140   2.331  13.633 -0.2145  0.0577 -0.4320
    8TMC3     H13983   1.365   2.223  13.660 -0.4939  0.0571 -0.7494
    8TMC3    H113984   1.077   2.030  13.415 -0.8033  1.1719 -0.0690
    8TMC3    H213985   1.496   2.068  13.301 -1.2026  0.2272 -0.3358
    8TMC3    C713986   1.232   2.082  13.197 -0.1158  0.1561  0.0980
    8TMC3    C813987   1.579   2.131  13.522  0.7056  0.2031 -0.4637
    8TMC3    O113988   1.117   2.124  13.200 -0.6494  0.0536  0.0320
    8TMC3    O213989   1.605   2.085  13.631  0.9663  0.6385 -0.2064
    9TMC3    C113990   0.856   2.723  12.620 -0.0540  0.7246 -0.0967
    9TMC3    C213991   0.901   2.598  12.584 -0.3049 -0.9363  0.1111
    9TMC3    C313992   0.897   2.499  12.675 -0.5622 -0.1332 -0.0015
    9TMC3    C413993   0.823   2.748  12.751 -0.2137 -0.2204 -1.1186
    9TMC3    C513994   0.821   2.648  12.845 -0.3810  0.3521  0.1626
    9TMC3    C613995   0.847   2.520  12.801 -0.3431  0.8269  0.7176
    9TMC3     C13996   0.845   2.830  12.527 -0.9205  0.2716  0.3833
    9TMC3     O13997   0.906   2.814  12.423  0.1982 -0.4002  0.3291
    9TMC3     H13998   0.925   2.578  12.481  0.1087 -0.9379  0.2069
    9TMC3    H113999   0.815   2.848  12.792 -0.2622 -0.2456 -1.0661
    9TMC3    H214000   0.844   2.435  12.869 -1.9403 -0.5868 -1.1180
    9TMC3    C714001   0.845   2.686  12.988 -0.2047 -0.5836  0.5433
    9TMC3    C814002   1.000   2.392  12.658  0.1056 -1.3417  0.0615
    9TMC3    O114003   0.843   2.805  13.020 -0.3772  0.1145  0.1203
    9TMC3    O214004   1.044   2.399  12.547  0.4790 -0.5067  0.2250
   10MPD2     C14005   1.377   2.089  12.866  0.0260  0.1006 -0.6804
   10MPD2    C114006   1.290   2.118  12.966 -0.0399 -0.4266 -0.1201
   10MPD2    C214007   1.180   2.195  12.934 -0.2195  0.2678 -0.7727
   10MPD2    C314008   1.163   2.258  12.808  0.2539  0.5175  0.9673
   10MPD2    C414009   1.262   2.235  12.713  0.2311 -0.2338 -0.5387
   10MPD2    C514010   1.365   2.150  12.739  0.2215  0.4110 -0.7395
   10MPD2     H14011   1.108   2.218  13.011  1.3337 -0.0376  0.7645
   10MPD2    H114012   1.255   2.282  12.615 -1.1668  0.5648 -0.0691
   10MPD2    H214013   1.462   2.030  12.898 -0.5641 -0.0383  0.5986
   10MPD2    H314014   1.426   2.120  12.654  1.4401 -1.7668  0.9302
   10MPD2     N14015   1.045   2.328  12.778 -0.1676  0.0593 -0.0068
   10MPD2    H514016   0.981   2.321  12.856  0.7136  1.4655  0.8370
   10MPD2    N114017   1.318   2.065  13.098  1.0222  0.1710  0.1301
   10MPD2    H714018   1.398   2.006  13.117  0.6758  0.6302  3.0642
   11MPD2     C14019   1.951   1.466  14.079  0.9261  1.1006 -0.2530
   11MPD2    C114020   2.076   1.491  14.130 -0.7327 -0.1662  0.1678
   11MPD2    C214021   2.135   1.617  14.100 -0.3582  0.2055  0.0772
   11MPD2    C314022   2.072   1.716  14.030  0.5408  0.1017 -0.2756
   11MPD2    C414023   1.945   1.685  13.984  0.0405 -0.2792 -0.7084
   11MPD2    C514024   1.889   1.567  14.009 -0.3269  0.0965  0.8841
   11MPD2     H14025   2.227   1.638  14.154  1.3522 -0.9866 -2.3200
   11MPD2    H114026   1.898   1.755  13.917 -2.4942 -2.2719 -1.0048
   11MPD2    H214027   1.901   1.373  14.102  1.8497  0.5145 -0.6423
   11MPD2    H314028   1.788   1.545  13.976  0.2308 -1.2039  0.0405
   11MPD2     N14029   2.123   1.847  14.011  0.3329  0.7426 -0.0029
   11MPD2    H514030   2.058   1.903  13.956 -1.0465 -0.7646  0.0871
   11MPD2    N114031   2.142   1.415  14.235  0.0380  0.1062 -0.3884
   11MPD2    H714032   2.228   1.451  14.274 -1.1672  1.7494  0.7258
    1MPD1     C14033   4.368   2.876  16.698  0.1202 -0.2220  0.1461
    1MPD1    C114034   4.448   2.883  16.809 -0.6470  0.0314  0.0526
    1MPD1    C214035   4.566   2.945  16.795  0.1506  0.5210  0.0498
    1MPD1    C314036   4.599   3.016  16.678  0.1380  0.3714  1.0579
    1MPD1    C414037   4.504   3.043  16.588 -1.3427  1.0436 -0.1580
    1MPD1    C514038   4.381   2.967  16.599  0.4582 -0.0565  0.2221
    1MPD1     H14039   4.647   2.916  16.861  0.6634  2.1598  0.1306
    1MPD1    H114040   4.526   3.114  16.509 -0.9209  0.9529 -0.1231
    1MPD1    H214041   4.275   2.822  16.702 -0.3574  0.6199  0.5976
    1MPD1    H314042   4.309   2.988  16.521 -1.0581 -0.2452  1.5703
    1MPD1     N14043   4.726   3.074  16.669  0.0756  0.2491  0.5520
    1MPD1    H514044   0.002   3.153  16.607 -1.1411 -0.7155 -0.9021
    1MPD1    N114045   4.426   2.777  16.901 -0.0793 -0.3894  0.1931
    1MPD1    H614046   4.464   2.791  16.995 -0.2862  2.3250 -0.1326
    1MPD1    H714047   4.328   2.751  16.911 -0.0258  0.4116  2.8131
    2MPD1     C14048   1.083   3.106  16.605  0.2122 -0.1354  0.0373
    2MPD1    C114049   1.044   3.223  16.667 -0.0351  0.0747 -0.5521
    2MPD1    C214050   0.907   3.246  16.693 -0.0677  0.1599 -0.0261
    2MPD1    C314051   0.814   3.145  16.675 -0.4892 -0.2388 -0.5811
    2MPD1    C414052   0.862   3.026  16.625 -0.0038 -0.0652 -0.7222
    2MPD1    C514053   0.992   3.008  16.580 -0.0720 -0.3530  0.2769
    2MPD1     H14054   0.885   3.347  16.728 -1.6976 -0.6428  1.2518
    2MPD1    H114055   0.800   2.940  16.605 -1.7520  1.3581 -1.3971
    2MPD1    H214056   1.187   3.089  16.579 -0.3035 -0.9342 -1.5309
    2MPD1    H314057   1.032   2.926  16.521  0.1870 -1.4513  1.9934
    2MPD1     N14058   0.680   3.171  16.715  0.2307  0.1205  0.0134
    2MPD1    H514059   0.673   3.265  16.753  0.3540  0.0427  0.2325
    2MPD1    N114060   1.130   3.331  16.672 -0.0248  0.1422 -0.2630
    2MPD1    H614061   1.230   3.312  16.674 -0.3667 -1.8840 -1.2409
    2MPD1    H714062   1.102   3.410  16.729 -1.2336 -1.2264  1.0374
    3TMC3    C114063   0.447   3.156  16.740  0.5538 -0.5314  0.3277
    3TMC3    C214064   0.433   3.290  16.740 -0.2137 -0.2057  0.0744
    3TMC3    C314065   0.308   3.344  16.732 -0.3533 -0.3663 -0.1164
    3TMC3    C414066   0.341   3.069  16.725  0.3268 -0.8008 -0.4111
    3TMC3    C514067   0.215   3.119  16.692  0.4750 -0.0255 -0.3976
    3TMC3    C614068   0.195   3.263  16.703  0.6182  0.1182 -0.0611
    3TMC3     C14069   0.569   3.096  16.700 -0.2064  0.6600  0.0858
    3TMC3     O14070   0.572   2.980  16.659 -0.2590 -0.4920  0.1991
    3TMC3     H14071   0.524   3.349  16.740  0.4007 -1.1424  0.7966
    3TMC3    H114072   0.352   2.962  16.737  1.5026 -0.3404  2.6876
    3TMC3    H214073   0.097   3.305  16.686  0.4319 -0.9318 -1.5526
    3TMC3    C714074   0.107   3.032  16.731  0.0239 -0.5009 -0.0866
    3TMC3    C814075   0.285   3.479  16.787  0.3995  0.0345  0.2983
    3TMC3    O114076   0.130   2.927  16.797  0.3263  0.1850  0.1369
    3TMC3    O214077   0.169   3.513  16.794  0.0683  0.2131  0.3214
    4MPD1     C14078   0.437   3.955  16.879 -0.0335 -0.1907 -0.2043
    4MPD1    C114079   0.551   3.879  16.891  0.1204  0.0820 -0.0842
    4MPD1    C214080   0.536   3.741  16.877 -0.0638  0.7006 -0.3749
    4MPD1    C314081   0.413   3.687  16.865 -0.4953  0.2411 -0.5823
    4MPD1    C414082   0.301   3.770  16.858  0.4082 -0.5825  0.7357
    4MPD1    C514083   0.315   3.897  16.874  0.2843 -0.1216 -0.2440
    4MPD1     H14084   0.622   3.674  16.876 -0.2419  0.4607  0.5237
    4MPD1    H114085   0.200   3.742  16.833  0.2410  0.9134 -0.2357
    4MPD1    H214086   0.424   4.062  16.883 -0.5872 -0.2703  0.0768
    4MPD1    H314087   0.227   3.960  16.877 -1.0601 -2.0108 -0.0155
    4MPD1     N14088   0.402   3.548  16.830 -0.4094 -0.3361  0.1747
    4MPD1    H514089   0.489   3.494  16.833 -1.4333 -2.1709 -3.3457
    4MPD1    N114090   0.671   3.943  16.896 -0.3958 -0.2690  0.3067
    4MPD1    H614091   0.747   3.890  16.937 -0.9718  0.8094  2.7464
    4MPD1    H714092   0.660   4.032  16.944 -0.0469  0.0121 -0.1317
    1TCq1    O114093   1.418   2.925  11.366  0.2019  0.0937 -0.0575
    1TCq1    C114094   1.494   2.886  11.475  0.6592 -0.1464 -0.3831
    1TCq1    O214095   1.578   2.954  11.529  0.1233  0.3673 -0.5938
    1TCq1    C214096   1.424   2.784  11.542 -0.0774 -0.5960 -0.2061
    1TCq1    C314097   1.289   2.765  11.515 -0.7686  0.2133 -0.1845
    1TCq1    C414098   1.225   2.654  11.560 -0.3707  0.4890  0.3192
    1TCq1    C514099   1.292   2.571  11.650  0.2958  0.1270  0.6351
    1TCq1    C614100   1.430   2.594  11.672 -0.3695 -0.1053 -0.9031
    1TCq1    C714101   1.498   2.703  11.620 -0.3341 -0.1400 -0.0090
    1TCq1    C814102   1.509   2.501  11.756 -0.0809 -0.3142  0.5185
    1TCq1    O414103   1.616   2.542  11.802  0.1062  0.3379 -0.0149
    1TCq1    C914104   1.079   2.662  11.549 -0.1681  0.4954 -0.5558
    1TCq1    O514105   1.031   2.744  11.467  0.2559 -0.2323  0.4764
    1TCq1    O614106   1.020   2.559  11.598 -0.0587  0.4305 -0.1652
    1TCq1    H114107   1.364   2.852  11.329 -2.6541  2.7241 -1.0624
    1TCq1    H214108   1.228   2.831  11.454 -0.7147 -0.1281 -0.6099
    1TCq1    H314109   1.237   2.499  11.709  2.3240 -0.7696  1.4360
    1TCq1    H414110   1.603   2.716  11.642 -0.7382  0.7113  1.3668
    2MPD1     C14111   1.614   2.076  12.031 -0.3906  0.6175 -0.1127
    2MPD1    C114112   1.506   2.047  11.940 -0.1558  0.4112 -0.2712
    2MPD1    C214113   1.451   2.153  11.866  0.5620 -0.3709 -0.5637
    2MPD1    C314114   1.502   2.279  11.862 -0.3222 -0.1157  0.7642
    2MPD1    C414115   1.596   2.309  11.961  0.2135 -0.4607  0.5086
    2MPD1    C514116   1.657   2.212  12.042  0.2342 -0.8029 -0.3265
    2MPD1     H14117   1.379   2.126  11.790 -1.3771 -0.3019  1.2421
    2MPD1    H114118   1.622   2.410  11.988 -1.8436  0.1302  0.3068
    2MPD1    H214119   1.661   2.005  12.098 -1.0230 -0.6098 -0.9704
    2MPD1    H314120   1.733   2.250  12.108  1.6144 -2.9049 -0.6930
    2MPD1     N14121   1.452   2.384  11.781 -0.4360 -0.4534 -0.1523
    2MPD1    H514122   1.374   2.359  11.720 -0.3386  1.8472 -1.2215
    2MPD1    N114123   1.442   1.924  11.929 -0.1441  0.6836  0.1639
    2MPD1    H614124   1.505   1.849  11.956 -1.7231 -0.6318  0.2341
    2MPD1    H714125   1.382   1.910  11.848 -0.2387  1.2669  0.1333
    1TMC1    C114126   3.618   3.034  17.589 -0.8015 -0.1683 -0.5786
    1TMC1    C214127   3.487   3.065  17.615  0.4868  0.3038 -0.2207
    1TMC1    C314128   3.467   3.168  17.705 -0.3276  0.1539 -0.7527
    1TMC1    C414129   3.723   3.105  17.643  0.3938  0.2434 -0.2193
    1TMC1    C514130   3.696   3.209  17.723 -0.3852 -0.0144  0.0252
    1TMC1    C614131   3.571   3.242   0.011  0.4725  0.1775 -0.0350
    1TMC1     C14132   3.649   2.940  17.486  0.2483 -0.6288 -0.7704
    1TMC1     O14133   3.767   2.946  17.448  0.7679  0.1926  0.6179
    1TMC1     H14134   3.403   3.013  17.569 -0.1023  1.0476  0.0017
    1TMC1    H114135   3.826   3.074  17.630  0.1963  0.2024 -1.7352
    1TMC1    H214136   3.557   3.326   0.079 -1.2765 -0.1441  0.0017
    1TMC1    C714137   3.791   3.312  17.725 -0.0437 -0.1010  0.3335
    1TMC1    C814138   3.334   3.191   0.019  0.5317  0.4984 -0.0309
    1TMC1    O114139   3.878   3.327  17.636 -0.3496  1.0203  0.1261
    1TMC1    O214140   3.328   3.254   0.125  0.2570 -0.0324 -0.3051
    1TMC1    O314141   3.805   3.333   0.112  0.0329  0.4803  0.0506
    1TMC1    H314142   3.751   3.272   0.166  1.2239  0.6124  1.3808
    1TMC1    O514143   3.249   3.091  17.723 -0.8186 -0.6334  0.1927
    1TMC1    H514144   3.247   3.090  17.625 -2.8750 -1.4950  0.2582
    2MPD1     C14145   3.559   2.581  17.140 -0.1139  0.0366  0.0114
    2MPD1    C114146   3.455   2.570  17.229 -0.1529  0.7164 -0.1192
    2MPD1    C214147   3.446   2.664  17.330  0.2694 -0.4634 -0.5102
    2MPD1    C314148   3.549   2.758  17.349 -0.1310 -0.1802 -0.3820
    2MPD1    C414149   3.641   2.772  17.251 -0.0157 -0.3701  0.0944
    2MPD1    C514150   3.648   2.683  17.147 -0.3623 -0.3247 -0.5637
    2MPD1     H14151   3.361   2.651  17.397  1.4616 -0.3377  1.0447
    2MPD1    H114152   3.724   2.841  17.241  0.0590 -0.0090  3.0399
    2MPD1    H214153   3.570   2.514  17.055 -1.8004 -3.2480  2.4185
    2MPD1    H314154   3.733   2.685  17.080  0.0300  1.2223 -0.0108
    2MPD1     N14155   3.552   2.849  17.457  0.3151  0.6033  0.0834
    2MPD1    H514156   3.469   2.851  17.515  1.2766  0.5071  1.4576
    2MPD1    N114157   3.335   2.505  17.191  0.1703  0.3621  0.0005
    2MPD1    H614158   3.279   2.462  17.263 -2.2757 -0.2631 -2.2544
    2MPD1    H714159   3.355   2.438  17.117 -1.5487 -0.7350  0.5412
    1MPD1     C14160   2.418   1.259  12.601 -0.5440 -0.1787  0.9747
    1MPD1    C114161   2.361   1.351  12.679 -0.1444  0.1466 -0.3422
    1MPD1    C214162   2.425   1.464  12.708 -0.1899  0.8994 -0.2931
    1MPD1    C314163   2.544   1.493  12.651  0.7512 -0.4056  0.5265
    1MPD1    C414164   2.602   1.400  12.568 -0.1161 -0.1069 -0.1228
    1MPD1    C514165   2.543   1.278  12.548  0.2831  0.2103 -0.8284
    1MPD1     H14166   2.374   1.539  12.767  1.9632  0.8712  1.6194
    1MPD1    H114167   2.707   1.411  12.540  0.4084 -3.0275  0.7454
    1MPD1    H214168   2.367   1.166  12.577 -0.7186  0.1881 -0.0622
    1MPD1    H314169   2.594   1.198  12.495  0.3022 -1.3420  1.5757
    1MPD1     N14170   2.615   1.609  12.689 -0.4256  0.7498 -0.5898
    1MPD1    H514171   2.564   1.668  12.754 -1.6910  1.4480 -2.2432
    1MPD1    N114172   2.228   1.332  12.718 -0.5719 -0.2236  0.1698
    1MPD1    H614173   2.192   1.383  12.798  0.8144 -0.5709  1.0174
    1MPD1    H714174   2.213   1.232  12.732 -2.5918  0.0584  0.0896
    2MPD1     C14175   2.576   3.381  11.537  0.4916 -0.2837  0.9121
    2MPD1    C114176   2.505   3.342  11.422  0.4123 -1.3213  0.4686
    2MPD1    C214177   2.508   3.205  11.390 -0.6875  0.2291 -0.1138
    2MPD1    C314178   2.558   3.102  11.470  0.6842  0.3258  0.2754
    2MPD1    C414179   2.624   3.142  11.581 -0.6818 -0.0451 -0.1420
    2MPD1    C514180   2.623   3.276  11.617 -0.1014 -0.1467 -0.5292
    2MPD1     H14181   2.469   3.171  11.295 -1.2243 -0.3474  0.3121
    2MPD1    H114182   2.680   3.074  11.644  1.1274  0.8383 -0.8044
    2MPD1    H214183   2.575   3.482  11.574 -0.7668  1.2151 -3.2066
    2MPD1    H314184   2.671   3.302  11.710 -1.9695  3.5492 -0.6001
    2MPD1     N14185   2.583   2.969  11.431 -0.2910 -0.6372 -0.4395
    2MPD1    H514186   2.627   2.912  11.503 -0.6362  0.9063  0.9963
    2MPD1    N114187   2.476   3.430  11.322  0.7012 -0.2513  0.4552
    2MPD1    H614188   2.399   3.402  11.262  1.8368 -2.5999  0.0965
    2MPD1    H714189   2.453   3.521  11.361  3.3292  0.8966 -0.7056
    3MPD1     C14190   2.356   2.057  10.852 -0.2951  0.3476 -0.1978
    3MPD1    C114191   2.330   2.039  10.984 -0.4896  0.4494 -0.9483
    3MPD1    C214192   2.340   2.140  11.073 -0.5096 -0.4377 -0.2860
    3MPD1    C314193   2.401   2.255  11.036 -0.1119  0.8076 -0.0100
    3MPD1    C414194   2.451   2.270  10.909  0.5671 -0.1080  0.1256
    3MPD1    C514195   2.428   2.165  10.822 -0.1879 -0.0932 -0.5120
    3MPD1     H14196   2.321   2.120  11.177 -1.6561 -2.3439 -0.8704
    3MPD1    H114197   2.529   2.343  10.889  2.3360 -1.8890  0.5553
    3MPD1    H214198   2.346   1.978  10.779  2.1315 -0.0344 -0.1081
    3MPD1    H314199   2.463   2.180  10.721 -0.1432 -3.6876 -1.0017
    3MPD1     N14200   2.424   2.349  11.137 -0.4798  0.0364  0.1098
    3MPD1    H514201   2.397   2.327  11.233 -2.6676 -1.0818 -0.7469
    3MPD1    N114202   2.272   1.913  11.016 -0.5316  0.5786  0.6510
    3MPD1    H614203   2.310   1.889  11.107  1.0003  1.4048  0.2332
    3MPD1    H714204   2.297   1.836  10.954  0.1220  1.8337 -0.6606
    4MPD2     C14205   2.636   2.291  12.429 -0.5360  0.3592  0.1881
    4MPD2    C114206   2.755   2.261  12.493  0.1953 -0.1789 -0.2097
    4MPD2    C214207   2.874   2.309  12.440  0.5086  0.2406  0.1367
    4MPD2    C314208   2.862   2.374  12.324 -0.4223 -0.1248  0.5822
    4MPD2    C414209   2.746   2.421  12.271 -0.2012 -0.1152  0.0699
    4MPD2    C514210   2.628   2.378  12.319 -0.4056 -0.0681  0.4186
    4MPD2     H14211   2.970   2.275  12.478  0.1831  0.7177  1.3908
    4MPD2    H114212   2.753   2.471  12.175  0.0979 -0.0360  0.1336
    4MPD2    H214213   2.541   2.242  12.451  1.0351 -2.9424 -0.4125
    4MPD2    H314214   2.537   2.405  12.266  0.3251 -0.7335 -1.1623
    4MPD2     N14215   2.977   2.404  12.253 -0.1358  0.7632  0.8922
    4MPD2    H514216   2.971   2.455  12.166 -0.8324 -0.3956  0.2655
    4MPD2    N114217   2.769   2.179  12.606 -0.2596 -0.4002  0.1835
    4MPD2    H714218   2.865   2.157  12.630 -1.0551 -0.9897  2.9120
    5TMC3    C114219   2.735   2.003  12.764 -0.3466  0.6031  0.1549
    5TMC3    C214220   2.694   1.879  12.730 -0.0573 -0.8464 -0.0016
    5TMC3    C314221   2.786   1.780  12.717 -0.8357  0.1346 -0.0714
    5TMC3    C414222   2.872   2.023  12.790 -0.3960  0.4750 -0.8588
    5TMC3    C514223   2.961   1.923  12.769  0.5083  0.0013  0.2993
    5TMC3    C614224   2.914   1.801  12.735 -0.1022 -0.0555 -0.4843
    5TMC3     C14225   2.671   2.106  12.674  0.4266  0.2941 -0.5115
    5TMC3     O14226   2.551   2.111  12.649 -0.8042 -0.3307 -0.2602
    5TMC3     H14227   2.595   1.861  12.692  0.3420 -4.3974  0.7039
    5TMC3    H114228   2.903   2.126  12.798  1.7427 -0.1849 -0.6828
    5TMC3    H214229   2.992   1.738  12.694 -1.3534 -1.2170 -1.0581
    5TMC3    C714230   3.067   1.979  12.691 -0.4690 -0.2910 -0.7192
    5TMC3    C814231   2.752   1.646  12.666  0.2067 -0.1907 -1.0113
    5TMC3    O114232   3.028   2.069  12.617 -0.6398  0.2240 -0.4187
    5TMC3    O214233   2.841   1.579  12.613 -0.3260 -0.3080 -0.2391
    6TMC3    C114234   2.561   2.759  11.321 -0.4856 -0.3590  0.3441
    6TMC3    C214235   2.483   2.680  11.239  0.4021 -0.0410 -0.3239
    6TMC3    C314236   2.501   2.542  11.245  0.2010 -0.4421  0.5892
    6TMC3    C414237   2.645   2.703  11.416  0.0417 -0.8473  0.5798
    6TMC3    C514238   2.659   2.567  11.419  0.2267  0.2971  0.2111
    6TMC3    C614239   2.581   2.484  11.336 -0.1669  0.1749  0.7514
    6TMC3     C14240   2.533   2.902  11.323 -0.4516  0.9935  0.1295
    6TMC3     O14241   2.485   2.949  11.221  0.3294 -0.3005 -0.2815
    6TMC3     H14242   2.421   2.732  11.167  0.6658  0.1419 -0.4201
    6TMC3    H114243   2.717   2.758  11.476  0.4928  0.3786 -1.0778
    6TMC3    H214244   2.588   2.376  11.342 -3.2665 -0.1450 -1.3666
    6TMC3    C714245   2.757   2.506  11.500  0.0394 -0.3789  0.2197
    6TMC3    C814246   2.473   2.473  11.123 -0.0529  0.1528  1.0382
    6TMC3    O114247   2.802   2.570  11.595 -1.1964 -0.1162 -0.5131
    6TMC3    O214248   2.502   2.538  11.026 -0.3915 -0.6930 -0.3324
    7MPD2     C14249   3.487   1.943  12.405 -0.4043 -0.1874  0.1992
    7MPD2    C114250   3.399   2.049  12.420  0.1332 -0.1595 -0.1853
    7MPD2    C214251   3.309   2.040  12.525  0.1596 -0.6902 -0.4356
    7MPD2    C314252   3.287   1.928  12.594 -0.1593 -0.2413 -0.1907
    7MPD2    C414253   3.381   1.825  12.576 -0.0794 -0.0326  1.1606
    7MPD2    C514254   3.482   1.831  12.483  0.6026  0.2760 -0.7027
    7MPD2     H14255   3.239   2.122  12.533 -2.8645 -3.3241  0.0521
    7MPD2    H114256   3.371   1.732  12.631  1.1316  1.7909  4.4588
    7MPD2    H214257   3.565   1.954  12.330 -2.0609  0.3797 -1.4459
    7MPD2    H314258   3.563   1.762  12.465 -1.0522 -1.8614 -0.0042
    7MPD2     N14259   3.181   1.902  12.680  0.5570 -0.1102 -0.2451
    7MPD2    H514260   3.176   1.808  12.719 -0.9752  1.0194  2.2234
    7MPD2    N114261   3.395   2.159  12.337 -0.4720  0.4328 -0.4205
    7MPD2    H714262   3.323   2.223  12.368  0.0150 -0.2860  2.1581
    8TMC3    C114263   3.421   2.308  12.154  0.1006 -0.3439  0.3148
    8TMC3    C214264   3.393   2.276  12.027  0.4320  0.2615  0.2351
    8TMC3    C314265   3.262   2.269  11.988  0.1163 -0.0157 -0.4187
    8TMC3    C414266   3.329   2.376  12.227 -0.1655  0.0494  0.0649
    8TMC3    C514267   3.199   2.385  12.184 -0.5273  0.2667  0.5044
    8TMC3    C614268   3.163   2.330  12.062  0.0857  0.2988  0.1201
    8TMC3     C14269   3.468   2.184  12.217 -0.6513  0.6042  0.4819
    8TMC3     O14270   3.539   2.111  12.144  0.0048  0.9589  0.3238
    8TMC3     H14271   3.466   2.230  11.961 -0.2815  0.4262 -0.6687
    8TMC3    H114272   3.353   2.416  12.325  1.3207 -1.8676  0.4952
    8TMC3    H214273   3.058   2.313  12.044 -0.0840 -1.4728  2.7550
    8TMC3    C714274   3.104   2.363  12.286 -0.4021 -0.2256  0.6140
    8TMC3    C814275   3.237   2.214  11.856  0.4997 -0.7507 -0.0465
    8TMC3    O114276   3.152   2.299  12.380  0.1989  0.2177 -0.7307
    8TMC3    O214277   3.327   2.146  11.803  0.2705  0.1743 -0.3580
    9MPD2     C14278   3.103   2.126  11.601 -0.0516  0.0448  0.1053
    9MPD2    C114279   3.064   2.234  11.683 -0.1076  0.2386  0.2425
    9MPD2    C214280   2.965   2.325  11.640  0.1186  0.3392  0.4980
    9MPD2    C314281   2.920   2.310  11.507 -0.0528  0.0063 -0.0460
    9MPD2    C414282   2.969   2.209  11.426  0.0587 -0.5519 -0.1424
    9MPD2    C514283   3.050   2.108  11.476  0.1404 -0.1529 -0.5781
    9MPD2     H14284   2.919   2.391  11.713  1.1480  0.8740  0.6677
    9MPD2    H114285   2.928   2.202  11.326  2.7009  0.4736 -1.3201
    9MPD2    H214286   3.174   2.055  11.642 -1.2539 -0.4975  1.2704
    9MPD2    H314287   3.089   2.032  11.409 -0.0611 -0.6669 -0.1112
    9MPD2     N14288   2.811   2.388  11.446 -0.1327 -0.1966  0.4331
    9MPD2    H514289   2.775   2.370  11.353  2.5225  1.1675 -0.8649
    9MPD2    N114290   3.118   2.263  11.810  0.1668  0.4065  0.1408
    9MPD2    H714291   3.068   2.330  11.867 -0.5139  1.1283 -1.2862
    1MPD1     C14292   0.899   0.514  15.034  0.5351 -0.4082 -0.0630
    1MPD1    C114293   1.027   0.486  14.995  0.0095 -0.6700 -0.1771
    1MPD1    C214294   1.097   0.386  15.061  0.6256 -0.1881  0.2035
    1MPD1    C314295   1.052   0.343  15.180 -0.0794 -0.2406 -0.1825
    1MPD1    C414296   0.931   0.379  15.228  0.1362  0.6343  1.0505
    1MPD1    C514297   0.848   0.455  15.149  0.1181 -1.0516 -0.5032
    1MPD1     H14298   1.190   0.345  15.023 -0.9147 -1.0567 -2.6740
    1MPD1    H114299   0.894   0.334  15.320  1.1549 -1.5200  0.4002
    1MPD1    H214300   0.832   0.575  14.975 -1.4410 -1.8293  0.7031
    1MPD1    H314301   0.745   0.460  15.180  0.2944  0.1898 -0.1145
    1MPD1     N14302   1.121   0.250  15.256 -0.4138  0.5921  0.0802
    1MPD1    H514303   1.079   0.220  15.343  2.2442 -1.7086  0.5635
    1MPD1    N114304   1.071   0.534  14.871 -0.1758  0.3455 -1.1071
    1MPD1    H614305   1.030   0.623  14.843  0.2009 -0.3097 -3.8171
    1MPD1    H714306   1.171   0.552  14.865 -0.1950  1.0655  0.8162
    2TMC2    C114307   1.330   0.083  15.565  0.3929  0.5247  0.0835
    2TMC2    C214308   1.395   4.701  15.539  0.4149 -0.2916 -0.4123
    2TMC2    C314309   1.404   4.654  15.410  0.3266 -0.7910 -0.4152
    2TMC2    C414310   1.276   0.160  15.470 -1.4881  0.5585 -0.7997
    2TMC2    C514311   1.290   0.122  15.342  0.5725  0.3242 -0.6919
    2TMC2    C614312   1.340   4.730  15.317 -0.5179  0.0673 -0.0731
    2TMC2     C14313   1.308   0.132  15.697  0.5058 -0.2418  0.6708
    2TMC2     O14314   1.215   0.207  15.709  0.4050 -0.2686  0.0296
    2TMC2     H14315   1.433   4.638  15.619  0.2597 -0.5659 -0.5528
    2TMC2    H114316   1.230   0.253  15.503 -3.1361 -0.7230  0.4812
    2TMC2    H214317   1.342   4.695  15.215 -1.1659  0.9218 -0.3804
    2TMC2    C714318   1.251   0.206  15.235  0.4273  0.5518 -0.1894
    2TMC2    C814319   1.407   4.505  15.391  0.1677 -0.4348 -0.3017
    2TMC2    O114320   1.307   0.185  15.132 -0.0009  0.0923  0.6582
    2TMC2    O214321   1.365   4.423  15.473 -0.3345  0.3253 -0.3246
    2TMC2    O514322   1.443   4.484  15.266 -0.0766  0.4203  0.1399
    2TMC2    H514323   1.502   4.557  15.238 -0.8145  0.4635 -1.3024
    3MPD1     C14324   1.355   0.105  16.193  0.1725  0.2114 -0.0097
    3MPD1    C114325   1.470   0.053  16.141 -0.6423  0.1079 -0.7040
    3MPD1    C214326   1.467   0.040  16.007  0.0663  0.5043 -0.6065
    3MPD1    C314327   1.360   0.080  15.930 -0.4992  0.3077 -0.1095
    3MPD1    C414328   1.251   0.156  15.988  0.7367 -0.2290 -0.3642
    3MPD1    C514329   1.247   0.160  16.127 -0.7258 -0.2357  0.4520
    3MPD1     H14330   1.561   0.004  15.966 -1.0272 -1.5479 -1.2958
    3MPD1    H114331   1.170   0.202  15.933 -0.2675 -3.5645 -1.6697
    3MPD1    H214332   1.357   0.131  16.298 -0.7676  2.0721 -0.4678
    3MPD1    H314333   1.162   0.202  16.178  0.0298  2.4134 -0.5087
    3MPD1     N14334   1.369   0.064  15.796  0.2262 -0.9797 -0.3009
    3MPD1    H514335   1.449   0.004  15.780  1.0818 -0.2403  1.2816
    3MPD1    N114336   1.563   4.728  16.215 -0.1452 -0.1558 -0.0693
    3MPD1    H614337   1.559   0.009  16.315  2.6777 -1.1203  0.2077
    3MPD1    H714338   1.654   4.720  16.170 -0.0107 -0.7001  0.2979
    1TMC1    C114339   2.063   0.712  13.663 -0.2328  0.0351  0.2768
    1TMC1    C214340   1.943   0.738  13.609 -0.0360 -1.2539  0.0568
    1TMC1    C314341   1.866   0.632  13.561 -0.7028 -1.2489 -0.0038
    1TMC1    C414342   2.128   0.594  13.656 -0.0895 -0.3246  0.2586
    1TMC1    C514343   2.057   0.494  13.593 -0.5139  0.4137  0.3453
    1TMC1    C614344   1.927   0.506  13.555 -0.2253 -0.3821 -0.0584
    1TMC1     C14345   2.107   0.803  13.770 -0.1290  0.4168  0.0711
    1TMC1     O14346   2.052   0.916  13.766 -0.2931  0.0630  0.0457
    1TMC1     H14347   1.886   0.829  13.623  0.8478 -0.8181  0.7776
    1TMC1    H114348   2.231   0.582  13.688  0.0009 -0.5420 -0.1181
    1TMC1    H214349   1.877   0.421  13.511 -0.1574 -0.8103  0.6880
    1TMC1    C714350   2.127   0.377  13.555  0.5335  0.4679 -0.4915
    1TMC1    C814351   1.731   0.654  13.519  0.0889 -0.1304 -0.8591
    1TMC1    O114352   2.073   0.267  13.549  0.0183 -0.4311 -0.4836
    1TMC1    O214353   1.652   0.565  13.535 -0.2001 -0.7001 -0.5548
    1TMC1    O314354   2.239   0.418  13.484 -0.1850  0.3770 -0.6164
    1TMC1    H314355   2.233   0.511  13.454 -2.3019  0.2110 -0.7264
    1TMC1    O514356   1.728   0.764  13.447  0.3287  0.4003  0.3778
    1TMC1    H514357   1.815   0.806  13.436 -0.3980  2.0487  0.9807
    2MPD2     C14358   2.233   0.954  14.006  0.1998 -0.3979 -0.5226
    2MPD2    C114359   2.260   0.823  13.965  0.3150  0.0715  0.1386
    2MPD2    C214360   2.360   0.760  14.045 -0.4051  0.7034 -0.0415
    2MPD2    C314361   2.411   0.825  14.153 -0.1496  0.7500  0.1380
    2MPD2    C414362   2.370   0.952  14.196 -0.6632  0.2200 -0.0106
    2MPD2    C514363   2.284   1.015  14.124  0.4399  0.4816  0.4412
    2MPD2     H14364   2.390   0.660  14.015 -4.3020 -1.1880  2.3057
    2MPD2    H114365   2.413   1.001  14.283  0.5834  1.6520 -1.4359
    2MPD2    H214366   2.169   1.013  13.941  0.7570 -0.4555 -1.1227
    2MPD2    H314367   2.253   1.118  14.136  0.4034  0.0391  4.1475
    2MPD2     N14368   2.512   0.752  14.218  0.4861  0.3300 -0.2490
    2MPD2    H514369   2.534   0.664  14.172  1.5662  0.1358  0.6474
    2MPD2    N114370   2.203   0.756  13.852  0.0396  0.2730 -0.6956
    2MPD2    H714371   2.258   0.675  13.825  3.2184  1.1828  3.0124
    3TCq1    O114372   2.825   0.424  14.663 -0.2034  0.1720  0.0015
    3TCq1    C114373   2.825   0.550  14.695  0.2820 -0.4048 -0.2694
    3TCq1    O214374   2.762   0.593  14.789  0.2545 -0.2220 -0.2399
    3TCq1    C214375   2.813   0.602  14.560 -0.0611 -0.2392 -0.5272
    3TCq1    C314376   2.900   0.546  14.472  0.4213 -0.2240 -0.0134
    3TCq1    C414377   2.879   0.578  14.339  0.8812 -0.8502 -0.2223
    3TCq1    C514378   2.761   0.623  14.292 -0.0504 -0.0014  0.0850
    3TCq1    C614379   2.668   0.668  14.388 -0.3453 -0.5825  0.2699
    3TCq1    C714380   2.696   0.664  14.520  0.5966 -0.0665  0.3021
    3TCq1    C814381   2.570   0.770  14.343  0.2965 -0.6804 -0.0057
    3TCq1    O414382   2.553   0.858  14.428 -0.5183  0.1111  0.0278
    3TCq1    C914383   2.978   0.537  14.241 -0.4504  0.2599 -0.3141
    3TCq1    O514384   2.943   0.490  14.130 -0.2418  0.4201 -0.9154
    3TCq1    O614385   3.096   0.535  14.287  0.4779  0.3672  0.3322
    3TCq1    H114386   2.849   0.412  14.569  2.3323  0.9646  0.5389
    3TCq1    H214387   3.002   0.523  14.503 -0.0575 -0.4596  1.3997
    3TCq1    H314388   2.737   0.633  14.187  0.2160  0.9259  0.1056
    3TCq1    H414389   2.614   0.692  14.586 -1.0116 -4.0819  0.0322
    1MPD2     C14390   0.424   1.968  14.044 -0.4300 -0.7934  0.2328
    1MPD2    C114391   0.434   1.838  14.076  0.0688  0.8825 -0.3011
    1MPD2    C214392   0.555   1.782  14.123  0.1600 -0.1257 -0.0519
    1MPD2    C314393   0.672   1.862  14.140  0.5564  0.5227 -0.0360
    1MPD2    C414394   0.658   1.991  14.101 -0.3581  0.2840 -0.2937
    1MPD2    C514395   0.540   2.049  14.062  0.3058 -0.9632 -0.1225
    1MPD2     H14396   0.565   1.679  14.155 -1.6406 -0.1212  0.5263
    1MPD2    H114397   0.744   2.057  14.095 -1.1483  1.5645  2.5528
    1MPD2    H214398   0.332   2.009  14.004 -0.6605 -0.1494  1.4307
    1MPD2    H314399   0.539   2.155  14.042 -1.4366 -1.2159 -1.3798
    1MPD2     N14400   0.790   1.799  14.179  0.0319 -0.1153 -0.0414
    1MPD2    H514401   0.774   1.700  14.197  2.3519 -0.5516 -0.3625
    1MPD2    N114402   0.315   1.760  14.048  1.2960  0.6940  0.8821
    1MPD2    H714403   0.235   1.795  13.995  0.6953 -1.0730  0.6061
    2TMC3    C114404   0.160   1.587  14.090  0.4766  0.3145  0.1722
    2TMC3    C214405   0.154   1.522  14.214 -0.4274  0.3795  0.6215
    2TMC3    C314406   0.074   1.561  14.312  0.2995 -0.2636 -0.0621
    2TMC3    C414407   0.074   1.688  14.065 -0.3377  0.5396 -0.0015
    2TMC3    C514408   4.733   1.736  14.170  0.1932  0.1266 -0.0425
    2TMC3    C614409   4.720   1.662  14.286 -0.4690  1.0302  0.1222
    2TMC3     C14410   0.300   1.625  14.081  0.1904  0.1067  0.2801
    2TMC3     O14411   0.375   1.558  14.148 -0.3034 -0.5853 -0.1060
    2TMC3     H14412   0.207   1.432  14.244 -0.7312  0.0501  0.1668
    2TMC3    H114413   0.064   1.729  13.965  0.2781  1.0378  0.1498
    2TMC3    H214414   4.633   1.680  14.348 -1.6811  2.1625 -1.9156
    2TMC3    C714415   4.678   1.865  14.158  0.2658  0.1527 -0.1285
    2TMC3    C814416   0.135   1.568  14.444  0.5828  0.4950 -0.5560
    2TMC3    O114417   4.683   1.920  14.048 -0.2379  0.1610  0.2202
    2TMC3    O214418   0.060   1.589  14.538  0.1590 -0.0122 -0.3762
    3TCq1    O114419   4.630   2.578  15.147  0.2912 -0.6465 -0.1290
    3TCq1    C114420   4.501   2.547  15.116  0.3177  0.3554  0.6202
    3TCq1    O214421   4.431   2.641  15.084 -0.3362 -0.1287 -0.0595
    3TCq1    C214422   4.516   2.431  15.045 -0.3369  0.2685 -0.7088
    3TCq1    C314423   4.523   2.314  15.108  0.2638 -0.4014 -0.5030
    3TCq1    C414424   4.522   2.204  15.031  0.6404  0.3995 -0.0288
    3TCq1    C514425   4.496   2.207  14.894 -0.3028 -0.3661  1.0302
    3TCq1    C614426   4.492   2.327  14.829 -0.4171 -0.4681 -0.4811
    3TCq1    C714427   4.508   2.441  14.908 -0.0709 -0.1206 -0.1386
    3TCq1    C814428   4.506   2.337  14.686  0.3569  0.1957  0.3478
    3TCq1    O414429   4.520   2.443  14.631  0.1360 -0.3902  0.5445
    3TCq1    C914430   4.547   2.085  15.093  0.3282 -0.1556 -0.3825
    3TCq1    O514431   4.545   2.091  15.221  0.4771  0.6704  0.2598
    3TCq1    O614432   4.530   1.981  15.025 -0.0688 -0.0548  0.0440
    3TCq1    H114433   4.685   2.498  15.135 -1.2656 -1.8465  0.7941
    3TCq1    H214434   4.523   2.313  15.216  2.5950 -0.9186 -0.5098
    3TCq1    H314435   4.488   2.108  14.850 -0.1127 -0.2457  0.7275
    3TCq1    H414436   4.504   2.538  14.860  0.1267 -0.3908 -0.7030
    4MPD2     C14437   4.494   2.278  14.390  0.0206 -0.6770  0.3866
    4MPD2    C114438   4.537   2.189  14.489  0.2357 -0.2072  0.4760
    4MPD2    C214439   4.579   2.064  14.444  0.2813 -0.1431 -0.0759
    4MPD2    C314440   4.598   2.042  14.310 -0.6325  0.9418  0.2451
    4MPD2    C414441   4.562   2.128  14.213 -0.1658  0.0230  1.2463
    4MPD2    C514442   4.505   2.248  14.258 -0.1047 -0.1931  0.6525
    4MPD2     H14443   4.602   1.985  14.514  0.4050  0.1246  0.1883
    4MPD2    H114444   4.567   2.098  14.110  0.9272  1.6508  0.8142
    4MPD2    H214445   4.437   2.366  14.417  1.1599  0.1510  0.0767
    4MPD2    H314446   4.467   2.317  14.183  3.1255 -0.2831 -1.1116
    4MPD2     N14447   4.643   1.913  14.283 -0.4880 -0.6291  0.2148
    4MPD2    H514448   4.669   1.860  14.366  0.0539 -1.4511 -0.4849
    4MPD2    N114449   4.529   2.216  14.633 -0.1126  0.0409  0.0458
    4MPD2    H714450   4.547   2.143  14.701 -3.1556  1.1208  2.0271
    5TMC2    C114451   0.917   1.578  14.441 -0.8434  0.7060  0.0615
    5TMC2    C214452   0.968   1.639  14.548 -0.4125 -0.1356 -0.8489
    5TMC2    C314453   1.023   1.771  14.538  0.4694 -0.2485  0.0030
    5TMC2    C414454   0.925   1.632  14.316 -0.0800 -0.4914  0.1015
    5TMC2    C514455   0.982   1.756  14.312 -0.0199  0.1519  0.2823
    5TMC2    C614456   1.034   1.829  14.414 -0.0616  0.2790  0.7347
    5TMC2     C14457   0.783   1.523  14.455  0.3132 -0.0300 -0.3204
    5TMC2     O14458   0.726   1.494  14.346 -0.8114  0.3242 -0.1545
    5TMC2     H14459   0.974   1.589  14.643  0.0508 -0.3698 -1.0046
    5TMC2    H114460   0.891   1.571  14.234 -1.8041  1.2443 -0.4664
    5TMC2    H214461   1.079   1.927  14.401 -0.1456  0.1657 -0.3804
    5TMC2    C714462   0.913   1.848  14.216  0.1008 -0.5473 -0.8349
    5TMC2    C814463   1.112   1.816  14.650  0.0669 -0.5724  0.4168
    5TMC2    O114464   0.947   1.965  14.219 -0.2543 -0.1099 -0.0005
    5TMC2    O214465   1.172   1.725  14.709  0.1799  0.0906 -0.5166
    5TMC2    O514466   1.107   1.947  14.674  0.3263  0.9172  0.4172
    5TMC2    H514467   1.058   2.007  14.614  0.5303 -1.4085 -2.0831
    6MPD2     C14468   0.320   1.534  14.675 -0.0603  0.4040  0.4716
    6MPD2    C114469   0.363   1.537  14.545 -0.0722 -0.5125  0.4447
    6MPD2    C214470   0.498   1.538  14.506  0.4644 -0.4701 -0.6187
    6MPD2    C314471   0.594   1.527  14.605 -0.1947  0.2420 -0.2695
    6MPD2    C414472   0.551   1.537  14.736  0.1740  0.0209 -0.5188
    6MPD2    C514473   0.421   1.536  14.775  0.1278 -0.3019 -0.5664
    6MPD2     H14474   0.525   1.559  14.403 -0.2813  2.2405 -0.2645
    6MPD2    H114475   0.617   1.543  14.822 -1.3906  0.4247  0.6323
    6MPD2    H214476   0.217   1.518  14.705  0.1459 -0.8299  0.5302
    6MPD2    H314477   0.390   1.534  14.878 -0.2268 -1.2795 -0.6938
    6MPD2     N14478   0.730   1.542  14.582 -0.0055 -0.2835  0.0622
    6MPD2    H514479   0.786   1.542  14.667  0.5384  0.8655 -0.3016
    6MPD2    N114480   0.273   1.554  14.438 -0.8434 -0.1326  0.2591
    6MPD2    H714481   0.306   1.544  14.342 -2.1682  1.0607 -0.3239
  945NH4     N114482   1.302   2.809   1.535 -0.4444 -0.0963 -0.2158
  945NH4     H214483   1.339   2.839   1.627  1.2361 -2.3789 -0.1404
  945NH4     H314484   1.200   2.828   1.520 -0.4036  1.8432  1.9721
  945NH4     H414485   1.318   2.707   1.523  2.8698  0.5098 -0.7643
  945NH4     H514486   1.366   2.858   1.470  0.1338 -0.8208 -0.1945
  946SOD     NA14487   3.910   0.190  12.519 -0.3537  0.3349  0.3046
  947SOD     NA14488   0.504   4.465  15.849  0.5402 -0.0297  0.0382
  948SOD     NA14489   4.660   1.859  14.890  0.4013 -0.2412 -0.1403
  949SOD     NA14490   2.457   1.468  15.966  0.0210 -0.0066  0.0908
  950SOD     NA14491   2.347   2.048  12.554  0.1851  0.1924  0.0897
  951SOD     NA14492   0.301   4.133   8.290  0.0944 -0.2979  0.2271
  952SOD     NA14493   0.231   0.535   7.523  0.4182 -0.1014  0.0706
  953SOL     OW14494   0.987   1.576   8.543  0.2300 -0.3331  0.0570
  953SOL    HW114495   0.927   1.650   8.544 -0.2013 -0.6894  1.5756
  953SOL    HW214496   1.036   1.599   8.464 -0.5611 -0.9489 -0.6203
  954SOL     OW14497   2.562   0.277   5.155 -0.0679  0.0064 -0.1016
  954SOL    HW114498   2.506   0.249   5.227  1.9143  1.9464  2.1439
  954SOL    HW214499   2.539   0.370   5.161  2.3601  0.6002 -0.1713
  955SOL     OW14500   0.080   3.210   0.050  0.4998  0.3221  0.5170
  955SOL    HW114501   0.168   3.211   0.088  0.8348 -0.9792 -0.2388
  955SOL    HW214502   0.038   3.268   0.114 -2.2283 -1.6384  0.4865
  956SOL     OW14503   2.876   2.503   2.390 -0.2774 -0.3699 -0.1588
  956SOL    HW114504   2.919   2.572   2.340 -0.3917 -0.2357 -0.0735
  956SOL    HW214505   2.925   2.496   2.472 -1.7870  0.0322  0.7799
  957SOL     OW14506   1.292   2.825  16.857  0.4548  0.2603 -0.1817
  957SOL    HW114507   1.248   2.770  16.792  2.2195 -2.5098  0.9567
  957SOL    HW214508   1.228   2.893  16.874  0.2567  0.2467 -0.8804
  958SOL     OW14509   4.464   0.227   8.237  0.2961 -0.4318 -0.6014
  958SOL    HW114510   4.515   0.307   8.224  1.2892 -0.7036  1.6631
  958SOL    HW214511   4.514   0.160   8.191  1.3634 -0.2228  0.2686
  959SOL     OW14512   4.350   1.705  17.384 -0.3432 -0.3697  0.2550
  959SOL    HW114513   4.415   1.652  17.430  0.2416 -0.4651 -0.6713
  959SOL    HW214514   4.408   1.781  17.370 -1.6178  0.7513  1.1111
  960SOL     OW14515   1.181   3.677   1.643 -0.4076 -0.0324  0.0778
  960SOL    HW114516   1.115   3.746   1.641 -1.0551 -0.7075 -1.7961
  960SOL    HW214517   1.264   3.720   1.665  0.4578 -1.0447 -1.2465
  961SOL     OW14518   0.758   0.163   8.410 -0.2712 -0.1191  0.3776
  961SOL    HW114519   0.665   0.149   8.429  0.1024 -0.5004  1.9094
  961SOL    HW214520   0.761   0.259   8.415  0.2499 -0.1092 -0.1032
  962SOL     OW14521   2.317   0.008   8.904  0.5566 -0.1529  0.3576
  962SOL    HW114522   2.283   0.004   8.994 -2.1752 -0.4210 -0.6911
  962SOL    HW214523   2.410   0.011   8.926  1.1372  0.9335 -2.2594
  963SOL     OW14524   3.951   1.261  12.105 -0.4975 -0.1143  0.6062
  963SOL    HW114525   4.032   1.272  12.155 -0.1774 -1.8320  0.4438
  963SOL    HW214526   3.987   1.247  12.017  0.2108 -1.9366  1.1934
  964SOL     OW14527   4.463   1.227   9.487  0.2800  0.0669 -0.4890
  964SOL    HW114528   4.371   1.245   9.507  0.8276  2.3729 -0.0493
  964SOL    HW214529   4.458   1.231   9.391  0.1830 -0.3951 -0.5048
  965SOL     OW14530   3.818   4.466   2.627  0.4032  0.2952  0.0187
  965SOL    HW114531   3.779   4.426   2.549  1.0720  2.1773 -1.2763
  965SOL    HW214532   3.811   4.404   2.699 -0.6851  1.3108  0.7990
  966SOL     OW14533   0.488   4.443   0.118  0.0418 -0.0914  0.3894
  966SOL    HW114534   0.529   4.528   0.102 -0.0260  0.1715  1.5798
  966SOL    HW214535   0.560   4.381   0.107  0.7220  0.9887 -1.2724
  967SOL     OW14536   3.560   3.904   7.832 -0.0373 -0.5912 -0.0410
  967SOL    HW114537   3.620   3.976   7.854  0.8148 -1.4442  0.4634
  967SOL    HW214538   3.478   3.934   7.871 -0.1318 -0.0170 -0.6738
  968SOL     OW14539   3.712   1.330   6.990  0.4852  0.1329 -0.1547
  968SOL    HW114540   3.651   1.257   6.992  1.5426 -0.7691 -1.1510
  968SOL    HW214541   3.775   1.297   7.055 -0.3143 -0.7832  0.1427
  969SOL     OW14542   2.910   0.192   7.239 -0.0705 -0.5243  0.3449
  969SOL    HW114543   2.995   0.235   7.251 -0.7758  0.6866  1.0335
  969SOL    HW214544   2.942   0.106   7.266  1.6675  0.1829  0.5303
  970SOL     OW14545   0.434   4.281   7.932  0.1649  0.1833 -0.2045
  970SOL    HW114546   0.368   4.350   7.941  1.8380  1.6317  0.9760
  970SOL    HW214547   0.512   4.337   7.933 -1.3180  2.2267 -0.2673
  971SOL     OW14548   1.065   3.373   1.866 -0.0696  0.1276 -0.7908
  971SOL    HW114549   1.013   3.453   1.868  0.8932  0.7462 -0.9064
  971SOL    HW214550   1.006   3.320   1.920  1.5144 -1.6004 -0.7472
  972SOL     OW14551   4.226   3.015   9.487 -0.3900  0.5329  0.2170
  972SOL    HW114552   4.217   2.987   9.578  0.7899  0.6296  0.3638
  972SOL    HW214553   4.305   3.069   9.486 -0.0602  0.0707  1.1998
  973SOL     OW14554   4.597   3.132   6.721  0.3524 -0.3690 -0.6403
  973SOL    HW114555   4.543   3.079   6.780 -1.8603  1.0559 -1.3927
  973SOL    HW214556   4.611   3.209   6.776 -1.4322 -0.2154 -0.4130
  974SOL     OW14557   1.859   0.275   3.052 -0.3074  0.0463 -0.3710
  974SOL    HW114558   1.920   0.203   3.035 -2.9143 -2.0849 -0.6890
  974SOL    HW214559   1.796   0.232   3.110  0.2938  0.8801  0.9077
  975SOL     OW14560   4.095   1.362   2.375 -0.2611  0.4809  0.0334
  975SOL    HW114561   4.166   1.398   2.321  0.2679 -0.7625 -0.0968
  975SOL    HW214562   4.042   1.323   2.307 -0.0062 -0.3318  0.3016
  976SOL     OW14563   4.637   3.506   6.712  0.0473  0.0268 -0.1657
  976SOL    HW114564   4.723   3.544   6.693  0.5898 -0.6509  0.9871
  976SOL    HW214565   4.606   3.559   6.786 -0.6833  0.0550 -0.4900
  977SOL     OW14566   0.917   0.319  10.301 -0.2630 -0.0546 -0.6934
  977SOL    HW114567   0.857   0.392  10.316  1.2566  1.3149 -1.2361
  977SOL    HW214568   0.998   0.366  10.280 -0.8421  0.7591 -1.0653
  978SOL     OW14569   1.163   0.786   6.121 -0.3184  0.3463 -0.3154
  978SOL    HW114570   1.216   0.709   6.139 -1.8676 -0.5672  0.3543
  978SOL    HW214571   1.087   0.767   6.177 -1.5180  2.5914 -1.1689
  979SOL     OW14572   2.748   4.346   7.643  0.3787  0.1383 -0.0921
  979SOL    HW114573   2.758   4.392   7.726 -2.7218  0.2548  0.2219
  979SOL    HW214574   2.823   4.378   7.593 -0.8337  0.0424 -1.9649
  980SOL     OW14575   0.937   3.815   7.462  0.3466 -0.2067 -0.0716
  980SOL    HW114576   0.943   3.903   7.424  1.6030  0.5686  1.9120
  980SOL    HW214577   1.003   3.820   7.531  0.8045 -1.3019 -0.4231
  981SOL     OW14578   2.990   1.992   9.730 -0.2411 -0.0119 -0.4880
  981SOL    HW114579   2.978   2.036   9.814  1.3882  1.8771 -1.2471
  981SOL    HW214580   2.976   1.900   9.752 -0.4542 -0.5140 -2.7221
  982SOL     OW14581   3.455   2.856   9.810  0.0502  0.1772 -0.7273
  982SOL    HW114582   3.476   2.817   9.725 -0.3834  0.8462 -1.1459
  982SOL    HW214583   3.422   2.943   9.787  1.2313  1.1538  1.2348
  983SOL     OW14584   2.801   0.184   1.559 -0.3525 -0.1574  0.4121
  983SOL    HW114585   2.717   0.189   1.605 -0.7622 -0.3758 -0.3110
  983SOL    HW214586   2.851   0.141   1.628  0.1062 -1.1954 -0.5755
  984SOL     OW14587   3.822   2.021   6.304 -0.4047  0.1865  0.0435
  984SOL    HW114588   3.887   1.978   6.360 -0.0439  1.7410  0.8008
  984SOL    HW214589   3.752   1.955   6.299  0.8261 -1.1372  0.1572
  985SOL     OW14590   2.579   2.530   6.897 -0.0629  0.4217 -0.2543
  985SOL    HW114591   2.604   2.611   6.851  1.7330  1.4438  2.5379
  985SOL    HW214592   2.573   2.555   6.989  0.0310  0.9659 -0.3957
  986SOL     OW14593   4.285   3.622   8.268  0.0355  0.2542  0.0561
  986SOL    HW114594   4.235   3.578   8.200 -0.3019 -0.3397  0.6826
  986SOL    HW214595   4.309   3.706   8.230  1.0152 -1.0543 -2.2604
  987SOL     OW14596   2.251   1.906   5.768  0.2745  0.1407 -0.0186
  987SOL    HW114597   2.236   1.990   5.811  0.6784 -0.0784  0.5423
  987SOL    HW214598   2.317   1.872   5.828 -1.0203 -0.9394  0.7898
  988SOL     OW14599   4.727   1.438   5.683  0.3029 -0.5000  0.1223
  988SOL    HW114600   4.675   1.361   5.665  0.5684 -0.0470 -2.5656
  988SOL    HW214601   4.672   1.507   5.721 -2.8244 -2.6494 -0.5455
  989SOL     OW14602   4.415   0.826   6.221  0.5191  0.2854  0.4270
  989SOL    HW114603   4.413   0.735   6.250 -0.1161  0.3657  0.6215
  989SOL    HW214604   4.506   0.840   6.194  0.6735  1.2315  1.4745
  990SOL     OW14605   1.949   4.467   3.020 -0.1202  0.2449  0.8758
  990SOL    HW114606   1.919   4.385   3.061 -0.1179  0.5749  1.5402
  990SOL    HW214607   1.867   4.517   3.021  0.4344  1.1475 -0.1133
  991SOL     OW14608   4.470   4.181   6.530 -0.2787 -0.6644 -0.5285
  991SOL    HW114609   4.553   4.161   6.485  0.6818  1.4473  0.3024
  991SOL    HW214610   4.410   4.189   6.456 -0.6436 -0.9684 -0.2620
  992SOL     OW14611   4.310   0.406  14.911 -0.6172  0.0255 -0.3234
  992SOL    HW114612   4.310   0.314  14.885 -1.0870  0.3694 -1.5568
  992SOL    HW214613   4.272   0.382  14.995  0.8404 -0.4769  0.1959
  993SOL     OW14614   0.103   0.423   3.710 -0.3865 -0.7067  0.8231
  993SOL    HW114615   0.093   0.369   3.632  3.4366 -1.1912  0.6374
  993SOL    HW214616   0.037   0.491   3.698 -0.5591 -1.2632 -1.2413
  994SOL     OW14617   2.357   2.803   4.579 -0.0702  0.2499  0.3835
  994SOL    HW114618   2.297   2.875   4.558  1.3003  0.7252 -1.9362
  994SOL    HW214619   2.333   2.772   4.666  0.1265 -2.2129 -0.4211
  995SOL     OW14620   4.657   2.218   9.036 -0.2998 -0.3449 -0.0082
  995SOL    HW114621   4.720   2.284   9.005 -1.4147  0.6214 -0.2457
  995SOL    HW214622   4.638   2.173   8.954  0.9112 -1.6458  0.4240
  996SOL     OW14623   3.294   0.701   9.063  0.2894  0.4803 -0.5092
  996SOL    HW114624   3.239   0.698   8.985 -2.4549 -1.2977  1.5041
  996SOL    HW214625   3.243   0.765   9.113  3.4408 -0.5814  4.0399
  997SOL     OW14626   3.427   4.489   9.647 -0.3553 -0.0502  0.1838
  997SOL    HW114627   3.421   4.453   9.736  2.0470 -0.2690  0.2610
  997SOL    HW214628   3.416   4.409   9.595 -0.7695  1.4677 -2.0625
  998SOL     OW14629   0.498   1.748   9.204  0.2785  0.3590 -0.0687
  998SOL    HW114630   0.467   1.704   9.283 -2.4652  3.3127  0.4680
  998SOL    HW214631   0.413   1.774   9.169  0.1200  1.0320  0.8342
  999SOL     OW14632   1.661   0.148   0.072 -0.1806 -0.3575  0.2077
  999SOL    HW114633   1.700   0.162  17.731 -1.1863  2.6042  0.2064
  999SOL    HW214634   1.658   0.237   0.109  0.5660  0.2519 -1.2042
 1000SOL     OW14635   4.394   4.276   7.039  0.2112 -0.0283  0.0438
 1000SOL    HW114636   4.377   4.369   7.052  0.4266  0.3775 -2.4754
 1000SOL    HW214637   4.365   4.257   6.949  0.4463 -0.6743  0.1015
 1001SOL     OW14638   1.357   3.248  12.072 -0.2132 -0.3774 -0.0592
 1001SOL    HW114639   1.443   3.211  12.051 -0.8656 -1.0184 -1.5807
 1001SOL    HW214640   1.329   3.207  12.154 -0.3780  1.3144  0.7333
 1002SOL     OW14641   1.740   4.371   4.289 -0.1785 -0.2616 -0.6898
 1002SOL    HW114642   1.673   4.391   4.224  1.8308 -1.8731 -3.2093
 1002SOL    HW214643   1.692   4.395   4.369  0.6042  4.3647 -1.5801
 1003SOL     OW14644   3.777   4.333   8.102  0.5807 -0.2089 -0.1486
 1003SOL    HW114645   3.850   4.391   8.124 -0.8012  1.5378 -0.1464
 1003SOL    HW214646   3.799   4.267   8.168  0.6389 -0.8047 -0.7667
 1004SOL     OW14647   2.505   2.445  16.954  0.2069 -0.3102  0.4396
 1004SOL    HW114648   2.516   2.461  16.860  0.1552 -0.9239  0.3251
 1004SOL    HW214649   2.506   2.349  16.948 -2.4380 -0.3667  0.9386
 1005SOL     OW14650   4.360   0.583   6.588 -0.3718 -0.2187 -0.2447
 1005SOL    HW114651   4.376   0.491   6.611 -3.2241 -1.1704 -2.0186
 1005SOL    HW214652   4.272   0.579   6.551 -0.4941  0.3006  0.0011
 1006SOL     OW14653   0.773   4.612   0.388  0.0281 -0.0769 -0.3179
 1006SOL    HW114654   0.829   4.613   0.310  0.1601 -0.7180 -0.2361
 1006SOL    HW214655   0.782   4.521   0.415 -0.0223  0.2255  0.7060
 1007SOL     OW14656   3.843   3.807   1.764  0.0865  0.4560  0.2789
 1007SOL    HW114657   3.747   3.811   1.762  0.0946  0.4181 -0.2467
 1007SOL    HW214658   3.845   3.717   1.798  0.8420  0.6128  0.6508
 1008SOL     OW14659   4.140   3.352  17.705  0.3087 -0.2461  0.0058
 1008SOL    HW114660   4.045   3.343  17.691  0.2706 -1.3870  1.0001
 1008SOL    HW214661   4.152   3.444  17.680 -0.0255 -0.3059 -0.3782
 1009SOL     OW14662   3.821   0.882   0.356  0.7027 -0.2277 -0.4951
 1009SOL    HW114663   3.776   0.926   0.428 -1.9238  0.1083 -2.3647
 1009SOL    HW214664   3.897   0.941   0.352 -1.5052  2.5918 -0.6802
 1010SOL     OW14665   3.563   0.664   1.362  0.5971 -0.1765 -0.5189
 1010SOL    HW114666   3.525   0.749   1.385 -0.4112 -0.1543 -2.2106
 1010SOL    HW214667   3.640   0.660   1.417  0.6462  1.3521 -0.4838
 1011SOL     OW14668   1.982   1.417  15.603  0.7618 -0.3973  0.5763
 1011SOL    HW114669   1.911   1.357  15.626  1.9799 -2.8677 -2.2153
 1011SOL    HW214670   1.993   1.452  15.692  0.4672  0.1155  0.4112
 1012SOL     OW14671   1.465   2.956   5.672  0.1440  0.9741 -0.3547
 1012SOL    HW114672   1.376   2.942   5.705 -0.0702 -0.4054 -1.5015
 1012SOL    HW214673   1.513   2.975   5.752 -2.8838  0.1405  1.6248
 1013SOL     OW14674   2.140   1.603   0.142 -0.6054  0.3814  0.9098
 1013SOL    HW114675   2.167   1.511   0.146  1.2493  0.9085  0.4749
 1013SOL    HW214676   2.206   1.633   0.204 -0.9749  2.7005  0.2090
 1014SOL     OW14677   1.461   1.569   3.912  0.0342 -0.5458 -0.0018
 1014SOL    HW114678   1.374   1.597   3.885 -0.1117 -0.1985  0.8329
 1014SOL    HW214679   1.515   1.616   3.848 -0.3227 -0.7643 -0.4586
 1015SOL     OW14680   1.849   0.620  11.128 -0.0635  0.2306  0.3740
 1015SOL    HW114681   1.878   0.549  11.071 -1.0707 -1.4428  1.9387
 1015SOL    HW214682   1.856   0.697  11.071 -1.9716  0.6416  0.6946
 1016SOL     OW14683   4.262   3.948   8.735  0.0320 -0.0784  0.4971
 1016SOL    HW114684   4.356   3.964   8.726 -0.0137  0.1004  0.3312
 1016SOL    HW214685   4.229   4.003   8.664  0.3261  0.7521  1.0019
 1017SOL     OW14686   1.029   0.294   4.068 -0.2190  0.2054  0.6247
 1017SOL    HW114687   1.098   0.240   4.107 -0.3695 -0.9628 -0.7258
 1017SOL    HW214688   1.015   0.248   3.985  0.8891 -2.1085  1.7142
 1018SOL     OW14689   1.332   2.436  11.265 -0.2451 -0.8842 -0.6634
 1018SOL    HW114690   1.260   2.473  11.316 -1.1354 -2.1274 -1.0063
 1018SOL    HW214691   1.360   2.365  11.323 -1.9599 -0.5805  0.5447
 1019SOL     OW14692   4.182   1.084   7.481  0.6235 -0.1828  0.1028
 1019SOL    HW114693   4.216   1.125   7.402  0.5290 -0.4531 -0.0770
 1019SOL    HW214694   4.178   1.150   7.550 -0.2265 -0.2497  0.1161
 1020SOL     OW14695   1.171   2.680   8.798  0.1659 -0.4119 -0.4135
 1020SOL    HW114696   1.192   2.587   8.798  3.8791  0.4571  1.2769
 1020SOL    HW214697   1.082   2.671   8.835  0.1037 -0.1627 -0.5085
 1021SOL     OW14698   3.928   4.235  16.111  0.3690  0.0877  0.5795
 1021SOL    HW114699   3.952   4.288  16.035  0.1149 -0.4432  0.1237
 1021SOL    HW214700   3.935   4.302  16.179 -0.5358  1.2008 -0.4399
 1022SOL     OW14701   3.819   0.758   3.726  0.1884 -0.2163 -0.2402
 1022SOL    HW114702   3.794   0.847   3.753  1.2180  0.0805 -0.2683
 1022SOL    HW214703   3.902   0.745   3.771  0.3510  0.8017 -0.2562
 1023SOL     OW14704   2.004   4.436   8.934 -0.7695  0.0893  0.1468
 1023SOL    HW114705   2.086   4.451   8.887  0.2593  1.0640  2.2245
 1023SOL    HW214706   1.966   4.374   8.872 -1.7080 -1.0337  1.8302
 1024SOL     OW14707   1.140   3.801   5.096 -0.4943 -0.1973 -0.1765
 1024SOL    HW114708   1.049   3.816   5.071 -0.2698  0.5234 -0.5503
 1024SOL    HW214709   1.148   3.888   5.135 -0.0877 -0.5772  0.6087
 1025SOL     OW14710   1.435   3.336   2.497  0.1944 -0.7656 -0.9749
 1025SOL    HW114711   1.459   3.427   2.511  0.7091 -0.9795 -0.4891
 1025SOL    HW214712   1.361   3.351   2.437  0.5773  1.6601 -0.8414
 1026SOL     OW14713   0.365   4.068   7.453 -0.3031 -0.1087  0.0988
 1026SOL    HW114714   0.397   4.049   7.365 -1.0247  3.4246 -0.9277
 1026SOL    HW214715   0.408   4.149   7.483  1.5640 -1.0937  0.1184
 1027SOL     OW14716   3.146   1.479  16.029 -0.0840  0.1214 -0.6059
 1027SOL    HW114717   3.153   1.561  16.079 -0.3695  0.3387 -0.9201
 1027SOL    HW214718   3.171   1.409  16.089 -2.5121  1.0197  1.4704
 1028SOL     OW14719   0.669   3.840   7.617 -0.1271 -0.0113  0.0951
 1028SOL    HW114720   0.667   3.889   7.535  1.2280  0.4874  0.3512
 1028SOL    HW214721   0.643   3.909   7.677 -0.5268  0.3836 -0.5373
 1029SOL     OW14722   3.466   4.473   9.057  0.4289  0.0516  0.1859
 1029SOL    HW114723   3.478   4.415   8.981  0.0682  0.3725 -0.1134
 1029SOL    HW214724   3.549   4.516   9.077  0.1661  1.4237 -1.7081
 1030SOL     OW14725   1.584   2.203   7.202 -0.1172 -0.1349 -0.0477
 1030SOL    HW114726   1.562   2.286   7.160  2.9697 -0.6397 -2.7182
 1030SOL    HW214727   1.577   2.222   7.296 -1.0631  2.2867 -0.6081
 1031SOL     OW14728   2.989   0.331   1.907  0.3565  0.0001 -0.3427
 1031SOL    HW114729   2.979   0.323   2.002 -1.5753 -1.9603 -0.7186
 1031SOL    HW214730   2.902   0.301   1.883  1.8746 -1.5496 -3.9504
 1032SOL     OW14731   1.130   0.083   0.059 -0.1576  0.3331 -0.2344
 1032SOL    HW114732   1.104   0.169   0.093 -0.5628 -0.0586  0.4525
 1032SOL    HW214733   1.226   0.080   0.059 -0.0863  2.8151 -0.4779
 1033SOL     OW14734   3.397   3.540   1.459  0.7984 -0.0878 -0.1169
 1033SOL    HW114735   3.363   3.457   1.424 -0.8946 -0.0021  1.3244
 1033SOL    HW214736   3.339   3.566   1.531  2.6095 -0.2007  1.3790
 1034SOL     OW14737   1.109   0.425  13.084 -0.7589 -0.1345 -0.1751
 1034SOL    HW114738   1.094   0.435  12.990 -0.1500 -2.0633 -0.4813
 1034SOL    HW214739   1.031   0.374  13.103  0.6102 -2.8342 -1.8277
 1035SOL     OW14740   3.955   3.269   8.081 -0.1865  0.2014  0.1400
 1035SOL    HW114741   3.863   3.249   8.066  0.1257 -2.1264  1.3639
 1035SOL    HW214742   3.942   3.357   8.116  0.4971  1.0730 -1.7921
 1036SOL     OW14743   0.818   0.938   5.529  0.3623 -0.2452 -0.0751
 1036SOL    HW114744   0.868   1.012   5.495 -0.7708  0.9769  0.9306
 1036SOL    HW214745   0.738   0.943   5.477  0.8095 -0.6757 -0.8032
 1037SOL     OW14746   2.109   0.298  17.684 -0.1151 -0.0919 -0.4704
 1037SOL    HW114747   2.113   0.273   0.031 -1.7968 -1.4272 -0.7450
 1037SOL    HW214748   2.201   0.308  17.661  0.0784 -2.6521 -0.8382
 1038SOL     OW14749   3.730   2.020   8.501  0.0919 -0.1775  0.1456
 1038SOL    HW114750   3.706   2.007   8.593  0.3088  1.3307  0.4127
 1038SOL    HW214751   3.710   2.113   8.492  1.8627  0.0902 -0.9071
 1039SOL     OW14752   0.959   2.316   4.808  0.0565 -0.4649  0.0848
 1039SOL    HW114753   0.965   2.408   4.782 -1.1226 -0.1071  1.0640
 1039SOL    HW214754   0.928   2.325   4.898 -1.3748 -1.1452 -0.3448
 1040SOL     OW14755   3.850   1.373   3.276 -0.4937 -0.1942 -0.4662
 1040SOL    HW114756   3.828   1.324   3.355  3.2581  0.5383  1.0025
 1040SOL    HW214757   3.817   1.457   3.308 -0.7631  0.0160 -1.2807
 1041SOL     OW14758   2.944   0.279   5.861  0.1516  0.2748 -0.1380
 1041SOL    HW114759   2.899   0.199   5.891  1.2950 -0.0490  0.7089
 1041SOL    HW214760   2.986   0.252   5.780  0.3663  2.0247 -0.6037
 1042SOL     OW14761   2.161   0.626  17.605  0.1217 -0.1443 -1.0999
 1042SOL    HW114762   2.235   0.682  17.581 -0.1589  0.6752 -0.0155
 1042SOL    HW214763   2.177   0.584  17.689  2.9800  2.4991 -0.3321
 1043SOL     OW14764   2.705   1.598   8.435 -0.2091 -0.4564 -0.2616
 1043SOL    HW114765   2.755   1.597   8.353 -0.2735 -1.7262 -0.2975
 1043SOL    HW214766   2.640   1.532   8.408 -1.7663  0.5926  0.9659
 1044SOL     OW14767   0.554   0.894   8.074 -0.5140 -0.6464 -0.7142
 1044SOL    HW114768   0.505   0.888   8.156 -0.1899  0.2172 -0.4579
 1044SOL    HW214769   0.645   0.888   8.103 -0.0103 -2.7078 -2.7055
 1045SOL     OW14770   2.481   2.972  12.090 -1.0119 -0.2317  0.6280
 1045SOL    HW114771   2.446   2.908  12.152 -1.8027  0.6112  1.0460
 1045SOL    HW214772   2.443   3.052  12.125  2.9407  1.6767  0.6149
 1046SOL     OW14773   1.129   1.025   2.857  0.7043  0.5350 -0.6568
 1046SOL    HW114774   1.202   0.989   2.907  1.5666 -0.3708 -2.5665
 1046SOL    HW214775   1.123   1.109   2.902  1.4641 -0.7984  1.9448
 1047SOL     OW14776   2.228   0.506   4.959 -0.2681  0.4386 -0.2352
 1047SOL    HW114777   2.312   0.485   4.918  0.6942  0.4688  1.7363
 1047SOL    HW214778   2.259   0.545   5.041 -0.0196  0.1889 -0.2090
 1048SOL     OW14779   4.257   2.974  14.445  0.0455 -0.4814  0.1847
 1048SOL    HW114780   4.185   2.982  14.508  0.3669 -1.6255  0.7100
 1048SOL    HW214781   4.226   2.902  14.390  1.4943 -0.8379 -0.1745
 1049SOL     OW14782   3.345   4.263   9.533 -0.2402 -0.7946  0.4192
 1049SOL    HW114783   3.252   4.271   9.510 -0.1407 -0.0299  0.2679
 1049SOL    HW214784   3.344   4.226   9.621  1.0078  0.7303  1.0858
 1050SOL     OW14785   4.354   4.533   1.323 -0.4790 -0.6400  0.2834
 1050SOL    HW114786   4.299   4.454   1.319  0.8674 -1.5474 -0.1516
 1050SOL    HW214787   4.291   4.593   1.284  0.6712  0.7601  0.6244
 1051SOL     OW14788   4.105   2.261   4.010  0.3515  0.6648  0.3198
 1051SOL    HW114789   4.039   2.238   3.944 -0.5434  1.2276  1.0011
 1051SOL    HW214790   4.164   2.186   4.014 -0.4311  0.1165  1.6020
 1052SOL     OW14791   2.740   3.515   3.631  0.5506  0.4075 -0.3717
 1052SOL    HW114792   2.826   3.556   3.625 -1.0669  3.8579  0.4699
 1052SOL    HW214793   2.749   3.438   3.574  0.7958  0.0017  0.2137
 1053SOL     OW14794   3.919   2.805   1.577 -0.1177 -0.5448  0.2365
 1053SOL    HW114795   3.985   2.849   1.630 -1.3158  0.4393  0.9141
 1053SOL    HW214796   3.943   2.713   1.565  0.1838 -0.3662 -0.5094
 1054SOL     OW14797   3.163   1.301   1.347 -0.1421  0.2494 -0.1706
 1054SOL    HW114798   3.177   1.258   1.431  0.7928  0.3935 -0.2528
 1054SOL    HW214799   3.111   1.374   1.378 -1.2844 -0.1036 -1.2322
 1055SOL     OW14800   3.734   2.393   3.406  0.3446 -0.2208 -0.3721
 1055SOL    HW114801   3.644   2.374   3.435  0.7095  1.0221  1.5716
 1055SOL    HW214802   3.734   2.393   3.310 -0.1897 -0.3813 -0.3764
 1056SOL     OW14803   3.255   3.630   3.953  0.4767  0.1672  0.2346
 1056SOL    HW114804   3.326   3.666   4.005 -0.9609  1.6684  1.1601
 1056SOL    HW214805   3.208   3.709   3.924 -0.7545 -0.2111  1.1975
 1057SOL     OW14806   1.930   0.283   4.840  0.4798  0.6850  0.5880
 1057SOL    HW114807   1.930   0.302   4.747  1.5265  2.6927  0.9998
 1057SOL    HW214808   1.963   0.193   4.841 -1.2510  0.0759  2.5766
 1058SOL     OW14809   1.982   3.632  13.380  0.0907 -0.5897 -0.0566
 1058SOL    HW114810   1.926   3.692  13.430 -0.2117 -0.9333  0.0207
 1058SOL    HW214811   1.930   3.552  13.368  0.7796 -0.6421 -2.6163
 1059SOL     OW14812   1.133   2.751  17.282 -0.1108  0.7667  0.5151
 1059SOL    HW114813   1.046   2.737  17.319  0.8424 -1.1444  2.0285
 1059SOL    HW214814   1.119   2.743  17.188 -2.6803  0.9613  0.8846
 1060SOL     OW14815   0.985   3.784   8.375 -0.1152 -0.6037 -0.3180
 1060SOL    HW114816   1.065   3.739   8.350  0.3696  0.6584 -1.0608
 1060SOL    HW214817   1.019   3.867   8.407 -0.6216 -1.3238  2.0523
 1061SOL     OW14818   2.148   0.673   4.765  0.2382  0.2909 -0.5142
 1061SOL    HW114819   2.056   0.654   4.743 -0.5747  0.5279  2.6023
 1061SOL    HW214820   2.172   0.609   4.833 -1.1418  0.3928  0.0796
 1062SOL     OW14821   4.340   1.410   3.830 -0.0554  0.6737  0.1560
 1062SOL    HW114822   4.324   1.472   3.901  0.7219  0.3732  0.6058
 1062SOL    HW214823   4.335   1.333   3.887  2.5069 -0.3468 -0.9871
 1063SOL     OW14824   2.542   3.043   2.407  0.2813 -0.1401 -0.3901
 1063SOL    HW114825   2.477   2.996   2.459 -2.0937  1.9994 -1.3763
 1063SOL    HW214826   2.518   3.008   2.321  1.3182 -0.3550 -0.5876
 1064SOL     OW14827   2.381   4.221   8.901  0.2189  0.2848 -0.3753
 1064SOL    HW114828   2.290   4.203   8.878  0.7370 -0.9296 -1.4868
 1064SOL    HW214829   2.387   4.147   8.962  2.5712 -0.3671 -1.4129
 1065SOL     OW14830   2.028   0.421   4.543 -0.2252 -0.2156  0.4120
 1065SOL    HW114831   1.979   0.452   4.619  0.2011  2.1412 -0.2853
 1065SOL    HW214832   2.079   0.350   4.583 -0.6308 -1.5782 -1.4672
 1066SOL     OW14833   0.755   2.533   9.514 -0.3564 -0.0132  0.6391
 1066SOL    HW114834   0.764   2.440   9.494  1.7620  0.2273  0.4717
 1066SOL    HW214835   0.833   2.547   9.566  1.7254 -2.2281 -1.8817
 1067SOL     OW14836   2.435   3.683  13.022  0.2482  0.7978 -0.2508
 1067SOL    HW114837   2.455   3.767  13.063  2.4799  0.1710 -0.0433
 1067SOL    HW214838   2.496   3.694  12.949  0.7030 -2.5294 -0.3825
 1068SOL     OW14839   3.067   4.347   3.185 -0.6398  0.0297  0.3197
 1068SOL    HW114840   2.988   4.297   3.165 -0.3035 -0.1763 -0.5106
 1068SOL    HW214841   3.065   4.344   3.281 -1.7567 -1.8901  0.2358
 1069SOL     OW14842   3.348   1.924  16.500 -0.2694 -0.1674  0.5980
 1069SOL    HW114843   3.266   1.922  16.451 -0.2933 -3.6059  0.7330
 1069SOL    HW214844   3.397   1.972  16.434 -1.5032 -0.3791 -0.4678
 1070SOL     OW14845   2.999   0.492   0.231 -0.0584 -0.2084 -0.2437
 1070SOL    HW114846   3.005   0.448   0.315 -1.4336  0.6326  0.2869
 1070SOL    HW214847   3.076   0.457   0.185  0.7885  2.3167 -0.7543
 1071SOL     OW14848   0.012   1.801   5.170 -0.2006  0.2566 -0.6701
 1071SOL    HW114849   4.731   1.801   5.264  0.4198 -0.3985 -0.5419
 1071SOL    HW214850   4.662   1.777   5.138 -1.2279  1.1597  1.4114
 1072SOL     OW14851   2.970   2.529  17.131 -0.3918 -0.3000  0.5580
 1072SOL    HW114852   2.880   2.499  17.118  0.6970 -2.8175 -1.2341
 1072SOL    HW214853   3.010   2.459  17.182 -1.1547 -2.4662 -1.8076
 1073SOL     OW14854   4.699   2.807   0.143 -0.0042 -0.0237  0.0515
 1073SOL    HW114855   4.737   2.863   0.075  2.9219 -1.0076  0.8548
 1073SOL    HW214856   4.615   2.778   0.109  0.9723 -1.0841 -1.4609
 1074SOL     OW14857   0.904   1.572  15.334 -0.4921 -0.1100 -0.3961
 1074SOL    HW114858   0.924   1.649  15.388 -1.4745  0.0972 -0.3258
 1074SOL    HW214859   0.817   1.546  15.362  0.2835 -3.3372 -1.0823
 1075SOL     OW14860   3.108   1.684   1.527  0.2485  0.3037 -0.0003
 1075SOL    HW114861   3.117   1.595   1.562  2.0744  0.0092 -1.1851
 1075SOL    HW214862   3.187   1.687   1.473  0.8237 -0.3021  0.8118
 1076SOL     OW14863   1.984   3.218   4.808 -0.2475  0.3292 -0.0437
 1076SOL    HW114864   1.911   3.157   4.800  0.9920 -1.2736  0.7691
 1076SOL    HW214865   2.009   3.232   4.716 -0.3116  0.1008 -0.0968
 1077SOL     OW14866   3.576   0.090   8.705 -0.5427 -0.4819  0.6596
 1077SOL    HW114867   3.634   0.128   8.771  0.6039 -0.1995 -0.5253
 1077SOL    HW214868   3.495   0.080   8.755 -1.0688 -0.9339 -0.2785
 1078SOL     OW14869   3.401   3.937   8.744 -0.0538  0.3460 -0.2730
 1078SOL    HW114870   3.406   4.027   8.777 -2.0271  1.1572 -2.2317
 1078SOL    HW214871   3.365   3.895   8.823  2.2818  1.2468  1.2674
 1079SOL     OW14872   2.127   1.433   2.840  0.3053  0.0328  0.5614
 1079SOL    HW114873   2.187   1.480   2.897  1.9106  0.4482 -1.5028
 1079SOL    HW214874   2.168   1.457   2.757 -0.4906  3.1706  1.0835
 1080SOL     OW14875   2.639   1.681   6.624  0.2717 -0.0767 -0.6166
 1080SOL    HW114876   2.635   1.709   6.716 -2.8797  1.1599 -1.1272
 1080SOL    HW214877   2.547   1.656   6.616  1.1477 -3.6642  0.4497
 1081SOL     OW14878   4.201   0.618   3.347  0.7435  0.1962  0.3356
 1081SOL    HW114879   4.231   0.531   3.319 -0.5599 -0.6658  1.5784
 1081SOL    HW214880   4.141   0.592   3.417 -0.2099  0.8905 -0.2341
 1082SOL     OW14881   2.836   1.296   8.772 -0.2212 -0.0797  0.2119
 1082SOL    HW114882   2.865   1.205   8.773  0.6887  0.1881 -1.7372
 1082SOL    HW214883   2.742   1.277   8.769 -0.1392 -0.2535 -1.5723
 1083SOL     OW14884   0.911   0.717  14.706 -0.3239 -0.5447 -0.1699
 1083SOL    HW114885   0.890   0.787  14.767  0.1396  0.6089 -1.3255
 1083SOL    HW214886   0.878   0.751  14.622 -0.4349 -2.8079 -1.0456
 1084SOL     OW14887   1.805   4.073   7.327  0.1666 -0.3082 -0.1687
 1084SOL    HW114888   1.884   4.029   7.358  0.3998 -0.3664 -0.8495
 1084SOL    HW214889   1.776   4.007   7.264  0.1895 -0.1952 -0.2974
 1085SOL     OW14890   0.626   4.563   4.464  0.4060  0.0308 -0.2217
 1085SOL    HW114891   0.541   4.602   4.481  0.5413 -0.3642  1.3921
 1085SOL    HW214892   0.653   4.628   4.398 -0.0408  0.2740 -0.1653
 1086SOL     OW14893   1.421   4.600   4.956  0.1191 -0.1088 -0.5249
 1086SOL    HW114894   1.364   4.669   4.922 -0.2354 -0.0989  0.0769
 1086SOL    HW214895   1.450   4.633   5.042  0.0060  1.6468 -1.1657
 1087SOL     OW14896   4.091   1.021   8.760  0.1683 -0.4883 -0.5049
 1087SOL    HW114897   4.159   0.960   8.788  1.7070  2.0172  1.1742
 1087SOL    HW214898   4.135   1.074   8.694  0.5387  1.0132  0.9545
 1088SOL     OW14899   1.594   4.134   6.923 -0.3088 -0.4066 -0.2549
 1088SOL    HW114900   1.604   4.229   6.926  1.8516 -0.5801 -1.6729
 1088SOL    HW214901   1.503   4.125   6.950 -0.2734 -0.7158 -0.2359
 1089SOL     OW14902   1.858   1.928  13.150  0.5318 -0.1305 -0.4189
 1089SOL    HW114903   1.894   2.014  13.128 -0.2962  0.2175 -0.4045
 1089SOL    HW214904   1.774   1.945  13.108 -0.2801 -1.6454  0.5883
 1090SOL     OW14905   0.588   2.041  16.914  0.2313 -0.0712 -0.8974
 1090SOL    HW114906   0.598   2.040  16.819 -1.3082 -1.5426 -1.0637
 1090SOL    HW214907   0.555   2.131  16.919  0.3143  0.0637 -2.7474
 1091SOL     OW14908   4.690   1.575   4.868  0.9580 -0.1110 -0.2271
 1091SOL    HW114909   4.731   1.531   4.943  1.1341  0.1879 -0.1439
 1091SOL    HW214910   4.657   1.658   4.903  0.5855  0.4186 -1.8265
 1092SOL     OW14911   3.806   4.606   5.482 -0.2555 -0.1327  0.1878
 1092SOL    HW114912   3.732   4.652   5.442 -1.5415 -1.3527  1.1710
 1092SOL    HW214913   3.878   4.610   5.418 -0.1994  2.3188  0.4072
 1093SOL     OW14914   3.312   0.762  16.384 -0.1230 -0.2579  0.0676
 1093SOL    HW114915   3.232   0.745  16.334  0.2117 -2.8311  0.4209
 1093SOL    HW214916   3.294   0.723  16.470 -0.1190 -0.8973 -0.2253
 1094SOL     OW14917   2.612   4.461  10.108  0.5270  0.0328 -0.4310
 1094SOL    HW114918   2.608   4.366  10.111 -0.1935 -0.0075 -2.5858
 1094SOL    HW214919   2.564   4.479  10.188  2.0865 -0.0541  0.5196
 1095SOL     OW14920   4.516   2.926   1.132 -0.0340 -0.3820 -0.0882
 1095SOL    HW114921   4.559   3.010   1.117  2.8484 -1.9362 -0.6348
 1095SOL    HW214922   4.427   2.961   1.123  1.3938  2.5765 -2.5014
 1096SOL     OW14923   3.920   3.377   4.856 -0.4797  0.6538 -0.2706
 1096SOL    HW114924   3.850   3.315   4.874 -0.3250  0.7081  0.5315
 1096SOL    HW214925   3.971   3.309   4.812 -2.1165  0.2355 -1.5170
 1097SOL     OW14926   3.027   2.279   7.728  0.0766  0.5887  0.4154
 1097SOL    HW114927   3.067   2.191   7.727 -0.2170  0.4560 -0.0626
 1097SOL    HW214928   3.091   2.333   7.682 -1.0827  2.0341  0.5047
 1098SOL     OW14929   0.305   3.801   1.521  0.0855  0.0158 -0.1335
 1098SOL    HW114930   0.260   3.855   1.455  3.8951  1.8304 -1.2673
 1098SOL    HW214931   0.226   3.758   1.553 -0.0415  0.1302 -0.2941
 1099SOL     OW14932   2.868   2.933   8.988  0.2268 -0.2115  0.2470
 1099SOL    HW114933   2.781   2.949   9.023  0.2476  1.2837 -0.4030
 1099SOL    HW214934   2.849   2.843   8.960  2.1532  0.1304 -2.1425
 1100SOL     OW14935   3.169   0.946   1.986 -0.0970 -0.1719 -0.0472
 1100SOL    HW114936   3.212   0.864   2.009 -0.3747 -0.4319 -0.4700
 1100SOL    HW214937   3.099   0.913   1.930 -0.8619 -1.9417  1.9767
 1101SOL     OW14938   1.304   1.128   1.542 -0.2300  0.7505  0.5558
 1101SOL    HW114939   1.294   1.139   1.636  0.6114 -2.5555  1.0034
 1101SOL    HW214940   1.368   1.198   1.531 -0.2819  0.5112 -1.2824
 1102SOL     OW14941   1.090   3.264   5.725 -0.2998 -0.0749 -0.1258
 1102SOL    HW114942   1.027   3.230   5.789 -0.6743  1.8479  0.5229
 1102SOL    HW214943   1.100   3.349   5.766  3.9453  1.1871 -3.8708
 1103SOL     OW14944   4.435   4.608   8.531  0.0861 -0.1778  0.6682
 1103SOL    HW114945   4.479   4.690   8.554 -3.3776  2.6159 -2.7017
 1103SOL    HW214946   4.415   4.574   8.618  2.8391 -2.1577  0.5235
 1104SOL     OW14947   3.764   1.042   6.125 -0.2504 -0.7070 -0.6774
 1104SOL    HW114948   3.804   1.030   6.039  2.0805 -1.7428  0.5402
 1104SOL    HW214949   3.700   1.112   6.116 -0.4174 -0.9942 -1.6802
 1105SOL     OW14950   3.582   3.261   8.748 -0.1233 -0.2565 -0.1348
 1105SOL    HW114951   3.633   3.235   8.671  1.8060  0.3140  0.9546
 1105SOL    HW214952   3.658   3.271   8.805  1.2599  2.8708 -2.5073
 1106SOL     OW14953   3.046   1.453  12.475 -0.4766  0.3894  0.4427
 1106SOL    HW114954   2.971   1.507  12.499 -2.3295 -2.8963  2.0721
 1106SOL    HW214955   3.126   1.503  12.493 -1.1639  1.6496 -0.0173
 1107SOL     OW14956   3.909   3.817   3.786  0.0237  0.2545  0.0257
 1107SOL    HW114957   3.917   3.745   3.724 -2.8862  0.1261 -0.1820
 1107SOL    HW214958   3.949   3.891   3.740 -1.9862  1.6701  0.5890
 1108SOL     OW14959   0.945   2.341  11.473  0.3341  0.1421  0.1930
 1108SOL    HW114960   0.930   2.387  11.390  2.2368 -1.1252 -0.8531
 1108SOL    HW214961   0.957   2.419  11.527 -0.8686  0.1330  0.4875
 1109SOL     OW14962   4.265   2.562   7.394 -0.5515 -0.6582 -0.5418
 1109SOL    HW114963   4.318   2.641   7.388  2.0866 -2.4355 -0.8168
 1109SOL    HW214964   4.338   2.500   7.383  0.6159  0.0607  3.2076
 1110SOL     OW14965   2.604   1.573   9.438 -0.0047  0.2059 -0.1644
 1110SOL    HW114966   2.693   1.561   9.469  0.2977 -1.9172 -1.9132
 1110SOL    HW214967   2.601   1.663   9.405 -0.5342  0.0853 -0.4419
 1111SOL     OW14968   4.439   0.001   5.999 -0.2795  0.4081 -0.4103
 1111SOL    HW114969   4.531   0.010   5.975  0.0010  0.0312  0.5147
 1111SOL    HW214970   4.437   4.643   6.010 -0.6323  0.3591 -0.9252
 1112SOL     OW14971   4.631   3.317   1.797  0.4576  0.2236 -0.0618
 1112SOL    HW114972   4.556   3.258   1.793  3.3634 -3.6050  1.4251
 1112SOL    HW214973   4.596   3.383   1.857 -1.5301 -0.5201 -0.4026
 1113SOL     OW14974   0.170   4.434   5.627  0.4878 -0.3160  0.3754
 1113SOL    HW114975   0.088   4.460   5.670  1.6204  2.8628  0.5673
 1113SOL    HW214976   0.167   4.503   5.561  0.7625 -0.3640  0.3139
 1114SOL     OW14977   0.564   3.925   6.808  0.2949 -0.7255  0.2723
 1114SOL    HW114978   0.561   3.896   6.899 -1.5658  0.4657  0.5784
 1114SOL    HW214979   0.477   3.900   6.778  0.6455 -1.9912  0.3061
 1115SOL     OW14980   1.741   4.433   2.230  0.3693 -0.2969  0.1044
 1115SOL    HW114981   1.731   4.428   2.325  1.2912 -0.2150  0.2032
 1115SOL    HW214982   1.828   4.394   2.217 -0.9500 -2.6270 -1.6875
 1116SOL     OW14983   2.387   4.418   3.570  0.8823  0.0081  0.4632
 1116SOL    HW114984   2.339   4.367   3.635  2.0264 -2.5743 -0.6969
 1116SOL    HW214985   2.475   4.405   3.606  1.2072  0.8076 -0.0332
 1117SOL     OW14986   2.658   4.239  11.018 -0.1753  0.3916 -0.0309
 1117SOL    HW114987   2.714   4.315  11.033  2.4787 -1.3541 -1.1104
 1117SOL    HW214988   2.592   4.247  11.087 -0.9561 -1.8562 -0.5022
 1118SOL     OW14989   3.299   0.558   5.126  0.1790  0.3087 -0.2388
 1118SOL    HW114990   3.273   0.638   5.171  2.3727  1.4343 -0.9306
 1118SOL    HW214991   3.244   0.561   5.048  1.4421 -0.8069 -1.1606
 1119SOL     OW14992   2.327   2.233   6.250  0.0377  0.0646 -0.2761
 1119SOL    HW114993   2.398   2.179   6.286  0.0812 -0.3266 -0.9460
 1119SOL    HW214994   2.373   2.261   6.171 -0.1988  0.8823 -0.1267
 1120SOL     OW14995   0.428   1.702   5.090 -0.0007 -0.4747 -0.0465
 1120SOL    HW114996   0.383   1.780   5.123 -0.6971  0.6710 -3.6931
 1120SOL    HW214997   0.520   1.728   5.095 -0.7335  2.2367 -0.6514
 1121SOL     OW14998   4.346   4.434   3.127  0.1756  0.4445  0.2596
 1121SOL    HW114999   4.302   4.384   3.196 -1.8747  2.3067  0.2967
 1121SOL    HW215000   4.396   4.369   3.077 -0.2934 -2.2963  3.4041
 1122SOL     OW15001   1.114   4.431   5.897 -0.1904 -0.1668 -0.0127
 1122SOL    HW115002   1.151   4.431   5.809 -1.1687  1.9445 -0.4230
 1122SOL    HW215003   1.090   4.338   5.905  1.5697 -0.7318 -1.2090
 1123SOL     OW15004   2.227   2.904   5.745 -0.4656  0.4845  0.1063
 1123SOL    HW115005   2.226   2.915   5.840  0.5718 -1.9995  0.4173
 1123SOL    HW215006   2.162   2.834   5.740  0.5161 -0.4911  0.9259
 1124SOL     OW15007   1.523   4.596   3.033  0.3456  0.2273  0.2819
 1124SOL    HW115008   1.490   4.680   3.063 -0.1512  0.3335 -0.5728
 1124SOL    HW215009   1.563   4.563   3.113 -1.3062 -1.6944  0.3144
 1125SOL     OW15010   1.801   0.112  13.001 -0.4034  0.8580 -0.4090
 1125SOL    HW115011   1.882   0.128  12.954  0.6200  0.2581  1.1321
 1125SOL    HW215012   1.749   0.092  12.923 -0.7577 -1.9681  0.5682
 1126SOL     OW15013   4.663   2.277  11.379 -0.0123 -0.1108 -0.4475
 1126SOL    HW115014   4.579   2.269  11.333 -1.1413 -0.9318  1.7510
 1126SOL    HW215015   4.664   2.372  11.382  0.5585 -0.2106  2.0093
 1127SOL     OW15016   1.334   2.287   1.419  0.5999  0.3858  0.2211
 1127SOL    HW115017   1.347   2.231   1.495  2.1209 -0.4051 -0.6096
 1127SOL    HW215018   1.322   2.376   1.453 -3.0338  1.1130 -2.8893
 1128SOL     OW15019   4.694   2.789   8.465 -0.1686 -0.4072 -0.3172
 1128SOL    HW115020   0.030   2.824   8.413  0.3609 -0.1445  0.5981
 1128SOL    HW215021   4.669   2.864   8.520  0.9804  0.3705 -0.8348
 1129SOL     OW15022   3.732   2.555   4.964  0.2028  0.3484  0.2582
 1129SOL    HW115023   3.785   2.515   4.894 -0.3556  1.6071 -0.8881
 1129SOL    HW215024   3.670   2.596   4.903 -0.6885 -0.2286  0.7723
 1130SOL     OW15025   0.964   3.127  12.950 -0.0193 -0.3866 -0.2148
 1130SOL    HW115026   0.928   3.067  13.015 -0.8685 -0.2864 -0.5928
 1130SOL    HW215027   0.977   3.207  13.001  1.7313 -0.7151 -0.1546
 1131SOL     OW15028   2.630   4.461   2.395  0.1708 -0.4329  0.3612
 1131SOL    HW115029   2.617   4.490   2.485 -1.4879 -0.4518  0.1197
 1131SOL    HW215030   2.672   4.376   2.411  0.3238  0.0811  2.6856
 1132SOL     OW15031   1.597   0.540  15.096 -0.9218 -0.1331  0.5096
 1132SOL    HW115032   1.625   0.507  15.011  1.4001  0.9330  0.8610
 1132SOL    HW215033   1.504   0.518  15.098 -0.5381 -1.7809  0.3388
 1133SOL     OW15034   0.150   1.528  10.052  0.4942  0.7472 -0.4540
 1133SOL    HW115035   0.114   1.617  10.047  0.8096  0.9942  1.5847
 1133SOL    HW215036   0.158   1.508  10.145  0.3559 -1.2172 -0.8598
 1134SOL     OW15037   0.368   1.487  13.465  0.3204 -0.8207  0.1607
 1134SOL    HW115038   0.453   1.450  13.488  1.2197  2.0215  1.4746
 1134SOL    HW215039   0.394   1.565  13.415  0.0886 -0.8527 -0.0080
 1135SOL     OW15040   0.387   4.340   1.435  0.0519 -0.1787  0.4038
 1135SOL    HW115041   0.448   4.379   1.497  1.4850  0.6638 -1.5339
 1135SOL    HW215042   0.434   4.323   1.354 -0.8348 -1.7255  0.2130
 1136SOL     OW15043   0.410   3.192  13.715  0.6867  0.0693 -0.3520
 1136SOL    HW115044   0.331   3.159  13.672  0.0284  0.3411  0.6413
 1136SOL    HW215045   0.446   3.237  13.639  2.0153  1.4533  1.0961
 1137SOL     OW15046   4.227   4.325   5.195  0.2696 -0.5245  0.2893
 1137SOL    HW115047   4.302   4.274   5.164 -0.6130 -1.3990 -0.4169
 1137SOL    HW215048   4.268   4.411   5.206 -1.6604  0.1767  1.8692
 1138SOL     OW15049   2.866   2.012   5.842 -0.5071 -0.1353 -0.3363
 1138SOL    HW115050   2.908   2.096   5.824 -0.5324  0.0348  0.3737
 1138SOL    HW215051   2.810   2.014   5.764  0.6019  1.6480 -1.0785
 1139SOL     OW15052   3.008   3.628   3.019 -0.1744  0.0769 -0.7598
 1139SOL    HW115053   3.030   3.678   3.098  2.4405  1.0811 -2.1314
 1139SOL    HW215054   2.973   3.693   2.958  0.7356  2.4268  1.2332
 1140SOL     OW15055   1.059   1.315   8.541  0.1662 -0.0707  0.3216
 1140SOL    HW115056   1.030   1.405   8.558 -0.1374  0.0666 -0.9419
 1140SOL    HW215057   1.076   1.277   8.627 -0.7836  1.6331  1.2474
 1141SOL     OW15058   3.987   2.574  10.152  0.3115  0.1728 -0.5884
 1141SOL    HW115059   3.966   2.642  10.088 -0.3208  1.0180  0.5188
 1141SOL    HW215060   4.013   2.634  10.222 -1.7534  0.8336 -0.4022
 1142SOL     OW15061   2.787   2.747   9.372  0.0549  0.5451  0.2793
 1142SOL    HW115062   2.756   2.710   9.289 -1.8860 -1.2077  1.7954
 1142SOL    HW215063   2.857   2.801   9.336 -0.4784  1.6560  0.9106
 1143SOL     OW15064   3.434   2.261   6.907 -0.3693 -0.1619  0.0489
 1143SOL    HW115065   3.451   2.178   6.952  0.5283  1.1544  2.1223
 1143SOL    HW215066   3.353   2.234   6.864 -0.2140 -0.6852  0.0746
 1144SOL     OW15067   2.812   1.568  10.929  0.0486  0.6581 -0.4258
 1144SOL    HW115068   2.722   1.564  10.899  0.2250  0.7512 -0.9741
 1144SOL    HW215069   2.858   1.576  10.845 -1.3606  0.0695 -1.2483
 1145SOL     OW15070   3.630   1.909   4.823  0.0730 -0.0488 -0.2742
 1145SOL    HW115071   3.624   1.988   4.876  1.6376 -0.9764  1.3005
 1145SOL    HW215072   3.543   1.872   4.836  0.2434 -0.0037  1.0567
 1146SOL     OW15073   4.099   0.578   6.453  0.1914 -0.4126  0.7556
 1146SOL    HW115074   4.079   0.493   6.413  1.9439 -0.6019  0.2551
 1146SOL    HW215075   4.016   0.590   6.499  0.3463  1.4457  0.5328
 1147SOL     OW15076   4.036   1.561  13.084 -0.2717  0.1305 -0.2040
 1147SOL    HW115077   4.024   1.655  13.072  2.3206  0.2459 -1.8451
 1147SOL    HW215078   4.128   1.546  13.062  0.1359 -1.2314  2.5149
 1148SOL     OW15079   0.791   0.521  17.723  0.0506  0.0716 -0.2463
 1148SOL    HW115080   0.823   0.610  17.712  1.5458 -0.2771  1.3039
 1148SOL    HW215081   0.728   0.524   0.049 -0.8009  0.0523 -0.9963
 1149SOL     OW15082   0.829   4.092   3.808  0.2717  0.0586 -0.1397
 1149SOL    HW115083   0.859   4.168   3.759  1.3264 -0.6137 -0.5528
 1149SOL    HW215084   0.800   4.126   3.892  0.3166 -0.9863  0.3043
 1150SOL     OW15085   3.841   3.419   2.370 -0.4949 -0.0782  0.1801
 1150SOL    HW115086   3.808   3.490   2.426  2.6448  0.9406  0.7251
 1150SOL    HW215087   3.792   3.345   2.404  2.4430 -0.9294  2.5440
 1151SOL     OW15088   2.198   3.031   4.556 -0.4202  0.8601  0.4228
 1151SOL    HW115089   2.162   3.119   4.561  0.4942  1.2016  1.1003
 1151SOL    HW215090   2.182   3.016   4.462 -2.3751 -2.2621  1.2448
 1152SOL     OW15091   3.764   1.392   8.505 -0.2934  0.7707 -0.1349
 1152SOL    HW115092   3.845   1.438   8.530 -0.8861  1.3598  0.7065
 1152SOL    HW215093   3.731   1.457   8.443  2.5023  2.6106  0.2919
 1153SOL     OW15094   1.218   2.006   9.343 -0.3839  0.3061 -0.1377
 1153SOL    HW115095   1.181   1.927   9.384 -1.3174  0.5184 -0.5691
 1153SOL    HW215096   1.306   2.010   9.381  0.5852 -0.0013 -2.3592
 1154SOL     OW15097   0.057   3.238   7.481  0.3654  0.0953  0.6982
 1154SOL    HW115098   0.142   3.202   7.508  0.3592 -0.3266  0.1514
 1154SOL    HW215099   0.032   3.261   7.570  0.3620  0.3583  0.6267
 1155SOL     OW15100   1.766   4.461  17.100 -0.2962 -0.4489  0.1051
 1155SOL    HW115101   1.676   4.446  17.071  0.0263 -0.6233 -0.7928
 1155SOL    HW215102   1.805   4.497  17.021  0.9593 -0.4740  0.7075
 1156SOL     OW15103   0.338   2.822  11.136 -0.0569  0.5247  0.2089
 1156SOL    HW115104   0.400   2.861  11.198  0.6952  1.7183 -1.2860
 1156SOL    HW215105   0.401   2.800  11.067  1.9757  0.0557  2.1847
 1157SOL     OW15106   1.283   4.069   2.022  0.0169 -0.3864 -0.2002
 1157SOL    HW115107   1.342   4.129   2.067 -1.6298  1.7857 -0.9373
 1157SOL    HW215108   1.334   3.988   2.027  0.8877  0.3811  3.5060
 1158SOL     OW15109   0.628   0.354   4.530  0.3025 -0.5336 -0.0108
 1158SOL    HW115110   0.546   0.329   4.572  0.4012 -1.1894 -0.2038
 1158SOL    HW215111   0.602   0.381   4.442 -0.8999  1.4200  0.9467
 1159SOL     OW15112   3.514   3.179  10.018 -0.2391 -0.3704 -0.6285
 1159SOL    HW115113   3.496   3.092  10.054 -0.3687  0.6892  1.8317
 1159SOL    HW215114   3.426   3.200   9.989 -0.0801  0.6336 -0.3966
 1160SOL     OW15115   1.051   0.797  14.387 -0.1564  0.2759 -0.2954
 1160SOL    HW115116   0.964   0.759  14.374 -0.3805  0.8035 -0.3563
 1160SOL    HW215117   1.072   0.821  14.296  2.4744  1.2697  0.5763
 1161SOL     OW15118   1.804   4.653   4.202  0.0654 -0.4259  0.3810
 1161SOL    HW115119   1.769   0.002   4.227  0.9140 -0.7687  2.7607
 1161SOL    HW215120   1.819   4.610   4.287 -1.6363 -1.3074  0.2268
 1162SOL     OW15121   4.507   0.508   9.552 -0.6297 -0.3754  0.2844
 1162SOL    HW115122   4.491   0.477   9.463  0.9013 -0.3044 -0.0223
 1162SOL    HW215123   4.442   0.460   9.603 -1.4994  0.7704  0.2659
 1163SOL     OW15124   2.756   2.857   3.368 -0.0182 -0.8234 -0.6940
 1163SOL    HW115125   2.757   2.790   3.435 -3.2149 -0.1857  0.0161
 1163SOL    HW215126   2.848   2.857   3.345  0.6287  0.3950  1.8852
 1164SOL     OW15127   2.980   1.788  16.769 -0.6614  0.6014 -0.0966
 1164SOL    HW115128   3.029   1.866  16.742 -0.4460  0.2480 -0.7229
 1164SOL    HW215129   3.014   1.773  16.857 -0.4901 -4.4227 -1.0380
 1165SOL     OW15130   2.808   2.392   1.187  0.0035  0.4151  0.0947
 1165SOL    HW115131   2.869   2.325   1.156  0.7967  1.3500 -0.3280
 1165SOL    HW215132   2.831   2.471   1.139 -0.4918  1.1150  0.9974
 1166SOL     OW15133   3.984   0.696   1.296 -0.7226  0.2520 -0.3094
 1166SOL    HW115134   4.013   0.760   1.360 -3.0797  1.0152 -0.0010
 1166SOL    HW215135   4.054   0.632   1.307 -0.1379  1.1076  0.9826
 1167SOL     OW15136   0.370   2.690  16.877 -0.1136 -0.0079  0.3570
 1167SOL    HW115137   0.339   2.737  16.799 -1.3844  0.0676  0.9021
 1167SOL    HW215138   0.375   2.600  16.845  0.1647  0.4731 -0.9511
 1168SOL     OW15139   0.794   4.638   5.968 -0.0124  0.0264  0.4443
 1168SOL    HW115140   0.781   4.582   6.045  0.7456 -0.6175  0.1134
 1168SOL    HW215141   0.803   4.571   5.900  0.3111 -0.1107  0.6196
 1169SOL     OW15142   4.266   0.463   2.787  0.3247  0.2513 -0.1067
 1169SOL    HW115143   4.299   0.376   2.809  1.2977  0.6078 -0.1482
 1169SOL    HW215144   4.226   0.444   2.702  2.6727 -0.8702 -0.9694
 1170SOL     OW15145   3.045   2.979  17.265 -0.3257 -0.2925  0.2052
 1170SOL    HW115146   3.085   2.894  17.245  0.9375 -0.1413  2.0387
 1170SOL    HW215147   3.015   2.992  17.176 -0.0849  2.4706  0.5214
 1171SOL     OW15148   0.530   4.649   6.407 -0.8017 -0.1040  0.0628
 1171SOL    HW115149   0.502   4.736   6.438  2.3524  1.1637 -0.7152
 1171SOL    HW215150   0.458   4.624   6.348  0.5688 -1.3292 -1.0803
 1172SOL     OW15151   3.105   3.853   4.994  0.1217  0.0009  1.1438
 1172SOL    HW115152   3.055   3.854   5.075 -0.5629  2.9931  0.6919
 1172SOL    HW215153   3.172   3.787   5.012  0.0749 -0.5751 -0.7909
 1173SOL     OW15154   0.769   0.057   7.576  0.4141 -0.0825 -0.6106
 1173SOL    HW115155   0.772   0.026   7.486 -1.6389  0.9019 -1.0239
 1173SOL    HW215156   0.721   4.724   7.621  0.2673 -0.3721 -1.2202
 1174SOL     OW15157   3.745   4.278   4.215  0.5615 -0.2719  0.2821
 1174SOL    HW115158   3.796   4.357   4.198 -0.1405  0.0526 -0.2900
 1174SOL    HW215159   3.812   4.233   4.266  0.5995  0.4621  0.8799
 1175SOL     OW15160   1.212   2.658  16.632  0.3577 -0.2184 -0.2514
 1175SOL    HW115161   1.303   2.676  16.607  0.1422 -1.4308 -1.8680
 1175SOL    HW215162   1.178   2.637  16.545 -0.1570  4.0217 -1.1094
 1176SOL     OW15163   1.463   4.124   5.920 -0.1948  0.5571 -0.1134
 1176SOL    HW115164   1.502   4.086   5.842 -1.0561  0.1566 -0.3401
 1176SOL    HW215165   1.384   4.072   5.930 -0.0725 -0.1052 -2.6095
 1177SOL     OW15166   1.471   1.019   0.640 -0.1714 -0.2381  0.2588
 1177SOL    HW115167   1.453   1.099   0.591  1.9822 -0.5290 -0.9905
 1177SOL    HW215168   1.379   0.996   0.627 -0.3054  0.9808 -0.8800
 1178SOL     OW15169   3.646   0.755   6.714 -0.2210  0.3148 -0.0686
 1178SOL    HW115170   3.714   0.802   6.763  0.2401  0.2059 -0.6064
 1178SOL    HW215171   3.579   0.823   6.699 -0.2615  0.5752  1.2893
 1179SOL     OW15172   1.780   4.297   1.787  0.3941  0.4671 -0.6401
 1179SOL    HW115173   1.840   4.342   1.846 -1.1091  1.1744  0.3300
 1179SOL    HW215174   1.810   4.206   1.794 -0.5577  0.2520  0.5603
 1180SOL     OW15175   2.820   0.533   2.654 -0.0280 -0.7422  0.3931
 1180SOL    HW115176   2.806   0.465   2.587 -0.2090 -1.1985  0.8939
 1180SOL    HW215177   2.749   0.511   2.714 -2.2924  0.8512 -1.6811
 1181SOL     OW15178   2.175   2.725   6.301 -0.4866 -0.2170  0.5317
 1181SOL    HW115179   2.183   2.641   6.347 -1.2027  0.2940  1.5821
 1181SOL    HW215180   2.128   2.693   6.224 -0.1901 -2.4964  1.2919
 1182SOL     OW15181   1.577   2.878   6.983 -0.4796  0.3430 -0.0095
 1182SOL    HW115182   1.540   2.838   6.904 -0.5908 -0.0427  0.2371
 1182SOL    HW215183   1.537   2.964   6.994 -1.9224 -0.3360  0.2118
 1183SOL     OW15184   2.074   0.416  10.505  0.0191  0.1896 -0.0362
 1183SOL    HW115185   2.107   0.331  10.534 -2.6337 -1.0437 -0.5461
 1183SOL    HW215186   2.053   0.452  10.590 -1.1275  0.0098 -0.2338
 1184SOL     OW15187   1.762   1.741   8.514  0.0698  0.1925 -0.2478
 1184SOL    HW115188   1.833   1.730   8.451  1.3691  0.9401  1.0625
 1184SOL    HW215189   1.692   1.697   8.466 -0.6798  0.4668  0.5876
 1185SOL     OW15190   3.434   1.821   7.891  0.1732  0.3545  0.0746
 1185SOL    HW115191   3.387   1.899   7.918  0.7233  1.6530 -2.8013
 1185SOL    HW215192   3.492   1.811   7.967 -0.1384 -1.4823  0.0718
 1186SOL     OW15193   1.036   1.806  15.420 -0.6282 -0.5997  0.8481
 1186SOL    HW115194   1.030   1.869  15.348  0.4526  0.0253  1.3036
 1186SOL    HW215195   1.071   1.861  15.490 -1.0014  0.6516  0.0414
 1187SOL     OW15196   0.950   1.755  13.491  0.0864 -0.4890 -0.5831
 1187SOL    HW115197   0.990   1.804  13.563 -3.2281  0.5900  0.5283
 1187SOL    HW215198   0.928   1.819  13.424 -0.1537 -0.8570 -0.8594
 1188SOL     OW15199   2.833   2.227  12.013 -0.2407  0.0289 -0.0820
 1188SOL    HW115200   2.778   2.160  11.973  0.1402 -1.9683  2.7493
 1188SOL    HW215201   2.795   2.241  12.100  0.2371 -0.4819  0.2024
 1189SOL     OW15202   1.981   0.155   8.884  0.3861  0.2169  0.1046
 1189SOL    HW115203   1.990   0.227   8.822 -2.6315 -0.0885 -0.6906
 1189SOL    HW215204   1.899   0.115   8.855  0.4130 -1.0760  1.7596
 1190SOL     OW15205   4.253   0.521   2.277  0.2399  0.9053  0.1441
 1190SOL    HW115206   4.291   0.543   2.192  1.0806  2.5532  0.9499
 1190SOL    HW215207   4.158   0.531   2.267  0.1637 -0.9515 -0.8742
 1191SOL     OW15208   1.001   0.553   6.962 -0.3588 -0.6202 -0.3922
 1191SOL    HW115209   1.086   0.543   6.918  0.5603 -3.5558  2.0450
 1191SOL    HW215210   0.991   0.649   6.960 -0.1555 -0.5990 -0.4115
 1192SOL     OW15211   1.081   4.558  11.361  0.6024 -0.2893  0.4342
 1192SOL    HW115212   1.134   4.576  11.438  0.1086  1.1691  0.4379
 1192SOL    HW215213   0.994   4.546  11.400 -0.6065  0.9055 -1.9151
 1193SOL     OW15214   0.872   1.248  11.563  0.3040  0.1032 -0.4109
 1193SOL    HW115215   0.952   1.293  11.590  0.2727 -0.8495  1.2815
 1193SOL    HW215216   0.902   1.158  11.545  1.6915  0.3599  0.5802
 1194SOL     OW15217   0.902   2.870   2.695 -0.4959 -0.3876 -0.5619
 1194SOL    HW115218   0.921   2.781   2.725  1.4219  0.4015  0.5733
 1194SOL    HW215219   0.886   2.852   2.603  0.8907  2.5102 -1.3616
 1195SOL     OW15220   1.967   4.063   9.524  0.5588 -0.2094  0.3902
 1195SOL    HW115221   1.981   4.071   9.619 -1.4790 -2.8910  0.9328
 1195SOL    HW215222   1.972   4.156   9.503 -1.2315 -0.0474  0.7476
 1196SOL     OW15223   2.269   1.476  10.137  0.4312  0.6423  0.1606
 1196SOL    HW115224   2.305   1.392  10.107 -0.1331 -0.1642  1.7638
 1196SOL    HW215225   2.286   1.535  10.063  0.6304  0.2968 -0.0727
 1197SOL     OW15226   3.284   0.042   3.382 -0.2575 -0.4873  0.0982
 1197SOL    HW115227   3.225   0.107   3.420  1.4686  0.1212  1.7504
 1197SOL    HW215228   3.329   0.010   3.460 -0.3561  0.5865  0.5987
 1198SOL     OW15229   3.993   3.963   6.730 -0.0801  0.1567  0.5957
 1198SOL    HW115230   4.082   3.934   6.709 -0.0262  2.9170 -3.0496
 1198SOL    HW215231   3.945   3.943   6.650  1.0543  0.2395 -0.1070
 1199SOL     OW15232   1.478   3.572   8.183 -0.8099  0.4299 -0.3252
 1199SOL    HW115233   1.417   3.616   8.124  0.2825  0.1338 -1.6704
 1199SOL    HW215234   1.518   3.654   8.213  1.1837 -0.4674 -0.5176
 1200SOL     OW15235   0.725   0.707   3.560  0.5152 -0.2641  0.1679
 1200SOL    HW115236   0.660   0.760   3.514  0.7940 -0.3946 -0.3850
 1200SOL    HW215237   0.801   0.720   3.503  1.2375  1.8184  1.6367
 1201SOL     OW15238   2.222   2.110  14.988  0.2992  0.2884  0.0631
 1201SOL    HW115239   2.168   2.138  15.062 -2.8917 -0.8505 -1.8358
 1201SOL    HW215240   2.296   2.168  15.006  0.1825  0.2687  0.5956
 1202SOL     OW15241   3.883   0.275   8.549  0.2885  0.4526 -0.7426
 1202SOL    HW115242   3.862   0.182   8.556  1.4715  0.3008  0.7359
 1202SOL    HW215243   3.944   0.296   8.620  0.0004  0.2165 -0.4223
 1203SOL     OW15244   3.539   4.068   9.426  0.0515 -0.5186 -0.7450
 1203SOL    HW115245   3.480   3.993   9.420 -0.9846  0.3093 -0.8259
 1203SOL    HW215246   3.472   4.135   9.416  0.3675 -0.0731  0.1324
 1204SOL     OW15247   4.682   4.606   6.746 -0.5870  0.0493  0.3037
 1204SOL    HW115248   4.689   4.511   6.744 -1.2533  0.0304 -1.1125
 1204SOL    HW215249   4.597   4.629   6.707  0.6804 -0.6081 -2.8046
 1205SOL     OW15250   2.290   3.635   9.118 -0.3708  0.1683  0.5441
 1205SOL    HW115251   2.210   3.594   9.152 -0.6498  2.1703  2.3657
 1205SOL    HW215252   2.286   3.728   9.143 -1.1586  0.6843 -1.4955
 1206SOL     OW15253   3.820   1.880  17.352  0.1483  0.0724 -0.6483
 1206SOL    HW115254   3.806   1.790  17.323  0.5600  0.1218 -1.0114
 1206SOL    HW215255   3.824   1.905  17.260  3.1469  1.6366 -0.0865
 1207SOL     OW15256   1.601   0.718  12.130  0.3837 -0.2121  0.6342
 1207SOL    HW115257   1.568   0.776  12.061 -0.5697 -1.2541  0.2308
 1207SOL    HW215258   1.601   0.778  12.205 -1.5902  0.8409 -0.2162
 1208SOL     OW15259   1.068   0.837   9.738 -0.0187  0.3309  0.1755
 1208SOL    HW115260   1.117   0.917   9.758 -2.5517  1.7161  0.9151
 1208SOL    HW215261   1.094   0.783   9.812  2.2910  1.6678  0.3332
 1209SOL     OW15262   4.401   1.979   8.766  0.1844  0.2668 -0.0796
 1209SOL    HW115263   4.388   1.896   8.811 -1.8228 -1.0958 -3.1068
 1209SOL    HW215264   4.346   2.036   8.821  0.5072  0.6379 -0.1399
 1210SOL     OW15265   1.872   1.134   6.839 -0.2353 -0.4097  0.3521
 1210SOL    HW115266   1.865   1.054   6.892  1.3035  0.2462  1.5231
 1210SOL    HW215267   1.784   1.152   6.808  0.5593 -0.4029 -1.8689
 1211SOL     OW15268   2.247   3.180   6.685  0.7818 -0.4864 -0.1964
 1211SOL    HW115269   2.175   3.121   6.709 -1.5524  2.7633  0.8619
 1211SOL    HW215270   2.205   3.257   6.725 -2.7788 -1.4889 -1.9561
 1212SOL     OW15271   1.389   2.835  10.986 -0.1086 -0.4648  0.0563
 1212SOL    HW115272   1.367   2.781  10.910 -0.4820 -0.2583  0.0186
 1212SOL    HW215273   1.484   2.826  10.988  0.0641  0.6380 -3.2023
 1213SOL     OW15274   1.613   2.276  10.725 -0.2301 -0.0520  0.2454
 1213SOL    HW115275   1.561   2.198  10.745  1.1313 -1.4303 -1.5787
 1213SOL    HW215276   1.663   2.281  10.807  1.5278  2.1358 -0.9577
 1214SOL     OW15277   2.272   2.718   0.372 -0.8462  0.4564  0.1366
 1214SOL    HW115278   2.361   2.684   0.364 -2.0482 -1.6006 -5.0344
 1214SOL    HW215279   2.279   2.789   0.436  0.7273  0.9287 -0.5519
 1215SOL     OW15280   0.377   1.878   0.019 -0.4909 -0.4240  0.4284
 1215SOL    HW115281   0.444   1.829   0.067 -2.4035 -0.8236  2.6821
 1215SOL    HW215282   0.437   1.934  17.715 -0.5515 -0.5120  0.2549
 1216SOL     OW15283   2.445   0.697   9.254  0.4172  0.0373  0.6611
 1216SOL    HW115284   2.489   0.700   9.339 -0.2935  1.5885  0.9646
 1216SOL    HW215285   2.447   0.602   9.240 -0.0365 -0.1769  2.0455
 1217SOL     OW15286   1.470   0.377  15.956  0.3702  0.8541  0.5063
 1217SOL    HW115287   1.518   0.389  15.874 -0.7082  2.5010  0.1145
 1217SOL    HW215288   1.448   0.284  15.959 -0.3504  1.1194  3.7405
 1218SOL     OW15289   1.452   4.656   8.791  0.0658  0.4197 -0.0356
 1218SOL    HW115290   1.433   0.003   8.834 -1.8386  0.3133 -0.6655
 1218SOL    HW215291   1.529   4.683   8.741  0.0057 -0.9354 -0.8453
 1219SOL     OW15292   4.437   4.200   2.116  0.2556 -0.5605  0.1117
 1219SOL    HW115293   4.435   4.191   2.020 -0.0377 -1.7971  0.2453
 1219SOL    HW215294   4.343   4.213   2.125  0.3605 -0.2531  0.7515
 1220SOL     OW15295   0.249   0.566   9.373 -0.0911 -0.1706  0.1801
 1220SOL    HW115296   0.291   0.639   9.419  1.7771 -0.1147 -1.6061
 1220SOL    HW215297   0.314   0.498   9.388 -0.3432 -0.9861 -2.4750
 1221SOL     OW15298   3.758   0.025  12.519 -0.2169  0.2700 -0.3062
 1221SOL    HW115299   3.798   4.676  12.501 -2.2109 -0.5058 -1.1341
 1221SOL    HW215300   3.668   0.003  12.493 -1.4076  2.8530  1.6936
 1222SOL     OW15301   1.414   0.628   3.660  0.3975  0.2740 -0.3105
 1222SOL    HW115302   1.487   0.666   3.612  0.8911  1.3843  1.3188
 1222SOL    HW215303   1.352   0.700   3.663 -3.1840 -2.8609  0.5933
 1223SOL     OW15304   1.093   3.691   3.676 -0.2183 -0.1766  0.9347
 1223SOL    HW115305   1.054   3.776   3.694 -1.1619 -0.1938 -1.0178
 1223SOL    HW215306   1.060   3.687   3.586  0.4217 -2.2256  0.7697
 1224SOL     OW15307   2.502   1.786   8.296  0.0338  0.2084 -0.0821
 1224SOL    HW115308   2.537   1.698   8.308  0.7626  0.2655 -1.7216
 1224SOL    HW215309   2.510   1.826   8.382  1.1821  0.1216 -0.1454
 1225SOL     OW15310   0.385   2.356   4.054  0.0359 -0.1171 -0.3107
 1225SOL    HW115311   0.326   2.319   3.989  1.0089 -1.2382 -0.5462
 1225SOL    HW215312   0.473   2.333   4.026 -0.3696 -0.4795 -1.2613
 1226SOL     OW15313   2.292   0.692   8.577  0.3807 -0.0596  0.2981
 1226SOL    HW115314   2.315   0.695   8.670  0.4441  0.1613  0.2735
 1226SOL    HW215315   2.292   0.785   8.558  1.7958  0.0569  0.8830
 1227SOL     OW15316   3.693   4.471   6.677 -0.4922  0.0963 -0.0389
 1227SOL    HW115317   3.787   4.471   6.693 -0.7728  1.9822  1.4990
 1227SOL    HW215318   3.657   4.463   6.765  3.6898 -1.8344  1.4921
 1228SOL     OW15319   2.398   1.869   6.040  0.0151  0.2838  0.7360
 1228SOL    HW115320   2.379   1.789   6.088  1.0569 -0.2205  0.3169
 1228SOL    HW215321   2.494   1.872   6.039  0.0126 -0.3160 -1.1112
 1229SOL     OW15322   3.388   3.126   6.312  0.3165  0.2801 -0.5189
 1229SOL    HW115323   3.352   3.182   6.381 -1.0811 -1.7685  0.4209
 1229SOL    HW215324   3.307   3.099   6.268 -0.8198  2.0751  0.4690
 1230SOL     OW15325   0.273   0.736   5.764  0.0800  0.2372  0.5681
 1230SOL    HW115326   0.364   0.736   5.734 -0.8880 -1.8576 -2.3477
 1230SOL    HW215327   0.280   0.824   5.801  1.0584  0.1039  0.7151
 1231SOL     OW15328   0.260   0.338   6.811  0.1848 -0.2521  0.1928
 1231SOL    HW115329   0.352   0.324   6.835  0.2421  1.2062  0.8605
 1231SOL    HW215330   0.212   0.256   6.819  0.4156 -0.2828  1.2568
 1232SOL     OW15331   1.952   0.869   8.844 -0.5994  0.4402  0.1702
 1232SOL    HW115332   2.042   0.898   8.835 -0.4397  0.2434  1.1706
 1232SOL    HW215333   1.904   0.951   8.830 -0.4826  0.3248 -0.9322
 1233SOL     OW15334   2.543   0.368  13.683 -0.5720  0.0203 -0.4413
 1233SOL    HW115335   2.503   0.309  13.618 -0.5964  0.3978 -0.7693
 1233SOL    HW215336   2.628   0.395  13.648 -0.2880 -1.2065 -0.6865
 1234SOL     OW15337   0.438   0.218  11.158  0.0513  0.1621  0.2824
 1234SOL    HW115338   0.526   0.222  11.121  0.4702 -3.2283  0.9680
 1234SOL    HW215339   0.398   0.304  11.145  3.5807  1.8566  0.4022
 1235SOL     OW15340   0.840   2.719  12.011 -0.4537  0.2088  0.0199
 1235SOL    HW115341   0.903   2.697  12.080 -0.2527  0.5722 -0.0477
 1235SOL    HW215342   0.803   2.635  11.984 -1.8028  1.3123 -1.5762
 1236SOL     OW15343   4.327   2.356   0.270 -0.3774 -0.5607  0.4588
 1236SOL    HW115344   4.395   2.413   0.234 -0.4746 -0.5388  0.3069
 1236SOL    HW215345   4.342   2.275   0.219 -1.0104  0.5712 -1.5329
 1237SOL     OW15346   3.378   2.757   1.904 -0.3353 -0.2338 -0.4126
 1237SOL    HW115347   3.399   2.830   1.846  3.6369  0.9588  2.5276
 1237SOL    HW215348   3.457   2.746   1.957 -0.2745 -0.3975 -0.5386
 1238SOL     OW15349   0.562   0.356   6.234 -0.1002  0.3273  0.1736
 1238SOL    HW115350   0.477   0.388   6.204 -1.2166 -1.2167  1.7804
 1238SOL    HW215351   0.601   0.306   6.162  2.0368  1.8129  0.2947
 1239SOL     OW15352   4.092   3.854   6.013  0.3664 -0.0471 -0.0527
 1239SOL    HW115353   4.095   3.864   5.918  3.5219 -1.2101 -0.0868
 1239SOL    HW215354   4.098   3.758   6.016  2.2431  0.0457 -0.6174
 1240SOL     OW15355   2.341   3.164   9.265 -0.4789 -0.3036 -0.8741
 1240SOL    HW115356   2.371   3.225   9.198 -1.0622 -0.4686 -1.2895
 1240SOL    HW215357   2.417   3.153   9.321  0.5124 -1.6745 -2.4578
 1241SOL     OW15358   4.456   4.323   5.726  0.5341 -0.2949  0.3664
 1241SOL    HW115359   4.470   4.416   5.743  0.3384 -0.0848 -0.5918
 1241SOL    HW215360   4.486   4.288   5.810 -0.0599 -0.3608  0.5528
 1242SOL     OW15361   1.004   1.526   8.246 -0.2629  0.0099  0.0713
 1242SOL    HW115362   1.099   1.525   8.233 -0.4589  2.5797 -1.4098
 1242SOL    HW215363   0.981   1.434   8.258 -0.7890  0.2395  0.8368
 1243SOL     OW15364   0.495   4.020   3.580 -0.0019 -0.0270 -0.3128
 1243SOL    HW115365   0.459   4.101   3.616  0.5583 -0.0127  0.2263
 1243SOL    HW215366   0.552   3.988   3.651 -1.2819 -1.0649  0.2420
 1244SOL     OW15367   0.445   2.463   2.214 -0.0472 -0.1964  0.6457
 1244SOL    HW115368   0.411   2.444   2.127  1.5605 -0.1006 -0.0096
 1244SOL    HW215369   0.538   2.439   2.213  0.1892  0.7652 -0.3907
 1245SOL     OW15370   0.382   2.937   5.730 -0.0161 -0.8645 -0.3232
 1245SOL    HW115371   0.364   3.007   5.667  0.4139  0.1421  0.6600
 1245SOL    HW215372   0.375   2.988   5.811 -2.2494 -1.1211 -0.3669
 1246SOL     OW15373   3.515   2.121   7.454  0.2069 -0.6248  0.3108
 1246SOL    HW115374   3.571   2.138   7.378  0.1455 -1.4742  0.0722
 1246SOL    HW215375   3.552   2.168   7.528 -0.3543  0.9739 -0.4246
 1247SOL     OW15376   2.883   0.747  16.738 -0.1556  0.1835  0.0716
 1247SOL    HW115377   2.794   0.712  16.738  0.1870 -0.6817  0.3188
 1247SOL    HW215378   2.925   0.664  16.759 -1.1171 -0.6163 -1.2133
 1248SOL     OW15379   4.489   2.363   6.890 -0.9021  0.4029  0.4757
 1248SOL    HW115380   4.527   2.277   6.874  0.0264  0.9593 -0.3175
 1248SOL    HW215381   4.415   2.335   6.943 -1.2571  0.6383  0.1108
 1249SOL     OW15382   1.430   0.379   6.039  0.1833 -0.4445  0.1027
 1249SOL    HW115383   1.483   0.385   6.119  0.2531 -0.4743  0.0593
 1249SOL    HW215384   1.370   0.308   6.064  0.3847 -0.6352  0.0484
 1250SOL     OW15385   0.977   1.946   8.283  0.1915 -0.4173  0.0856
 1250SOL    HW115386   1.035   1.889   8.231 -0.6264 -0.4019 -0.8455
 1250SOL    HW215387   1.013   2.032   8.263 -1.1147 -0.4551 -2.3908
 1251SOL     OW15388   3.286   2.826   5.346  0.3459 -0.1369 -0.7334
 1251SOL    HW115389   3.199   2.863   5.362 -0.5784 -2.7660  0.2624
 1251SOL    HW215390   3.323   2.875   5.418 -0.4826  1.0143 -1.0828
 1252SOL     OW15391   4.691   3.562  10.959  0.0415 -0.1128  0.1227
 1252SOL    HW115392   4.627   3.599  10.898 -0.4532  0.5674  1.0574
 1252SOL    HW215393   4.640   3.565  11.040  1.2486  2.5033  0.7642
 1253SOL     OW15394   3.277   0.475   2.668 -0.3965 -0.4225  0.0824
 1253SOL    HW115395   3.288   0.380   2.669 -0.8963 -0.4667  1.4509
 1253SOL    HW215396   3.354   0.494   2.615 -0.3578 -0.9417 -0.0485
 1254SOL     OW15397   4.336   3.843   3.855 -0.0812 -0.1056 -0.1573
 1254SOL    HW115398   4.314   3.755   3.886  0.7875 -0.5937 -0.9571
 1254SOL    HW215399   4.426   3.827   3.827 -0.3963 -1.6457 -0.2582
 1255SOL     OW15400   0.087   2.935   5.398  0.3316 -0.1919  0.2791
 1255SOL    HW115401   0.014   2.975   5.446 -0.2533  0.6856 -1.3789
 1255SOL    HW215402   0.044   2.876   5.336 -1.0029 -0.1540  1.1457
 1256SOL     OW15403   0.929   2.356  16.666 -0.6782  0.5198 -0.7052
 1256SOL    HW115404   0.834   2.340  16.659 -0.8637 -0.0247  3.0496
 1256SOL    HW215405   0.938   2.415  16.592 -2.4006 -0.6532 -1.8699
 1257SOL     OW15406   3.174   4.091   9.163 -0.1064 -0.5729  0.8016
 1257SOL    HW115407   3.188   4.173   9.116 -2.2550 -0.5342  0.2102
 1257SOL    HW215408   3.265   4.063   9.155 -0.8194 -2.2753 -1.3625
 1258SOL     OW15409   3.105   4.380   7.027  0.8939  0.2483 -0.3263
 1258SOL    HW115410   3.185   4.330   7.008  0.0008 -1.8336  1.3905
 1258SOL    HW215411   3.079   4.350   7.114  0.7565 -1.2702 -0.8937
 1259SOL     OW15412   4.515   0.316   0.760 -0.2966 -0.3671 -0.5103
 1259SOL    HW115413   4.421   0.301   0.775  0.0201 -1.6086  0.2636
 1259SOL    HW215414   4.542   0.224   0.758  0.8800  0.0120 -1.3945
 1260SOL     OW15415   3.956   1.090   0.835 -0.0113  0.0489 -0.0350
 1260SOL    HW115416   3.977   1.067   0.926 -0.7623 -0.5709 -0.0222
 1260SOL    HW215417   3.927   1.005   0.803 -0.6493  0.7241 -1.2449
 1261SOL     OW15418   1.676   2.258  10.480 -0.4622  0.4467 -0.0496
 1261SOL    HW115419   1.769   2.235  10.473  0.0604  2.8156 -1.0249
 1261SOL    HW215420   1.656   2.269  10.573 -1.0126 -2.5904  0.1764
 1262SOL     OW15421   4.485   3.457  12.873 -0.0863  0.2201  0.5893
 1262SOL    HW115422   4.411   3.497  12.828 -0.2561 -0.6331  0.1166
 1262SOL    HW215423   4.444   3.383  12.919 -0.5160 -0.9759 -1.7515
 1263SOL     OW15424   0.459   2.831   0.416  0.4328  0.2304 -0.1741
 1263SOL    HW115425   0.365   2.816   0.418  0.0541  2.4493 -1.1163
 1263SOL    HW215426   0.483   2.748   0.375  1.8717  1.2092 -1.3337
 1264SOL     OW15427   0.596   0.830   6.070  0.0960 -0.3977  0.4635
 1264SOL    HW115428   0.654   0.837   5.994 -1.9496  0.1420 -1.0642
 1264SOL    HW215429   0.647   0.878   6.135 -0.3954  0.9013 -0.1013
 1265SOL     OW15430   1.789   4.365   8.152 -0.8880 -0.2070 -0.3035
 1265SOL    HW115431   1.878   4.397   8.135 -1.5322  1.2536 -0.8862
 1265SOL    HW215432   1.744   4.449   8.145 -0.6086 -0.0877 -0.6665
 1266SOL     OW15433   3.851   3.313   6.061 -0.4014  0.3922  0.1331
 1266SOL    HW115434   3.820   3.245   6.121 -1.0161  1.1032  0.6305
 1266SOL    HW215435   3.914   3.262   6.011  2.0824  1.8328  1.7781
 1267SOL     OW15436   2.762   3.382  11.230 -0.3188  0.3097  0.1445
 1267SOL    HW115437   2.675   3.392  11.267 -0.2709  0.6805  0.1627
 1267SOL    HW215438   2.801   3.319  11.290 -2.7305 -1.0768  0.2489
 1268SOL     OW15439   3.390   2.774   8.175 -0.4921  0.1195  0.0187
 1268SOL    HW115440   3.386   2.686   8.136 -1.3912 -0.5429  1.6106
 1268SOL    HW215441   3.349   2.826   8.106 -1.7635  0.6784  1.2010
 1269SOL     OW15442   2.170   4.009   8.657  0.4967  0.1544  0.0917
 1269SOL    HW115443   2.224   3.932   8.674  1.2587  0.5928 -0.3443
 1269SOL    HW215444   2.137   4.036   8.743 -3.0830  0.5171 -1.3931
 1270SOL     OW15445   3.115   2.634   8.571 -0.3556 -0.1065  0.3915
 1270SOL    HW115446   3.091   2.705   8.511  2.3794 -1.2323 -2.0277
 1270SOL    HW215447   3.095   2.681   8.652 -1.0511 -0.8076  0.6273
 1271SOL     OW15448   2.548   2.902   8.222 -0.5189 -0.1218 -0.0964
 1271SOL    HW115449   2.604   2.957   8.168 -1.4690 -0.5317 -1.4799
 1271SOL    HW215450   2.592   2.921   8.305 -2.2379  2.6651  0.1776
 1272SOL     OW15451   2.454   4.330  15.582  0.1071 -0.0271  0.4809
 1272SOL    HW115452   2.501   4.384  15.518 -0.1076 -0.9477 -0.4489
 1272SOL    HW215453   2.497   4.345  15.666 -1.9745  1.3574  1.2941
 1273SOL     OW15454   0.358   4.609   8.531 -0.5509 -0.1575  0.8288
 1273SOL    HW115455   0.378   4.517   8.547  0.1471 -0.1414  0.0529
 1273SOL    HW215456   0.319   4.631   8.615  0.8202 -0.1934  1.4694
 1274SOL     OW15457   3.164   0.973  16.034  0.0861 -0.0767 -0.0061
 1274SOL    HW115458   3.120   0.898  16.072  1.0958  0.0651  1.4680
 1274SOL    HW215459   3.149   1.040  16.100  1.4523 -0.1185  0.3524
 1275SOL     OW15460   0.223   0.023   9.316  0.7564  0.5381 -0.4442
 1275SOL    HW115461   0.271   0.092   9.361  0.4377  1.2975 -1.2587
 1275SOL    HW215462   0.290   4.729   9.254  0.5836  0.2390 -0.4855
 1276SOL     OW15463   4.527   2.213   1.698 -0.3470 -0.1695  0.1636
 1276SOL    HW115464   4.531   2.266   1.618  1.3745  1.3590  1.2673
 1276SOL    HW215465   4.564   2.133   1.659  1.0311  1.1829 -1.2714
 1277SOL     OW15466   2.119   4.310   7.497 -0.7214  0.5533 -0.0379
 1277SOL    HW115467   2.069   4.357   7.563 -1.9313  1.0384 -1.2865
 1277SOL    HW215468   2.192   4.270   7.543  0.2619  1.4351 -0.8371
 1278SOL     OW15469   0.147   3.258   3.155 -0.2295  0.4951 -0.0002
 1278SOL    HW115470   0.187   3.317   3.091  0.2101  0.0774 -0.1111
 1278SOL    HW215471   0.091   3.316   3.207 -0.9960  1.4591 -1.8906
 1279SOL     OW15472   2.608   0.175   2.074 -0.5491 -0.2491  0.5034
 1279SOL    HW115473   2.579   0.147   2.161  0.9704 -2.6836  0.2382
 1279SOL    HW215474   2.637   0.264   2.094  1.1964 -0.2683 -1.9731
 1280SOL     OW15475   1.467   3.799   5.477  0.4728 -0.4894  0.5294
 1280SOL    HW115476   1.481   3.780   5.384 -0.3652  1.0315  0.1010
 1280SOL    HW215477   1.384   3.753   5.484 -0.4295  1.2824  1.2438
 1281SOL     OW15478   4.676   2.843   7.286  0.5284 -0.3169 -0.2485
 1281SOL    HW115479   4.721   2.875   7.208  0.8289 -2.8013 -1.0827
 1281SOL    HW215480   4.641   2.923   7.326  2.4561  0.3909  0.0622
 1282SOL     OW15481   0.047   3.274   7.211  0.5851  0.0825 -0.4068
 1282SOL    HW115482   0.048   3.181   7.188  1.4124 -0.7381  2.9593
 1282SOL    HW215483   0.048   3.270   7.306  0.6316 -1.4919 -0.4819
 1283SOL     OW15484   0.346   2.823   2.911  0.6867  0.1132  0.9055
 1283SOL    HW115485   0.349   2.901   2.966 -0.4185 -1.0146  2.5534
 1283SOL    HW215486   0.433   2.812   2.873 -0.1102 -1.3687 -0.4751
 1284SOL     OW15487   2.972   2.060  13.646  0.1761  0.1889 -0.8066
 1284SOL    HW115488   2.939   2.088  13.731  1.3480 -1.3658  0.1704
 1284SOL    HW215489   2.895   2.059  13.589  1.2360  1.7035 -2.2857
 1285SOL     OW15490   2.698   3.014   7.442 -0.5554  0.9623  0.1255
 1285SOL    HW115491   2.606   2.989   7.437 -0.7261  1.5355  0.4401
 1285SOL    HW215492   2.717   3.001   7.535  0.2469 -0.8159 -0.2758
 1286SOL     OW15493   4.685   4.324   1.704 -0.4223 -0.2488  0.3822
 1286SOL    HW115494   4.629   4.360   1.635  2.0437 -1.7233 -2.4381
 1286SOL    HW215495   0.013   4.269   1.660  0.0991 -0.4938  1.4593
 1287SOL     OW15496   3.585   4.724   6.771 -0.0948  0.1265 -0.6129
 1287SOL    HW115497   3.503   4.683   6.745  0.5331 -3.1583  2.5805
 1287SOL    HW215498   3.642   4.652   6.744 -0.1393 -0.6588  1.3896
 1288SOL     OW15499   2.428   4.182   2.279 -0.1306  0.4865  0.3478
 1288SOL    HW115500   2.378   4.258   2.309 -0.6445  0.6739 -0.9712
 1288SOL    HW215501   2.465   4.220   2.199 -0.4753 -0.9329 -0.4853
 1289SOL     OW15502   3.083   4.558   1.616 -0.0023 -0.5009 -0.2336
 1289SOL    HW115503   3.098   4.547   1.522 -1.9694 -2.9102 -0.2863
 1289SOL    HW215504   3.168   4.532   1.651  0.0806 -0.9574 -0.7618
 1290SOL     OW15505   4.386   4.153  14.873  0.1780 -0.4372 -0.4115
 1290SOL    HW115506   4.322   4.198  14.818  0.6125  0.0047 -0.5557
 1290SOL    HW215507   4.450   4.223  14.878 -1.3516  0.9253  0.0560
 1291SOL     OW15508   3.162   4.564   8.919  0.6131 -0.8228  0.8034
 1291SOL    HW115509   3.169   4.486   8.864  1.6137  0.5344 -1.0214
 1291SOL    HW215510   3.072   4.593   8.907  0.4051 -2.2952 -1.3264
 1292SOL     OW15511   2.070   1.525   2.271  0.3845 -0.2109  0.2035
 1292SOL    HW115512   2.045   1.613   2.244  0.4799 -0.4176 -0.5400
 1292SOL    HW215513   1.982   1.495   2.296  0.0837 -0.7805 -1.5627
 1293SOL     OW15514   3.633   1.192   7.958  0.0592  1.0063 -0.2075
 1293SOL    HW115515   3.628   1.194   8.054  0.1177  2.6376 -0.2249
 1293SOL    HW215516   3.687   1.114   7.948 -0.2443  0.8823 -0.8722
 1294SOL     OW15517   1.118   2.889  10.974 -0.0464 -0.6433 -0.3259
 1294SOL    HW115518   1.211   2.889  10.994 -0.5472 -0.4523  1.9228
 1294SOL    HW215519   1.079   2.837  11.044  2.1318  2.6729  3.2677
 1295SOL     OW15520   2.736   4.474   4.879 -0.1678 -0.1382 -0.2864
 1295SOL    HW115521   2.791   4.406   4.917 -1.0137 -0.5457  0.1968
 1295SOL    HW215522   2.693   4.508   4.958 -0.2331 -1.5233  0.2679
 1296SOL     OW15523   1.761   1.836   3.170  0.2479 -0.4965 -0.5821
 1296SOL    HW115524   1.739   1.793   3.252 -2.2145 -0.9497 -1.4753
 1296SOL    HW215525   1.689   1.897   3.153 -1.1408 -2.2088 -0.8102
 1297SOL     OW15526   3.345   3.369   7.414  0.5135  0.2406 -0.1106
 1297SOL    HW115527   3.356   3.434   7.344 -0.1161 -1.4668 -1.7777
 1297SOL    HW215528   3.256   3.384   7.445  1.1240 -1.8062  2.6235
 1298SOL     OW15529   3.973   0.747   5.121 -0.2052 -0.1754  0.3642
 1298SOL    HW115530   4.019   0.790   5.193 -1.0268 -1.5377  1.7214
 1298SOL    HW215531   4.037   0.743   5.050  0.9831 -0.5779  1.4570
 1299SOL     OW15532   1.462   3.073   2.584  0.2366 -0.5932 -0.2057
 1299SOL    HW115533   1.550   3.070   2.544  1.7837  2.3789  3.0490
 1299SOL    HW215534   1.464   3.164   2.613 -0.8302  0.0487 -2.1612
 1300SOL     OW15535   0.007   4.213   7.579 -0.2173 -0.0611 -0.4034
 1300SOL    HW115536   0.033   4.205   7.487  0.8002 -0.8276 -0.0423
 1300SOL    HW215537   0.070   4.279   7.607  0.2198 -1.4963  1.9754
 1301SOL     OW15538   4.587   0.134   8.597 -0.2547  0.1732 -0.0807
 1301SOL    HW115539   4.650   0.162   8.663 -1.6509  1.3558  0.7631
 1301SOL    HW215540   4.644   0.133   8.520  0.1973 -2.9791  0.3008
 1302SOL     OW15541   0.035   2.885   3.156 -0.4187  0.3632 -0.1321
 1302SOL    HW115542   4.736   2.900   3.068 -4.1123 -2.6445  0.8800
 1302SOL    HW215543   0.038   2.790   3.168 -1.4464  0.3413  0.0076
 1303SOL     OW15544   0.846   1.660   8.075  0.1874  0.4653 -0.2689
 1303SOL    HW115545   0.883   1.623   8.155  0.2891 -1.4010 -1.2051
 1303SOL    HW215546   0.804   1.586   8.031  1.7501  0.3502 -1.5612
 1304SOL     OW15547   0.198   3.582  11.422  0.2043  0.7234 -0.7299
 1304SOL    HW115548   0.189   3.522  11.347  1.3179  0.4879 -0.6768
 1304SOL    HW215549   0.269   3.545  11.474  0.5586  1.5273 -0.6473
 1305SOL     OW15550   2.515   0.665   0.293  0.0933 -0.5276 -0.9469
 1305SOL    HW115551   2.495   0.675   0.386  0.5831  0.7650 -0.9712
 1305SOL    HW215552   2.610   0.660   0.284 -0.0169 -2.1316 -1.1747
 1306SOL     OW15553   2.028   0.108   7.560  0.0781  0.1606 -0.8801
 1306SOL    HW115554   2.062   0.196   7.577  1.2781 -0.6942  1.1922
 1306SOL    HW215555   1.995   0.086   7.647  0.8645  0.4176 -0.5179
 1307SOL     OW15556   3.529   2.652  13.271  0.4155  0.1376  0.6604
 1307SOL    HW115557   3.483   2.578  13.231 -0.0586  0.8772 -0.1748
 1307SOL    HW215558   3.490   2.644  13.358 -1.0543 -0.7027 -0.0660
 1308SOL     OW15559   0.832   0.936  17.505 -0.1669  0.0392 -0.1736
 1308SOL    HW115560   0.812   1.015  17.454  0.8978 -0.1419 -0.8713
 1308SOL    HW215561   0.745   0.933  17.544 -0.2429  0.2363 -0.3243
 1309SOL     OW15562   3.387   2.055   0.724  0.5620 -0.2752 -0.1242
 1309SOL    HW115563   3.444   2.107   0.668  0.3677 -1.0953 -1.0757
 1309SOL    HW215564   3.324   2.029   0.658  0.5932  1.7206 -0.9354
 1310SOL     OW15565   0.531   2.439  11.609  0.3630 -0.1459 -0.6300
 1310SOL    HW115566   0.464   2.507  11.599  1.9782  1.3203 -1.4118
 1310SOL    HW215567   0.605   2.499  11.621 -0.4123  0.3237  1.8305
 1311SOL     OW15568   1.960   4.227   3.734  0.1760  0.2194  0.6455
 1311SOL    HW115569   1.883   4.173   3.752 -1.1195  1.5524 -0.8366
 1311SOL    HW215570   1.941   4.249   3.643 -0.7144  0.4958  0.8955
 1312SOL     OW15571   4.165   2.607   3.413  0.1982  0.1763 -0.2241
 1312SOL    HW115572   4.213   2.539   3.365 -0.5694  0.0161 -0.7702
 1312SOL    HW215573   4.076   2.580   3.392  0.6985  0.2450 -2.4517
 1313SOL     OW15574   2.811   0.995   5.816  0.9712 -0.9122 -0.4701
 1313SOL    HW115575   2.879   1.062   5.818  0.0694  0.0465 -1.8632
 1313SOL    HW215576   2.867   0.918   5.813  1.8434 -0.2928  0.1490
 1314SOL     OW15577   3.379   3.685  12.669  0.5466 -0.8017  0.2520
 1314SOL    HW115578   3.458   3.667  12.618  1.4631  2.1959  0.6482
 1314SOL    HW215579   3.384   3.778  12.690  1.0038 -1.0713  1.3293
 1315SOL     OW15580   3.525   3.753  16.847  0.0374  0.1263 -0.1341
 1315SOL    HW115581   3.532   3.837  16.891  0.9114 -0.7191  1.3149
 1315SOL    HW215582   3.587   3.698  16.894  0.5292 -0.9967 -2.0799
 1316SOL     OW15583   3.799   0.727   2.325  0.0217  0.0749  0.5649
 1316SOL    HW115584   3.824   0.808   2.369 -1.6614  0.5528  0.6084
 1316SOL    HW215585   3.823   0.664   2.392  0.8104  0.4790  0.6621
 1317SOL     OW15586   3.356   2.312   1.320 -0.1107  0.5022 -0.7498
 1317SOL    HW115587   3.407   2.329   1.240 -1.7900  0.4734 -1.8248
 1317SOL    HW215588   3.382   2.220   1.332  1.8568  1.0480 -0.8592
 1318SOL     OW15589   4.670   3.942   5.156  0.1882 -1.2701 -0.3520
 1318SOL    HW115590   4.576   3.935   5.136 -0.4352  0.5260  1.8640
 1318SOL    HW215591   4.684   3.848   5.157  3.2583 -0.8308 -1.5079
 1319SOL     OW15592   1.464   4.436  16.230 -0.3400 -0.8141  0.6122
 1319SOL    HW115593   1.502   4.393  16.153 -1.4333 -0.2109 -0.2540
 1319SOL    HW215594   1.500   4.523  16.213  2.2533 -2.2643 -1.2994
 1320SOL     OW15595   1.238   1.719  11.438 -0.5256 -0.0480 -0.1581
 1320SOL    HW115596   1.238   1.707  11.343  2.3258 -1.8654  0.0548
 1320SOL    HW215597   1.250   1.813  11.451 -0.5465 -0.0720  0.0343
 1321SOL     OW15598   2.402   2.154   1.595  0.2176 -0.1040 -0.1528
 1321SOL    HW115599   2.458   2.154   1.672  1.8714 -1.0739 -1.3421
 1321SOL    HW215600   2.406   2.245   1.566 -2.4266  0.5039  1.3405
 1322SOL     OW15601   3.873   3.909   5.538  0.5473  0.0475  0.2446
 1322SOL    HW115602   3.918   3.964   5.474  0.1688  0.8496  0.6651
 1322SOL    HW215603   3.784   3.941   5.524  0.2598  0.1931  2.3389
 1323SOL     OW15604   4.415   3.636   0.861  0.2785 -0.5588 -0.1762
 1323SOL    HW115605   4.350   3.639   0.931 -0.6836 -1.3449 -1.0384
 1323SOL    HW215606   4.447   3.727   0.862  2.3697 -1.3203  3.7225
 1324SOL     OW15607   1.434   1.663   7.587 -0.1726  0.1923  0.0863
 1324SOL    HW115608   1.384   1.742   7.566  0.8840  0.5234 -1.1819
 1324SOL    HW215609   1.509   1.687   7.533 -0.3900 -0.8461 -0.6828
 1325SOL     OW15610   3.066   3.449   7.484  0.7695 -0.1894  0.6040
 1325SOL    HW115611   3.037   3.404   7.563 -0.9934  1.2351  0.7694
 1325SOL    HW215612   3.048   3.537   7.518  3.5498  0.4600  0.3907
 1326SOL     OW15613   1.085   1.038   5.493 -0.3472  0.5863  0.4094
 1326SOL    HW115614   1.099   1.082   5.409 -1.9719  0.0139 -0.1590
 1326SOL    HW215615   1.032   1.098   5.546  1.6367  1.0915  1.8375
 1327SOL     OW15616   2.434   1.628   5.506  0.3067 -0.7345 -0.0055
 1327SOL    HW115617   2.402   1.718   5.516 -0.7998 -0.8866 -2.2683
 1327SOL    HW215618   2.487   1.625   5.586 -2.1547 -0.1109  1.6623
 1328SOL     OW15619   4.426   4.364   5.467  0.4149  0.2424  0.1519
 1328SOL    HW115620   4.364   4.437   5.472  0.1341  0.1035 -1.2163
 1328SOL    HW215621   4.441   4.354   5.561  0.6709  0.0662  0.0908
 1329SOL     OW15622   3.990   2.145   3.735 -0.2349  0.0604 -0.5839
 1329SOL    HW115623   4.077   2.174   3.705  0.4967 -0.7660  0.7520
 1329SOL    HW215624   3.939   2.187   3.665 -2.2353  1.5219  1.7456
 1330SOL     OW15625   2.660   3.170   8.553  0.4573  0.4564  0.8653
 1330SOL    HW115626   2.746   3.151   8.592  1.1924 -1.3477 -1.7016
 1330SOL    HW215627   2.641   3.092   8.501  1.8885 -0.5364  1.8200
 1331SOL     OW15628   2.761   0.324  14.065 -0.5252 -0.2484 -0.1873
 1331SOL    HW115629   2.837   0.380  14.081  0.2648 -1.4284  0.2307
 1331SOL    HW215630   2.804   0.239  14.074  3.5894  1.6968 -1.7394
 1332SOL     OW15631   1.687   2.304   4.425 -0.0499  0.1955 -0.0241
 1332SOL    HW115632   1.676   2.326   4.517 -0.9596 -1.6063  0.3053
 1332SOL    HW215633   1.767   2.357   4.419 -0.2869  0.5678  0.1155
 1333SOL     OW15634   0.454   3.593  14.254  0.3519  0.1683  0.1067
 1333SOL    HW115635   0.459   3.497  14.255 -1.0997  0.0873 -0.8703
 1333SOL    HW215636   0.361   3.604  14.238  0.7563  1.8616 -1.0725
 1334SOL     OW15637   0.469   4.186  16.077  0.5398  0.5221 -0.5805
 1334SOL    HW115638   0.492   4.275  16.105  1.7871  0.0772 -0.1891
 1334SOL    HW215639   0.448   4.217  15.988  0.8532  2.9933  0.1924
 1335SOL     OW15640   4.313   1.535   6.662 -0.0427 -0.0171  0.3779
 1335SOL    HW115641   4.397   1.543   6.707  1.6166  0.4339 -2.8132
 1335SOL    HW215642   4.340   1.556   6.573  1.5701  1.4436  1.2189
 1336SOL     OW15643   3.641   4.455  17.578 -0.2851 -0.4434  0.0715
 1336SOL    HW115644   3.668   4.420  17.663 -1.4123  0.6854  0.9026
 1336SOL    HW215645   3.656   4.387  17.513 -1.5252 -0.8970  0.2736
 1337SOL     OW15646   4.356   1.684   5.649  0.0090 -0.8446 -0.0750
 1337SOL    HW115647   4.291   1.614   5.650 -0.7722 -0.1379 -0.9839
 1337SOL    HW215648   4.423   1.640   5.597  1.0031  0.4777  0.0669
 1338SOL     OW15649   1.868   1.437   4.354  0.4183  0.2600 -0.0324
 1338SOL    HW115650   1.864   1.342   4.343  1.7667  0.1921  0.0407
 1338SOL    HW215651   1.921   1.462   4.279 -1.4797  0.9789 -1.1373
 1339SOL     OW15652   0.902   2.926   8.401  0.2410  0.0060  0.3160
 1339SOL    HW115653   0.954   2.849   8.374  2.1705  0.8151  1.7519
 1339SOL    HW215654   0.955   2.966   8.470 -3.1228 -0.7429  3.2814
 1340SOL     OW15655   3.957   2.029   4.581 -0.2422  0.4331 -0.8854
 1340SOL    HW115656   3.987   2.081   4.506 -1.3065  2.5927  0.2101
 1340SOL    HW215657   4.006   2.066   4.654  2.4865 -0.6600 -2.1588
 1341SOL     OW15658   2.377   2.524   2.677 -0.0513 -0.2814 -0.5865
 1341SOL    HW115659   2.459   2.535   2.725 -0.0704 -0.0948 -0.5986
 1341SOL    HW215660   2.353   2.613   2.651  2.9667  1.0338  1.1323
 1342SOL     OW15661   3.217   1.882   2.580  0.4282 -0.7331  0.1738
 1342SOL    HW115662   3.142   1.881   2.639  1.1816 -1.2566  1.1229
 1342SOL    HW215663   3.291   1.847   2.628 -0.5261 -2.1223  0.6351
 1343SOL     OW15664   3.843   1.475   6.283  0.6916 -0.0664  0.6954
 1343SOL    HW115665   3.876   1.412   6.220 -0.4577 -0.5904  0.6140
 1343SOL    HW215666   3.920   1.470   6.339  2.3126 -2.0671 -1.7563
 1344SOL     OW15667   4.590   2.434   3.112  0.7457  0.4102 -0.2719
 1344SOL    HW115668   4.625   2.504   3.058 -1.9964  0.1281 -2.4103
 1344SOL    HW215669   4.619   2.474   3.194 -0.6859  3.5274 -1.3140
 1345SOL     OW15670   1.502   1.385   7.433  0.0855 -0.6494 -0.3141
 1345SOL    HW115671   1.569   1.452   7.449 -0.4781  0.2251 -1.6827
 1345SOL    HW215672   1.543   1.302   7.460  0.1160 -0.9321 -1.2341
 1346SOL     OW15673   3.334   1.983  10.735 -0.2295  0.1036 -0.0458
 1346SOL    HW115674   3.252   1.961  10.779 -1.1064  1.7591 -0.8237
 1346SOL    HW215675   3.298   1.999  10.648  0.1957 -1.5608 -0.5342
 1347SOL     OW15676   3.515   3.230   1.069 -0.6430 -0.5223 -0.1846
 1347SOL    HW115677   3.444   3.203   1.127 -1.4239 -1.5875 -1.6456
 1347SOL    HW215678   3.537   3.154   1.015 -1.5242  0.0637 -1.3566
 1348SOL     OW15679   3.982   0.272   2.824  0.0197 -0.0999 -0.2350
 1348SOL    HW115680   3.989   0.315   2.910 -0.4156  1.6459 -1.0758
 1348SOL    HW215681   4.049   0.324   2.780 -0.3549  1.3028  0.8321
 1349SOL     OW15682   4.404   1.662   7.584 -0.4163 -0.3320  0.6305
 1349SOL    HW115683   4.366   1.721   7.519  1.7139  0.7837  0.3636
 1349SOL    HW215684   4.495   1.693   7.574 -0.7173  0.9440  1.8608
 1350SOL     OW15685   0.425   4.228   5.238  0.7462 -0.4054 -0.4512
 1350SOL    HW115686   0.451   4.254   5.149  0.5459 -1.2343 -0.7514
 1350SOL    HW215687   0.418   4.315   5.278 -0.7379 -1.2137  1.0517
 1351SOL     OW15688   3.102   2.722   2.848 -0.5972 -0.1022 -0.3356
 1351SOL    HW115689   3.035   2.786   2.872 -1.1944 -0.9875  0.3311
 1351SOL    HW215690   3.186   2.762   2.871 -1.6863  1.3435  1.1671
 1352SOL     OW15691   1.024   0.145   6.458  0.2411  0.7160  0.3224
 1352SOL    HW115692   0.930   0.133   6.442  0.4076  0.8352 -0.7485
 1352SOL    HW215693   1.057   0.056   6.468  2.3624  1.8380  3.2655
 1353SOL     OW15694   4.056   3.992  14.577  0.2380 -0.1462 -0.3984
 1353SOL    HW115695   4.093   3.910  14.610  0.1677 -0.6053 -1.4638
 1353SOL    HW215696   3.994   4.020  14.645 -0.2661 -1.3041 -0.3838
 1354SOL     OW15697   1.580   2.486   7.085 -0.1841 -0.2245 -0.3621
 1354SOL    HW115698   1.630   2.566   7.097  0.7821 -0.7199 -1.0859
 1354SOL    HW215699   1.495   2.522   7.060 -0.0550  0.1740 -0.2179
 1355SOL     OW15700   3.741   2.203   2.632 -0.1795  0.6887  0.2505
 1355SOL    HW115701   3.770   2.179   2.544  0.7502 -1.3161  1.0978
 1355SOL    HW215702   3.647   2.194   2.618  0.0429 -0.2107 -0.7123
 1356SOL     OW15703   3.536   0.971   1.116  0.2991  0.2585  0.3452
 1356SOL    HW115704   3.476   1.021   1.172  1.2572  1.1340  0.5817
 1356SOL    HW215705   3.484   0.892   1.101  1.6444 -0.3968 -0.7955
 1357SOL     OW15706   1.268   2.885   5.878  0.0145  0.0224  0.0396
 1357SOL    HW115707   1.188   2.834   5.892  0.5989  0.0028  3.3676
 1357SOL    HW215708   1.318   2.846   5.950  1.0809  1.9062  0.3020
 1358SOL     OW15709   0.869   2.356   5.990  0.2699 -0.3618  0.3616
 1358SOL    HW115710   0.826   2.423   5.936  0.2643 -0.4160  0.2988
 1358SOL    HW215711   0.916   2.307   5.923 -0.4524  0.9163 -1.0852
 1359SOL     OW15712   3.578   0.599   7.999 -0.1688  0.0687 -0.3971
 1359SOL    HW115713   3.563   0.543   8.076 -0.2996  0.9203  0.1941
 1359SOL    HW215714   3.652   0.554   7.958  0.7214  0.3704  0.8897
 1360SOL     OW15715   3.018   1.887   2.782 -0.1532  0.6354  0.0520
 1360SOL    HW115716   2.990   1.975   2.805  2.1132  0.6699  2.6151
 1360SOL    HW215717   2.978   1.836   2.852 -0.1778 -2.3790 -2.1513
 1361SOL     OW15718   1.477   0.161   3.658 -0.6497  0.1473 -0.1788
 1361SOL    HW115719   1.449   0.248   3.685 -0.5004  0.3147 -0.5678
 1361SOL    HW215720   1.548   0.142   3.720  1.8206  2.3668 -2.3563
 1362SOL     OW15721   0.093   3.098   2.779 -0.1910 -0.0991  0.1177
 1362SOL    HW115722   0.170   3.081   2.834 -1.3515 -0.2907  1.6926
 1362SOL    HW215723   0.092   3.192   2.795  0.5413  0.1542 -1.3437
 1363SOL     OW15724   1.414   1.562   8.542  0.2175  0.3928 -0.2257
 1363SOL    HW115725   1.444   1.541   8.630 -0.2464  2.8267  0.5115
 1363SOL    HW215726   1.492   1.551   8.487  0.5172  1.1259  0.0410
 1364SOL     OW15727   3.174   4.640   3.906 -0.1039 -0.5901 -0.7708
 1364SOL    HW115728   3.199   4.609   3.993 -0.3240  0.7437 -0.2329
 1364SOL    HW215729   3.096   4.584   3.897 -1.3890  0.3710  4.5070
 1365SOL     OW15730   3.492   3.313   4.113  0.3210  0.1317 -0.4138
 1365SOL    HW115731   3.493   3.331   4.207 -1.9889  0.8606 -0.5250
 1365SOL    HW215732   3.442   3.232   4.106  2.0692 -0.8848 -1.0954
 1366SOL     OW15733   4.077   1.662  16.192 -0.0605  0.1345 -0.8275
 1366SOL    HW115734   4.096   1.592  16.254 -0.5762 -0.0910 -0.9265
 1366SOL    HW215735   4.070   1.732  16.256  1.7468 -0.4545  0.0098
 1367SOL     OW15736   2.443   3.483   4.275  0.0396 -0.2001 -0.2554
 1367SOL    HW115737   2.506   3.531   4.221  0.2570 -0.7495 -0.4913
 1367SOL    HW215738   2.379   3.551   4.290  0.8078  0.2381  0.9806
 1368SOL     OW15739   1.389   0.750   5.180  0.0565 -0.1620 -0.2058
 1368SOL    HW115740   1.363   0.663   5.149  1.7784  0.0118 -2.1011
 1368SOL    HW215741   1.313   0.772   5.234 -0.1712 -0.8439 -0.2502
 1369SOL     OW15742   1.619   4.701   7.515  0.2182 -0.1334  0.7280
 1369SOL    HW115743   1.623   0.049   7.560 -0.1588 -0.6213  1.6849
 1369SOL    HW215744   1.605   4.642   7.589 -1.4843 -1.6837 -0.8484
 1370SOL     OW15745   2.436   1.104  17.317  0.1472  0.0273  0.4297
 1370SOL    HW115746   2.468   1.195  17.321  0.4984 -0.0293 -1.0216
 1370SOL    HW215747   2.341   1.113  17.315  0.0626 -1.1220 -0.1600
 1371SOL     OW15748   3.557   0.375   4.064 -0.4615 -0.0854  0.2633
 1371SOL    HW115749   3.555   0.280   4.077  0.4518 -0.4638 -2.2288
 1371SOL    HW215750   3.547   0.403   4.155 -3.0470 -2.5715  0.7557
 1372SOL     OW15751   1.880   0.849  10.981  0.3856  0.8322  0.1069
 1372SOL    HW115752   1.944   0.854  10.910  0.8059 -0.9120  0.3660
 1372SOL    HW215753   1.904   0.931  11.024  1.2994  1.4462 -1.5828
 1373SOL     OW15754   0.672   1.263   0.367  0.7411  0.1830 -0.1828
 1373SOL    HW115755   0.691   1.248   0.459 -0.0581  0.4053  0.0140
 1373SOL    HW215756   0.613   1.191   0.348  0.7612 -0.5775  2.6380
 1374SOL     OW15757   0.128   0.574  16.008 -0.3485 -0.1489  0.7041
 1374SOL    HW115758   0.123   0.507  15.940  2.7017  0.6631 -0.3317
 1374SOL    HW215759   0.053   0.552  16.063 -1.2038 -1.2463 -0.9049
 1375SOL     OW15760   3.560   0.789   8.920  0.5834 -0.1724 -0.2782
 1375SOL    HW115761   3.465   0.790   8.929  0.3226 -0.2620 -3.0497
 1375SOL    HW215762   3.580   0.713   8.866 -1.9423 -1.3636  0.4737
 1376SOL     OW15763   1.380   2.451   2.537  0.4420 -0.1313  0.0426
 1376SOL    HW115764   1.447   2.510   2.503 -1.2817  1.9076  0.1287
 1376SOL    HW215765   1.434   2.374   2.554  0.5762 -0.0064  0.1790
 1377SOL     OW15766   0.479   3.619   4.497  0.2396 -0.3924  0.1017
 1377SOL    HW115767   0.479   3.574   4.581  0.2886  0.4450  0.5380
 1377SOL    HW215768   0.552   3.680   4.506 -0.2692  0.1971  0.2099
 1378SOL     OW15769   0.171   0.555   4.748 -0.0040  0.8701 -0.0878
 1378SOL    HW115770   0.127   0.477   4.780  0.5480  1.9446  3.3166
 1378SOL    HW215771   0.123   0.562   4.666 -1.6844  0.0201  0.8324
 1379SOL     OW15772   4.559   2.778   4.377 -0.2706  0.2640  0.0993
 1379SOL    HW115773   4.604   2.837   4.316  0.5249 -2.2109 -1.7399
 1379SOL    HW215774   4.474   2.821   4.387  0.2573  1.3703 -0.2416
 1380SOL     OW15775   0.594   2.859   3.076 -0.4316  0.1991  0.3969
 1380SOL    HW115776   0.669   2.802   3.057 -0.8290 -0.1117 -0.1933
 1380SOL    HW215777   0.553   2.803   3.143  3.5650 -0.1197  2.5997
 1381SOL     OW15778   1.830   1.153   4.287 -0.2244  0.3348 -0.2973
 1381SOL    HW115779   1.804   1.111   4.205 -1.1244 -1.7764  1.0451
 1381SOL    HW215780   1.925   1.142   4.281 -0.6549 -2.4223 -2.2182
 1382SOL     OW15781   2.923   3.137   5.287 -0.3230 -0.0723 -0.6564
 1382SOL    HW115782   2.842   3.172   5.323 -0.9447 -1.5239 -0.6395
 1382SOL    HW215783   2.881   3.104   5.207 -0.4560  1.3032 -1.1424
 1383SOL     OW15784   0.202   0.513   3.405  0.5998 -0.1068  0.0895
 1383SOL    HW115785   0.230   0.468   3.325  1.6913 -1.2970  1.1286
 1383SOL    HW215786   0.184   0.435   3.458 -0.9731 -0.5334 -1.0741
 1384SOL     OW15787   0.519   3.267   3.710  0.2168  0.6328  0.4207
 1384SOL    HW115788   0.434   3.308   3.697 -0.0177  0.5419  1.6604
 1384SOL    HW215789   0.548   3.310   3.791  0.7728  1.5603 -0.2640
 1385SOL     OW15790   4.589   0.336   6.306  0.0203  0.1949  0.0633
 1385SOL    HW115791   4.573   0.259   6.251 -1.9624  0.4743  0.2221
 1385SOL    HW215792   4.604   0.300   6.394 -0.4626 -0.7219 -0.2217
 1386SOL     OW15793   2.873   0.820   9.426 -0.1050 -0.1907 -0.4309
 1386SOL    HW115794   2.873   0.901   9.375 -0.9804 -0.6755 -1.1963
 1386SOL    HW215795   2.949   0.827   9.484 -0.5366  2.6311 -0.1939
 1387SOL     OW15796   3.927   1.789  15.529  0.5032  0.3319  0.1420
 1387SOL    HW115797   3.997   1.851  15.547 -0.2586  1.1095  0.4047
 1387SOL    HW215798   3.878   1.787  15.611 -2.1240  1.6749 -1.4141
 1388SOL     OW15799   3.998   0.085   9.716  0.0478  0.0888 -0.3691
 1388SOL    HW115800   3.966   0.165   9.758 -0.8750 -0.1970 -0.5318
 1388SOL    HW215801   4.089   0.109   9.700 -0.4297  3.2190  1.7232
 1389SOL     OW15802   1.872   0.354   7.386  0.5233 -0.4901 -0.7927
 1389SOL    HW115803   1.818   0.311   7.453 -0.5532 -0.6885 -1.7995
 1389SOL    HW215804   1.958   0.336   7.425  1.2505 -1.1060 -2.6727
 1390SOL     OW15805   1.653   1.025   8.838 -0.2966  0.6022 -0.1616
 1390SOL    HW115806   1.643   0.985   8.751 -3.4794 -0.5668  0.7461
 1390SOL    HW215807   1.642   1.115   8.809 -3.0486  0.4414  0.4135
 1391SOL     OW15808   3.424   4.133   1.735 -0.0757  0.3554  0.2604
 1391SOL    HW115809   3.450   4.067   1.672  0.2102  1.6976 -1.0273
 1391SOL    HW215810   3.509   4.149   1.776 -0.3646 -0.1025  1.0413
 1392SOL     OW15811   3.940   3.700   7.172 -0.0983 -0.1739 -0.0830
 1392SOL    HW115812   3.975   3.770   7.116 -3.5487  0.9307 -0.8986
 1392SOL    HW215813   4.001   3.716   7.244  0.4413  0.6138 -0.7083
 1393SOL     OW15814   1.561   3.376  13.117 -0.1033  0.0911 -0.5770
 1393SOL    HW115815   1.619   3.351  13.045  0.4128  0.8435 -0.4163
 1393SOL    HW215816   1.505   3.298  13.119  0.1070 -0.0306  0.4924
 1394SOL     OW15817   2.653   0.936  14.693  0.2904 -0.4273 -0.6745
 1394SOL    HW115818   2.647   0.995  14.768 -0.4076 -1.5378  0.1494
 1394SOL    HW215819   2.563   0.927  14.661 -0.2679 -2.8508  1.6673
 1395SOL     OW15820   1.045   2.765   5.937  0.5191  0.0662  0.6166
 1395SOL    HW115821   1.019   2.756   5.845 -1.4642 -2.4735  1.4531
 1395SOL    HW215822   0.965   2.774   5.989  1.6659  0.9579  2.1965
 1396SOL     OW15823   4.329   4.468  14.342 -0.1170  0.1696 -0.2955
 1396SOL    HW115824   4.373   4.455  14.258  0.1823  0.6136 -0.2035
 1396SOL    HW215825   4.391   4.420  14.397 -1.4921 -1.4380 -0.1434
 1397SOL     OW15826   4.142   1.157   3.850 -0.1470 -0.0958  0.0234
 1397SOL    HW115827   4.086   1.167   3.773 -0.0917  0.3792  0.0448
 1397SOL    HW215828   4.094   1.200   3.920 -0.4380  0.3967 -0.4785
 1398SOL     OW15829   4.339   3.285  13.049 -0.1144 -0.2777  0.7254
 1398SOL    HW115830   4.251   3.262  13.020 -0.1089 -0.7492  1.0740
 1398SOL    HW215831   4.321   3.352  13.114  0.7925  2.1342 -1.4987
 1399SOL     OW15832   3.302   2.339   4.324 -0.4268  0.6775  0.0087
 1399SOL    HW115833   3.358   2.263   4.341 -0.7508  0.5286  0.4030
 1399SOL    HW215834   3.222   2.317   4.371 -0.5229 -1.5104 -1.1701
 1400SOL     OW15835   3.350   4.587   2.521 -0.6185 -0.0065  0.1806
 1400SOL    HW115836   3.342   4.632   2.605 -4.0730  0.0815 -0.2090
 1400SOL    HW215837   3.337   4.493   2.536  0.4558 -0.0971  0.5337
 1401SOL     OW15838   3.777   3.897  16.956 -0.2675 -0.5812  0.3404
 1401SOL    HW115839   3.832   3.867  17.029 -2.0042 -1.3567  1.3297
 1401SOL    HW215840   3.788   3.991  16.972 -1.0534 -0.2927 -0.8595
 1402SOL     OW15841   0.773   0.746  14.434  0.0263  0.4792  0.0455
 1402SOL    HW115842   0.723   0.818  14.396  2.0288  1.3528 -0.9267
 1402SOL    HW215843   0.725   0.673  14.395  2.1872  0.0988 -1.9517
 1403SOL     OW15844   3.905   2.771   6.807 -0.7327 -0.1099  0.3071
 1403SOL    HW115845   3.966   2.740   6.741 -1.3477 -0.7088  0.0174
 1403SOL    HW215846   3.848   2.802   6.737 -0.1433  0.1110 -0.0753
 1404SOL     OW15847   1.293   3.631   7.989  0.8621 -0.1898  0.4226
 1404SOL    HW115848   1.335   3.680   7.918 -2.2989 -0.0908 -1.3904
 1404SOL    HW215849   1.228   3.589   7.932  1.4919  0.0096 -0.4542
 1405SOL     OW15850   1.672   3.859   3.224  0.4352 -1.1663 -0.0320
 1405SOL    HW115851   1.651   3.899   3.139  1.2980 -0.5840  0.0417
 1405SOL    HW215852   1.667   3.764   3.206 -2.5085 -0.9369 -0.5657
 1406SOL     OW15853   4.163   2.007   7.921  0.2272  0.1315 -0.4865
 1406SOL    HW115854   4.180   2.005   7.827 -0.3836 -0.4753 -0.5833
 1406SOL    HW215855   4.137   2.099   7.923 -1.5633 -0.3273 -3.2269
 1407SOL     OW15856   1.957   0.673   5.025  0.2792 -0.4041 -0.8376
 1407SOL    HW115857   2.041   0.698   5.063 -1.5883  1.3300  2.1879
 1407SOL    HW215858   1.950   0.580   5.050 -1.2188 -0.5876 -1.9550
 1408SOL     OW15859   3.481   0.462   4.319  0.4353 -0.7437  0.3439
 1408SOL    HW115860   3.402   0.507   4.291 -0.5458 -2.0488  1.0068
 1408SOL    HW215861   3.540   0.536   4.336 -2.6697  1.5259  1.2360
 1409SOL     OW15862   0.741   0.235   3.835 -0.2599  0.4269 -0.2899
 1409SOL    HW115863   0.775   0.319   3.805 -1.9669  0.4110 -2.2467
 1409SOL    HW215864   0.718   0.261   3.924 -0.2975  0.5940 -0.3489
 1410SOL     OW15865   2.646   3.808  16.448  0.5089  0.0617  0.0178
 1410SOL    HW115866   2.645   3.889  16.397  0.5275 -1.3252 -2.1750
 1410SOL    HW215867   2.687   3.828  16.533 -0.2497 -0.3195  0.4730
 1411SOL     OW15868   4.193   1.339   5.924 -0.0459  0.1573  0.5016
 1411SOL    HW115869   4.266   1.382   5.969 -0.2917 -0.2323  1.2704
 1411SOL    HW215870   4.137   1.416   5.933  1.3756  1.5028 -2.1368
 1412SOL     OW15871   1.151   0.576   3.410  0.3553 -0.1313 -0.2051
 1412SOL    HW115872   1.224   0.520   3.435  0.5657  0.0369 -0.4483
 1412SOL    HW215873   1.074   0.528   3.441 -0.0324  1.8036  1.8934
 1413SOL     OW15874   3.892   1.529   5.436  0.2466 -0.0772 -0.1200
 1413SOL    HW115875   3.941   1.461   5.389  0.7236 -1.6423  2.6333
 1413SOL    HW215876   3.821   1.473   5.468 -1.8663  1.1265 -2.6577
 1414SOL     OW15877   0.763   1.545  17.545  0.7166 -0.0125  0.2004
 1414SOL    HW115878   0.727   1.465  17.584 -0.1579 -1.0885 -2.8235
 1414SOL    HW215879   0.750   1.535  17.451  1.4503  0.9468 -0.0064
 1415SOL     OW15880   4.523   4.626   3.253 -0.3043  0.3905 -0.3167
 1415SOL    HW115881   4.544   4.687   3.182 -1.9852 -0.9352 -1.9315
 1415SOL    HW215882   4.456   4.568   3.217  0.7236 -0.4081 -0.9419
 1416SOL     OW15883   0.518   1.600   8.609 -0.1073  0.3050 -0.5423
 1416SOL    HW115884   0.601   1.558   8.632  0.3040  1.1546 -0.4565
 1416SOL    HW215885   0.507   1.680   8.660 -3.1066  0.1723 -1.0053
 1417SOL     OW15886   3.112   1.211   7.738  0.1015  0.1625 -0.0864
 1417SOL    HW115887   3.160   1.227   7.656 -2.9626  2.2416 -1.4913
 1417SOL    HW215888   3.081   1.121   7.726  0.4218 -0.1373  1.3509
 1418SOL     OW15889   1.408   1.666  16.636  0.1861  0.3916 -0.1040
 1418SOL    HW115890   1.493   1.641  16.600  0.3355  1.6963 -0.6572
 1418SOL    HW215891   1.356   1.655  16.556 -1.7337  3.0258  0.8039
 1419SOL     OW15892   4.376   1.514  15.223 -0.1745  0.2522 -0.7366
 1419SOL    HW115893   4.340   1.548  15.306  1.0958 -0.7195  0.2085
 1419SOL    HW215894   4.432   1.588  15.199  2.1578 -1.7252 -1.3313
 1420SOL     OW15895   4.135   3.654   4.778  0.3557 -0.0880  0.2551
 1420SOL    HW115896   4.061   3.596   4.797  0.2371 -0.2982 -0.8097
 1420SOL    HW215897   4.117   3.728   4.836 -0.1003  0.2801 -0.3610
 1421SOL     OW15898   1.896   0.569   4.728  0.4212  0.2524 -0.3523
 1421SOL    HW115899   1.807   0.549   4.699  0.2834  0.7404 -0.2769
 1421SOL    HW215900   1.875   0.593   4.818 -1.4779  3.4582 -1.6197
 1422SOL     OW15901   1.895   3.839  11.635  0.6834 -0.2224 -0.1016
 1422SOL    HW115902   1.873   3.761  11.585 -0.4182 -0.1520  0.2760
 1422SOL    HW215903   1.837   3.906  11.597 -2.2397 -3.4436 -1.2901
 1423SOL     OW15904   1.427   2.731   1.792 -0.1774 -0.1007  0.1172
 1423SOL    HW115905   1.371   2.662   1.829  0.9695 -0.6728  0.7579
 1423SOL    HW215906   1.459   2.780   1.867 -1.2824  1.5493 -0.4963
 1424SOL     OW15907   4.653   0.491   4.937  0.0036  0.0792  0.8380
 1424SOL    HW115908   4.665   0.535   5.020  0.2860  1.8484 -0.1387
 1424SOL    HW215909   4.723   0.425   4.937 -0.8976 -0.8690  2.0517
 1425SOL     OW15910   0.514   1.357   9.004  0.4720 -0.0247  0.0395
 1425SOL    HW115911   0.574   1.421   9.044 -1.1715  0.4192  1.7708
 1425SOL    HW215912   0.426   1.388   9.026  0.2660 -0.6728  0.1271
 1426SOL     OW15913   0.315   3.279   0.897  0.2486  0.4351  0.6551
 1426SOL    HW115914   0.323   3.352   0.835  0.1818 -1.4596 -1.5952
 1426SOL    HW215915   0.408   3.262   0.909 -0.1973 -1.6065  1.1610
 1427SOL     OW15916   2.535   4.379   8.237  0.4059 -0.6626 -0.5221
 1427SOL    HW115917   2.551   4.332   8.318  2.1790  0.2725 -0.3195
 1427SOL    HW215918   2.552   4.471   8.256  0.7165 -0.7115 -0.5534
 1428SOL     OW15919   0.725   2.034   1.086 -0.4861  0.4710  0.1743
 1428SOL    HW115920   0.654   1.973   1.104 -0.8288 -0.0473 -2.9093
 1428SOL    HW215921   0.685   2.111   1.128  1.3188  1.4818  0.0508
 1429SOL     OW15922   0.149   1.876   7.106  0.4011 -1.1385  0.3911
 1429SOL    HW115923   0.192   1.839   7.183  1.2805 -1.4420 -0.2521
 1429SOL    HW215924   0.057   1.866   7.132  0.2574 -1.0430 -0.0671
 1430SOL     OW15925   0.144   1.948   4.031 -0.2411 -0.3695  0.1275
 1430SOL    HW115926   0.106   1.874   3.981  0.4118 -0.7990  0.2730
 1430SOL    HW215927   0.219   1.913   4.078 -0.6096 -0.6981  0.4768
 1431SOL     OW15928   1.585   4.538   1.435  0.0663 -0.4057  0.4972
 1431SOL    HW115929   1.604   4.583   1.353  0.3640 -0.9399  0.2710
 1431SOL    HW215930   1.671   4.539   1.475  0.0544  0.5389  0.4886
 1432SOL     OW15931   2.001   0.530  14.115  0.5655 -0.7965  0.1450
 1432SOL    HW115932   1.948   0.609  14.125  0.9885 -0.3308 -1.3298
 1432SOL    HW215933   1.994   0.490  14.202 -2.7311  1.6098  0.9915
 1433SOL     OW15934   3.636   3.969   4.108  0.2530  0.1694 -0.1122
 1433SOL    HW115935   3.642   4.019   4.190 -0.2726  1.1608 -0.6707
 1433SOL    HW215936   3.703   3.901   4.111  0.7749  0.7973  2.2255
 1434SOL     OW15937   3.336   0.281   4.523 -0.1854 -0.2264 -0.1168
 1434SOL    HW115938   3.257   0.264   4.471 -0.5573  2.1240 -0.3146
 1434SOL    HW215939   3.387   0.345   4.472  0.0040  1.0732  1.7125
 1435SOL     OW15940   2.550   0.259  14.308  0.1840  0.7491 -0.0578
 1435SOL    HW115941   2.645   0.256  14.318  0.0780  1.0571  0.9752
 1435SOL    HW215942   2.515   0.202  14.376 -1.0307  3.4083  1.5435
 1436SOL     OW15943   2.557   2.963   7.119 -1.0977  0.0069  0.6035
 1436SOL    HW115944   2.553   3.030   7.050  0.2729 -0.3992  0.1372
 1436SOL    HW215945   2.578   3.003   7.204 -1.0784 -1.8819  1.4717
 1437SOL     OW15946   3.379   2.968   5.549  0.0191 -0.4208 -0.1675
 1437SOL    HW115947   3.373   3.049   5.600  1.1882 -2.1842  2.7935
 1437SOL    HW215948   3.473   2.952   5.557  0.2772  0.7128 -0.9334
 1438SOL     OW15949   1.450   0.633  15.414  0.4550  0.2836 -0.0558
 1438SOL    HW115950   1.532   0.673  15.443 -0.2229  2.0483 -0.5836
 1438SOL    HW215951   1.391   0.657  15.485  0.1394 -2.1543  0.5154
 1439SOL     OW15952   0.770   0.791   0.059  0.1668 -0.1791  0.0540
 1439SOL    HW115953   0.701   0.742   0.105  1.9457 -1.4191  1.4121
 1439SOL    HW215954   0.724   0.859   0.011  1.1710  0.1323 -0.4677
 1440SOL     OW15955   3.458   2.050   3.397 -0.0356  0.1280  0.8099
 1440SOL    HW115956   3.520   1.995   3.348  0.6521  2.6455 -1.1414
 1440SOL    HW215957   3.423   2.108   3.329  0.1973 -1.7434 -0.9110
 1441SOL     OW15958   2.369   0.882   3.572  0.0714 -0.0570 -0.1325
 1441SOL    HW115959   2.369   0.869   3.667  2.4100  1.3567  0.0577
 1441SOL    HW215960   2.440   0.830   3.535  1.9109  2.9681 -0.8528
 1442SOL     OW15961   0.075   1.722  16.823  0.3015 -0.2401 -0.1059
 1442SOL    HW115962   0.115   1.793  16.872  0.6182 -0.7529  0.3770
 1442SOL    HW215963   0.013   1.766  16.764  2.6627  0.6029 -1.9782
 1443SOL     OW15964   1.124   1.694   1.456  0.6866  0.2521 -0.2029
 1443SOL    HW115965   1.150   1.761   1.520  1.4055  1.1649 -1.4402
 1443SOL    HW215966   1.029   1.703   1.467  0.7482 -0.4334  0.9228
 1444SOL     OW15967   2.304   0.428   2.119 -0.1645 -0.2788  0.0354
 1444SOL    HW115968   2.330   0.460   2.205  0.9853  0.0188 -0.4343
 1444SOL    HW215969   2.211   0.454   2.116 -0.7210 -2.3395 -0.3885
 1445SOL     OW15970   4.426   2.725   3.840  0.1471  0.2474 -0.0643
 1445SOL    HW115971   4.447   2.710   3.748  1.3688  0.7977  0.1275
 1445SOL    HW215972   4.515   2.734   3.874  0.1226  2.0003 -0.4817
 1446SOL     OW15973   4.187   3.530   1.318  0.7040 -0.2115 -0.5319
 1446SOL    HW115974   4.140   3.452   1.289  0.3839 -0.5132  0.7962
 1446SOL    HW215975   4.243   3.500   1.390 -0.3285 -0.1139  0.3022
 1447SOL     OW15976   0.284   0.321   3.223  0.2112  0.4631 -0.0122
 1447SOL    HW115977   0.260   0.229   3.231 -0.3111  0.8059  2.3139
 1447SOL    HW215978   0.379   0.313   3.219  0.0160 -2.0123  0.5759
 1448SOL     OW15979   3.441   1.137  15.707  0.7220 -0.0976 -0.0626
 1448SOL    HW115980   3.511   1.174  15.653  1.1510  1.8588  1.8635
 1448SOL    HW215981   3.424   1.211  15.766 -2.1501 -0.8305  0.0212
 1449SOL     OW15982   0.806   3.853   6.693 -0.2761 -0.3441 -0.5747
 1449SOL    HW115983   0.720   3.866   6.732 -1.2748 -1.1607 -2.4953
 1449SOL    HW215984   0.856   3.930   6.722 -0.9119  0.5952 -1.9342
 1450SOL     OW15985   0.997   2.105   4.422  0.3114 -0.0194 -0.2564
 1450SOL    HW115986   1.021   2.197   4.429  0.3473 -0.0113 -0.4992
 1450SOL    HW215987   0.970   2.077   4.510  0.2903  0.1573 -0.2066
 1451SOL     OW15988   2.741   2.812   5.558  0.2344  0.1509  0.0876
 1451SOL    HW115989   2.661   2.803   5.611  0.0393  1.4548  0.0194
 1451SOL    HW215990   2.777   2.890   5.601  0.1460 -0.6078  1.5616
 1452SOL     OW15991   2.215   2.027  12.075  0.2397  0.2566  0.4045
 1452SOL    HW115992   2.277   1.967  12.034 -1.0817 -1.2984  0.6968
 1452SOL    HW215993   2.177   2.081  12.006 -0.5528  0.6200  1.1292
 1453SOL     OW15994   4.729   4.207  11.418 -0.1003 -0.4231 -0.2557
 1453SOL    HW115995   0.075   4.208  11.370  0.1622  0.7807  0.2238
 1453SOL    HW215996   0.003   4.134  11.480  1.2705  0.3584  0.4349
 1454SOL     OW15997   2.845   1.705  11.704  0.4458 -0.2316 -0.1985
 1454SOL    HW115998   2.924   1.733  11.657  0.8900  0.7701  1.1427
 1454SOL    HW215999   2.847   1.757  11.784 -3.0398 -0.7424  0.2078
 1455SOL     OW16000   1.062   0.772   8.853 -0.6387  0.8309 -0.6858
 1455SOL    HW116001   1.000   0.709   8.817 -1.4793  0.8632  0.7148
 1455SOL    HW216002   1.002   0.838   8.887 -1.8911 -0.3174 -0.7088
 1456SOL     OW16003   0.191   1.326  13.213 -0.1913 -0.2586  0.5208
 1456SOL    HW116004   0.263   1.337  13.151 -2.1865 -1.5333 -2.0551
 1456SOL    HW216005   0.135   1.269  13.161 -0.5160 -0.0834  0.6783
 1457SOL     OW16006   1.995   2.157   5.468  0.2418  0.3093  0.4741
 1457SOL    HW116007   1.981   2.178   5.375 -0.2109 -0.5569  0.3408
 1457SOL    HW216008   2.070   2.212   5.489  1.5299 -1.5277  0.5970
 1458SOL     OW16009   4.076   3.015   1.277  0.2027  0.3763 -0.4996
 1458SOL    HW116010   3.993   3.044   1.316  0.1472  1.6255 -1.5555
 1458SOL    HW216011   4.109   2.949   1.337  2.4942  0.2182 -1.9732
 1459SOL     OW16012   0.659   0.241  16.137 -1.0412 -0.2015 -0.8381
 1459SOL    HW116013   0.572   0.205  16.151 -1.4484  0.9416 -0.4425
 1459SOL    HW216014   0.650   0.329  16.173 -1.4749 -0.7582  0.4353
 1460SOL     OW16015   3.446   2.296  15.442 -0.2270  0.8447 -0.3090
 1460SOL    HW116016   3.360   2.254  15.436 -0.2036  0.9121 -1.2462
 1460SOL    HW216017   3.486   2.278  15.356 -2.0062 -0.6993 -0.8096
 1461SOL     OW16018   2.431   1.332   4.884 -0.2584 -0.4369 -0.0661
 1461SOL    HW116019   2.348   1.313   4.927 -0.2816 -0.2214 -0.0163
 1461SOL    HW216020   2.405   1.332   4.792  0.4165 -0.5655 -0.2569
 1462SOL     OW16021   3.669   3.050   6.228  0.1921 -0.0127  0.4903
 1462SOL    HW116022   3.579   3.084   6.226 -0.1183 -0.8631 -0.2367
 1462SOL    HW216023   3.658   2.956   6.242 -3.1384  0.3108 -0.0016
 1463SOL     OW16024   2.018   3.296   3.629 -0.1850  0.1990 -0.3712
 1463SOL    HW116025   2.100   3.268   3.587 -0.3789 -1.7154  0.5293
 1463SOL    HW216026   2.020   3.254   3.714  2.4284  2.5009  0.7004
 1464SOL     OW16027   1.470   4.467   2.570 -0.1283  0.1634  0.2859
 1464SOL    HW116028   1.423   4.526   2.511  0.6916 -0.4575 -0.9842
 1464SOL    HW216029   1.551   4.456   2.521 -1.3604 -1.4259 -1.3997
 1465SOL     OW16030   4.104   3.929   9.590  0.3172 -0.2971 -0.0341
 1465SOL    HW116031   4.069   3.864   9.651 -3.7085  0.3508 -1.6047
 1465SOL    HW216032   4.198   3.920   9.605  0.2632 -1.5067 -0.4292
 1466SOL     OW16033   1.673   0.268  17.320 -0.7412  0.0721 -0.3929
 1466SOL    HW116034   1.596   0.322  17.339 -0.6154  0.2075 -0.2705
 1466SOL    HW216035   1.731   0.325  17.270 -1.0215  0.0756 -0.7128
 1467SOL     OW16036   0.621   0.598   0.188 -0.3020 -0.0346 -0.1364
 1467SOL    HW116037   0.624   0.510   0.225 -0.4832 -0.7277 -1.8220
 1467SOL    HW216038   0.527   0.596   0.176 -0.3284  0.8740 -0.1014
 1468SOL     OW16039   1.790   0.711   0.223 -0.0625  0.0363  0.5229
 1468SOL    HW116040   1.764   0.694   0.132 -0.2742 -0.1004  0.6100
 1468SOL    HW216041   1.717   0.666   0.265 -1.6061 -0.7347 -2.9853
 1469SOL     OW16042   0.085   4.092   2.945 -0.4771  0.1341  0.3012
 1469SOL    HW116043   0.130   4.007   2.944  1.0456  0.9399  1.0635
 1469SOL    HW216044   0.142   4.157   2.905  0.8036 -1.0539  0.1742
 1470SOL     OW16045   4.610   4.602  13.517  0.6134 -0.1263 -0.3907
 1470SOL    HW116046   4.537   4.661  13.538  0.1266 -0.7719 -0.2860
 1470SOL    HW216047   4.626   4.576  13.608  0.2810  2.5039  0.4364
 1471SOL     OW16048   3.788   4.043  15.965 -0.0653 -0.4476 -0.3763
 1471SOL    HW116049   3.787   4.112  16.032 -0.4733 -2.5571  1.8066
 1471SOL    HW216050   3.703   4.063  15.924 -0.0580 -1.0690 -0.6849
 1472SOL     OW16051   0.182   3.897   8.675  0.3148  0.2606  0.0850
 1472SOL    HW116052   0.218   3.810   8.695 -0.3268  0.4133  1.8846
 1472SOL    HW216053   0.106   3.896   8.732  1.9791 -0.2494  2.2968
 1473SOL     OW16054   3.158   2.055   2.374  0.1079  0.3406  0.9718
 1473SOL    HW116055   3.198   1.994   2.436  0.6029 -0.9147 -0.5834
 1473SOL    HW216056   3.067   2.040   2.400 -0.2656  1.1134  0.1378
 1474SOL     OW16057   2.651   4.101  16.722  0.0767 -0.1024 -0.0823
 1474SOL    HW116058   2.586   4.125  16.789  1.5942  3.7698  0.0062
 1474SOL    HW216059   2.729   4.120  16.774 -0.0520  0.6501 -0.1549
 1475SOL     OW16060   4.517   4.113   8.353  0.1074 -0.5019  0.1667
 1475SOL    HW116061   4.550   4.148   8.436  0.2962 -3.4946  1.3708
 1475SOL    HW216062   4.437   4.076   8.391  0.1313 -0.4670  0.2504
 1476SOL     OW16063   1.798   0.380   5.927 -0.2996  0.1832 -0.2826
 1476SOL    HW116064   1.823   0.294   5.961 -1.2224  0.0752  0.1313
 1476SOL    HW216065   1.762   0.416   6.008  0.1188  0.1459 -0.0792
 1477SOL     OW16066   0.350   3.721   2.618 -0.8997 -0.1621 -0.1031
 1477SOL    HW116067   0.270   3.737   2.569 -0.5876  2.3704  0.1805
 1477SOL    HW216068   0.409   3.670   2.562 -0.0785  0.5427  0.1194
 1478SOL     OW16069   3.177   4.283   4.707  0.3076  0.0372 -0.0219
 1478SOL    HW116070   3.160   4.236   4.625  0.3581  0.8011 -0.4713
 1478SOL    HW216071   3.133   4.222   4.766  1.2579 -0.8613 -0.2319
 1479SOL     OW16072   2.886   4.054   1.983 -0.1995 -0.0592  0.7590
 1479SOL    HW116073   2.948   4.025   1.917  0.0770  0.3556  0.8388
 1479SOL    HW216074   2.854   4.134   1.941  1.5079  0.2263  0.0020
 1480SOL     OW16075   0.330   2.429   3.549  0.7114 -0.1383  0.2906
 1480SOL    HW116076   0.311   2.397   3.637  1.1591  0.8804  0.7456
 1480SOL    HW216077   0.402   2.488   3.569  1.8343 -0.2674 -3.3503
 1481SOL     OW16078   3.377   4.698   6.497  0.5600 -0.1337 -0.0171
 1481SOL    HW116079   3.397   4.645   6.575 -2.2612 -0.2519  0.6497
 1481SOL    HW216080   3.332   4.630   6.447 -1.6227  0.9984  0.4147
 1482SOL     OW16081   0.873   3.841  10.593 -0.2751  0.2044 -0.3651
 1482SOL    HW116082   0.874   3.928  10.554 -1.8161 -0.0534 -0.9966
 1482SOL    HW216083   0.800   3.796  10.551 -0.7473  1.1789 -0.5840
 1483SOL     OW16084   4.302   3.832   6.390 -0.0722  0.2792  0.8109
 1483SOL    HW116085   4.344   3.754   6.355 -0.5656  0.6781 -0.6780
 1483SOL    HW216086   4.317   3.889   6.315 -1.3535 -0.9197 -0.3671
 1484SOL     OW16087   4.091   3.544   6.528  0.7902 -0.6848  0.3047
 1484SOL    HW116088   4.114   3.487   6.455  0.4434 -1.5105  0.8284
 1484SOL    HW216089   4.170   3.547   6.583  0.8688  0.3974  0.1341
 1485SOL     OW16090   0.650   2.330   2.539  0.3911 -0.3228  0.0539
 1485SOL    HW116091   0.558   2.356   2.535  0.9159  1.2148 -2.0855
 1485SOL    HW216092   0.631   2.239   2.563  0.6022  0.4252  3.0707
 1486SOL     OW16093   2.972   2.693   2.183 -0.0467  0.0338  0.4152
 1486SOL    HW116094   2.994   2.615   2.133 -0.6656 -0.1333  0.3945
 1486SOL    HW216095   2.945   2.754   2.114  0.4669 -0.7121 -0.4462
 1487SOL     OW16096   0.427   2.656   0.115 -0.5439  0.2393 -0.8704
 1487SOL    HW116097   0.415   2.569   0.153 -0.9993  0.3782 -0.7001
 1487SOL    HW216098   0.445   2.634   0.023 -0.3875 -0.4445 -0.6779
 1488SOL     OW16099   3.999   2.855   4.317  0.3481 -0.2160  0.0463
 1488SOL    HW116100   3.913   2.867   4.357 -0.5322  0.9681 -2.1815
 1488SOL    HW216101   3.994   2.768   4.278  0.8301  0.0815 -0.6702
 1489SOL     OW16102   0.403   4.265  17.577  0.0342 -0.1175  0.4287
 1489SOL    HW116103   0.489   4.223  17.572  0.5524  1.2349 -1.9619
 1489SOL    HW216104   0.421   4.359  17.568  1.2510 -0.4023 -0.1592
 1490SOL     OW16105   3.267   3.627  16.527  0.5258  0.3269  0.3492
 1490SOL    HW116106   3.319   3.563  16.478 -1.8091 -0.6118 -0.9057
 1490SOL    HW216107   3.198   3.568  16.556  1.0570 -0.3335  0.2509
 1491SOL     OW16108   2.764   2.933   4.088  0.1220  0.2428  0.1447
 1491SOL    HW116109   2.759   2.993   4.013  1.0509  0.8687  0.5821
 1491SOL    HW216110   2.769   2.990   4.165  2.5554  1.6254 -1.0358
 1492SOL     OW16111   0.532   3.103   6.154 -0.0464  0.4424  0.1568
 1492SOL    HW116112   0.585   3.167   6.106 -0.8975  0.3612 -0.8906
 1492SOL    HW216113   0.449   3.150   6.163 -0.5410 -0.8544  2.2399
 1493SOL     OW16114   0.888   4.333  13.694  0.8585  0.1128 -0.0093
 1493SOL    HW116115   0.936   4.321  13.612  1.3496 -0.8211  0.4198
 1493SOL    HW216116   0.965   4.353  13.748  0.0269  2.7067  0.2511
 1494SOL     OW16117   1.822   0.515  11.412 -0.0244 -0.1479 -0.6429
 1494SOL    HW116118   1.858   0.590  11.459 -1.7133  0.7536 -0.7811
 1494SOL    HW216119   1.872   0.530  11.332  0.7632  0.0956 -0.1040
 1495SOL     OW16120   1.110   2.107   1.575 -0.4958 -0.4247  0.4918
 1495SOL    HW116121   1.096   2.187   1.626  0.4629 -0.3151  0.5831
 1495SOL    HW216122   1.205   2.100   1.573 -0.3692  0.8844  2.0828
 1496SOL     OW16123   4.097   0.932  14.055  0.5015  0.0213 -0.6634
 1496SOL    HW116124   4.171   0.872  14.066  0.1943 -0.7777 -2.9445
 1496SOL    HW216125   4.121   1.002  14.115  3.0757 -2.3506  1.1007
 1497SOL     OW16126   2.444   3.790   8.345  0.5132 -0.0921  0.3076
 1497SOL    HW116127   2.411   3.859   8.288  1.4402  1.1209  1.2409
 1497SOL    HW216128   2.462   3.840   8.424  2.5147  1.7340 -1.2991
 1498SOL     OW16129   3.024   1.074   8.685 -0.0058  0.0510  0.5515
 1498SOL    HW116130   3.090   1.114   8.741  0.6551 -0.7805  0.3606
 1498SOL    HW216131   3.066   0.991   8.664  1.5021  0.5320  1.6819
 1499SOL     OW16132   2.738   3.545  16.361 -0.3751  0.2803 -0.0542
 1499SOL    HW116133   2.762   3.526  16.452 -1.8204 -0.5047  0.1516
 1499SOL    HW216134   2.691   3.627  16.377  0.0958  0.1317  2.1832
 1500SOL     OW16135   3.005   0.024   3.606 -0.5927  0.0812  0.3524
 1500SOL    HW116136   3.046   0.111   3.614  1.8941 -1.1905  1.5266
 1500SOL    HW216137   2.923   0.033   3.653 -1.8738  2.2427 -2.2709
 1501SOL     OW16138   1.747   4.419  14.342  0.7259 -0.4540  0.1718
 1501SOL    HW116139   1.669   4.441  14.292  1.2899  3.2983  0.9084
 1501SOL    HW216140   1.815   4.467  14.295  0.2715 -0.0588 -0.0901
 1502SOL     OW16141   0.945   1.021  12.691 -0.0365 -0.5195  0.2374
 1502SOL    HW116142   1.040   1.029  12.701  0.0260 -0.9212 -0.0144
 1502SOL    HW216143   0.922   1.113  12.702 -1.1047 -0.7947  0.3028
 1503SOL     OW16144   3.931   2.216  11.350  0.1662 -0.0420  0.0247
 1503SOL    HW116145   3.911   2.309  11.358 -0.4726 -0.3255  1.9416
 1503SOL    HW216146   4.004   2.215  11.413 -1.2622 -0.5500  1.6793
 1504SOL     OW16147   4.624   1.756   4.200  0.5235 -0.0332  0.0125
 1504SOL    HW116148   4.654   1.704   4.126 -1.4099 -1.3760  0.1508
 1504SOL    HW216149   4.691   1.742   4.267  2.7287  2.3912 -1.7409
 1505SOL     OW16150   0.739   4.482   4.049  0.0957 -0.4247  0.6122
 1505SOL    HW116151   0.786   4.426   4.111 -0.9173 -1.4753  0.4413
 1505SOL    HW216152   0.691   4.420   3.994  1.2364 -2.5716  2.0152
 1506SOL     OW16153   0.551   3.158  14.646 -0.0945 -0.2178 -0.2246
 1506SOL    HW116154   0.539   3.138  14.739 -0.8087  1.7541  0.1182
 1506SOL    HW216155   0.561   3.253  14.636  0.8304 -0.0832  2.0707
 1507SOL     OW16156   0.340   2.778   3.727 -0.2464 -0.5773  0.1323
 1507SOL    HW116157   0.306   2.744   3.810  0.8902 -3.2818 -0.5045
 1507SOL    HW216158   0.382   2.860   3.752  1.4790 -1.3635 -0.2311
 1508SOL     OW16159   2.811   0.055   5.928  0.2605  0.0219  0.0871
 1508SOL    HW116160   2.866   4.724   5.890  0.0259  0.4077 -0.9260
 1508SOL    HW216161   2.794   0.023   6.017  0.0980  3.7044  1.4017
 1509SOL     OW16162   1.027   0.782  10.520  0.1064 -0.1193  0.8118
 1509SOL    HW116163   1.104   0.740  10.557 -0.4483 -1.8547 -0.0358
 1509SOL    HW216164   1.048   0.875  10.527 -0.3035  0.1375 -1.1893
 1510SOL     OW16165   2.161   3.188   1.180 -0.2647 -0.1585  0.4424
 1510SOL    HW116166   2.228   3.120   1.186 -1.0385 -0.9670 -0.1112
 1510SOL    HW216167   2.107   3.146   1.113  0.8649  1.1039 -1.2682
 1511SOL     OW16168   2.053   1.535  15.841  0.0926  0.3810  0.2024
 1511SOL    HW116169   1.987   1.603  15.831 -0.3120  0.2762  2.1694
 1511SOL    HW216170   2.134   1.583  15.858  1.0307 -0.9642 -0.4353
 1512SOL     OW16171   1.200   0.244  11.156  0.5501  0.4957  0.1697
 1512SOL    HW116172   1.131   0.181  11.177  2.1550 -0.4119  2.8151
 1512SOL    HW216173   1.229   0.204  11.074 -1.7279 -0.3439 -0.2144
 1513SOL     OW16174   3.593   0.661   4.470  0.3537 -0.5934 -0.0301
 1513SOL    HW116175   3.682   0.694   4.464 -1.1136  3.3471  0.0426
 1513SOL    HW216176   3.537   0.735   4.447  0.4650 -0.9139 -1.3150
 1514SOL     OW16177   1.787   3.584   8.243 -0.3897  0.3929  0.4156
 1514SOL    HW116178   1.747   3.662   8.205 -1.4276 -0.5583 -0.4437
 1514SOL    HW216179   1.870   3.616   8.277 -1.5274  0.4739  3.1911
 1515SOL     OW16180   0.508   0.444   8.232  0.1182  0.7062 -0.2558
 1515SOL    HW116181   0.438   0.393   8.273  0.7749 -0.6251 -0.7885
 1515SOL    HW216182   0.559   0.472   8.308  1.3545 -0.1264 -0.7964
 1516SOL     OW16183   0.137   4.246   6.454 -0.2261  0.2214 -0.1012
 1516SOL    HW116184   0.163   4.248   6.362  1.8762 -0.9285  0.4628
 1516SOL    HW216185   0.066   4.182   6.454  0.1252 -0.1701 -0.0843
 1517SOL     OW16186   2.367   3.642   5.174 -0.0132  0.5108 -0.1191
 1517SOL    HW116187   2.361   3.737   5.174  2.5267  0.6781 -2.9098
 1517SOL    HW216188   2.446   3.632   5.227 -0.8510  0.5278  1.1465
 1518SOL     OW16189   3.444   0.831   7.971  0.0216 -0.1077 -0.1882
 1518SOL    HW116190   3.461   0.738   7.984  0.5476 -0.0232 -0.2483
 1518SOL    HW216191   3.534   0.857   7.947 -0.1328  1.0018  0.4307
 1519SOL     OW16192   2.623   1.491  17.682  0.1279  0.0872 -0.1920
 1519SOL    HW116193   2.647   1.548  17.608  0.7744 -0.3113 -0.2955
 1519SOL    HW216194   2.625   1.406  17.638 -0.0910 -0.0387  0.0478
 1520SOL     OW16195   1.155   1.073   0.356  0.3443  0.0110 -0.1264
 1520SOL    HW116196   1.115   1.108   0.276  0.2714 -1.0148 -0.5496
 1520SOL    HW216197   1.246   1.065   0.327  1.3165 -0.0931  3.0482
 1521SOL     OW16198   3.462   2.309   3.023 -0.1067  0.0136  0.4730
 1521SOL    HW116199   3.557   2.316   3.029  0.0352 -2.4676  1.1857
 1521SOL    HW216200   3.447   2.250   2.949  0.1723  0.7209 -0.1438
 1522SOL     OW16201   1.284   3.083  13.898  0.8062  0.8376  0.1701
 1522SOL    HW116202   1.251   2.999  13.930 -0.4799  1.0656 -0.5501
 1522SOL    HW216203   1.204   3.131  13.921  1.0031  1.1909  0.1260
 1523SOL     OW16204   3.038   1.164   5.364 -0.3704 -0.1488  0.0264
 1523SOL    HW116205   2.976   1.115   5.310 -0.9130 -0.0226  0.5301
 1523SOL    HW216206   3.095   1.088   5.377 -0.1832 -0.2271 -1.2554
 1524SOL     OW16207   4.327   3.085   4.695 -0.1275 -0.5387 -0.5516
 1524SOL    HW116208   4.273   3.125   4.627  0.4015  0.3284 -0.4518
 1524SOL    HW216209   4.316   2.995   4.664 -1.6535 -0.3036 -0.6544
 1525SOL     OW16210   1.247   0.519   6.790 -0.0485  0.5880  0.1115
 1525SOL    HW116211   1.307   0.586   6.756 -1.6932  2.0708  0.1084
 1525SOL    HW216212   1.217   0.469   6.714 -0.6043  0.8822  0.1378
 1526SOL     OW16213   2.866   0.199   6.968 -0.2053 -0.1948 -0.1029
 1526SOL    HW116214   2.941   0.174   6.914 -0.1659  0.5378 -0.3879
 1526SOL    HW216215   2.884   0.167   7.056 -1.8515  1.7380  0.9521
 1527SOL     OW16216   2.073   4.631   2.015  0.3987  0.2210 -0.7037
 1527SOL    HW116217   2.061   4.587   2.099  0.1163 -0.3127 -1.0215
 1527SOL    HW216218   2.159   4.672   2.012  0.8069 -0.7624 -2.6503
 1528SOL     OW16219   2.109   0.083   3.385 -0.6679 -0.1871 -0.0173
 1528SOL    HW116220   2.147   0.031   3.456  1.3301 -0.7674 -1.5042
 1528SOL    HW216221   2.111   0.020   3.313 -2.8009  0.3162 -0.5150
 1529SOL     OW16222   0.745   3.839   4.802  0.4133 -0.3960  0.1916
 1529SOL    HW116223   0.727   3.759   4.851  1.6344  0.9571  2.8986
 1529SOL    HW216224   0.681   3.843   4.731  1.0260 -1.8223 -0.4345
 1530SOL     OW16225   2.478   0.460   9.373 -0.0152  0.0777  0.0020
 1530SOL    HW116226   2.499   0.379   9.327 -1.5956 -0.0437 -0.5226
 1530SOL    HW216227   2.564   0.471   9.413 -1.2204 -1.3850  2.9569
 1531SOL     OW16228   2.051   1.016   1.829 -0.2351 -0.6359 -0.4520
 1531SOL    HW116229   2.097   1.071   1.893 -2.0082  1.8656 -1.3137
 1531SOL    HW216230   1.960   1.041   1.843 -1.2309 -3.5821 -1.8117
 1532SOL     OW16231   3.160   1.441   1.637 -0.0717 -0.4330  0.4166
 1532SOL    HW116232   3.239   1.414   1.683  0.9045 -0.2230 -1.1319
 1532SOL    HW216233   3.096   1.398   1.693  0.9532 -2.8049 -0.2434
 1533SOL     OW16234   2.754   0.571  11.999  0.4277  0.0096  0.9890
 1533SOL    HW116235   2.776   0.661  12.020  1.5987 -0.3090  1.1180
 1533SOL    HW216236   2.794   0.558  11.913  2.2099  2.1102  1.5039
 1534SOL     OW16237   3.305   3.391  16.014  0.0861  0.3213 -0.3736
 1534SOL    HW116238   3.330   3.322  16.075  0.9314  0.2852 -0.7723
 1534SOL    HW216239   3.209   3.392  16.021  0.0413  1.6761 -1.1031
 1535SOL     OW16240   0.043   4.736  15.510 -0.2809 -0.2014  0.0308
 1535SOL    HW116241   0.025   4.716  15.418  2.2754  0.4196 -0.6116
 1535SOL    HW216242   0.139   4.732  15.509 -0.2533  0.6017 -1.9417
 1536SOL     OW16243   4.276   4.343  15.312  0.1923  0.4410 -0.1218
 1536SOL    HW116244   4.339   4.413  15.292  0.0772  1.1018  1.8535
 1536SOL    HW216245   4.292   4.325  15.405  0.7287  0.1023 -0.2792
 1537SOL     OW16246   0.330   1.988   2.614 -0.0922 -0.3560  0.4956
 1537SOL    HW116247   0.235   1.993   2.617 -0.0286  1.2726  0.0348
 1537SOL    HW216248   0.352   1.996   2.707  0.8930 -1.1572  0.3352
 1538SOL     OW16249   4.078   1.698   0.431 -0.1162 -0.4557 -0.4293
 1538SOL    HW116250   3.996   1.686   0.479 -0.3527 -1.2621 -1.0391
 1538SOL    HW216251   4.059   1.654   0.348 -2.2780  0.2435 -0.3165
 1539SOL     OW16252   3.957   4.712   6.708 -0.2702  0.0871  0.0061
 1539SOL    HW116253   3.957   4.616   6.710  1.9654  0.1196  1.0029
 1539SOL    HW216254   3.974   4.733   6.800  0.8500 -1.5173  0.1696
 1540SOL     OW16255   1.950   4.368   6.928 -0.7249 -0.1327  0.4511
 1540SOL    HW116256   2.002   4.303   6.975  2.8016  0.5620 -2.5090
 1540SOL    HW216257   1.894   4.396   7.000 -1.2463 -1.3813  0.5164
 1541SOL     OW16258   3.611   0.031   7.652  0.1365  0.0412 -0.3245
 1541SOL    HW116259   3.693   0.073   7.677  1.1354 -0.1372 -3.3722
 1541SOL    HW216260   3.561   0.113   7.644  1.9300  0.9238 -2.3162
 1542SOL     OW16261   1.050   1.155   6.042 -0.5158 -0.0056 -0.3404
 1542SOL    HW116262   1.003   1.106   6.110 -0.5539  0.8880  0.2841
 1542SOL    HW216263   1.110   1.204   6.099 -0.2601 -1.2446  0.4696
 1543SOL     OW16264   2.408   3.834   1.510  0.4591 -0.0119 -0.6953
 1543SOL    HW116265   2.361   3.869   1.435 -2.6621  0.2783  1.3881
 1543SOL    HW216266   2.356   3.755   1.525  0.2764  0.0272 -1.1202
 1544SOL     OW16267   3.484   2.871  11.028 -0.3733 -0.1942  0.1360
 1544SOL    HW116268   3.464   2.819  10.950 -0.0981  1.7708 -1.2689
 1544SOL    HW216269   3.435   2.949  11.000  0.7727 -0.0191 -1.3761
 1545SOL     OW16270   0.996   0.973  11.527  0.6268  0.1668 -0.7065
 1545SOL    HW116271   1.050   1.028  11.583  0.1515 -1.4029  1.2720
 1545SOL    HW216272   0.951   0.929  11.599  0.2794 -0.1350 -1.1052
 1546SOL     OW16273   4.082   2.905   4.605 -0.1852 -0.2333 -0.0253
 1546SOL    HW116274   3.997   2.864   4.586  0.0309 -1.4581  1.6961
 1546SOL    HW216275   4.134   2.882   4.528  0.2125 -0.7369  0.3959
 1547SOL     OW16276   0.281   3.085   1.490 -0.3408  0.0588  0.2790
 1547SOL    HW116277   0.217   3.024   1.525 -0.8061  1.2025  1.4282
 1547SOL    HW216278   0.220   3.152   1.459 -1.8184 -1.3820  0.1098
 1548SOL     OW16279   0.474   2.190   6.456 -0.2087 -0.2478 -0.6477
 1548SOL    HW116280   0.491   2.126   6.525  0.3937 -1.0342 -1.5366
 1548SOL    HW216281   0.552   2.176   6.403 -0.3076  0.3244 -0.9454
 1549SOL     OW16282   2.965   2.829   6.639  0.2065 -0.4021 -0.6812
 1549SOL    HW116283   2.912   2.831   6.718  1.3838 -0.4693  0.1081
 1549SOL    HW216284   3.016   2.750   6.658  0.4748 -0.1034 -0.1619
 1550SOL     OW16285   4.224   0.703   3.101 -0.2842  0.0282 -0.3979
 1550SOL    HW116286   4.250   0.666   3.185 -1.4312  2.6303  1.0918
 1550SOL    HW216287   4.134   0.723   3.127  0.3060  3.0766 -0.7145
 1551SOL     OW16288   0.651   3.747   6.463  0.2397  0.4349  0.2399
 1551SOL    HW116289   0.686   3.668   6.422 -0.0830  0.0161  0.7649
 1551SOL    HW216290   0.721   3.768   6.525  0.9277 -0.0906 -0.3503
 1552SOL     OW16291   1.242   1.466  17.553 -0.0868 -0.1146  0.2928
 1552SOL    HW116292   1.285   1.509  17.479 -1.0818  0.5406  0.0922
 1552SOL    HW216293   1.246   1.379  17.514  1.3667 -0.8431  2.0749
 1553SOL     OW16294   2.760   3.556  16.648  0.6391  0.3468 -0.3615
 1553SOL    HW116295   2.753   3.642  16.690  0.9898 -0.2960  0.9961
 1553SOL    HW216296   2.667   3.544  16.631  0.0790  1.3565  1.9703
 1554SOL     OW16297   0.648   0.339   5.660 -0.1834 -0.3128  0.0705
 1554SOL    HW116298   0.579   0.357   5.723 -0.6129  1.9643 -1.0659
 1554SOL    HW216299   0.656   0.425   5.619  2.8986  0.0299  1.3473
 1555SOL     OW16300   4.673   4.540   7.535 -0.1751 -0.0946  0.7913
 1555SOL    HW116301   4.616   4.465   7.550  0.1656 -0.4966  0.0544
 1555SOL    HW216302   4.654   4.545   7.441 -1.0535 -2.6331  0.8461
 1556SOL     OW16303   1.095   4.162   2.196 -0.2069  0.4909  0.5026
 1556SOL    HW116304   1.118   4.248   2.161  1.9115 -0.2591  0.0554
 1556SOL    HW216305   1.173   4.115   2.166 -0.5153 -1.4919  2.8308
 1557SOL     OW16306   2.909   1.655   4.422  0.1133 -0.2588 -0.2880
 1557SOL    HW116307   2.877   1.737   4.460  1.4452 -0.1941  0.6697
 1557SOL    HW216308   2.846   1.647   4.350 -0.7521 -1.6595  0.6353
 1558SOL     OW16309   2.395   4.066   5.511 -0.6242  0.4378  0.2980
 1558SOL    HW116310   2.387   3.971   5.511  0.1149  0.3840 -3.5105
 1558SOL    HW216311   2.351   4.082   5.595  1.6886  1.9322  1.2409
 1559SOL     OW16312   1.146   0.130   3.337  0.3703  0.1151  0.2237
 1559SOL    HW116313   1.147   0.037   3.311 -0.5551  0.1242  0.1446
 1559SOL    HW216314   1.082   0.129   3.409  0.9382 -2.6881  0.7240
 1560SOL     OW16315   3.755   0.944  17.266  0.4381 -0.1665 -0.0477
 1560SOL    HW116316   3.750   0.882  17.338  3.7635 -0.5114 -0.1034
 1560SOL    HW216317   3.800   1.018  17.306  0.5804  0.7147 -1.8201
 1561SOL     OW16318   2.785   3.901  14.742 -0.1885 -0.1361  0.0179
 1561SOL    HW116319   2.846   3.965  14.706 -0.2879  2.0308  3.7293
 1561SOL    HW216320   2.782   3.939  14.830  2.1184  0.8241 -0.3282
 1562SOL     OW16321   2.871   0.079  14.064  0.0010  0.0531  0.1749
 1562SOL    HW116322   2.820   0.004  14.034 -1.0587  1.4629 -1.4925
 1562SOL    HW216323   2.957   0.039  14.078  1.6063  2.8655 -1.8526
 1563SOL     OW16324   0.375   2.324   2.556 -0.2995 -0.0716  0.4477
 1563SOL    HW116325   0.383   2.230   2.571  0.4646  0.0310  0.6936
 1563SOL    HW216326   0.310   2.332   2.487  0.1765 -0.6129 -0.0592
 1564SOL     OW16327   2.068   0.622   5.588 -0.5367  0.9559  0.2168
 1564SOL    HW116328   1.992   0.645   5.535 -0.1002  1.5223 -0.1664
 1564SOL    HW216329   2.048   0.536   5.623  0.8642  0.9588  1.0378
 1565SOL     OW16330   2.551   2.657  17.110 -0.0210  0.2215  0.4945
 1565SOL    HW116331   2.621   2.646  17.174 -0.6615 -1.8054  0.8483
 1565SOL    HW216332   2.523   2.568  17.088 -2.4841  1.1414 -0.1648
 1566SOL     OW16333   2.739   1.973   5.588 -0.1873 -0.3225 -0.7202
 1566SOL    HW116334   2.744   1.922   5.507  0.2295  2.1854 -2.2787
 1566SOL    HW216335   2.700   2.055   5.560  0.6151  0.3444  0.1008
 1567SOL     OW16336   2.573   0.764   9.502  0.2970  0.0600  0.2709
 1567SOL    HW116337   2.553   0.734   9.591  2.8005  0.2746  0.8865
 1567SOL    HW216338   2.658   0.726   9.480 -0.7741 -1.2840 -1.6307
 1568SOL     OW16339   2.359   1.561   6.059  0.4342 -0.0830  0.1469
 1568SOL    HW116340   2.406   1.548   6.141 -1.9923 -3.0536  1.0365
 1568SOL    HW216341   2.276   1.602   6.081  1.0150 -0.3074  2.6698
 1569SOL     OW16342   1.112   4.347   4.291  0.6444  0.0716  0.2503
 1569SOL    HW116343   1.201   4.375   4.313 -0.3953  0.7874  3.5065
 1569SOL    HW216344   1.086   4.306   4.373  0.0090  1.0142  0.5155
 1570SOL     OW16345   4.672   3.123   5.584 -0.0355  0.7045 -0.2027
 1570SOL    HW116346   4.706   3.050   5.636 -1.7717  1.1536  1.5481
 1570SOL    HW216347   4.588   3.128   5.629 -0.5652  0.7512 -1.1885
 1571SOL     OW16348   4.227   3.696   4.540 -0.4494 -0.0409 -0.1650
 1571SOL    HW116349   4.148   3.729   4.497  2.8539  3.5595 -3.3620
 1571SOL    HW216350   4.203   3.683   4.632 -0.0183 -0.8044 -0.1578
 1572SOL     OW16351   3.484   2.011   7.029 -0.5603 -0.0666  0.3546
 1572SOL    HW116352   3.442   1.965   6.956 -0.1130 -0.3470  0.2754
 1572SOL    HW216353   3.456   1.956   7.102  0.8054 -0.8320  0.3061
 1573SOL     OW16354   3.282   2.767   4.700  0.2544 -0.0960  0.5892
 1573SOL    HW116355   3.244   2.854   4.687 -2.8005 -1.4829  0.1227
 1573SOL    HW216356   3.213   2.718   4.656  0.3430  0.9129 -0.6827
 1574SOL     OW16357   0.264   3.345   7.952 -0.3727  0.0822  0.0399
 1574SOL    HW116358   0.242   3.436   7.968  2.4900  1.1141 -1.8255
 1574SOL    HW216359   0.360   3.352   7.955 -0.3256  0.9247 -3.5193
 1575SOL     OW16360   1.316   0.578   5.907  0.2254  0.5923  0.0350
 1575SOL    HW116361   1.348   0.497   5.945  0.8108  1.4904  1.4495
 1575SOL    HW216362   1.229   0.582   5.948  1.1322  0.6001  1.9659
 1576SOL     OW16363   3.880   3.499   1.469 -0.4560  0.0765  0.4191
 1576SOL    HW116364   3.921   3.475   1.386 -1.2615 -2.0899  0.6373
 1576SOL    HW216365   3.843   3.414   1.493  2.1621 -1.6785 -1.7456
 1577SOL     OW16366   0.318   3.036   7.456  0.0464 -0.3357 -0.4930
 1577SOL    HW116367   0.329   2.958   7.510  0.7041  0.4627  0.5338
 1577SOL    HW216368   0.363   3.102   7.510 -1.6287  0.1266  0.3490
 1578SOL     OW16369   0.345   3.092   9.036 -0.4264  0.0943  0.3145
 1578SOL    HW116370   0.317   3.179   9.064  2.2562  1.7771 -2.1899
 1578SOL    HW216371   0.303   3.091   8.950  0.2830 -0.1717 -0.0334
 1579SOL     OW16372   4.181   0.617   7.910  0.1477  0.2386  0.2503
 1579SOL    HW116373   4.276   0.622   7.906  0.0350  1.1319 -1.2041
 1579SOL    HW216374   4.180   0.552   7.840 -0.7922 -2.3429  2.6745
 1580SOL     OW16375   4.087   3.898   9.187 -0.2134  0.7606  1.1755
 1580SOL    HW116376   4.124   3.939   9.109 -0.2850  0.1661  0.8307
 1580SOL    HW216377   4.027   3.966   9.218 -1.0760 -0.2172  1.6292
 1581SOL     OW16378   4.153   3.231   4.544 -0.4316  0.3351 -0.3422
 1581SOL    HW116379   4.200   3.314   4.530 -2.4294  1.1621 -2.1308
 1581SOL    HW216380   4.119   3.215   4.456 -2.0752 -0.9265  0.5333
 1582SOL     OW16381   2.797   2.966   6.424 -0.9068 -0.1644  0.0821
 1582SOL    HW116382   2.864   2.999   6.363 -1.9259  0.7056 -0.5521
 1582SOL    HW216383   2.853   2.915   6.483 -2.3354 -0.6335  1.0104
 1583SOL     OW16384   2.333   1.726  13.741 -0.7682 -0.2913  0.0122
 1583SOL    HW116385   2.392   1.757  13.809 -3.0898  1.7908  1.0964
 1583SOL    HW216386   2.368   1.640  13.720  1.3509  0.7913 -0.8944
 1584SOL     OW16387   4.469   3.465   5.550 -0.1513 -0.0212  0.1749
 1584SOL    HW116388   4.473   3.561   5.548  2.8161 -0.1079  1.3684
 1584SOL    HW216389   4.559   3.436   5.532 -0.9332 -1.4943 -1.3680
 1585SOL     OW16390   0.932   0.493   4.325  0.2361  0.4764 -0.0283
 1585SOL    HW116391   0.919   0.401   4.301 -0.7449  0.8163 -0.8132
 1585SOL    HW216392   0.849   0.533   4.297  0.0797 -0.6487 -1.1657
 1586SOL     OW16393   1.527   1.296  10.076  0.3870 -0.0469  0.0312
 1586SOL    HW116394   1.468   1.341  10.138  2.1452  0.0941  1.5994
 1586SOL    HW216395   1.588   1.267  10.144 -0.5473  1.8560  1.7091
 1587SOL     OW16396   2.647   4.167   9.325  0.4150 -0.0002 -0.0467
 1587SOL    HW116397   2.669   4.143   9.415  0.6593 -0.6690 -0.2824
 1587SOL    HW216398   2.552   4.182   9.332  0.1120 -1.7538 -0.2729
 1588SOL     OW16399   3.039   3.246   5.966  0.4017  0.5446 -0.0593
 1588SOL    HW116400   2.953   3.266   6.003  0.5154  2.8967 -1.0170
 1588SOL    HW216401   3.015   3.159   5.936  2.9315 -1.0183  2.4998
 1589SOL     OW16402   3.565   4.110   7.237  0.7346 -0.8072  0.5835
 1589SOL    HW116403   3.630   4.105   7.167 -2.2226  1.7036 -2.3326
 1589SOL    HW216404   3.611   4.146   7.313 -0.5630  0.9347  0.5476
 1590SOL     OW16405   4.389   4.143   6.784  0.4900 -0.0871 -0.4459
 1590SOL    HW116406   4.438   4.176   6.709 -1.1646 -0.5732 -1.7415
 1590SOL    HW216407   4.328   4.083   6.741  2.3983 -1.4810 -1.2365
 1591SOL     OW16408   1.406   3.990   4.255  0.1324 -0.4034  0.3734
 1591SOL    HW116409   1.365   3.998   4.341  0.3784 -1.3636  0.5827
 1591SOL    HW216410   1.351   3.921   4.218  1.7255 -0.9703 -0.9409
 1592SOL     OW16411   4.055   0.612  10.629  0.3363  0.0129  0.0633
 1592SOL    HW116412   3.961   0.593  10.624  0.2808  0.6875 -1.2666
 1592SOL    HW216413   4.075   0.585  10.719  0.0412  0.4484  0.2620
 1593SOL     OW16414   1.902   1.808   6.715  0.4270  0.0079  0.1768
 1593SOL    HW116415   1.855   1.890   6.701  1.5618  0.5933 -0.1860
 1593SOL    HW216416   1.917   1.807   6.809 -0.9782  0.5298  0.4069
 1594SOL     OW16417   3.213   4.426   0.109  0.5294  0.3876 -0.0113
 1594SOL    HW116418   3.274   4.440   0.037  0.3756 -2.5817 -0.7196
 1594SOL    HW216419   3.191   4.513   0.142  0.9164 -0.0161  1.2871
 1595SOL     OW16420   2.477   2.368   0.873 -0.0099  0.3492  0.0960
 1595SOL    HW116421   2.568   2.345   0.852 -0.0957  0.1067 -0.0080
 1595SOL    HW216422   2.440   2.372   0.785  1.6252  2.4948 -0.5080
 1596SOL     OW16423   2.545   2.210   7.458 -0.3129 -0.0717  0.0465
 1596SOL    HW116424   2.607   2.283   7.451 -1.4393  0.7229 -1.7531
 1596SOL    HW216425   2.466   2.251   7.494  0.4946  0.6492  1.0053
 1597SOL     OW16426   2.874   3.074   0.870 -0.2070 -0.1799  0.0929
 1597SOL    HW116427   2.912   3.121   0.944 -1.4774 -0.3760  0.8711
 1597SOL    HW216428   2.842   2.995   0.914 -0.5782 -0.6695 -1.0433
 1598SOL     OW16429   3.747   1.178   4.356  0.1547 -0.1892 -0.4725
 1598SOL    HW116430   3.824   1.235   4.351 -0.3455  0.5556  0.3298
 1598SOL    HW216431   3.767   1.127   4.277  2.4602  1.5650 -1.0253
 1599SOL     OW16432   1.558   3.953   7.597 -0.1812 -0.2229 -0.0307
 1599SOL    HW116433   1.646   3.992   7.604 -1.1363  2.0893 -0.7851
 1599SOL    HW216434   1.574   3.880   7.537 -1.4212  0.6854 -1.4766
 1600SOL     OW16435   3.813   0.965   5.857  0.3692  0.0889 -0.4060
 1600SOL    HW116436   3.791   0.952   5.765 -0.8504  1.1788 -0.2724
 1600SOL    HW216437   3.845   1.055   5.844 -0.6606  0.3491 -1.1340
 1601SOL     OW16438   4.351   2.137   1.910 -0.1531 -0.4140  0.2687
 1601SOL    HW116439   4.402   2.060   1.935  0.7007  0.4028  1.0821
 1601SOL    HW216440   4.409   2.157   1.837 -3.5586  1.2654 -1.9800
 1602SOL     OW16441   1.720   3.185   7.838 -0.1997 -0.2083 -0.1806
 1602SOL    HW116442   1.717   3.280   7.854 -0.9207 -0.3574  0.5914
 1602SOL    HW216443   1.642   3.159   7.887  1.1453 -0.5269  1.7843
 1603SOL     OW16444   2.439   1.443  14.095  0.4448  0.6575 -0.6650
 1603SOL    HW116445   2.467   1.364  14.141 -0.2704  1.0681  0.4815
 1603SOL    HW216446   2.371   1.398  14.044 -1.4737  1.0175  1.5945
 1604SOL     OW16447   1.825   2.464   2.211 -0.4418  0.0501  0.0390
 1604SOL    HW116448   1.895   2.405   2.185  0.2078 -0.3302  2.5869
 1604SOL    HW216449   1.846   2.544   2.163  1.2726 -0.1709  0.4194
 1605SOL     OW16450   0.256   0.029   4.727 -0.4018 -0.2166  0.4045
 1605SOL    HW116451   0.201   0.004   4.801 -0.2599  0.0849  0.6139
 1605SOL    HW216452   0.201   0.099   4.692 -1.1198 -1.0093 -0.0254
 1606SOL     OW16453   1.565   0.079   4.384  0.2042  0.2161 -0.8996
 1606SOL    HW116454   1.553   0.022   4.460 -1.2246 -0.0366 -1.3164
 1606SOL    HW216455   1.593   0.165   4.415  1.8800 -0.1157 -1.4362
 1607SOL     OW16456   3.809   0.948   1.566  0.2823  0.1010 -0.7940
 1607SOL    HW116457   3.862   0.980   1.639 -0.9022 -0.4372  0.2944
 1607SOL    HW216458   3.869   0.884   1.527  0.5562 -1.1463  1.6848
 1608SOL     OW16459   4.070   0.212   7.680 -0.4298  0.1741  0.0816
 1608SOL    HW116460   4.098   0.283   7.738 -1.6268  2.2252 -1.8891
 1608SOL    HW216461   4.154   0.175   7.651 -1.1586 -1.9717  0.7181
 1609SOL     OW16462   1.412   4.508   6.158 -0.2194 -0.1906  0.0128
 1609SOL    HW116463   1.491   4.506   6.212 -0.3843 -0.6834  0.2277
 1609SOL    HW216464   1.353   4.436   6.182  4.0317 -3.9268 -0.9045
 1610SOL     OW16465   3.570   4.648   9.479  0.0293  0.3633  0.7559
 1610SOL    HW116466   3.642   4.662   9.540  0.3445 -0.3848  0.5614
 1610SOL    HW216467   3.520   4.586   9.532  2.5370 -0.0853  2.5637
 1611SOL     OW16468   2.001   3.150   1.406 -0.4752 -0.1049  0.3016
 1611SOL    HW116469   1.910   3.151   1.378  0.2194 -3.0449 -2.0965
 1611SOL    HW216470   2.051   3.148   1.324 -0.7359  1.7586  0.1080
 1612SOL     OW16471   2.254   0.522   9.066 -0.6995  0.1428 -0.5034
 1612SOL    HW116472   2.321   0.457   9.089  0.2253  0.6306 -1.8556
 1612SOL    HW216473   2.190   0.510   9.136  0.6523  1.8135  1.0057
 1613SOL     OW16474   1.915   4.261   6.196  0.1347 -0.6317 -0.0110
 1613SOL    HW116475   1.868   4.331   6.150 -1.5488 -1.3902  0.5389
 1613SOL    HW216476   1.860   4.186   6.174  0.0807 -0.4791 -0.3959
 1614SOL     OW16477   0.308   1.658  15.159 -0.5224  0.5046 -0.7186
 1614SOL    HW116478   0.386   1.665  15.215 -0.5496 -0.5792 -0.5564
 1614SOL    HW216479   0.313   1.567  15.131  2.3684 -0.2651  2.1689
 1615SOL     OW16480   0.006   0.012   4.038  0.2671  0.4176 -0.1736
 1615SOL    HW116481   0.075   0.076   4.054  0.6399  0.7363 -3.0130
 1615SOL    HW216482   0.028   4.683   4.105  0.0300  1.1443  0.6139
 1616SOL     OW16483   2.192   1.998   4.794  0.4160  0.2319  0.2668
 1616SOL    HW116484   2.103   2.033   4.788 -0.1655 -1.4602 -1.0482
 1616SOL    HW216485   2.232   2.075   4.753  2.5503 -1.1384 -0.2482
 1617SOL     OW16486   2.732   0.070   4.563  0.3005  0.0170 -0.3884
 1617SOL    HW116487   2.782   0.025   4.630 -2.5291 -1.7764  0.5252
 1617SOL    HW216488   2.647   0.046   4.601  0.6625  1.1649  1.1456
 1618SOL     OW16489   0.471   2.092   1.426  0.1437 -0.3929  0.5199
 1618SOL    HW116490   0.406   2.076   1.495  1.7108 -0.2882  2.0236
 1618SOL    HW216491   0.429   2.166   1.381 -1.1529 -0.3483  1.7696
 1619SOL     OW16492   3.217   4.321   5.578 -0.2793 -0.1139  0.0556
 1619SOL    HW116493   3.300   4.349   5.539 -0.2110  0.3881  0.5458
 1619SOL    HW216494   3.153   4.385   5.546  1.9885  2.0281 -0.2319
 1620SOL     OW16495   0.350   3.677   6.999  0.0667  0.5529 -0.5385
 1620SOL    HW116496   0.388   3.605   6.949 -0.0080  0.0247  0.1640
 1620SOL    HW216497   0.262   3.645   7.016  0.7172 -0.1829  1.4729
 1621SOL     OW16498   4.007   2.420  11.098 -0.7266 -0.1820 -0.1421
 1621SOL    HW116499   3.965   2.433  11.183 -1.3893 -0.8117 -0.3749
 1621SOL    HW216500   4.076   2.355  11.108  0.3484  0.7781 -1.4462
 1622SOL     OW16501   4.236   0.058   4.289  0.2019 -0.4632  0.1942
 1622SOL    HW116502   4.156   0.029   4.334 -0.6238  2.9509  0.8913
 1622SOL    HW216503   4.313   0.021   4.334  0.2281 -0.2293  0.3418
 1623SOL     OW16504   2.612   0.909  17.403  0.5621 -0.5129 -0.2859
 1623SOL    HW116505   2.569   0.992  17.424 -1.2008 -1.2561 -0.9727
 1623SOL    HW216506   2.576   0.895  17.316 -0.0965 -2.1017  0.2330
 1624SOL     OW16507   2.417   0.554  13.819 -0.2452 -0.4364  0.5421
 1624SOL    HW116508   2.473   0.548  13.896 -0.3123 -3.3239  0.3785
 1624SOL    HW216509   2.462   0.506  13.749  1.2863  1.7107  0.0811
 1625SOL     OW16510   2.235   3.315   4.244  0.6013  0.1464  0.2641
 1625SOL    HW116511   2.306   3.376   4.223  1.3655  0.2651  3.1200
 1625SOL    HW216512   2.154   3.365   4.246  0.5327  0.0871 -0.8952
 1626SOL     OW16513   4.062   3.454   5.087 -0.7538 -0.5792 -0.9603
 1626SOL    HW116514   3.994   3.409   5.036 -1.1368 -0.4176 -0.5887
 1626SOL    HW216515   4.113   3.380   5.121  2.2412  1.8476 -0.1864
 1627SOL     OW16516   0.713   1.812   8.962  0.2871 -0.1024  0.1921
 1627SOL    HW116517   0.687   1.821   9.053  0.4105  0.6494  0.1505
 1627SOL    HW216518   0.727   1.902   8.933  1.5883  0.6140  3.0363
 1628SOL     OW16519   4.661   0.147   1.667 -0.0818  1.0249 -0.3028
 1628SOL    HW116520   4.665   0.190   1.582  4.0899  0.5645 -0.3386
 1628SOL    HW216521   0.002   0.093   1.651 -1.1400 -0.7524  0.5375
 1629SOL     OW16522   3.808   2.084   3.930  0.4860 -0.2865  0.3709
 1629SOL    HW116523   3.872   2.101   3.861 -0.9184  2.4342 -0.2545
 1629SOL    HW216524   3.772   2.169   3.954  2.3063  0.3991  0.6604
 1630SOL     OW16525   3.721   3.547   9.166 -0.1097  0.4842 -0.0792
 1630SOL    HW116526   3.808   3.586   9.163  0.1194  0.0144  0.4559
 1630SOL    HW216527   3.695   3.574   9.255  0.5412  0.3267  0.1562
 1631SOL     OW16528   4.201   1.309   2.892 -0.2473  0.7303  0.3567
 1631SOL    HW116529   4.165   1.318   2.804  1.4103 -0.0835 -0.4138
 1631SOL    HW216530   4.269   1.377   2.890 -1.1635  1.5785 -1.3824
 1632SOL     OW16531   4.076   3.385  13.646 -0.1092  0.4808  0.4874
 1632SOL    HW116532   4.037   3.299  13.662  1.0585 -0.2698 -0.6994
 1632SOL    HW216533   4.068   3.429  13.731  0.6808 -0.3388  0.9808
 1633SOL     OW16534   1.557   3.181   5.983  0.1683 -0.2424  0.5103
 1633SOL    HW116535   1.481   3.221   6.024 -0.8400 -0.4931 -1.1029
 1633SOL    HW216536   1.580   3.243   5.914 -2.0373  0.6550  0.6048
 1634SOL     OW16537   4.113   4.007   0.087 -0.8496 -0.3191 -0.0613
 1634SOL    HW116538   4.144   4.053   0.009  2.9135  0.7609  2.0356
 1634SOL    HW216539   4.128   3.914   0.071 -3.5726 -0.3987 -2.0958
 1635SOL     OW16540   2.101   3.883   1.854 -0.1605  0.2913  0.2120
 1635SOL    HW116541   2.150   3.820   1.906 -1.3310 -0.4032  0.4816
 1635SOL    HW216542   2.149   3.962   1.880 -1.3583  0.8165  0.8333
 1636SOL     OW16543   2.556   2.966  12.474 -0.7409 -0.0895 -0.6965
 1636SOL    HW116544   2.582   3.058  12.462  0.0470 -0.1558  0.4344
 1636SOL    HW216545   2.467   2.971  12.440 -0.6576  1.1640 -0.7393
 1637SOL     OW16546   1.044   3.446   3.807 -0.0531 -0.0523  0.0816
 1637SOL    HW116547   1.038   3.531   3.763 -1.4659 -0.9492 -1.4498
 1637SOL    HW216548   1.023   3.387   3.735 -1.3661 -0.1129  0.5299
 1638SOL     OW16549   1.935   3.488  16.779  0.1525  0.0180 -0.1518
 1638SOL    HW116550   1.841   3.473  16.791  0.1909  2.7747  3.3894
 1638SOL    HW216551   1.943   3.567  16.725 -1.4303 -0.1652 -0.6654
 1639SOL     OW16552   0.983   0.056   2.603 -0.3082  0.2102 -0.2570
 1639SOL    HW116553   0.906   4.735   2.594 -0.8704  0.8963  0.1979
 1639SOL    HW216554   1.037   4.730   2.651  1.8951  1.4287 -1.1491
 1640SOL     OW16555   1.310   3.353  15.281  0.5472 -0.2323  0.0681
 1640SOL    HW116556   1.341   3.429  15.329  1.3949  0.5529 -1.6998
 1640SOL    HW216557   1.216   3.370  15.270  1.2495  2.5836 -1.4272
 1641SOL     OW16558   0.249   0.278   7.220  0.4121  0.3962 -0.2509
 1641SOL    HW116559   0.225   0.358   7.267  2.0074  0.0978  1.0997
 1641SOL    HW216560   0.345   0.278   7.212  0.5922 -0.0089  1.8739
 1642SOL     OW16561   0.975   0.098  11.198  1.1691 -0.1278  0.2212
 1642SOL    HW116562   0.949   0.053  11.117  1.8431 -0.8243  0.3926
 1642SOL    HW216563   0.895   0.098  11.250  1.6385  0.9393  0.9361
 1643SOL     OW16564   2.847   2.315   8.534 -0.3100  0.7276  0.2149
 1643SOL    HW116565   2.756   2.285   8.543  0.3749 -1.1312  0.9804
 1643SOL    HW216566   2.872   2.329   8.625  2.4771 -2.7282 -0.0078
 1644SOL     OW16567   4.637   2.856  10.360 -0.6064 -0.4574 -0.3950
 1644SOL    HW116568   4.699   2.784  10.376 -2.0244 -1.8755 -1.2831
 1644SOL    HW216569   4.692   2.927  10.327  0.5182 -0.9492  0.4151
 1645SOL     OW16570   2.338   4.463   6.947 -0.4185 -0.1575 -0.4778
 1645SOL    HW116571   2.271   4.454   7.015 -0.4278 -1.5601 -0.6539
 1645SOL    HW216572   2.412   4.487   7.002  0.3751 -1.8839 -0.7947
 1646SOL     OW16573   1.221   0.118  11.894 -0.3103  0.2616  0.4912
 1646SOL    HW116574   1.167   0.070  11.957 -1.6620  1.2763  0.1097
 1646SOL    HW216575   1.172   0.104  11.813 -2.4251  0.9061  1.6678
 1647SOL     OW16576   1.455   1.688   4.800 -0.1634 -0.2118  0.8488
 1647SOL    HW116577   1.472   1.691   4.895  3.5868  1.4972  0.0979
 1647SOL    HW216578   1.503   1.608   4.778 -0.9150  0.2840 -2.5221
 1648SOL     OW16579   0.584   3.974  13.464  0.1657  0.3207 -0.3036
 1648SOL    HW116580   0.532   3.988  13.543 -0.9082  1.3487 -1.1889
 1648SOL    HW216581   0.611   4.064  13.447  0.1624  0.4430  0.3600
 1649SOL     OW16582   2.303   3.278   8.089 -0.0616 -0.7064  0.0572
 1649SOL    HW116583   2.212   3.306   8.096 -0.0991  0.1257 -3.6158
 1649SOL    HW216584   2.343   3.350   8.138  0.2071 -1.7289  1.3510
 1650SOL     OW16585   2.452   2.437  14.268  0.0897 -0.0026  0.2831
 1650SOL    HW116586   2.457   2.530  14.244 -0.4029  0.0215  0.2700
 1650SOL    HW216587   2.537   2.427  14.310  0.7042  3.5779 -0.1042
 1651SOL     OW16588   0.949   0.241   5.817  0.4552 -0.1275 -0.1252
 1651SOL    HW116589   0.894   0.169   5.785 -2.1059  0.3032  3.2306
 1651SOL    HW216590   0.918   0.236   5.908 -0.8907  1.4519 -0.5114
 1652SOL     OW16591   0.742   2.032   3.725 -0.0577 -0.0830  0.0706
 1652SOL    HW116592   0.786   1.992   3.800  2.6045  1.3023 -0.7674
 1652SOL    HW216593   0.782   1.981   3.654 -1.3448  0.4410 -1.0336
 1653SOL     OW16594   0.613   3.214   0.013 -0.4585 -0.1557  0.4160
 1653SOL    HW116595   0.636   3.230   0.104 -1.4389  0.0483  0.6262
 1653SOL    HW216596   0.630   3.120   0.000  0.8555  0.3746 -1.8759
 1654SOL     OW16597   0.302   0.459  17.610 -0.1391 -0.0254 -0.0205
 1654SOL    HW116598   0.359   0.383  17.608 -2.0873 -1.4590 -1.5044
 1654SOL    HW216599   0.360   0.526  17.575 -0.8269 -0.1273 -1.3856
 1655SOL     OW16600   3.040   1.573   6.970  0.4147 -0.0722  0.0424
 1655SOL    HW116601   2.988   1.498   6.998 -1.9653  1.0949 -1.2709
 1655SOL    HW216602   2.995   1.638   7.024  1.2793 -0.9269  1.7780
 1656SOL     OW16603   2.862   1.331   9.311 -0.0245  0.9282 -0.7266
 1656SOL    HW116604   2.870   1.400   9.377  0.4775  0.3449 -0.1635
 1656SOL    HW216605   2.798   1.363   9.248 -0.3965 -0.5297 -1.0781
 1657SOL     OW16606   1.249   3.445   2.322 -0.6285 -0.2927  0.2512
 1657SOL    HW116607   1.272   3.382   2.254  0.7591  0.5223 -0.0222
 1657SOL    HW216608   1.172   3.485   2.283 -0.3727  0.9388  1.0062
 1658SOL     OW16609   1.295   1.995   7.893 -0.4311  0.9771  0.8159
 1658SOL    HW116610   1.289   1.987   7.988 -2.0850 -0.3553  0.6027
 1658SOL    HW216611   1.375   2.044   7.878 -0.8584  0.6493 -2.4436
 1659SOL     OW16612   0.519   4.646  13.886 -0.1849  0.1132  0.2530
 1659SOL    HW116613   0.468   4.724  13.908 -0.7345 -0.4284  0.9154
 1659SOL    HW216614   0.609   4.672  13.904  0.4321 -2.4096  0.8090
 1660SOL     OW16615   4.549   4.567   2.723  0.4938  0.5005  0.7004
 1660SOL    HW116616   4.455   4.568   2.706  0.8957 -1.1734 -1.5938
 1660SOL    HW216617   4.583   4.564   2.633 -0.7593  1.5664  0.2108
 1661SOL     OW16618   3.369   4.615  11.268 -0.1730  0.4170  0.0562
 1661SOL    HW116619   3.388   4.635  11.360 -0.3941 -1.0729  0.4145
 1661SOL    HW216620   3.275   4.604  11.277  0.2919 -0.7848  3.3372
 1662SOL     OW16621   0.267   2.700   1.782  0.9394  0.0719 -0.2369
 1662SOL    HW116622   0.173   2.716   1.771  0.3775 -1.9016  1.5660
 1662SOL    HW216623   0.293   2.791   1.786 -1.9198  0.8083  1.8294
 1663SOL     OW16624   1.421   0.380  11.326  0.1613  0.4544 -0.1092
 1663SOL    HW116625   1.473   0.365  11.248  0.9382  0.3322  0.4369
 1663SOL    HW216626   1.345   0.328  11.298  0.6078  0.4365 -1.2704
 1664SOL     OW16627   3.319   1.019   8.715  0.2130  0.3980 -0.1765
 1664SOL    HW116628   3.297   1.060   8.631  0.1027  0.4937 -0.1021
 1664SOL    HW216629   3.407   1.050   8.736  0.6101  0.1125 -1.4361
 1665SOL     OW16630   1.981   3.253  15.175  0.4045  0.4115 -0.4776
 1665SOL    HW116631   1.929   3.304  15.113  2.3863 -0.7852 -3.1137
 1665SOL    HW216632   1.910   3.200  15.212 -0.5933  2.6040  0.7387
 1666SOL     OW16633   0.735   0.807  14.049 -0.0423  0.0108  0.2981
 1666SOL    HW116634   0.713   0.882  14.106 -0.3434  0.7828 -0.8319
 1666SOL    HW216635   0.767   0.737  14.105 -3.0392 -1.1394  0.5636
 1667SOL     OW16636   3.986   1.687  15.183  0.3354  0.3876  0.2978
 1667SOL    HW116637   4.052   1.620  15.162 -0.6516  0.0046 -1.5506
 1667SOL    HW216638   4.043   1.755  15.218  0.6058 -0.4373  1.4561
 1668SOL     OW16639   3.732   3.436   0.529  0.1291  0.0157  0.6696
 1668SOL    HW116640   3.820   3.398   0.528  0.9049  1.8118  1.1921
 1668SOL    HW216641   3.673   3.362   0.543  2.1173 -1.3577  1.7773
 1669SOL     OW16642   2.834   1.362   4.438 -0.2061  0.4104 -0.1498
 1669SOL    HW116643   2.743   1.366   4.411  0.0467  1.5215 -0.8399
 1669SOL    HW216644   2.841   1.446   4.482 -3.4651  0.3183  0.4755
 1670SOL     OW16645   4.248   3.641   2.880 -0.0934 -0.3485 -0.0859
 1670SOL    HW116646   4.196   3.712   2.841 -0.4638 -0.3606  0.3784
 1670SOL    HW216647   4.284   3.593   2.806 -1.2942 -0.9466 -0.2771
 1671SOL     OW16648   1.791   1.940   7.595 -0.5819 -0.7186 -0.1916
 1671SOL    HW116649   1.815   2.033   7.589  2.1689 -1.4046  0.1844
 1671SOL    HW216650   1.784   1.935   7.690  3.2409  0.1222  0.1679
 1672SOL     OW16651   2.915   4.000  15.208 -0.3927 -0.6001 -0.7294
 1672SOL    HW116652   2.997   4.049  15.202 -2.3008  2.3401 -2.7082
 1672SOL    HW216653   2.946   3.946  15.281 -2.2159 -0.7368 -0.0466
 1673SOL     OW16654   4.189   1.982   9.120 -0.2610  0.2845 -0.6585
 1673SOL    HW116655   4.223   2.043   9.054  0.4119  0.1768 -0.4111
 1673SOL    HW216656   4.097   2.007   9.109 -0.2798 -0.3755 -1.9390
 1674SOL     OW16657   3.451   2.461   2.506  0.1106  0.1836  0.5401
 1674SOL    HW116658   3.363   2.458   2.544  0.0160  1.2042  0.3797
 1674SOL    HW216659   3.482   2.374   2.533  0.1739  0.2013  0.5248
 1675SOL     OW16660   0.796   4.330   7.355  0.0528 -0.1259 -0.2545
 1675SOL    HW116661   0.879   4.284   7.340 -0.3162 -0.2302 -2.0407
 1675SOL    HW216662   0.827   4.415   7.386 -1.1792  0.0555  0.4485
 1676SOL     OW16663   0.713   0.442  12.627  0.4004  0.3314  0.3276
 1676SOL    HW116664   0.768   0.369  12.656  0.4154 -0.3259 -1.3753
 1676SOL    HW216665   0.777   0.513  12.626  2.1695 -1.2462  0.1712
 1677SOL     OW16666   0.957   2.976   3.299 -0.3154 -0.5161  0.2544
 1677SOL    HW116667   0.946   2.892   3.254  1.2535 -1.0027  0.7947
 1677SOL    HW216668   0.956   3.030   3.220  1.9204 -0.4402  0.2745
 1678SOL     OW16669   1.544   1.209   2.326  0.4929 -0.1183 -0.3883
 1678SOL    HW116670   1.566   1.269   2.397 -1.4643 -0.5997  0.6254
 1678SOL    HW216671   1.450   1.192   2.336  1.0720 -1.2062  2.9503
 1679SOL     OW16672   0.220   0.277   0.504  0.4381  0.2477 -0.1674
 1679SOL    HW116673   0.144   0.248   0.453  1.3554  0.4981 -1.6710
 1679SOL    HW216674   0.183   0.365   0.516 -0.5824 -0.1280 -0.4961
 1680SOL     OW16675   1.186   3.131   2.534 -0.1700 -0.1936 -0.2956
 1680SOL    HW116676   1.159   3.146   2.624  1.0922  1.1947 -0.1540
 1680SOL    HW216677   1.275   3.167   2.528  0.0210 -0.2350  2.2022
 1681SOL     OW16678   3.204   1.027  12.412 -0.1663  0.0696 -0.7880
 1681SOL    HW116679   3.121   1.070  12.431 -0.6259 -1.3824  0.4055
 1681SOL    HW216680   3.184   0.935  12.430  1.0634 -0.4772 -2.1389
 1682SOL     OW16681   0.113   1.093   7.204  0.4721 -0.3904  0.1691
 1682SOL    HW116682   0.146   1.014   7.162 -1.7598 -1.3786  0.2547
 1682SOL    HW216683   0.047   1.124   7.142  1.1752  0.5703 -0.1013
 1683SOL     OW16684   2.439   0.046   2.917  0.5887  0.2110 -0.0102
 1683SOL    HW116685   2.448   0.058   3.012  0.1289 -0.8210  0.1638
 1683SOL    HW216686   2.365   4.724   2.930  1.3798 -1.0057 -1.0048
 1684SOL     OW16687   1.624   0.861   2.554 -0.4560 -0.1611  0.2105
 1684SOL    HW116688   1.600   0.906   2.636 -0.5407 -0.7072  0.4858
 1684SOL    HW216689   1.635   0.775   2.596 -0.2286  0.5761  1.6762
 1685SOL     OW16690   0.504   4.310   3.631  0.1996  0.3199 -0.1601
 1685SOL    HW116691   0.547   4.328   3.547 -2.4395  1.2520 -1.3148
 1685SOL    HW216692   0.551   4.368   3.691  1.3195  0.3994 -1.1159
 1686SOL     OW16693   1.857   1.353   8.527  0.2897 -0.4892 -0.1331
 1686SOL    HW116694   1.862   1.276   8.583 -2.4886  0.3461  1.2542
 1686SOL    HW216695   1.795   1.319   8.463  1.1245  0.6445 -1.5309
 1687SOL     OW16696   3.089   2.411  13.355 -0.2842  0.1856 -0.4353
 1687SOL    HW116697   3.103   2.379  13.444  0.0852  1.1956 -0.1313
 1687SOL    HW216698   3.177   2.407  13.317  0.1918  1.6768  0.5106
 1688SOL     OW16699   4.497   4.038   7.825 -0.3827  0.1751 -0.2220
 1688SOL    HW116700   4.551   4.043   7.746 -0.7838 -1.6245 -0.6106
 1688SOL    HW216701   4.553   4.012   7.898 -0.5327  0.2955 -0.0627
 1689SOL     OW16702   3.155   2.184   3.065 -0.2660  0.0308  0.3477
 1689SOL    HW116703   3.227   2.181   3.002 -2.1962  1.7072 -1.9168
 1689SOL    HW216704   3.202   2.209   3.145 -0.7197  1.1360  0.2770
 1690SOL     OW16705   2.206   1.078   3.814 -0.1770 -0.5324 -0.1512
 1690SOL    HW116706   2.235   0.987   3.813 -1.3544 -0.9257  1.4760
 1690SOL    HW216707   2.286   1.118   3.850 -1.2371 -0.3379  1.9598
 1691SOL     OW16708   1.803   4.119   4.625 -0.1380 -0.4652 -0.2209
 1691SOL    HW116709   1.848   4.154   4.548 -0.7883  2.1712  0.6178
 1691SOL    HW216710   1.772   4.034   4.593 -1.0201 -0.2163 -0.0158
 1692SOL     OW16711   0.906   4.243  16.248 -0.8159  1.1178  0.2227
 1692SOL    HW116712   0.849   4.201  16.312  0.0370 -0.9903 -0.4284
 1692SOL    HW216713   0.978   4.276  16.302 -0.3209 -0.9306  0.7789
 1693SOL     OW16714   0.564   4.618  15.401  0.2444  0.1327 -0.5051
 1693SOL    HW116715   0.586   4.549  15.339 -3.0349  0.8916 -2.5064
 1693SOL    HW216716   0.607   4.691  15.357  0.1280  1.7806  2.0887
 1694SOL     OW16717   3.732   2.255   9.551 -0.5286  1.0030  0.2346
 1694SOL    HW116718   3.804   2.257   9.615 -1.8990  0.6047  1.7946
 1694SOL    HW216719   3.748   2.344   9.518  1.1363  1.2139  1.6234
 1695SOL     OW16720   2.239   4.057  12.238 -0.3172 -0.2556  0.3339
 1695SOL    HW116721   2.271   4.121  12.302  1.6594 -0.9397  0.0282
 1695SOL    HW216722   2.320   4.008  12.221 -0.3877 -0.3946  0.4023
 1696SOL     OW16723   1.046   0.997   6.550 -0.0845  0.1651  0.0038
 1696SOL    HW116724   1.123   1.027   6.598  1.6622 -1.0774 -2.0266
 1696SOL    HW216725   1.039   0.905   6.577  0.1980  1.0408  3.0651
 1697SOL     OW16726   0.840   0.472   2.882  0.1136 -0.0006 -0.4301
 1697SOL    HW116727   0.861   0.414   2.808 -1.0620 -1.7711  0.6300
 1697SOL    HW216728   0.917   0.530   2.887 -0.2102  0.6843 -3.1640
 1698SOL     OW16729   0.247   3.374   6.718  0.2111 -0.0371 -0.0088
 1698SOL    HW116730   0.189   3.337   6.784  1.0803 -0.0721  0.7246
 1698SOL    HW216731   0.299   3.302   6.682  2.7903  1.1442  1.3822
 1699SOL     OW16732   1.096   1.958   2.185 -0.4266 -0.3524 -0.0447
 1699SOL    HW116733   1.026   1.905   2.147 -0.2993 -0.2625 -0.4106
 1699SOL    HW216734   1.175   1.905   2.197 -1.1270 -1.6344 -1.0762
 1700SOL     OW16735   0.152   2.572  10.652  0.0074  0.2232 -0.6446
 1700SOL    HW116736   0.183   2.497  10.701 -1.0272  1.1445  1.4097
 1700SOL    HW216737   0.102   2.537  10.578  0.3927 -0.1875 -0.7057
 1701SOL     OW16738   0.537   2.122   7.067  0.4452 -0.0373  0.4507
 1701SOL    HW116739   0.445   2.141   7.049  0.6069 -0.1771 -0.4941
 1701SOL    HW216740   0.536   2.071   7.148  0.5518 -2.8619 -1.3532
 1702SOL     OW16741   1.282   4.284   7.196 -0.2435  0.1396  0.5515
 1702SOL    HW116742   1.287   4.256   7.104  1.2031  2.8826 -0.2055
 1702SOL    HW216743   1.338   4.224   7.246  1.7862  0.9919 -0.6563
 1703SOL     OW16744   1.373   3.713   6.966 -0.1004  0.1000  0.2339
 1703SOL    HW116745   1.436   3.767   6.918  2.6607 -1.5517  1.9974
 1703SOL    HW216746   1.402   3.719   7.057  0.7692  0.5348 -0.0781
 1704SOL     OW16747   4.608   1.973   1.535 -0.8407 -0.0548 -0.3142
 1704SOL    HW116748   4.551   1.917   1.483 -2.9839  0.3230  1.6044
 1704SOL    HW216749   4.694   1.935   1.516 -1.3042 -0.4298 -1.6199
 1705SOL     OW16750   2.378   4.709  15.423 -0.5942  0.1486 -0.1229
 1705SOL    HW116751   2.375   0.067  15.421  2.0651  0.2012 -1.1780
 1705SOL    HW216752   2.453   4.709  15.364  1.8911  1.7202  3.0489
 1706SOL     OW16753   1.682   1.317   3.177  0.3390 -0.0774  0.0044
 1706SOL    HW116754   1.588   1.337   3.180  0.5249  0.7671  0.2500
 1706SOL    HW216755   1.707   1.354   3.092 -0.9931  0.4839 -0.1439
 1707SOL     OW16756   4.329   2.102   3.957  0.1238 -0.2971  0.4536
 1707SOL    HW116757   4.369   2.123   3.873  0.1094 -0.4758  0.4016
 1707SOL    HW216758   4.394   2.057   4.010 -0.0683 -1.1095  0.0022
 1708SOL     OW16759   4.081   0.883   5.330 -0.5254  0.9274  0.0787
 1708SOL    HW116760   4.091   0.959   5.388 -0.4594  0.7864  0.2526
 1708SOL    HW216761   4.171   0.856   5.312 -0.4795  1.2191 -0.1199
 1709SOL     OW16762   1.629   2.385   7.807  0.3722 -0.3333  0.2295
 1709SOL    HW116763   1.680   2.463   7.829  0.9477 -0.8885  0.8881
 1709SOL    HW216764   1.551   2.410   7.758 -0.6263 -0.7294  1.5962
 1710SOL     OW16765   4.011   0.818   3.262  0.3745 -0.1425 -0.0463
 1710SOL    HW116766   4.082   0.774   3.309  0.0361 -2.2246 -1.4970
 1710SOL    HW216767   3.938   0.785   3.315 -0.4455 -2.4848 -2.6363
 1711SOL     OW16768   0.887   2.930   7.411  0.3437 -0.1444 -0.0076
 1711SOL    HW116769   0.895   2.845   7.454 -1.7505 -0.2860  0.0852
 1711SOL    HW216770   0.863   2.984   7.486  1.7574  0.1646  0.2277
 1712SOL     OW16771   1.774   1.000   9.114 -0.2479  0.0996 -0.2799
 1712SOL    HW116772   1.704   1.044   9.065  0.1456  0.7112 -0.2943
 1712SOL    HW216773   1.839   0.992   9.044 -0.7243  1.6002 -0.8921
 1713SOL     OW16774   1.495   0.028   7.055 -0.3995  0.1892 -0.5811
 1713SOL    HW116775   1.413   0.040   7.101 -1.0402 -2.9369 -0.9444
 1713SOL    HW216776   1.538   0.111   7.076 -1.2253  0.6664 -0.8201
 1714SOL     OW16777   2.913   2.722   3.979 -0.5500  0.2510 -0.6062
 1714SOL    HW116778   2.972   2.764   3.916 -1.0861  0.1515 -1.1714
 1714SOL    HW216779   2.853   2.792   4.005 -0.3201  0.4053 -0.4928
 1715SOL     OW16780   1.264   1.825   6.900  0.2190 -0.3651 -0.3792
 1715SOL    HW116781   1.256   1.730   6.888  1.0481 -0.5917  0.8541
 1715SOL    HW216782   1.352   1.832   6.938 -0.9022 -0.5546  2.2608
 1716SOL     OW16783   3.849   1.017   3.761 -0.4244  0.3506 -0.0764
 1716SOL    HW116784   3.913   1.026   3.690  3.0551 -2.7397  2.6670
 1716SOL    HW216785   3.821   1.108   3.774  0.4419  0.5282  0.5580
 1717SOL     OW16786   4.497   1.767   1.412 -0.2979 -0.4118 -0.4591
 1717SOL    HW116787   4.567   1.702   1.412 -1.3865 -1.6185  2.7379
 1717SOL    HW216788   4.459   1.759   1.324  0.0038 -1.2280 -0.5148
 1718SOL     OW16789   2.835   4.223   3.215  0.2695 -0.9106 -0.2184
 1718SOL    HW116790   2.806   4.136   3.187 -0.4829 -0.1606 -1.7474
 1718SOL    HW216791   2.753   4.258   3.249  0.5717  0.3643 -0.8426
 1719SOL     OW16792   3.864   3.493  11.580  0.1957  0.0962  0.0009
 1719SOL    HW116793   3.937   3.443  11.616 -0.3722 -1.0402 -0.4155
 1719SOL    HW216794   3.863   3.464  11.489  1.7642 -0.0820  0.0474
 1720SOL     OW16795   3.722   2.411   3.091 -0.1379 -0.6173 -0.5131
 1720SOL    HW116796   3.722   2.478   3.023  0.1872  0.9209  0.9910
 1720SOL    HW216797   3.812   2.379   3.094 -0.3860 -0.9606  3.2371
 1721SOL     OW16798   1.940   0.764   1.096  0.5794  0.2922 -0.4606
 1721SOL    HW116799   1.985   0.824   1.037 -1.6018  2.3839  0.0337
 1721SOL    HW216800   1.864   0.753   1.039  0.4346  1.5379 -0.5056
 1722SOL     OW16801   4.303   2.936   6.523 -0.5211  0.2782 -0.1564
 1722SOL    HW116802   4.209   2.928   6.537 -0.8397  1.6753 -1.5900
 1722SOL    HW216803   4.327   2.853   6.565  2.9552  0.5663 -1.5763
 1723SOL     OW16804   4.010   4.730   7.908 -0.3429 -0.3245 -0.6286
 1723SOL    HW116805   4.074   0.034   7.849 -0.1959 -1.1791 -1.0519
 1723SOL    HW216806   4.046   0.004   7.996 -1.3792 -0.6016 -0.1713
 1724SOL     OW16807   2.797   1.006   3.537  0.6897 -0.2496  0.1261
 1724SOL    HW116808   2.851   1.068   3.586  0.1710  1.6657 -1.7410
 1724SOL    HW216809   2.771   0.943   3.604 -1.5571 -0.5931 -1.0823
 1725SOL     OW16810   3.298   3.494  15.760  0.1449 -0.4670  0.0202
 1725SOL    HW116811   3.305   3.505  15.855  0.0224 -0.3436  0.0160
 1725SOL    HW216812   3.342   3.574  15.729  2.3861 -1.2670  1.1477
 1726SOL     OW16813   0.004   2.034  15.924 -0.0622 -0.4985 -0.3509
 1726SOL    HW116814   4.682   2.023  15.849 -2.6164  1.8735  1.3084
 1726SOL    HW216815   0.069   2.099  15.894  1.6025 -1.7696  0.4831
 1727SOL     OW16816   3.635   0.695  16.490  0.1486 -0.4983  0.3465
 1727SOL    HW116817   3.545   0.706  16.521 -0.4232 -0.5354 -1.3222
 1727SOL    HW216818   3.626   0.610  16.448 -0.0582  1.6720 -3.9269
 1728SOL     OW16819   2.985   4.364  16.583  0.5682 -0.8191 -0.5264
 1728SOL    HW116820   2.931   4.356  16.504 -0.5164  0.1791  0.1230
 1728SOL    HW216821   2.918   4.397  16.643  0.6996 -1.3220 -0.0974
 1729SOL     OW16822   2.989   2.805   7.690 -0.2250 -0.5713  0.0708
 1729SOL    HW116823   3.065   2.807   7.632 -1.2297 -0.0844 -1.2279
 1729SOL    HW216824   3.036   2.762   7.762  0.4068  1.1417  0.6709
 1730SOL     OW16825   3.533   3.028   7.522  0.3330 -0.0829  0.3261
 1730SOL    HW116826   3.444   3.013   7.489 -0.4530 -0.9733  2.9066
 1730SOL    HW216827   3.519   3.108   7.573  1.4203 -0.7694  1.6679
 1731SOL     OW16828   1.747   0.441   5.573 -0.0614 -0.3594  0.2602
 1731SOL    HW116829   1.772   0.362   5.523  1.6475  0.9820 -1.0176
 1731SOL    HW216830   1.715   0.399   5.653  0.1619  1.4786  1.2976
 1732SOL     OW16831   0.971   3.779   5.603 -0.1161  0.0827 -0.2342
 1732SOL    HW116832   0.955   3.849   5.540 -1.8098 -0.0864  0.0132
 1732SOL    HW216833   0.881   3.770   5.635  0.0893 -1.4407 -0.1135
 1733SOL     OW16834   3.948   1.461   7.550  0.0631 -0.6071 -0.0018
 1733SOL    HW116835   3.960   1.555   7.536 -0.7049 -0.6143 -0.7206
 1733SOL    HW216836   3.861   1.461   7.591 -0.7983 -2.5330 -1.8535
 1734SOL     OW16837   1.255   0.186   4.249 -0.4296  0.3477  0.0375
 1734SOL    HW116838   1.307   0.258   4.284 -0.1376  0.3361 -0.3694
 1734SOL    HW216839   1.322   0.147   4.193 -1.1720 -1.5881  0.4991
 1735SOL     OW16840   0.243   0.468   4.296 -0.1100 -0.1743  0.2670
 1735SOL    HW116841   0.166   0.415   4.274 -0.0247 -0.2484  0.1493
 1735SOL    HW216842   0.211   0.544   4.344 -2.1146  0.1057 -1.5328
 1736SOL     OW16843   3.532   0.836  14.965  0.6093  0.5352 -0.3550
 1736SOL    HW116844   3.490   0.883  15.037  1.1138  0.5879 -0.0960
 1736SOL    HW216845   3.578   0.766  15.011  0.3103  0.2344 -0.5122
 1737SOL     OW16846   1.451   2.102   2.121  0.1144 -0.2973  0.0686
 1737SOL    HW116847   1.511   2.040   2.163  0.1774 -1.1190 -1.2408
 1737SOL    HW216848   1.497   2.185   2.136 -1.5393  0.8038 -0.9764
 1738SOL     OW16849   1.627   1.550  17.686 -0.6469 -0.6208 -0.1244
 1738SOL    HW116850   1.586   1.629  17.722  2.0730  0.9599 -0.4337
 1738SOL    HW216851   1.559   1.487  17.708  0.0443 -0.6256  2.0353
 1739SOL     OW16852   0.708   1.659  13.342  0.0926  0.0384 -0.4511
 1739SOL    HW116853   0.798   1.689  13.327  0.1845  0.9533  2.0283
 1739SOL    HW216854   0.711   1.580  13.396 -0.0677  0.6078  0.3876
 1740SOL     OW16855   0.573   4.580   7.708  0.3243 -0.1715 -0.5886
 1740SOL    HW116856   0.590   4.517   7.777  1.4425  0.0439 -0.6785
 1740SOL    HW216857   0.517   4.640   7.757  0.1557 -0.4586 -0.4259
 1741SOL     OW16858   3.090   3.913  17.316 -0.2390 -0.3100 -0.3164
 1741SOL    HW116859   3.037   3.838  17.289  1.1750 -1.5256  0.2644
 1741SOL    HW216860   3.150   3.877  17.381  0.7478 -0.1546 -1.1242
 1742SOL     OW16861   0.746   0.543   7.224 -0.1041  0.1512 -0.1904
 1742SOL    HW116862   0.713   0.454   7.215  1.0318 -0.2097 -0.7780
 1742SOL    HW216863   0.678   0.577   7.282  1.2335 -1.1875  2.1683
 1743SOL     OW16864   4.538   1.681   0.835  0.2123  0.1091 -0.0272
 1743SOL    HW116865   4.529   1.760   0.783  1.6878 -0.2989 -0.8922
 1743SOL    HW216866   4.536   1.611   0.769  0.7578 -1.7007  1.8618
 1744SOL     OW16867   3.839   2.101  14.507 -0.4646  0.8169  0.1047
 1744SOL    HW116868   3.927   2.115  14.472 -0.4094 -1.2379 -0.5781
 1744SOL    HW216869   3.805   2.040  14.441  2.1453 -0.7483  0.2077
 1745SOL     OW16870   3.841   1.585  12.126 -0.0654  0.0133  0.8283
 1745SOL    HW116871   3.883   1.502  12.104 -1.1031 -0.5794  1.1282
 1745SOL    HW216872   3.833   1.626  12.039  1.9434 -0.7659  0.2622
 1746SOL     OW16873   2.198   3.012   3.221 -0.2536 -0.6518 -0.1888
 1746SOL    HW116874   2.266   3.017   3.154  1.8916 -2.4712  1.8697
 1746SOL    HW216875   2.239   3.036   3.303  1.1577 -1.1654 -0.7485
 1747SOL     OW16876   0.374   3.248   9.849 -0.1507  0.7632  0.5650
 1747SOL    HW116877   0.464   3.261   9.877  1.1878 -0.9365 -3.0032
 1747SOL    HW216878   0.345   3.339   9.843 -1.1430  0.1990 -2.9463
 1748SOL     OW16879   3.868   3.162  13.696 -0.5320  0.3538  0.0512
 1748SOL    HW116880   3.898   3.074  13.717 -0.1491  0.4637 -0.0469
 1748SOL    HW216881   3.814   3.136  13.622 -0.5907  0.5817  0.0113
 1749SOL     OW16882   0.679   4.181  17.508 -0.1995  0.4046 -0.0095
 1749SOL    HW116883   0.703   4.094  17.475  0.4220  1.0084 -1.1510
 1749SOL    HW216884   0.743   4.227  17.454  2.4998 -0.7361  2.2458
 1750SOL     OW16885   1.690   0.501   5.190  0.2450  0.1288  0.0905
 1750SOL    HW116886   1.680   0.594   5.169  1.7547  0.5227  1.1376
 1750SOL    HW216887   1.775   0.478   5.153  0.3490 -1.6648  1.4508
 1751SOL     OW16888   4.676   3.070  12.386 -0.2165 -0.3867  0.6369
 1751SOL    HW116889   4.661   3.088  12.478  0.8253  0.5100  0.6363
 1751SOL    HW216890   0.033   3.078  12.365 -0.7518  0.2356 -1.5115
 1752SOL     OW16891   2.832   4.117   6.335 -0.0188  0.0072 -0.1456
 1752SOL    HW116892   2.788   4.145   6.415 -3.1314 -3.8357 -0.4830
 1752SOL    HW216893   2.925   4.102   6.352 -0.0146  0.8210  0.5250
 1753SOL     OW16894   3.070   4.461   7.643 -0.1624  0.2931  0.2156
 1753SOL    HW116895   3.143   4.513   7.609 -1.4235  0.7833 -1.7253
 1753SOL    HW216896   3.104   4.450   7.732  0.0399  0.1823  0.1257
 1754SOL     OW16897   1.875   3.368   3.882 -0.7574  0.5214 -0.7188
 1754SOL    HW116898   1.917   3.443   3.840 -0.8381  0.5385 -0.7684
 1754SOL    HW216899   1.799   3.349   3.826 -1.2270 -1.7263  0.6779
 1755SOL     OW16900   1.416   1.339   1.276 -0.2929  0.1299 -0.3504
 1755SOL    HW116901   1.326   1.308   1.288  0.5392 -1.6053  1.3068
 1755SOL    HW216902   1.415   1.417   1.331 -2.5953 -0.2876  0.1881
 1756SOL     OW16903   0.866   3.994   2.221  0.5625  0.1808 -0.3124
 1756SOL    HW116904   0.884   3.930   2.291 -0.0386 -1.1870 -1.4102
 1756SOL    HW216905   0.940   4.055   2.222  0.5274  0.2623 -3.5481
 1757SOL     OW16906   0.163   2.465  16.894  0.2935 -0.2471 -0.2643
 1757SOL    HW116907   0.114   2.537  16.853  1.5220  0.1482 -1.0466
 1757SOL    HW216908   0.182   2.499  16.981 -1.5880  0.7537 -0.2465
 1758SOL     OW16909   3.041   0.164   4.827  0.2909  0.1454  0.5603
 1758SOL    HW116910   2.970   0.100   4.830  0.0969  0.2680 -2.0205
 1758SOL    HW216911   3.107   0.126   4.886  1.3377 -2.6300 -2.4126
 1759SOL     OW16912   3.156   0.866  10.166  0.8679  0.1929 -0.3238
 1759SOL    HW116913   3.163   0.955  10.199  0.8791  1.0414 -2.6422
 1759SOL    HW216914   3.062   0.866  10.149  0.7672  0.2679  0.2295
 1760SOL     OW16915   1.306   1.362   4.401 -0.4374 -0.1696 -0.7118
 1760SOL    HW116916   1.295   1.363   4.496  0.5254  2.9763 -0.6351
 1760SOL    HW216917   1.391   1.319   4.397  1.3415  3.1002  1.6579
 1761SOL     OW16918   1.507   1.939   4.726  0.7175 -0.1255  0.9241
 1761SOL    HW116919   1.594   1.922   4.690  0.5729 -1.1946  1.0956
 1761SOL    HW216920   1.470   1.852   4.733  1.3379 -0.4912 -0.2344
 1762SOL     OW16921   2.169   0.530   2.642 -0.2046  0.2911 -0.0115
 1762SOL    HW116922   2.120   0.611   2.653 -1.0543 -0.3493  0.9655
 1762SOL    HW216923   2.130   0.471   2.707 -0.3421 -0.6030 -0.9058
 1763SOL     OW16924   3.020   1.359  13.338  0.0306  0.3144 -0.0304
 1763SOL    HW116925   3.103   1.400  13.361  0.8689 -0.5550 -1.4592
 1763SOL    HW216926   3.034   1.309  13.257 -2.4610  0.5872 -0.6400
 1764SOL     OW16927   2.225   1.074   8.171  0.3708 -0.2898  0.0514
 1764SOL    HW116928   2.285   1.000   8.161  1.4549  0.8568 -1.9064
 1764SOL    HW216929   2.153   1.057   8.111  1.0088 -1.8088 -0.2795
 1765SOL     OW16930   2.072   2.467   6.958 -0.0966  0.5528  0.7340
 1765SOL    HW116931   2.121   2.411   7.019 -1.3731 -0.7732  0.5447
 1765SOL    HW216932   2.135   2.536   6.940 -0.2950  0.5915  0.1934
 1766SOL     OW16933   0.059   1.132   4.333  0.5713 -0.2243  0.1146
 1766SOL    HW116934   0.044   1.213   4.284  0.3903 -1.3058 -1.6116
 1766SOL    HW216935   0.120   1.172   4.396  2.2700  1.3225 -2.5383
 1767SOL     OW16936   0.982   2.112  16.727 -0.0789 -0.1578 -0.1751
 1767SOL    HW116937   0.968   2.203  16.700  1.3329 -0.7573 -2.9812
 1767SOL    HW216938   1.070   2.097  16.693  0.1279  2.6610 -0.8253
 1768SOL     OW16939   2.134   2.414  11.858 -0.6020 -0.4230  0.3198
 1768SOL    HW116940   2.091   2.453  11.935 -1.3351  0.7380 -0.6650
 1768SOL    HW216941   2.224   2.445  11.855 -0.2305 -1.6982 -1.5133
 1769SOL     OW16942   0.699   3.594   5.355  0.0921  0.4269  0.0589
 1769SOL    HW116943   0.761   3.565   5.422 -1.9071 -0.8877  1.3557
 1769SOL    HW216944   0.700   3.689   5.365  1.2882  0.5531 -1.2657
 1770SOL     OW16945   0.031   4.003   4.566  0.2283  0.0905  0.5576
 1770SOL    HW116946   0.000   3.964   4.484 -0.2116  2.5260 -0.4225
 1770SOL    HW216947   0.091   3.940   4.606  0.0907 -0.5075 -0.1773
 1771SOL     OW16948   1.781   1.436   1.829  0.4405  0.2469  0.3517
 1771SOL    HW116949   1.857   1.436   1.887 -0.6676  1.1994  1.7913
 1771SOL    HW216950   1.794   1.515   1.776 -0.6753 -1.0292 -1.8137
 1772SOL     OW16951   4.460   0.214   3.637  0.7061  0.4978  0.1199
 1772SOL    HW116952   4.388   0.234   3.696 -1.8568 -1.4171 -2.3122
 1772SOL    HW216953   4.535   0.195   3.694  0.2499 -0.1212  0.5165
 1773SOL     OW16954   1.164   1.228   1.276  0.1533 -0.6938 -0.1284
 1773SOL    HW116955   1.089   1.176   1.246 -1.5013  1.8700 -0.4205
 1773SOL    HW216956   1.217   1.158   1.313  0.8189 -0.7203 -1.1164
 1774SOL     OW16957   4.046   1.425   6.466 -0.8314 -0.4332  0.0223
 1774SOL    HW116958   4.104   1.349   6.463 -1.5451 -0.9909  0.2164
 1774SOL    HW216959   4.019   1.412   6.558 -0.8152  0.9777  0.2172
 1775SOL     OW16960   3.939   1.212   5.788 -0.0778 -0.1046  0.1528
 1775SOL    HW116961   4.009   1.252   5.838  0.4134 -0.7543 -0.0143
 1775SOL    HW216962   3.884   1.289   5.776  0.1090 -0.0139 -0.1018
 1776SOL     OW16963   2.524   4.466  16.481  0.1613 -0.4801  0.1255
 1776SOL    HW116964   2.527   4.418  16.564 -0.5087  0.2972  0.6000
 1776SOL    HW216965   2.525   4.393  16.420  0.0845 -0.3208 -0.0663
 1777SOL     OW16966   0.280   4.392   4.146  0.3910 -0.1426  0.0516
 1777SOL    HW116967   0.362   4.342   4.149  1.0154  0.9002  0.2055
 1777SOL    HW216968   0.275   4.415   4.054 -0.8561  2.2804  0.7288
 1778SOL     OW16969   0.951   2.242   7.914 -0.0236  0.0915 -0.6998
 1778SOL    HW116970   0.857   2.234   7.893 -0.1026 -0.3200 -0.1839
 1778SOL    HW216971   0.998   2.183   7.855 -1.1284 -1.2401 -0.2555
 1779SOL     OW16972   2.641   3.679   5.630 -0.3108 -0.0685  0.0900
 1779SOL    HW116973   2.723   3.670   5.680  0.5035 -1.6955 -1.5355
 1779SOL    HW216974   2.597   3.598   5.657 -1.5595 -0.0699 -1.9506
 1780SOL     OW16975   3.747   3.906   2.401  0.1009 -0.6355 -0.2109
 1780SOL    HW116976   3.792   3.991   2.406 -0.7168 -0.3118  1.7078
 1780SOL    HW216977   3.706   3.900   2.487  0.6548  2.6928  0.2837
 1781SOL     OW16978   4.158   2.465  11.792  0.1665  0.1677  0.3675
 1781SOL    HW116979   4.181   2.400  11.858 -0.5026  0.3055  0.7317
 1781SOL    HW216980   4.067   2.442  11.775 -0.3130  0.5320  2.3781
 1782SOL     OW16981   0.965   1.522  13.637  0.1298 -0.3268  0.0523
 1782SOL    HW116982   0.933   1.588  13.575  1.4762  0.3833  0.1227
 1782SOL    HW216983   1.061   1.529  13.636  0.2903 -2.6918  0.0242
 1783SOL     OW16984   4.446   0.743   7.909 -0.0699  0.6534  0.3850
 1783SOL    HW116985   4.452   0.803   7.834 -0.2391 -0.0893 -0.2119
 1783SOL    HW216986   4.404   0.801   7.973 -2.3901  0.2993 -0.8607
 1784SOL     OW16987   2.369   2.082   2.295  0.7010  0.2383  0.0201
 1784SOL    HW116988   2.357   1.987   2.295  0.0910  0.3113  0.1807
 1784SOL    HW216989   2.328   2.100   2.380  0.0784  1.4209 -0.5165
 1785SOL     OW16990   3.501   3.963  12.775  0.0362  0.1952 -0.3795
 1785SOL    HW116991   3.532   4.041  12.823  0.7902  0.9627 -2.1288
 1785SOL    HW216992   3.490   4.014  12.695 -0.0339  2.5332  1.0967
 1786SOL     OW16993   1.695   0.069  13.287  0.3591  0.0686  0.0170
 1786SOL    HW116994   1.634   0.140  13.310  1.1166  0.0541  2.0743
 1786SOL    HW216995   1.744   0.054  13.367  0.6190  0.5195 -0.0580
 1787SOL     OW16996   4.287   1.360   9.076 -0.4699  0.3983  0.0079
 1787SOL    HW116997   4.266   1.268   9.063  0.3734 -0.1764  2.7735
 1787SOL    HW216998   4.220   1.371   9.143  0.1644 -0.8782  0.8370
 1788SOL     OW16999   3.317   0.401   4.774 -0.4517  0.1472  0.3422
 1788SOL    HW117000   3.321   0.368   4.684 -0.9682 -1.8854  1.0460
 1788SOL    HW217001   3.333   0.494   4.757 -0.4339  0.1562  0.4098
 1789SOL     OW17002   1.314   0.161   6.661 -0.4845 -0.0331  0.0686
 1789SOL    HW117003   1.398   0.145   6.704  0.6119  0.3249 -1.9014
 1789SOL    HW217004   1.256   0.095   6.697  0.9986 -1.0144  0.6751
 1790SOL     OW17005   1.110   1.016   3.289 -0.2626 -0.0407  0.0152
 1790SOL    HW117006   1.022   1.051   3.278 -0.0250 -0.0981 -2.1834
 1790SOL    HW217007   1.153   1.101   3.296  0.8754 -0.5571 -0.6222
 1791SOL     OW17008   0.321   2.953   1.831 -0.3758  0.1100  0.3833
 1791SOL    HW117009   0.261   3.027   1.823  0.5196  0.9136  1.1361
 1791SOL    HW217010   0.385   2.977   1.898 -1.9458  1.2843  1.4773
 1792SOL     OW17011   2.997   4.159   4.099 -0.0800 -1.0779  0.2695
 1792SOL    HW117012   2.935   4.221   4.138  1.4625  0.3709  0.3838
 1792SOL    HW217013   3.050   4.220   4.048  2.2220 -2.2966  1.2133
 1793SOL     OW17014   2.878   3.839   5.214  0.6724 -0.0110  0.0315
 1793SOL    HW117015   2.865   3.924   5.258  0.1535  0.1984 -0.5266
 1793SOL    HW217016   2.864   3.779   5.287  1.1629  2.8634  2.5108
 1794SOL     OW17017   0.390   1.557   6.240 -0.4968  0.1563 -0.4058
 1794SOL    HW117018   0.434   1.569   6.324 -0.1487 -0.1300 -0.5458
 1794SOL    HW217019   0.387   1.641   6.195 -1.5308  0.2286 -0.2184
 1795SOL     OW17020   4.562   4.469  11.337  0.4533  0.3124 -0.4442
 1795SOL    HW117021   4.534   4.426  11.256  1.1403 -0.4897 -0.2587
 1795SOL    HW217022   4.631   4.412  11.370  0.0334 -1.0624 -1.9452
 1796SOL     OW17023   0.249   2.678   5.395  0.3387 -0.0903 -0.1237
 1796SOL    HW117024   0.200   2.612   5.346 -0.1576  0.4560 -0.3679
 1796SOL    HW217025   0.193   2.755   5.408 -0.4462 -0.7118  0.2069
 1797SOL     OW17026   4.315   4.069   3.294 -0.2485  0.1470  0.4754
 1797SOL    HW117027   4.374   4.010   3.247 -0.6319  0.8232 -0.8515
 1797SOL    HW217028   4.384   4.089   3.358 -1.0833  1.4825  0.9618
 1798SOL     OW17029   2.155   4.525   6.026 -0.3114 -0.1439  0.5400
 1798SOL    HW117030   2.085   4.553   6.086 -0.7029 -0.0154  0.0174
 1798SOL    HW217031   2.203   4.608   6.028  0.6383 -0.6900 -0.1103
 1799SOL     OW17032   1.394   1.658   5.081 -0.2767  0.6472 -0.2864
 1799SOL    HW117033   1.316   1.603   5.081 -0.2694  0.6281  1.0080
 1799SOL    HW217034   1.456   1.605   5.131 -2.5912 -0.7098  1.1276
 1800SOL     OW17035   2.527   2.329   1.175 -0.5591 -0.4350  0.2303
 1800SOL    HW117036   2.620   2.353   1.175 -0.6102 -0.2631 -1.7559
 1800SOL    HW217037   2.509   2.339   1.082  1.7089 -0.6523 -0.2438
 1801SOL     OW17038   3.765   0.456   6.984  1.2486 -0.0698  0.2299
 1801SOL    HW117039   3.756   0.401   6.907 -1.6708 -0.2719  0.6824
 1801SOL    HW217040   3.681   0.502   6.988  2.9847  3.0436  0.8551
 1802SOL     OW17041   1.726   3.793   6.451 -0.0761  0.3265  0.3270
 1802SOL    HW117042   1.760   3.732   6.517 -0.0062 -0.5543 -0.5097
 1802SOL    HW217043   1.803   3.846   6.431 -1.1263  0.9791 -2.0397
 1803SOL     OW17044   3.739   2.117  14.775 -0.4737  0.0421  0.3307
 1803SOL    HW117045   3.825   2.086  14.805 -1.7420 -3.0954  0.7065
 1803SOL    HW217046   3.760   2.140  14.685  0.8725 -0.3534  0.5302
 1804SOL     OW17047   4.435   0.410   7.417  0.4004 -0.2812 -0.5887
 1804SOL    HW117048   4.498   0.464   7.369 -1.0951  3.3891  1.5767
 1804SOL    HW217049   4.392   0.367   7.342 -0.8896 -1.2595  0.7091
 1805SOL     OW17050   0.985   3.615   2.572  0.4562  0.4263 -0.2284
 1805SOL    HW117051   1.001   3.671   2.648 -2.8609 -0.8206  1.3662
 1805SOL    HW217052   1.013   3.529   2.604  1.4914  1.2896  1.1781
 1806SOL     OW17053   2.264   3.910   9.156 -0.0671 -0.3789 -0.1895
 1806SOL    HW117054   2.357   3.933   9.142 -0.2750  1.0989  0.8571
 1806SOL    HW217055   2.248   3.972   9.227 -2.3472 -1.8517  0.5685
 1807SOL     OW17056   1.638   2.193   8.005 -0.3727 -0.3853 -0.0939
 1807SOL    HW117057   1.673   2.262   7.948 -0.3810 -0.3142 -0.0128
 1807SOL    HW217058   1.586   2.242   8.069  0.6248 -0.6471  0.9087
 1808SOL     OW17059   1.743   0.944  15.698  0.3906  0.2017 -0.3036
 1808SOL    HW117060   1.807   0.996  15.648 -0.2730  2.7939  1.5487
 1808SOL    HW217061   1.669   1.003  15.713 -1.5496 -2.4327  0.3154
 1809SOL     OW17062   3.423   4.260   9.247  0.1304  0.4398 -0.1913
 1809SOL    HW117063   3.405   4.294   9.335  0.6651 -0.6296  0.3325
 1809SOL    HW217064   3.394   4.332   9.191 -0.8507  1.4508  1.5874
 1810SOL     OW17065   0.075   1.846   9.477 -0.2353  0.1722 -0.7597
 1810SOL    HW117066   0.065   1.751   9.470 -0.2641 -0.0776  2.5726
 1810SOL    HW217067   4.717   1.856   9.485 -0.2674 -1.0755  0.4509
 1811SOL     OW17068   2.805   3.209   8.283 -0.1375  0.0958 -0.0204
 1811SOL    HW117069   2.847   3.292   8.305 -1.7879  1.7168 -3.0783
 1811SOL    HW217070   2.869   3.142   8.309 -0.2135  1.0170  2.5060
 1812SOL     OW17071   1.000   1.863   8.857  0.0364 -0.1944 -0.1361
 1812SOL    HW117072   1.057   1.862   8.780 -1.2927 -0.1700 -1.1270
 1812SOL    HW217073   0.950   1.938   8.825 -0.6932 -0.4412  0.4280
 1813SOL     OW17074   4.333   3.779   0.250  0.3853  0.4681  0.3292
 1813SOL    HW117075   4.416   3.733   0.245 -0.2671 -0.7982  1.0884
 1813SOL    HW217076   4.296   3.761   0.163 -0.9663  3.2900  0.3101
 1814SOL     OW17077   0.482   1.083   4.710  0.2785  0.4416 -0.1726
 1814SOL    HW117078   0.389   1.061   4.707 -0.1521  2.0302  2.4950
 1814SOL    HW217079   0.494   1.127   4.794  0.0406 -0.9422  0.5910
 1815SOL     OW17080   3.985   2.327  12.586 -0.1121  0.1202  0.2372
 1815SOL    HW117081   3.979   2.273  12.508 -1.4238  0.6397 -0.0112
 1815SOL    HW217082   3.946   2.272  12.653 -0.2311 -0.6492 -0.4662
 1816SOL     OW17083   2.203   1.837  16.010 -0.3093 -0.3618  0.6702
 1816SOL    HW117084   2.218   1.907  15.947  2.3506  1.1017  2.9183
 1816SOL    HW217085   2.108   1.835  15.998  0.1184 -3.4129 -2.1905
 1817SOL     OW17086   1.375   1.781   3.245 -0.3373 -0.3817 -0.0105
 1817SOL    HW117087   1.469   1.796   3.257 -1.0320  2.5618  1.8738
 1817SOL    HW217088   1.333   1.814   3.324 -0.9471 -1.1542 -0.0176
 1818SOL     OW17089   1.129   4.096  10.701 -0.4035  0.4232  0.1499
 1818SOL    HW117090   1.057   4.157  10.684  0.1173  1.0553  0.2328
 1818SOL    HW217091   1.095   4.059  10.783 -0.4883 -2.4201 -1.1676
 1819SOL     OW17092   3.183   2.193   6.869 -0.2333 -0.0283  0.4976
 1819SOL    HW117093   3.166   2.282   6.899 -0.2565 -0.4401  1.7144
 1819SOL    HW217094   3.137   2.143   6.937 -1.0872  1.2524  0.8564
 1820SOL     OW17095   2.059   3.109   5.075 -0.3254  0.3120  0.3235
 1820SOL    HW117096   2.052   3.137   4.984 -2.2766 -1.3327 -0.0395
 1820SOL    HW217097   2.044   3.191   5.122  0.5807  0.5377  0.2192
 1821SOL     OW17098   3.929   1.390   6.695  0.6378 -0.7236 -0.5762
 1821SOL    HW117099   3.907   1.297   6.681 -0.9344 -0.1517 -1.8563
 1821SOL    HW217100   3.853   1.408   6.750  0.7884 -1.7662 -0.0159
 1822SOL     OW17101   2.651   1.288  13.923  0.3187  0.1115 -0.3537
 1822SOL    HW117102   2.740   1.317  13.940  0.6099 -1.1315  0.2735
 1822SOL    HW217103   2.666   1.255  13.834 -1.1104  1.8806 -1.2467
 1823SOL     OW17104   3.080   0.513   9.754 -0.0545  0.6138 -0.4359
 1823SOL    HW117105   3.089   0.434   9.807 -0.0327  1.5221  0.9204
 1823SOL    HW217106   3.082   0.586   9.817 -3.2376  2.4199 -2.4263
 1824SOL     OW17107   3.705   3.197   2.492  0.4373  0.7082  0.5039
 1824SOL    HW117108   3.621   3.177   2.532 -0.1977 -0.2652 -1.3076
 1824SOL    HW217109   3.764   3.147   2.548  0.8839 -0.2750 -0.8481
 1825SOL     OW17110   0.264   3.371   4.207 -0.1203 -0.6084 -0.0566
 1825SOL    HW117111   0.333   3.434   4.229  1.2163 -1.5349 -1.6494
 1825SOL    HW217112   0.191   3.422   4.242  0.0290 -0.2583 -0.2543
 1826SOL     OW17113   1.353   3.979   8.009 -0.0520 -0.7516 -0.1717
 1826SOL    HW117114   1.261   3.972   7.984 -0.7413  0.8453  1.9133
 1826SOL    HW217115   1.372   4.044   7.941  0.2716  0.2507  0.8751
 1827SOL     OW17116   2.739   1.488   8.205 -0.0135  0.5519  0.1321
 1827SOL    HW117117   2.756   1.521   8.116 -1.6049  0.2028 -0.2987
 1827SOL    HW217118   2.780   1.402   8.204  0.7395  0.8980  1.9379
 1828SOL     OW17119   1.778   1.799  17.387 -0.3623 -0.5061  0.1253
 1828SOL    HW117120   1.736   1.849  17.457 -0.1905  3.4003 -2.6228
 1828SOL    HW217121   1.826   1.741  17.447 -0.1426  0.0627  0.5054
 1829SOL     OW17122   0.719   3.647  13.711 -0.1495  0.5364  0.0028
 1829SOL    HW117123   0.754   3.566  13.748 -0.6846 -0.1381 -0.9792
 1829SOL    HW217124   0.708   3.697  13.793 -0.9517  0.0126  0.2121
 1830SOL     OW17125   3.891   1.060  15.428 -0.2152  0.4575 -0.1671
 1830SOL    HW117126   3.948   1.064  15.505 -2.0340  0.0257  1.2133
 1830SOL    HW217127   3.820   1.120  15.453  0.6691  1.8382 -0.9754
 1831SOL     OW17128   1.581   2.782   2.526  0.2812  0.0947 -0.3490
 1831SOL    HW117129   1.586   2.877   2.539 -3.8018 -0.3304  4.0902
 1831SOL    HW217130   1.578   2.782   2.430  2.7259 -2.2298 -0.4118
 1832SOL     OW17131   3.828   1.686  11.844  0.4583  0.1982  1.0542
 1832SOL    HW117132   3.806   1.777  11.860 -0.7538  0.1332 -0.2258
 1832SOL    HW217133   3.922   1.698  11.828  0.2435  1.0902  0.5058
 1833SOL     OW17134   2.653   2.216   2.798  0.2079  0.5945 -0.1538
 1833SOL    HW117135   2.653   2.130   2.842 -1.0442  1.4629  1.5642
 1833SOL    HW217136   2.648   2.272   2.876 -2.1335 -0.9835  0.8455
 1834SOL     OW17137   3.440   4.394   1.558 -0.2196 -0.1379  0.4996
 1834SOL    HW117138   3.393   4.405   1.641  0.4698 -1.0718  1.0148
 1834SOL    HW217139   3.395   4.457   1.502 -0.7607 -0.3772  0.6684
 1835SOL     OW17140   0.066   4.091  12.712 -0.3948 -0.0557 -0.2419
 1835SOL    HW117141   0.130   4.089  12.641 -1.1490 -0.6980 -0.9125
 1835SOL    HW217142   0.068   4.000  12.742 -3.5424  0.2070  0.7992
 1836SOL     OW17143   0.475   2.664  10.867 -0.1387 -0.1421  0.3748
 1836SOL    HW117144   0.425   2.693  10.790  0.5559 -2.9853 -1.1491
 1836SOL    HW217145   0.498   2.573  10.848  0.0949  0.3242 -1.5680
 1837SOL     OW17146   0.536   0.753   5.688  0.5596  0.3606 -0.0262
 1837SOL    HW117147   0.536   0.837   5.643 -1.4353  0.3734 -0.0014
 1837SOL    HW217148   0.621   0.762   5.732  1.0176 -1.1369 -0.6059
 1838SOL     OW17149   1.537   4.591   7.768 -0.3049 -0.1501  0.3784
 1838SOL    HW117150   1.536   4.496   7.755  2.9849  0.1142 -1.8756
 1838SOL    HW217151   1.462   4.595   7.827 -1.0930  2.2383 -0.7842
 1839SOL     OW17152   2.609   2.626   4.729 -0.2770  0.4754 -0.0726
 1839SOL    HW117153   2.615   2.535   4.760  0.1340  0.9054  1.1341
 1839SOL    HW217154   2.618   2.608   4.636  0.3936 -1.6006  0.3911
 1840SOL     OW17155   3.834   3.426   6.619 -0.2652  0.2536  0.3649
 1840SOL    HW117156   3.902   3.474   6.571 -1.3668  2.4488  1.0077
 1840SOL    HW217157   3.886   3.405   6.696 -1.4133  1.1999  1.4014
 1841SOL     OW17158   0.060   2.614   0.867 -0.1578  0.0815  0.4265
 1841SOL    HW117159   4.719   2.592   0.815 -1.2642  0.1086  2.0785
 1841SOL    HW217160   0.088   2.696   0.826  0.7565 -0.3446  0.2044
 1842SOL     OW17161   4.075   1.506   7.142  0.1659 -0.1758 -0.2618
 1842SOL    HW117162   4.006   1.568   7.117 -0.0721 -0.6100 -0.6804
 1842SOL    HW217163   4.136   1.506   7.068 -0.7155 -3.1855 -0.9558
 1843SOL     OW17164   4.309   2.861  10.458 -0.3276 -0.5538  0.4129
 1843SOL    HW117165   4.311   2.936  10.517  0.4179 -0.2873  0.0552
 1843SOL    HW217166   4.400   2.836  10.473 -0.6529 -2.5638 -0.9455
 1844SOL     OW17167   0.222   1.786   7.364 -0.5546  0.1694 -0.3504
 1844SOL    HW117168   0.239   1.695   7.341 -1.6479 -0.6335  2.0231
 1844SOL    HW217169   0.229   1.785   7.459 -0.2315  4.3471 -0.3563
 1845SOL     OW17170   1.557   0.109  10.948  0.4422  0.3622  0.4916
 1845SOL    HW117171   1.561   0.137  10.857  0.1196  1.1871  0.7332
 1845SOL    HW217172   1.544   0.014  10.945 -0.2889  0.3895  3.0614
 1846SOL     OW17173   3.820   3.207  12.875  0.1684 -0.1894  0.0898
 1846SOL    HW117174   3.752   3.224  12.810 -0.3721 -3.0030 -0.0932
 1846SOL    HW217175   3.764   3.169  12.943 -0.7247  1.5914  0.3542
 1847SOL     OW17176   1.564   3.445   8.900 -0.0749 -0.3656  0.1019
 1847SOL    HW117177   1.640   3.443   8.959 -0.2642 -2.3174  0.2921
 1847SOL    HW217178   1.570   3.529   8.854  1.4410 -1.8474 -2.4550
 1848SOL     OW17179   1.404   0.669   7.488 -0.5935  0.0070  0.0075
 1848SOL    HW117180   1.436   0.652   7.577 -0.6055 -0.6042 -0.1045
 1848SOL    HW217181   1.408   0.577   7.461 -0.3736  0.0602 -0.1433
 1849SOL     OW17182   1.742   1.253   8.067  0.0237  0.0209 -0.2293
 1849SOL    HW117183   1.653   1.218   8.073  0.0137  0.3370  1.5084
 1849SOL    HW217184   1.785   1.209   7.994  1.0249  0.5824  0.0325
 1850SOL     OW17185   1.044   2.881  12.195 -0.2999 -0.1326  0.2808
 1850SOL    HW117186   1.031   2.882  12.290 -1.4534 -0.2776  0.1218
 1850SOL    HW217187   1.111   2.949  12.189  0.7575 -1.2589 -0.6178
 1851SOL     OW17188   3.664   0.583   3.057 -0.4994  0.7603 -0.2289
 1851SOL    HW117189   3.681   0.674   3.032  1.0200  0.8055  1.0096
 1851SOL    HW217190   3.568   0.583   3.057 -0.4989 -0.0930  1.0877
 1852SOL     OW17191   2.878   1.112   1.968 -0.0095 -0.3177  0.2532
 1852SOL    HW117192   2.911   1.024   1.948 -0.8314 -0.3373 -1.0923
 1852SOL    HW217193   2.870   1.105   2.063  0.1826  0.1157  0.3006
 1853SOL     OW17194   1.360   2.447  10.981  0.2970 -0.1598  0.1963
 1853SOL    HW117195   1.374   2.442  11.076  0.5393 -2.8124  0.0065
 1853SOL    HW217196   1.274   2.490  10.985  0.7770  0.8448 -0.1626
 1854SOL     OW17197   2.572   3.024   8.805  0.5181 -0.0272 -0.4597
 1854SOL    HW117198   2.509   3.094   8.821  0.4352 -1.0080  3.3784
 1854SOL    HW217199   2.583   3.037   8.711 -1.8632 -1.2000 -0.8918
 1855SOL     OW17200   1.112   4.530   6.751 -0.1497 -0.2134  0.1002
 1855SOL    HW117201   1.047   4.573   6.696 -1.0914  0.7437  1.9793
 1855SOL    HW217202   1.088   4.556   6.840  0.7326  0.7991  0.0435
 1856SOL     OW17203   3.109   2.039   0.301  0.5692 -0.1064  0.7018
 1856SOL    HW117204   3.087   2.128   0.274 -1.8103 -1.1942 -0.9194
 1856SOL    HW217205   3.025   1.996   0.287 -0.0064  1.5049 -0.7769
 1857SOL     OW17206   3.939   2.139  12.817  0.1181  0.1052 -0.4819
 1857SOL    HW117207   4.004   2.199  12.853  0.1552 -0.5626  0.5495
 1857SOL    HW217208   3.979   2.052  12.819 -0.7269 -0.3204 -1.7176
 1858SOL     OW17209   4.674   3.242   8.476  0.2610  0.3297  0.4717
 1858SOL    HW117210   4.677   3.265   8.383 -0.5180 -1.0937  0.0916
 1858SOL    HW217211   4.606   3.307   8.495 -2.2086 -0.7077 -4.9551
 1859SOL     OW17212   4.680   4.099   6.343 -0.2816 -0.2845 -0.5352
 1859SOL    HW117213   4.736   4.139   6.277  1.5988 -0.3568  1.0150
 1859SOL    HW217214   4.675   4.009   6.309  2.2163 -0.5613 -0.1569
 1860SOL     OW17215   0.241   4.368   7.713  0.1964  0.1096  0.5249
 1860SOL    HW117216   0.306   4.411   7.657  0.4881 -0.7053  0.2368
 1860SOL    HW217217   0.246   4.413   7.797  2.1613  1.5305 -0.3613
 1861SOL     OW17218   1.965   3.108   8.406  0.2006  0.4651 -0.2999
 1861SOL    HW117219   1.898   3.121   8.338  0.3394 -0.5248 -0.6215
 1861SOL    HW217220   2.022   3.040   8.372 -0.2518  0.0430 -0.2177
 1862SOL     OW17221   2.157   1.986   2.461  0.2439 -0.3070  0.4507
 1862SOL    HW117222   2.193   1.916   2.516 -0.0823 -2.0190 -1.5177
 1862SOL    HW217223   2.146   2.059   2.522 -2.2857  0.0186 -0.3692
 1863SOL     OW17224   3.015   3.805   6.007 -0.2802  0.3915 -0.3396
 1863SOL    HW117225   3.105   3.810   5.976 -0.4150 -0.5083 -0.8889
 1863SOL    HW217226   2.995   3.897   6.025  0.7459  0.7216 -0.9072
 1864SOL     OW17227   3.804   0.561  10.707  0.2727 -0.0589  0.0356
 1864SOL    HW117228   3.790   0.596  10.795  3.2177  0.9907  0.0711
 1864SOL    HW217229   3.713   0.567  10.677  0.3624 -1.6326 -0.6002
 1865SOL     OW17230   1.858   1.218   5.120  0.9747  0.0560  0.0509
 1865SOL    HW117231   1.762   1.214   5.121  0.9806  0.0409  0.7792
 1865SOL    HW217232   1.880   1.221   5.213  0.0462 -0.3440  0.2776
 1866SOL     OW17233   2.781   3.848   4.034  0.1681  0.1087  0.2337
 1866SOL    HW117234   2.762   3.907   4.108 -1.7749 -2.9640  2.2002
 1866SOL    HW217235   2.874   3.828   4.046  0.1865  1.4946  2.6041
 1867SOL     OW17236   1.507   0.182   5.541 -0.1806  0.2353 -0.3588
 1867SOL    HW117237   1.498   0.239   5.618  1.7054 -1.1134  0.8582
 1867SOL    HW217238   1.425   0.190   5.492 -1.2977 -1.5355  1.2185
 1868SOL     OW17239   4.218   1.107   4.413  0.0802  0.1977  0.3946
 1868SOL    HW117240   4.130   1.070   4.407  0.3021 -0.0687 -1.2635
 1868SOL    HW217241   4.259   1.033   4.460 -1.7769 -1.8587 -1.2408
 1869SOL     OW17242   0.935   3.825  17.038  0.9348 -0.4915  0.0513
 1869SOL    HW117243   0.975   3.819  17.124  0.9769 -2.9337 -0.1448
 1869SOL    HW217244   0.982   3.901  17.004  0.3763 -0.8271 -1.5085
 1870SOL     OW17245   4.081   2.264   6.759  0.4838  0.0441  0.5438
 1870SOL    HW117246   4.112   2.298   6.675 -1.1961 -1.2798 -0.6340
 1870SOL    HW217247   4.112   2.173   6.754  0.3913  0.0732 -0.6100
 1871SOL     OW17248   4.284   4.487   4.087  0.3428 -0.6423  0.4988
 1871SOL    HW117249   4.314   4.434   4.160 -0.8677 -1.4395  0.4119
 1871SOL    HW217250   4.352   4.553   4.072 -1.4006  1.0068 -0.2564
 1872SOL     OW17251   4.596   1.145   7.035  0.3382 -0.4373 -0.1375
 1872SOL    HW117252   4.654   1.194   6.976 -3.0359  1.8038 -1.6270
 1872SOL    HW217253   4.535   1.104   6.974  1.8255 -2.0090 -0.5664
 1873SOL     OW17254   3.024   1.281   3.506 -0.2309 -0.3613  0.0885
 1873SOL    HW117255   3.096   1.344   3.500  0.2679 -1.0983 -1.5273
 1873SOL    HW217256   3.050   1.227   3.432 -0.4879 -1.2766  0.6671
 1874SOL     OW17257   3.236   1.601   4.898 -0.1868  0.1334  0.1077
 1874SOL    HW117258   3.220   1.507   4.901  1.1151 -0.0827  0.3282
 1874SOL    HW217259   3.174   1.636   4.962  1.0526  1.0752  0.7818
 1875SOL     OW17260   1.670   0.096  17.531  0.2522 -0.1821  0.5003
 1875SOL    HW117261   1.686   0.160  17.462 -1.2050  0.0397  0.3526
 1875SOL    HW217262   1.631   0.020  17.487 -2.2607  0.2484  1.9532
 1876SOL     OW17263   4.423   1.503   4.335  0.1073 -0.2953  0.1665
 1876SOL    HW117264   4.460   1.566   4.397  0.5608 -1.7703  1.3843
 1876SOL    HW217265   4.505   1.466   4.302  1.7936  0.2454  3.7492
 1877SOL     OW17266   3.480   3.760  17.263 -0.0722 -0.1665  0.8070
 1877SOL    HW117267   3.566   3.757  17.305  0.2999 -0.2995  0.0356
 1877SOL    HW217268   3.486   3.847  17.223  0.5330  0.4125  2.1538
 1878SOL     OW17269   1.593   0.825  11.299  0.3127 -0.2814  0.0596
 1878SOL    HW117270   1.545   0.751  11.261 -0.5982 -0.7396  2.1060
 1878SOL    HW217271   1.560   0.896  11.244 -0.0782  0.0229  0.6833
 1879SOL     OW17272   3.090   1.165   2.466 -0.5827 -0.0074 -0.0871
 1879SOL    HW117273   3.089   1.123   2.552  5.7146  2.0446  0.9670
 1879SOL    HW217274   3.161   1.125   2.416 -1.1613 -1.8506  0.5583
 1880SOL     OW17275   4.421   0.023   9.902 -0.1162 -0.2419  0.2432
 1880SOL    HW117276   4.436   0.105   9.949 -1.8985 -0.3891  1.0818
 1880SOL    HW217277   4.500   0.012   9.850  0.5857  1.7966  0.8920
 1881SOL     OW17278   1.285   1.954   4.419  0.1958 -0.0194 -0.5028
 1881SOL    HW117279   1.211   1.899   4.394 -1.3931  2.0060 -0.2377
 1881SOL    HW217280   1.357   1.891   4.415  1.4012  1.1392  2.2508
 1882SOL     OW17281   4.040   3.222  13.004 -0.3169  0.5194  0.1165
 1882SOL    HW117282   3.991   3.263  13.075  0.4541  0.4644  0.6808
 1882SOL    HW217283   3.963   3.211  12.948  0.0561 -0.7406 -0.1589
 1883SOL     OW17284   1.626   4.171  14.503  0.6125  0.0967  0.3761
 1883SOL    HW117285   1.634   4.130  14.416  0.2508  0.2714  0.2602
 1883SOL    HW217286   1.642   4.260  14.471 -0.0569 -0.0300 -0.3151
 1884SOL     OW17287   1.686   1.589  16.533  0.0729  0.5450 -0.0888
 1884SOL    HW117288   1.740   1.576  16.454  0.9592  1.3062  0.3904
 1884SOL    HW217289   1.755   1.645  16.569 -0.3647  0.5684  0.7018
 1885SOL     OW17290   3.036   0.162   4.353 -0.1998 -0.2093  0.0551
 1885SOL    HW117291   3.085   0.101   4.299 -2.0390 -1.2188 -0.4568
 1885SOL    HW217292   3.008   0.107   4.426  0.6704  0.6795  1.0583
 1886SOL     OW17293   4.299   4.561  11.993  0.5119  0.1054  0.3906
 1886SOL    HW117294   4.378   4.596  11.952  0.1018  2.8720  1.9884
 1886SOL    HW217295   4.323   4.470  12.009  0.8589  0.2336  0.6027
 1887SOL     OW17296   1.384   2.294  16.216 -0.2555  0.1798  0.1434
 1887SOL    HW117297   1.364   2.324  16.305 -3.3656  1.0669 -0.8506
 1887SOL    HW217298   1.476   2.320  16.220 -0.6323  1.4506  0.3647
 1888SOL     OW17299   4.221   1.159   4.763  0.4560 -0.0926 -0.3409
 1888SOL    HW117300   4.151   1.172   4.699  2.6022  0.9112 -2.4796
 1888SOL    HW217301   4.281   1.232   4.746 -1.7909  1.5188 -1.3553
 1889SOL     OW17302   0.506   4.454  16.082  0.4888  0.0989  0.4897
 1889SOL    HW117303   0.594   4.451  16.120  0.4859 -1.4501  0.3743
 1889SOL    HW217304   0.461   4.445  16.166 -1.7875  0.2309 -0.7192
 1890SOL     OW17305   3.506   3.348   7.643 -0.1398 -0.0732 -0.2830
 1890SOL    HW117306   3.459   3.332   7.561 -0.5189 -1.1232  0.1332
 1890SOL    HW217307   3.456   3.425   7.672  0.0694  0.3059 -0.9161
 1891SOL     OW17308   3.140   1.912   7.391  0.2672  0.6812 -0.3361
 1891SOL    HW117309   3.198   1.862   7.334  2.0836  1.3734  0.9000
 1891SOL    HW217310   3.127   1.860   7.471 -1.0761  1.4136 -0.0709
 1892SOL     OW17311   1.638   0.329   4.187 -0.6890  0.2901  0.7681
 1892SOL    HW117312   1.611   0.401   4.245 -2.7133  1.4726 -1.6220
 1892SOL    HW217313   1.668   0.382   4.113  0.0947 -2.1797 -0.6805
 1893SOL     OW17314   4.582   2.748   6.138 -0.1887 -0.0005 -0.1884
 1893SOL    HW117315   4.515   2.704   6.086 -1.8903  3.1662 -0.7233
 1893SOL    HW217316   4.560   2.727   6.228  1.8698 -0.3537  0.2221
 1894SOL     OW17317   3.321   1.732   8.918  0.1987  0.0683 -0.2933
 1894SOL    HW117318   3.361   1.789   8.853  1.5547 -0.2523  0.2575
 1894SOL    HW217319   3.293   1.656   8.866 -2.1682  0.7761 -0.0598
 1895SOL     OW17320   0.074   0.915   9.848 -0.5807 -0.2393  0.4104
 1895SOL    HW117321   0.157   0.868   9.836 -0.0084  0.3875  1.9175
 1895SOL    HW217322   0.060   0.872   9.932  1.9142  2.2219  2.0919
 1896SOL     OW17323   0.715   0.722   3.184 -0.3115  0.4317 -0.2661
 1896SOL    HW117324   0.756   0.797   3.141  1.6805  1.0755  2.7657
 1896SOL    HW217325   0.796   0.676   3.202 -1.7363 -2.1631 -0.4052
 1897SOL     OW17326   2.899   4.304   4.961  0.3907 -0.0109  0.7624
 1897SOL    HW117327   2.964   4.245   4.924 -0.4278 -2.0747  2.5738
 1897SOL    HW217328   2.855   4.250   5.028 -0.8250 -1.6036 -1.3296
 1898SOL     OW17329   3.458   2.381  17.619 -0.2846 -0.2278 -0.5452
 1898SOL    HW117330   3.474   2.376  17.713  0.0179  0.2426 -0.5757
 1898SOL    HW217331   3.366   2.407  17.618 -0.7112 -1.8544 -3.4809
 1899SOL     OW17332   2.062   0.450   9.291  0.0579 -0.2788  0.0094
 1899SOL    HW117333   2.110   0.508   9.350 -1.4944 -2.0580  3.0085
 1899SOL    HW217334   2.107   0.369   9.312  0.1911 -0.8461 -2.4995
 1900SOL     OW17335   0.042   2.605  14.827 -0.4665  0.3604 -0.3493
 1900SOL    HW117336   0.117   2.665  14.819 -1.0253  0.9967 -0.7762
 1900SOL    HW217337   4.705   2.665  14.816 -0.1431  0.2980 -2.8198
 1901SOL     OW17338   3.910   3.484   3.342 -0.3844  0.2284  0.4125
 1901SOL    HW117339   3.909   3.419   3.412 -1.1943  0.5317  0.6841
 1901SOL    HW217340   3.998   3.522   3.342  0.6619 -2.2457  0.1784
 1902SOL     OW17341   4.671   1.520   0.360  0.3508 -0.0099 -0.1267
 1902SOL    HW117342   4.722   1.528   0.280  0.6246 -0.6239 -0.0135
 1902SOL    HW217343   4.629   1.605   0.371 -1.3887 -0.9042  0.4048
 1903SOL     OW17344   2.412   2.328   2.464  0.0625 -0.1225 -0.4337
 1903SOL    HW117345   2.506   2.310   2.470  0.3339  0.9349 -1.4961
 1903SOL    HW217346   2.396   2.366   2.550  0.0489  1.0707 -0.9661
 1904SOL     OW17347   2.426   0.796   0.498  0.2708  0.2332 -0.0278
 1904SOL    HW117348   2.376   0.800   0.417  0.0584 -0.9859  0.0367
 1904SOL    HW217349   2.404   0.881   0.536  0.3004 -0.6745  2.0354
 1905SOL     OW17350   3.679   4.323   1.613  0.2711 -0.4744 -0.0743
 1905SOL    HW117351   3.592   4.360   1.597  0.3052 -1.0229 -1.4874
 1905SOL    HW217352   3.675   4.253   1.548 -0.0821 -0.1104 -0.4438
 1906SOL     OW17353   0.295   1.268   2.643  0.2497 -0.2001  0.5162
 1906SOL    HW117354   0.314   1.175   2.654  0.6746 -0.4669 -2.5850
 1906SOL    HW217355   0.227   1.267   2.576  2.7353 -1.4333 -1.9966
 1907SOL     OW17356   0.678   1.196   2.001  0.0816 -0.2272  0.0503
 1907SOL    HW117357   0.660   1.118   2.053 -2.9016 -0.3670 -1.1947
 1907SOL    HW217358   0.597   1.207   1.952 -0.8148 -1.9782  1.1478
 1908SOL     OW17359   2.004   3.823   8.296 -0.2426  0.4380  0.0866
 1908SOL    HW117360   2.043   3.802   8.381 -0.2954 -0.1308 -0.0319
 1908SOL    HW217361   1.998   3.919   8.292  0.5288  0.4941  0.4469
 1909SOL     OW17362   1.716   4.509   8.428  0.0355 -0.4285  0.2748
 1909SOL    HW117363   1.792   4.459   8.457  1.2260  0.1003 -1.9843
 1909SOL    HW217364   1.651   4.438   8.425 -1.9479  1.4396 -0.9178
 1910SOL     OW17365   1.759   2.817  12.628  0.0005  0.2542  0.2440
 1910SOL    HW117366   1.735   2.812  12.720  1.0186  0.5159  0.5148
 1910SOL    HW217367   1.810   2.897  12.634  2.7711 -1.5418  0.3313
 1911SOL     OW17368   2.778   3.623   6.591  0.0972  0.0890  0.8850
 1911SOL    HW117369   2.766   3.534   6.557  0.5221  1.5475 -3.1159
 1911SOL    HW217370   2.690   3.650   6.619  0.6109  1.9299  0.7254
 1912SOL     OW17371   4.046   0.658   8.972 -0.2700 -0.3799 -0.6732
 1912SOL    HW117372   4.019   0.571   8.942 -0.8861 -0.4947  0.2053
 1912SOL    HW217373   3.961   0.702   8.968 -1.0510 -1.7579  0.5265
 1913SOL     OW17374   1.963   2.522  15.238 -0.2288  0.3757  0.1572
 1913SOL    HW117375   1.951   2.575  15.159  1.4773 -1.3455 -1.2934
 1913SOL    HW217376   1.871   2.496  15.241  0.5294 -2.2621  0.8104
 1914SOL     OW17377   3.729   1.357   4.028 -0.0251 -0.1931  0.8021
 1914SOL    HW117378   3.761   1.278   4.073 -1.0573 -0.0116  1.8530
 1914SOL    HW217379   3.757   1.427   4.087  0.8992  0.6796 -0.7085
 1915SOL     OW17380   1.423   1.040   0.255 -0.2665  0.0323  0.6636
 1915SOL    HW117381   1.467   0.998   0.181 -2.6789  1.0971 -1.3632
 1915SOL    HW217382   1.490   1.094   0.297 -1.9799  3.1963 -0.6532
 1916SOL     OW17383   2.564   1.257   8.233 -0.5146  0.0092  0.0624
 1916SOL    HW117384   2.651   1.264   8.193 -0.6582 -1.4671 -0.5042
 1916SOL    HW217385   2.513   1.195   8.180 -0.5057  1.1843 -1.3091
 1917SOL     OW17386   2.547   0.556   4.577  0.0041 -0.3813 -0.2290
 1917SOL    HW117387   2.558   0.461   4.570  0.2732 -0.5083  2.0628
 1917SOL    HW217388   2.507   0.561   4.664  0.8766  3.3492 -0.0445
 1918SOL     OW17389   1.150   4.626   3.216  0.2926  0.5043  0.0654
 1918SOL    HW117390   1.159   4.639   3.121  1.4616 -1.9830 -0.1737
 1918SOL    HW217391   1.129   4.533   3.227 -0.7198  0.3526 -3.1831
 1919SOL     OW17392   2.920   1.930   2.015 -0.1572  0.0662 -0.0656
 1919SOL    HW117393   2.946   1.858   1.957  1.3743 -0.3034  1.0587
 1919SOL    HW217394   2.879   1.883   2.087 -0.2258  0.7357  0.3355
 1920SOL     OW17395   2.983   4.050  14.655 -0.4060 -0.1030  0.1200
 1920SOL    HW117396   3.003   4.042  14.561  0.6409  1.2626  0.2300
 1920SOL    HW217397   3.067   4.078  14.690 -1.9540  1.0398  2.8838
 1921SOL     OW17398   4.717   4.358   5.353  0.0717  0.0086  0.0384
 1921SOL    HW117399   0.032   4.281   5.374 -2.0343 -1.0317  1.2661
 1921SOL    HW217400   4.637   4.344   5.403 -0.2015  2.9483  0.4285
 1922SOL     OW17401   1.521   0.411  17.138  0.0568 -0.4938  0.6808
 1922SOL    HW117402   1.546   0.330  17.093  0.8784  0.4002 -0.4960
 1922SOL    HW217403   1.430   0.420  17.107  0.0924  1.6564  1.1840
 1923SOL     OW17404   0.157   0.029  15.944  0.0454  0.6059  0.0967
 1923SOL    HW117405   0.077   0.067  15.906 -1.7639 -0.8255  2.4618
 1923SOL    HW217406   0.156   0.052  16.037 -1.8377 -2.6486  0.8859
 1924SOL     OW17407   3.235   2.008   8.286 -0.4656 -0.2549  0.0619
 1924SOL    HW117408   3.189   1.946   8.229  0.0487  0.0087 -0.6407
 1924SOL    HW217409   3.160   2.058   8.318 -0.1054  0.5579 -0.3715
 1925SOL     OW17410   2.784   0.711   6.704  0.1513 -0.2506 -0.2160
 1925SOL    HW117411   2.792   0.807   6.708  1.5989 -0.3688 -0.3438
 1925SOL    HW217412   2.878   0.698   6.712  0.1411  0.4564  1.0456
 1926SOL     OW17413   4.679   0.744  10.008  0.6721 -0.0031  1.0378
 1926SOL    HW117414   4.657   0.700   9.926 -1.8588  3.1525  0.0397
 1926SOL    HW217415   4.588   0.760  10.030  0.5483  1.4821 -0.5799
 1927SOL     OW17416   3.073   1.141  15.799  0.2472  0.1584 -0.4039
 1927SOL    HW117417   3.121   1.084  15.859 -0.6670 -1.3348 -1.0942
 1927SOL    HW217418   3.086   1.103  15.713 -1.6510  1.6997 -1.4000
 1928SOL     OW17419   3.234   0.969  15.615 -0.0932  0.2457  0.1436
 1928SOL    HW117420   3.253   0.961  15.522  1.7173 -1.1338  0.6101
 1928SOL    HW217421   3.305   1.026  15.644  0.3606 -0.7931  1.1174
 1929SOL     OW17422   3.253   3.481   8.246 -0.3015 -0.3837 -0.1368
 1929SOL    HW117423   3.166   3.479   8.205 -0.8769  0.0744  1.0345
 1929SOL    HW217424   3.243   3.551   8.311 -0.7352 -0.6154  0.0489
 1930SOL     OW17425   4.557   2.788  11.610 -0.1987  0.4295  0.1165
 1930SOL    HW117426   4.498   2.838  11.666 -0.8159 -1.2979  0.9976
 1930SOL    HW217427   4.631   2.772  11.669 -0.6356 -2.6759 -0.1524
 1931SOL     OW17428   4.269   0.547  16.477  0.2910  0.1648 -0.0398
 1931SOL    HW117429   4.282   0.635  16.511  1.8123  0.3033 -0.9658
 1931SOL    HW217430   4.174   0.548  16.470  0.1919  1.1929  1.6773
 1932SOL     OW17431   0.463   3.035   8.552  0.3427  0.2033  0.1493
 1932SOL    HW117432   0.547   3.042   8.506  0.1443 -1.1845 -0.4318
 1932SOL    HW217433   0.429   3.124   8.541 -1.1424 -0.5360 -1.3573
 1933SOL     OW17434   4.079   0.106   1.849  0.0427  0.5948 -0.1510
 1933SOL    HW117435   3.984   0.119   1.855  0.1950  1.4269  0.5465
 1933SOL    HW217436   4.102   0.061   1.930  1.6932  2.2006  0.2865
 1934SOL     OW17437   2.982   0.567   5.692 -0.1772  0.1255  0.6530
 1934SOL    HW117438   3.071   0.531   5.698 -0.1310  0.3984  1.5308
 1934SOL    HW217439   2.976   0.546   5.598  1.9136 -0.7568  0.7146
 1935SOL     OW17440   3.992   0.645   1.697 -0.0299  0.3270  0.3024
 1935SOL    HW117441   4.055   0.574   1.683 -1.2396 -0.5235 -0.8949
 1935SOL    HW217442   4.047   0.710   1.740  0.9642 -0.5984  0.4422
 1936SOL     OW17443   3.202   0.166   6.513 -0.5793  0.0000  0.1987
 1936SOL    HW117444   3.256   0.233   6.554  0.9137  0.0799 -1.9513
 1936SOL    HW217445   3.268   0.097   6.508 -1.5628 -0.9468  0.0599
 1937SOL     OW17446   1.308   3.468   3.710  0.6214 -0.1352 -0.0821
 1937SOL    HW117447   1.235   3.526   3.734  2.0094  2.0512 -1.1200
 1937SOL    HW217448   1.279   3.418   3.634 -0.7353 -0.1231  0.4236
 1938SOL     OW17449   4.091   3.452   2.581 -0.3538  0.4065 -0.3743
 1938SOL    HW117450   4.113   3.542   2.557 -4.5109  1.6127  0.4492
 1938SOL    HW217451   4.045   3.415   2.506  0.8847  0.8491 -1.3453
 1939SOL     OW17452   3.493   2.819  14.197 -0.1932 -0.2896 -0.0333
 1939SOL    HW117453   3.571   2.875  14.195 -0.7740  0.5396  0.4055
 1939SOL    HW217454   3.523   2.754  14.134  1.6353  1.3553 -0.8714
 1940SOL     OW17455   0.570   1.953   1.841  0.1222  0.2065  0.3597
 1940SOL    HW117456   0.557   1.859   1.826 -3.2359  0.8768 -0.9757
 1940SOL    HW217457   0.560   1.947   1.936 -1.6735 -0.7968  0.1054
 1941SOL     OW17458   2.557   1.815   9.325  0.3442 -0.0580 -0.3273
 1941SOL    HW117459   2.495   1.858   9.383 -0.1702 -1.3504  0.0829
 1941SOL    HW217460   2.595   1.891   9.281  2.0280 -1.7110 -1.7454
 1942SOL     OW17461   2.211   0.175   5.082  0.0243 -0.3983  0.0128
 1942SOL    HW117462   2.124   0.147   5.053 -0.4243  0.6650  0.3166
 1942SOL    HW217463   2.195   0.264   5.111  0.7875  0.3016 -1.7261
 1943SOL     OW17464   0.299   1.457   9.563 -0.0576 -0.0750  0.6437
 1943SOL    HW117465   0.302   1.388   9.497  2.3165  0.2510  0.4311
 1943SOL    HW217466   0.231   1.418   9.618 -0.3958  0.3232  0.5122
 1944SOL     OW17467   0.234   3.736   3.573  0.5779 -0.2402 -0.2147
 1944SOL    HW117468   0.201   3.762   3.659  2.1764  0.0215  0.3246
 1944SOL    HW217469   0.157   3.682   3.556 -0.1083  0.2471  1.3468
 1945SOL     OW17470   0.497   0.343   4.294  0.0352  0.1898 -0.0843
 1945SOL    HW117471   0.416   0.393   4.290 -1.5366 -2.2259  1.3360
 1945SOL    HW217472   0.458   0.263   4.328  3.1011 -1.4579 -0.4669
 1946SOL     OW17473   1.306   0.496  13.494  0.3028 -0.2927 -0.3183
 1946SOL    HW117474   1.249   0.437  13.543  1.0173  0.3732  1.3138
 1946SOL    HW217475   1.349   0.433  13.435 -0.8312 -0.7148 -0.6939
 1947SOL     OW17476   2.547   4.069   4.913 -0.0538  0.5730 -0.9429
 1947SOL    HW117477   2.615   4.077   4.979 -1.8878  0.9543  0.8733
 1947SOL    HW217478   2.509   4.156   4.908  1.3581  1.2423  0.2141
 1948SOL     OW17479   2.209   1.769  10.159 -0.8170 -0.2610 -0.9417
 1948SOL    HW117480   2.126   1.811  10.179 -0.7507  0.3506 -1.9074
 1948SOL    HW217481   2.260   1.841  10.120  0.0667  0.2583  1.1634
 1949SOL     OW17482   2.774   2.967   1.899  0.3224 -0.3374  0.2815
 1949SOL    HW117483   2.798   2.915   1.823  2.1964  1.0343 -0.0706
 1949SOL    HW217484   2.717   3.026   1.850  0.0393 -1.3784 -0.6560
 1950SOL     OW17485   0.804   1.394   5.880  0.0057  0.1517  0.2290
 1950SOL    HW117486   0.762   1.452   5.817 -1.1601 -0.6040  0.3256
 1950SOL    HW217487   0.787   1.310   5.835  2.2067  0.9929 -2.1932
 1951SOL     OW17488   1.506   0.877   2.793  0.0957  0.2806  0.4196
 1951SOL    HW117489   1.417   0.878   2.827 -0.1490 -0.3723 -0.1940
 1951SOL    HW217490   1.555   0.917   2.864  1.8165  0.9019 -1.1015
 1952SOL     OW17491   1.766   1.185   0.539  0.1015 -0.1921  1.0466
 1952SOL    HW117492   1.716   1.133   0.601 -2.2305  2.1165  1.1041
 1952SOL    HW217493   1.711   1.198   0.462  0.2793  1.9671  1.2691
 1953SOL     OW17494   2.460   0.706  12.012  0.0226 -0.1451 -0.1506
 1953SOL    HW117495   2.535   0.745  12.055 -0.5060  0.5361  0.1559
 1953SOL    HW217496   2.498   0.710  11.924  0.5516 -0.0753  0.0875
 1954SOL     OW17497   2.150   2.792  10.241 -0.6085  0.4880 -0.0994
 1954SOL    HW117498   2.079   2.730  10.254 -1.3251  0.8843 -2.0596
 1954SOL    HW217499   2.174   2.799  10.333 -0.7322 -1.0889  0.0503
 1955SOL     OW17500   2.610   0.503   9.059  0.1435 -0.1002 -0.3324
 1955SOL    HW117501   2.626   0.583   9.109  2.0033 -0.5513 -0.1866
 1955SOL    HW217502   2.670   0.439   9.097  0.0264 -0.5027 -0.8255
 1956SOL     OW17503   0.155   4.626  14.524 -0.0782  0.0552  0.2205
 1956SOL    HW117504   0.167   4.570  14.448 -1.6124 -0.0096  0.0102
 1956SOL    HW217505   0.060   4.621  14.534  0.1073 -0.9085  1.4601
 1957SOL     OW17506   1.588   3.149   6.624 -0.2315 -0.7661  0.1708
 1957SOL    HW117507   1.512   3.108   6.584 -0.0022 -2.3343  1.3461
 1957SOL    HW217508   1.546   3.227   6.661 -3.3327 -2.3028 -0.1479
 1958SOL     OW17509   1.998   1.133   6.577  0.5856  0.0399 -0.1477
 1958SOL    HW117510   1.940   1.123   6.653 -0.9398 -0.1968 -1.3558
 1958SOL    HW217511   2.033   1.044   6.571  2.1941  0.3299  4.5413
 1959SOL     OW17512   1.893   4.029   1.735  0.8430  0.2498  0.0571
 1959SOL    HW117513   1.847   3.953   1.701  0.7603 -0.1221  0.9869
 1959SOL    HW217514   1.978   3.992   1.757  0.3319 -0.0967  1.4719
 1960SOL     OW17515   3.914   2.575   5.210  0.7070 -0.5437 -0.5792
 1960SOL    HW117516   3.865   2.568   5.128 -1.0750  2.0018  0.2902
 1960SOL    HW217517   3.994   2.539   5.172  1.2195 -1.6097  1.5427
 1961SOL     OW17518   3.399   2.845   6.924  0.0360  0.1859 -0.0266
 1961SOL    HW117519   3.472   2.907   6.931 -0.0035  0.4764 -2.2192
 1961SOL    HW217520   3.430   2.798   6.847 -2.7331 -2.5363  0.5366
 1962SOL     OW17521   2.348   3.082   1.993 -0.3668  0.7920  0.0509
 1962SOL    HW117522   2.425   3.051   2.040 -1.3347  0.1577  1.2068
 1962SOL    HW217523   2.377   3.171   1.972  0.5169  1.3151  3.6424
 1963SOL     OW17524   2.587   1.321   8.495  0.1407 -0.1772 -0.0442
 1963SOL    HW117525   2.575   1.282   8.408  0.4536 -0.1169 -0.1149
 1963SOL    HW217526   2.604   1.239   8.541  2.0079  0.2425  0.0151
 1964SOL     OW17527   2.384   0.158   8.685  0.5424  0.2908  0.2990
 1964SOL    HW117528   2.347   0.091   8.743 -1.8785 -0.7853 -2.5252
 1964SOL    HW217529   2.310   0.218   8.672  1.4672  1.3337 -0.1608
 1965SOL     OW17530   1.023   3.062   4.954 -0.4183  0.5599  0.1636
 1965SOL    HW117531   0.991   3.135   4.901 -2.7849  0.7909  1.8986
 1965SOL    HW217532   0.946   3.020   4.991  1.6026 -0.9227  2.6299
 1966SOL     OW17533   2.654   0.156   0.923 -0.2016 -0.4114  0.0861
 1966SOL    HW117534   2.592   0.226   0.903 -0.3939 -0.3000  1.0727
 1966SOL    HW217535   2.594   0.107   0.978  0.1687 -1.2297 -0.2449
 1967SOL     OW17536   3.078   4.491   4.192 -0.3657 -0.2652  0.9847
 1967SOL    HW117537   3.058   4.425   4.126  0.8440  0.2449  0.1242
 1967SOL    HW217538   3.029   4.452   4.265  0.9722 -1.8210  1.0689
 1968SOL     OW17539   2.296   0.818   3.826 -0.0853 -0.4216 -0.4492
 1968SOL    HW117540   2.225   0.811   3.891  0.7684  0.5875  0.5981
 1968SOL    HW217541   2.367   0.807   3.889 -0.2983 -0.2158 -0.1726
 1969SOL     OW17542   0.406   2.145  12.642 -0.7141  0.2980 -0.1493
 1969SOL    HW117543   0.382   2.236  12.661  1.2946  0.6575  0.6394
 1969SOL    HW217544   0.474   2.150  12.575  0.0607  2.6413  0.8097
 1970SOL     OW17545   1.848   4.724  16.150 -0.4134 -0.9820 -0.1159
 1970SOL    HW117546   1.854   4.664  16.225  2.9870  0.3506  0.6345
 1970SOL    HW217547   1.872   4.657  16.086 -1.2616  1.0856 -2.5600
 1971SOL     OW17548   2.466   0.927   3.245 -0.6546  0.5468 -0.4780
 1971SOL    HW117549   2.424   0.843   3.266  0.7274  0.0125  0.1594
 1971SOL    HW217550   2.387   0.972   3.215 -2.1188 -1.0732  0.9731
 1972SOL     OW17551   3.652   2.204  14.228  0.1968 -0.6288 -0.2826
 1972SOL    HW117552   3.590   2.218  14.157 -0.1919 -3.7411 -0.5594
 1972SOL    HW217553   3.639   2.276  14.290  1.3146 -2.0079  1.5365
 1973SOL     OW17554   0.715   0.388   7.736 -0.0634  0.2600 -0.2056
 1973SOL    HW117555   0.769   0.399   7.814 -0.7622 -3.2734  0.8297
 1973SOL    HW217556   0.715   0.477   7.701  0.6118  0.0697 -0.6790
 1974SOL     OW17557   1.026   4.571   3.598 -0.2692  0.0259 -0.6585
 1974SOL    HW117558   1.036   4.556   3.692 -2.6595  1.0144 -0.2443
 1974SOL    HW217559   0.975   4.651   3.607  2.0984  1.3694  0.8055
 1975SOL     OW17560   2.332   0.020   6.038  0.2067 -0.1792 -0.2953
 1975SOL    HW117561   2.405   0.033   5.977  0.5075  1.6889  0.4584
 1975SOL    HW217562   2.384   4.713   6.105 -0.3583 -1.3348 -0.6049
 1976SOL     OW17563   2.154   3.391   3.282 -0.2098  0.2948  0.0002
 1976SOL    HW117564   2.119   3.476   3.307 -0.4704  0.5390 -1.2244
 1976SOL    HW217565   2.162   3.346   3.367  1.0513  0.1271 -0.1952
 1977SOL     OW17566   2.394   0.721  12.988  0.0338  1.2533 -0.1179
 1977SOL    HW117567   2.451   0.774  13.044  1.2057  1.0825 -1.1506
 1977SOL    HW217568   2.405   0.634  13.027  0.4717  1.0280 -0.7441
 1978SOL     OW17569   2.189   2.032   7.429  0.2498 -0.0074  0.3911
 1978SOL    HW117570   2.142   1.949   7.434  0.8152 -0.4694 -1.8168
 1978SOL    HW217571   2.278   2.002   7.409  0.3453 -0.4672  1.5300
 1979SOL     OW17572   0.536   4.688   8.751  0.1329  0.1040  0.1469
 1979SOL    HW117573   0.588   4.646   8.820  1.0948  0.0933 -0.5821
 1979SOL    HW217574   0.458   4.634   8.759  1.1024 -1.5960 -1.9432
 1980SOL     OW17575   0.677   1.778   2.509 -0.2098  1.0303 -0.2614
 1980SOL    HW117576   0.618   1.716   2.553 -0.2830  0.9139 -0.5242
 1980SOL    HW217577   0.757   1.730   2.487 -0.5754 -0.2355  1.1720
 1981SOL     OW17578   0.131   3.935   2.627  0.5359 -0.3695  0.2065
 1981SOL    HW117579   0.083   4.001   2.577  0.7665 -0.7808 -0.5527
 1981SOL    HW217580   0.217   3.954   2.590  0.0031 -0.2088 -0.9544
 1982SOL     OW17581   0.766   1.208  15.209  0.0838  0.2825 -0.8224
 1982SOL    HW117582   0.737   1.277  15.269  0.4801  1.6388 -2.2007
 1982SOL    HW217583   0.701   1.233  15.144 -1.7052  0.7999  1.1407
 1983SOL     OW17584   1.797   3.106   8.859  0.3785 -0.2109 -0.6515
 1983SOL    HW117585   1.807   3.191   8.902  1.1416 -0.4322 -0.3836
 1983SOL    HW217586   1.702   3.096   8.868  0.8805 -2.8590  1.9809
 1984SOL     OW17587   4.011   0.120   9.076  0.0164 -1.0445  0.0474
 1984SOL    HW117588   3.931   0.103   9.125 -0.5226  2.5952  0.3792
 1984SOL    HW217589   4.076   0.152   9.139  1.3935  0.1870 -2.0282
 1985SOL     OW17590   0.073   3.330   6.930 -0.5317  0.0668 -0.4980
 1985SOL    HW117591   4.720   3.323   6.961 -0.0258  1.1961  1.2282
 1985SOL    HW217592   0.105   3.343   7.019  0.4255 -1.4418 -0.6242
 1986SOL     OW17593   2.397   4.499   7.530  0.1089  0.2792 -0.3482
 1986SOL    HW117594   2.319   4.522   7.478 -0.1708 -0.7231 -0.3599
 1986SOL    HW217595   2.453   4.574   7.509 -2.1957  2.3430  0.7996
 1987SOL     OW17596   2.413   1.898   6.623 -0.1348 -0.4802 -0.4610
 1987SOL    HW117597   2.387   1.807   6.637  0.6037 -0.2589  2.2791
 1987SOL    HW217598   2.397   1.931   6.711 -0.3671 -0.3707 -0.5444
 1988SOL     OW17599   0.442   1.211   5.918 -0.0623 -0.3548  0.3858
 1988SOL    HW117600   0.484   1.259   5.848  0.9760 -0.7948  0.7030
 1988SOL    HW217601   0.358   1.255   5.933  0.4793  1.6970 -2.6133
 1989SOL     OW17602   2.640   2.343   3.037 -0.6329 -0.2552  0.0440
 1989SOL    HW117603   2.547   2.361   3.027 -0.7813 -0.2922  1.4719
 1989SOL    HW217604   2.674   2.426   3.069 -0.9028 -0.2269  0.2558
 1990SOL     OW17605   4.411   3.133   6.131  0.4242 -0.7303 -0.0217
 1990SOL    HW117606   4.386   3.079   6.206 -1.2775 -0.7317 -0.5836
 1990SOL    HW217607   4.333   3.133   6.076 -0.3688  1.9370  1.1321
 1991SOL     OW17608   0.507   0.977   8.502  0.0482  0.6197  0.1920
 1991SOL    HW117609   0.442   0.994   8.569  1.7636 -0.4842  2.1577
 1991SOL    HW217610   0.518   1.062   8.459  0.7903  0.2377 -0.3869
 1992SOL     OW17611   1.852   3.357   8.998  0.7772  0.4652 -0.7202
 1992SOL    HW117612   1.818   3.370   9.087  0.6429  0.6089 -0.7934
 1992SOL    HW217613   1.944   3.378   9.013 -0.4179  3.9542  1.7469
 1993SOL     OW17614   2.817   4.526   6.604  0.1746 -0.3794  0.1703
 1993SOL    HW117615   2.834   4.475   6.525  0.2279 -1.1058  0.6464
 1993SOL    HW217616   2.895   4.580   6.612 -1.1152  1.1964  2.1516
 1994SOL     OW17617   1.982   2.173   9.276 -0.0218  0.2633 -0.8461
 1994SOL    HW117618   1.959   2.080   9.270  1.4500 -0.2981  2.4882
 1994SOL    HW217619   2.075   2.160   9.255 -0.3999 -0.0102 -2.3796
 1995SOL     OW17620   3.845   3.112   9.034  0.0607  0.5087  0.1168
 1995SOL    HW117621   3.878   3.162   8.959  1.6879 -0.9027 -0.0980
 1995SOL    HW217622   3.928   3.080   9.069 -0.7722 -0.8394  0.8350
 1996SOL     OW17623   3.501   2.767   5.876 -0.9345  0.6804 -0.6056
 1996SOL    HW117624   3.410   2.739   5.878 -0.6383 -0.3695 -1.8028
 1996SOL    HW217625   3.514   2.835   5.809 -0.9476  1.1221 -0.1622
 1997SOL     OW17626   1.352   1.133   5.560 -0.4562 -0.5005 -0.3839
 1997SOL    HW117627   1.300   1.055   5.582 -1.5422  0.1382 -0.6642
 1997SOL    HW217628   1.348   1.182   5.642 -0.5613 -0.8649 -0.1712
 1998SOL     OW17629   4.034   3.328   8.952  0.1749 -0.2318 -0.1594
 1998SOL    HW117630   4.017   3.340   9.045  0.9450 -0.0075 -0.0532
 1998SOL    HW217631   4.126   3.303   8.958  0.0196 -0.3977  1.4003
 1999SOL     OW17632   1.485   3.887   3.511  0.3826  0.6504 -0.3785
 1999SOL    HW117633   1.490   3.816   3.447  0.8157  1.0388 -0.7857
 1999SOL    HW217634   1.572   3.882   3.550  0.6077 -0.4978 -1.0426
 2000SOL     OW17635   1.100   0.448   8.982  0.1366 -0.1267 -0.6687
 2000SOL    HW117636   1.102   0.517   9.048 -2.7987 -0.9767  0.2980
 2000SOL    HW217637   1.192   0.425   8.972  0.0442 -1.5203  1.6421
 2001SOL     OW17638   4.260   2.449  12.569 -0.0857 -0.1358  0.0234
 2001SOL    HW117639   4.168   2.428  12.580 -0.2849  1.0632  0.7224
 2001SOL    HW217640   4.295   2.370  12.528 -0.1739 -0.0859 -0.1453
 2002SOL     OW17641   4.367   0.388   1.928 -0.0976 -0.0387 -0.1186
 2002SOL    HW117642   4.446   0.382   1.873  0.2670  0.1499  0.3811
 2002SOL    HW217643   4.354   0.482   1.939  0.3343 -0.1032  0.9652
 2003SOL     OW17644   1.225   3.122   6.676 -0.0124 -0.1523  0.8525
 2003SOL    HW117645   1.140   3.079   6.672 -0.3935  0.5259  1.6218
 2003SOL    HW217646   1.269   3.070   6.609 -3.4512  0.7900 -2.1260
 2004SOL     OW17647   4.507   0.655   4.680 -0.2221 -0.3192 -0.2162
 2004SOL    HW117648   4.435   0.616   4.630 -1.1022 -0.0764  0.8583
 2004SOL    HW217649   4.520   0.593   4.752 -0.6819 -0.0373  0.1113
 2005SOL     OW17650   2.336   0.281   2.843 -0.1340  0.5508  0.3316
 2005SOL    HW117651   2.382   0.228   2.907 -1.2093 -1.1428 -0.2791
 2005SOL    HW217652   2.257   0.313   2.888 -1.6027 -0.2009 -1.7075
 2006SOL     OW17653   0.152   4.267   8.777  0.3228  0.2955 -0.5251
 2006SOL    HW117654   0.139   4.227   8.863  1.9852  1.4078  0.2523
 2006SOL    HW217655   0.221   4.212   8.740 -0.9106 -0.5396 -1.5610
 2007SOL     OW17656   0.912   3.954   2.715  0.0854 -0.5184  0.0108
 2007SOL    HW117657   0.908   4.023   2.781  0.1223  0.1615 -0.7119
 2007SOL    HW217658   0.905   3.877   2.772 -0.2206 -0.5334 -0.0481
 2008SOL     OW17659   0.760   2.755   9.840  0.4280  0.3421 -0.1790
 2008SOL    HW117660   0.844   2.765   9.884 -0.0292 -1.0610  1.0023
 2008SOL    HW217661   0.717   2.686   9.891  0.5998  1.3422  1.3222
 2009SOL     OW17662   0.437   3.311   3.026  0.7445  0.1852 -0.1530
 2009SOL    HW117663   0.508   3.251   3.051  1.6161  0.9965 -0.7207
 2009SOL    HW217664   0.388   3.248   2.972 -1.6466  0.7626  1.3375
 2010SOL     OW17665   1.975   1.690   7.221  0.1630  0.2457 -0.7377
 2010SOL    HW117666   2.025   1.686   7.302  0.7930  0.3975 -1.1237
 2010SOL    HW217667   2.037   1.744   7.174  0.0955 -0.3696 -1.5392
 2011SOL     OW17668   0.385   1.761   8.440 -0.2422 -0.4044 -0.8186
 2011SOL    HW117669   0.421   1.701   8.507 -0.1551  0.4081 -0.1403
 2011SOL    HW217670   0.420   1.714   8.365  1.2047 -0.1472 -0.3115
 2012SOL     OW17671   3.237   3.943  12.245 -0.1843  0.2905 -0.1452
 2012SOL    HW117672   3.305   3.944  12.177  0.1211 -0.8486  0.1422
 2012SOL    HW217673   3.162   3.966  12.190 -0.4252 -0.9714 -0.3536
 2013SOL     OW17674   0.241   1.336   7.665 -0.2677  0.0818 -0.3833
 2013SOL    HW117675   0.203   1.290   7.740  0.5132 -1.3957 -0.9003
 2013SOL    HW217676   0.288   1.412   7.699  1.6673 -0.3495 -2.1479
 2014SOL     OW17677   1.548   3.051  17.051 -0.5257 -0.0407  0.2484
 2014SOL    HW117678   1.500   3.133  17.037  0.2877  0.0774 -1.8238
 2014SOL    HW217679   1.624   3.056  16.993 -1.1665 -0.4397 -0.6145
 2015SOL     OW17680   1.630   4.041  13.331 -0.1935 -0.3898 -0.4866
 2015SOL    HW117681   1.599   4.012  13.417  0.1104 -1.2704 -0.6678
 2015SOL    HW217682   1.694   3.976  13.299 -0.6930 -0.0669 -2.1201
 2016SOL     OW17683   0.653   4.483   8.265 -0.0175 -0.4355 -0.1736
 2016SOL    HW117684   0.610   4.563   8.296 -0.0615 -1.7514  3.1006
 2016SOL    HW217685   0.733   4.464   8.313 -1.5063 -1.1216  2.0269
 2017SOL     OW17686   1.619   1.232   8.417 -0.4702  0.5823 -0.1051
 2017SOL    HW117687   1.538   1.218   8.367 -0.5859  0.0473  0.2415
 2017SOL    HW217688   1.580   1.207   8.500  2.0655 -1.3789  0.4975
 2018SOL     OW17689   0.393   1.464   3.126  0.2331 -0.2768  0.1644
 2018SOL    HW117690   0.342   1.438   3.049 -0.7924 -0.9654  1.0751
 2018SOL    HW217691   0.411   1.554   3.099 -0.2926 -0.2301 -0.0216
 2019SOL     OW17692   4.549   1.161   8.369 -0.1607 -0.0127 -0.2518
 2019SOL    HW117693   4.554   1.139   8.461 -3.6323  0.9341  0.1810
 2019SOL    HW217694   4.456   1.181   8.363 -0.0401  0.1503 -1.5981
 2020SOL     OW17695   4.322   2.498   0.975  0.3193 -0.5168  0.0727
 2020SOL    HW117696   4.283   2.586   0.973 -1.9401 -1.5003  0.1410
 2020SOL    HW217697   4.366   2.495   0.890 -1.7292  0.3120 -1.0356
 2021SOL     OW17698   2.118   1.211  13.066 -0.4726  0.0394 -0.4758
 2021SOL    HW117699   2.185   1.223  13.133 -0.0414 -0.4388 -0.8225
 2021SOL    HW217700   2.100   1.293  13.020 -1.7808  0.5138  0.8675
 2022SOL     OW17701   1.133   2.358  14.984  0.1829  0.0029 -0.3377
 2022SOL    HW117702   1.203   2.296  14.967  0.0594 -0.4019  0.6085
 2022SOL    HW217703   1.072   2.305  15.036 -0.8410  1.7716  0.2796
 2023SOL     OW17704   0.035   1.584   9.514 -0.3287  0.4232  0.2118
 2023SOL    HW117705   0.102   1.542   9.569 -0.9974 -0.1396  0.6059
 2023SOL    HW217706   4.694   1.532   9.537  0.2152 -0.6321 -0.3474
 2024SOL     OW17707   0.677   1.083   0.015 -0.2289  0.0751  0.1763
 2024SOL    HW117708   0.747   1.147   0.028  1.9967 -2.5180  0.8252
 2024SOL    HW217709   0.661   1.067   0.108  0.9516  2.7674  0.8496
 2025SOL     OW17710   1.803   3.893  10.213 -0.1050 -0.0380 -0.7388
 2025SOL    HW117711   1.728   3.914  10.270  0.3825 -1.4454  0.4261
 2025SOL    HW217712   1.811   3.800  10.235 -1.4480 -0.2444 -1.1532
 2026SOL     OW17713   4.244   0.745   2.727 -0.0823  0.2513  0.2596
 2026SOL    HW117714   4.234   0.653   2.752 -1.2895  0.7662  1.6564
 2026SOL    HW217715   4.156   0.777   2.712 -0.8529 -2.2303 -0.5799
 2027SOL     OW17716   0.804   3.436   7.077 -0.0648  0.1484  0.1042
 2027SOL    HW117717   0.813   3.516   7.025  2.7026  0.1650  0.6039
 2027SOL    HW217718   0.729   3.467   7.129  0.8263 -0.0912  1.5278
 2028SOL     OW17719   2.050   2.811   3.500 -0.2386  0.1275 -0.7645
 2028SOL    HW117720   1.959   2.801   3.528  0.2727  0.9590  1.1539
 2028SOL    HW217721   2.046   2.773   3.412  1.3928  1.8962 -1.6172
 2029SOL     OW17722   1.185   3.481   7.784  0.5218 -0.2798  0.5415
 2029SOL    HW117723   1.157   3.462   7.695  0.0519  1.1429  0.3790
 2029SOL    HW217724   1.273   3.446   7.771  0.4507  0.2833 -1.4227
 2030SOL     OW17725   3.648   2.989   6.924 -0.3569 -0.0941  0.4013
 2030SOL    HW117726   3.735   3.007   6.888 -1.6746  3.1304 -1.2115
 2030SOL    HW217727   3.594   3.029   6.856  0.1964  0.3584  0.2249
 2031SOL     OW17728   4.715   0.978   7.632  0.1299 -0.2366  0.4262
 2031SOL    HW117729   4.685   1.061   7.595  1.6541 -0.2654 -0.8894
 2031SOL    HW217730   4.707   0.987   7.727 -1.6035 -4.5606  0.7032
 2032SOL     OW17731   1.054   4.547   8.223  0.3451  0.4640  0.2577
 2032SOL    HW117732   1.052   4.633   8.266 -1.4531  0.9716 -0.8643
 2032SOL    HW217733   1.114   4.500   8.281 -2.0119 -0.9991  1.5405
 2033SOL     OW17734   2.586   4.482   7.151  0.1442 -0.1025  0.5218
 2033SOL    HW117735   2.582   4.410   7.214  0.9435  0.1653  0.8795
 2033SOL    HW217736   2.633   4.547   7.204  0.8427 -0.4883  0.3736
 2034SOL     OW17737   0.720   4.081   6.304 -0.6516  0.2181 -0.0854
 2034SOL    HW117738   0.704   4.140   6.378 -0.6497 -1.0734  0.9454
 2034SOL    HW217739   0.652   4.015   6.310 -0.3748 -0.1870 -1.4924
 2035SOL     OW17740   0.966   1.109   5.038  0.7409 -0.4460 -0.0570
 2035SOL    HW117741   1.009   1.109   4.952 -0.9370 -0.3857 -0.8807
 2035SOL    HW217742   0.886   1.158   5.026  1.5023  1.1357  1.3414
 2036SOL     OW17743   3.818   1.959   1.782  0.0622  0.1860  0.5273
 2036SOL    HW117744   3.906   1.922   1.787  0.5508  1.0492 -1.9190
 2036SOL    HW217745   3.809   1.971   1.688  0.2567  2.1866  0.7636
 2037SOL     OW17746   2.968   1.746   9.816  0.8204  0.0370  0.1030
 2037SOL    HW117747   2.947   1.713   9.904 -2.7433 -0.9654 -1.1119
 2037SOL    HW217748   2.974   1.661   9.772  3.0152 -0.3462  1.1615
 2038SOL     OW17749   2.249   2.108  13.425 -0.0904  0.3104 -0.2344
 2038SOL    HW117750   2.265   2.033  13.483 -0.4265  1.9148  1.9326
 2038SOL    HW217751   2.184   2.161  13.471 -1.2249 -0.6774 -0.6806
 2039SOL     OW17752   2.322   4.191  11.907  0.5531  0.2841 -0.0180
 2039SOL    HW117753   2.353   4.189  11.998  0.8598 -1.1751 -0.1440
 2039SOL    HW217754   2.292   4.279  11.887  1.1119  0.4233 -0.2400
 2040SOL     OW17755   1.818   3.046   7.012  0.4539  0.0506 -0.3331
 2040SOL    HW117756   1.743   2.987   7.021  0.9219 -0.2007  1.8509
 2040SOL    HW217757   1.887   2.985   7.036  0.8167  0.9336  0.8820
 2041SOL     OW17758   1.765   4.525   5.362 -0.3146  0.2001 -0.0745
 2041SOL    HW117759   1.734   4.440   5.331  0.6629 -0.5148  0.8922
 2041SOL    HW217760   1.679   4.562   5.383 -0.2787 -0.0500  0.5079
 2042SOL     OW17761   0.859   4.397   9.688  0.8541  0.0011  0.4096
 2042SOL    HW117762   0.770   4.363   9.700  1.2386 -1.8310 -1.9397
 2042SOL    HW217763   0.881   4.435   9.773  0.8354 -0.3661  0.5775
 2043SOL     OW17764   4.467   3.222   1.409 -0.7113 -0.7018  0.5743
 2043SOL    HW117765   4.559   3.203   1.428 -0.7782 -3.1857 -1.5902
 2043SOL    HW217766   4.436   3.140   1.448 -2.0737 -0.5302 -0.1526
 2044SOL     OW17767   0.310   3.319   2.699 -0.2032  0.5525 -0.9006
 2044SOL    HW117768   0.267   3.323   2.613 -0.0762  1.5794 -0.9171
 2044SOL    HW217769   0.380   3.256   2.682  0.5895  0.8833  1.1378
 2045SOL     OW17770   4.472   3.839  10.564  0.9329  0.2348  0.3949
 2045SOL    HW117771   4.527   3.897  10.510 -0.5113 -0.6942 -2.0743
 2045SOL    HW217772   4.420   3.809  10.489  0.0608  1.8021  0.3650
 2046SOL     OW17773   1.420   0.234   7.563 -0.2309  0.0443 -0.3536
 2046SOL    HW117774   1.346   0.183   7.596 -0.8403 -0.1153 -1.9987
 2046SOL    HW217775   1.428   0.301   7.631  2.0674 -0.4696 -0.0987
 2047SOL     OW17776   2.633   1.693  11.933  0.5229  0.4115  0.4321
 2047SOL    HW117777   2.593   1.675  11.848  0.4320 -1.5141  0.8713
 2047SOL    HW217778   2.725   1.672  11.918 -0.4544 -1.8661 -2.3850
 2048SOL     OW17779   2.300   2.217  15.439  0.0229  0.5167  0.3081
 2048SOL    HW117780   2.225   2.262  15.398 -1.3442 -0.0612  2.1782
 2048SOL    HW217781   2.354   2.296  15.441  0.3811  0.2478  0.9851
 2049SOL     OW17782   3.273   1.952   4.447 -0.1654 -0.3013  0.0409
 2049SOL    HW117783   3.342   2.017   4.436 -3.4455  2.5581 -3.4497
 2049SOL    HW217784   3.235   1.989   4.527 -1.4373 -0.3124 -0.5541
 2050SOL     OW17785   1.327   2.274   7.979  0.2048  0.8742 -0.2522
 2050SOL    HW117786   1.379   2.288   8.058  0.3572  0.3242 -0.2527
 2050SOL    HW217787   1.368   2.337   7.920  0.6762  0.6791 -0.1336
 2051SOL     OW17788   0.836   1.894   3.120  0.6820  0.9211  0.2615
 2051SOL    HW117789   0.763   1.922   3.065 -0.7352 -2.3762  0.4466
 2051SOL    HW217790   0.822   1.957   3.190 -0.3007  0.7697  0.2011
 2052SOL     OW17791   0.182   2.645   2.812  0.0453 -0.1626 -0.1867
 2052SOL    HW117792   0.256   2.697   2.843 -2.3127  1.4609  2.7632
 2052SOL    HW217793   0.175   2.685   2.725 -1.1250  1.2435  0.5420
 2053SOL     OW17794   4.004   1.556   9.551  0.1988  0.2433  0.2362
 2053SOL    HW117795   3.955   1.599   9.481  0.2190  0.1499  0.1639
 2053SOL    HW217796   3.969   1.467   9.543 -2.6479  1.2166  1.8362
 2054SOL     OW17797   0.606   0.944   5.341  0.5072  0.1691  0.1302
 2054SOL    HW117798   0.511   0.944   5.342  0.5197  0.9095  1.1177
 2054SOL    HW217799   0.631   0.935   5.248 -2.3644  0.9555 -0.7052
 2055SOL     OW17800   1.691   2.863  16.441  0.3286  0.4540 -0.5735
 2055SOL    HW117801   1.727   2.891  16.357  0.6590 -0.4018 -0.7085
 2055SOL    HW217802   1.767   2.823  16.484  1.1610  1.4163 -1.1345
 2056SOL     OW17803   3.149   1.854   6.354 -0.3650 -0.3737 -0.5550
 2056SOL    HW117804   3.200   1.870   6.274  0.5391 -0.2979  0.0330
 2056SOL    HW217805   3.073   1.909   6.340  0.0536  0.8911  2.1650
 2057SOL     OW17806   2.872   4.352   4.642  0.4662  0.1850  0.2901
 2057SOL    HW117807   2.856   4.424   4.704  1.0133 -0.4708  1.1981
 2057SOL    HW217808   2.783   4.329   4.617  0.9836 -1.7740  0.2854
 2058SOL     OW17809   1.488   4.047   9.023  0.1642  0.6752  0.4105
 2058SOL    HW117810   1.580   4.030   9.043 -0.3291  0.1989  2.3695
 2058SOL    HW217811   1.446   3.999   9.094  1.3544  0.3855  0.9218
 2059SOL     OW17812   1.526   2.609   7.592 -0.1597  0.1601  0.6069
 2059SOL    HW117813   1.475   2.622   7.512 -0.0369 -0.9074  0.3497
 2059SOL    HW217814   1.610   2.648   7.570  0.0288 -0.8778 -0.4915
 2060SOL     OW17815   0.135   1.457   6.713  0.2610  0.2111  0.1488
 2060SOL    HW117816   0.127   1.516   6.638 -0.4373 -1.4772 -1.1022
 2060SOL    HW217817   0.229   1.437   6.708  0.2194 -0.0406  0.4016
 2061SOL     OW17818   4.076   1.002   0.390  0.0241 -0.4301  0.0215
 2061SOL    HW117819   4.066   0.932   0.454  1.8011 -1.0991 -0.4353
 2061SOL    HW217820   4.153   1.041   0.430  1.0892 -4.1563  1.6233
 2062SOL     OW17821   4.649   0.878   3.404  0.2438  0.2889 -0.6373
 2062SOL    HW117822   4.652   0.884   3.309  0.6139  0.3011 -0.6247
 2062SOL    HW217823   0.004   0.865   3.429  0.0903  0.4793  0.0295
 2063SOL     OW17824   3.473   2.481   6.477  0.1517 -1.0550  0.4124
 2063SOL    HW117825   3.422   2.401   6.462 -0.4476 -0.9921  2.1391
 2063SOL    HW217826   3.545   2.446   6.530 -0.9731 -2.6035  0.9062
 2064SOL     OW17827   3.389   2.535   8.065 -0.3322 -0.2329 -0.0357
 2064SOL    HW117828   3.360   2.444   8.060  1.4475 -0.7903 -0.3275
 2064SOL    HW217829   3.465   2.534   8.006 -0.6485 -1.8855 -0.4307
 2065SOL     OW17830   3.498   2.783   3.169 -0.0117 -0.6448  0.1104
 2065SOL    HW117831   3.497   2.742   3.255 -0.0300  2.4201  1.5593
 2065SOL    HW217832   3.548   2.862   3.191 -1.2901  0.4089 -0.7175
 2066SOL     OW17833   3.798   2.970   6.610 -0.1386 -0.4543 -0.0425
 2066SOL    HW117834   3.703   2.967   6.625 -0.7203  1.7526 -3.1933
 2066SOL    HW217835   3.825   3.029   6.680  0.1427  1.3974 -1.7141
 2067SOL     OW17836   3.827   0.739   6.008  0.0767  0.0793  0.1343
 2067SOL    HW117837   3.851   0.680   5.937 -3.1149 -2.7205  1.3812
 2067SOL    HW217838   3.831   0.821   5.958  1.2810  0.9856  1.7314
 2068SOL     OW17839   3.101   2.005   7.681 -0.0705 -0.0857  0.1711
 2068SOL    HW117840   3.021   2.008   7.629 -1.4391  2.0105  2.4450
 2068SOL    HW217841   3.165   1.993   7.611 -0.4777  0.2052 -0.2495
 2069SOL     OW17842   3.493   0.348   8.532 -0.1161  0.3193 -0.5019
 2069SOL    HW117843   3.525   0.274   8.584  0.3126  0.4984 -0.5123
 2069SOL    HW217844   3.556   0.365   8.462 -0.6341 -0.7073 -1.2235
 2070SOL     OW17845   1.824   2.663   2.035 -0.1387  0.3194  0.2882
 2070SOL    HW117846   1.845   2.755   2.024  0.7704  0.2013  0.9387
 2070SOL    HW217847   1.906   2.627   2.000  0.4201  1.3965  0.5097
 2071SOL     OW17848   4.496   2.601   1.665  0.2904  0.3244  0.3728
 2071SOL    HW117849   4.403   2.620   1.653  0.4027  0.1485 -0.7247
 2071SOL    HW217850   4.498   2.510   1.634 -1.3975 -0.0805  1.4402
 2072SOL     OW17851   2.533   1.548   6.293 -0.5889 -0.1640  0.0665
 2072SOL    HW117852   2.609   1.606   6.300  0.3316 -1.2161 -1.0653
 2072SOL    HW217853   2.473   1.615   6.324 -0.8149  0.4386 -1.7060
 2073SOL     OW17854   2.030   2.476  11.379  0.0069 -0.5919  0.0198
 2073SOL    HW117855   2.079   2.396  11.395  3.4736  1.8052  1.5914
 2073SOL    HW217856   2.096   2.532  11.338 -2.2341  0.5436 -2.0219
 2074SOL     OW17857   3.461   3.213  15.812  0.0770  0.0200  0.6106
 2074SOL    HW117858   3.423   3.288  15.857 -1.1326  0.1887 -0.6862
 2074SOL    HW217859   3.389   3.187  15.754  0.6772  0.8666 -0.5305
 2075SOL     OW17860   3.170   0.716  15.692 -0.1104 -0.2380  0.1670
 2075SOL    HW117861   3.173   0.646  15.628  1.5828  1.0719 -1.1897
 2075SOL    HW217862   3.212   0.793  15.653 -2.6938  0.4949 -1.1154
 2076SOL     OW17863   4.264   0.394   4.285  0.8816 -0.2073 -0.4621
 2076SOL    HW117864   4.282   0.300   4.281  0.1946 -0.4543  2.1154
 2076SOL    HW217865   4.278   0.411   4.192  1.5480  1.6629 -0.0298
 2077SOL     OW17866   4.435   1.065   3.808  0.4751  0.0384  0.2949
 2077SOL    HW117867   4.340   1.061   3.810  0.4692  0.7706  1.4230
 2077SOL    HW217868   4.466   0.975   3.811 -1.3335 -0.6305 -1.0935
 2078SOL     OW17869   1.696   0.101   8.864  0.0949 -0.1779  0.0371
 2078SOL    HW117870   1.691   0.015   8.906 -2.6188 -0.1238 -0.1472
 2078SOL    HW217871   1.682   0.165   8.933 -1.6822  1.9650 -2.2910
 2079SOL     OW17872   4.483   3.692   9.070  0.3604 -0.5357 -0.0655
 2079SOL    HW117873   4.495   3.784   9.095  0.2830 -0.3073 -0.8735
 2079SOL    HW217874   4.574   3.666   9.085  0.8446  0.7798 -0.7470
 2080SOL     OW17875   2.345   3.662   6.277  0.3141  0.0855 -0.2500
 2080SOL    HW117876   2.273   3.675   6.339 -0.0719 -1.6347 -0.3121
 2080SOL    HW217877   2.424   3.667   6.330 -0.0147  2.2112  0.0037
 2081SOL     OW17878   3.079   3.824  12.682  0.0207 -0.2184  0.2198
 2081SOL    HW117879   3.123   3.875  12.614 -0.1065 -0.2978  0.0799
 2081SOL    HW217880   3.118   3.870  12.757 -1.3763 -0.0671  0.8539
 2082SOL     OW17881   1.246   2.332   8.356  0.1213 -0.4118 -0.2711
 2082SOL    HW117882   1.242   2.411   8.410 -1.9510  0.5225 -1.8266
 2082SOL    HW217883   1.152   2.323   8.342 -0.4612  0.7284  2.9249
 2083SOL     OW17884   3.734   0.386   8.347 -0.6102 -0.1452 -0.3177
 2083SOL    HW117885   3.787   0.361   8.423  0.4987  0.3748 -0.9222
 2083SOL    HW217886   3.791   0.458   8.321  1.0317 -0.4271  2.3849
 2084SOL     OW17887   2.187   4.551  15.565 -0.3105 -0.2124  0.4249
 2084SOL    HW117888   2.231   4.599  15.494  0.0250  0.6391  1.1956
 2084SOL    HW217889   2.180   4.465  15.524 -0.2970  0.3535 -0.7822
 2085SOL     OW17890   4.596   2.811  14.792 -0.1033 -0.1258 -0.0001
 2085SOL    HW117891   4.523   2.797  14.731  1.2632 -0.4966 -1.5543
 2085SOL    HW217892   4.654   2.870  14.745  1.7014 -0.7808  1.3942
 2086SOL     OW17893   2.356   4.019   8.209  0.5868 -0.7096 -0.2938
 2086SOL    HW117894   2.296   4.049   8.278  2.1022 -1.0007  1.1503
 2086SOL    HW217895   2.386   4.098   8.164 -0.4859 -1.1401 -1.7604
 2087SOL     OW17896   1.601   0.237  16.930 -0.4720  0.4691  0.2081
 2087SOL    HW117897   1.640   0.171  16.988 -1.9310  1.5384  2.4149
 2087SOL    HW217898   1.652   0.217  16.852 -2.5093  4.5719 -2.2105
 2088SOL     OW17899   4.466   3.871   3.174  0.5626 -0.0537 -0.5391
 2088SOL    HW117900   4.538   3.810   3.158  1.8970  0.7258  2.6578
 2088SOL    HW217901   4.455   3.899   3.083 -0.5589 -1.0922 -0.7305
 2089SOL     OW17902   1.341   2.912   7.612  0.0510 -0.4187  0.0135
 2089SOL    HW117903   1.309   2.860   7.687 -1.8780 -0.9086 -1.1486
 2089SOL    HW217904   1.308   2.868   7.534 -0.5474 -1.0857  0.6346
 2090SOL     OW17905   1.854   0.820   3.171 -0.0803 -0.1529  0.4247
 2090SOL    HW117906   1.761   0.811   3.149 -0.8993 -0.9956  4.0551
 2090SOL    HW217907   1.856   0.794   3.264  1.1261  1.0702  0.7335
 2091SOL     OW17908   3.649   0.425   7.484 -0.5845  0.0830 -0.3448
 2091SOL    HW117909   3.617   0.482   7.414  1.2637  1.9028  0.3073
 2091SOL    HW217910   3.692   0.477   7.551  0.3548 -1.1866  0.0450
 2092SOL     OW17911   0.566   2.041   7.376  0.0571  0.6812 -0.7188
 2092SOL    HW117912   0.541   2.067   7.465  2.3166 -0.2578  0.1789
 2092SOL    HW217913   0.657   2.071   7.375  0.7241 -1.3384  0.4562
 2093SOL     OW17914   2.373   2.296   6.842 -0.2388  0.1502 -0.0027
 2093SOL    HW117915   2.448   2.354   6.831  0.2347 -0.6497 -0.9648
 2093SOL    HW217916   2.338   2.304   6.753  0.5486 -2.0894 -0.5118
 2094SOL     OW17917   4.425   4.521   5.087  0.1195 -0.0562 -0.2147
 2094SOL    HW117918   4.475   4.592   5.047  0.1196  0.0882  0.0392
 2094SOL    HW217919   4.489   4.453   5.069  1.7384  1.4062 -0.0310
 2095SOL     OW17920   1.911   0.111   3.713 -0.1941  0.4749  0.2439
 2095SOL    HW117921   1.908   0.185   3.774 -0.2600 -0.1152  0.9586
 2095SOL    HW217922   1.993   0.068   3.738 -0.2509 -0.5905 -1.4250
 2096SOL     OW17923   4.223   1.508  11.359  0.4757  0.2411 -0.6537
 2096SOL    HW117924   4.235   1.465  11.274  0.3443 -1.1669  0.0270
 2096SOL    HW217925   4.211   1.433  11.417  2.4598 -0.5255 -1.2360
 2097SOL     OW17926   1.897   2.623   7.127 -0.0356 -0.2602  0.3398
 2097SOL    HW117927   1.948   2.569   7.067 -0.9890 -0.1808 -0.5368
 2097SOL    HW217928   1.958   2.640   7.199  1.9136 -2.1749 -0.8466
 2098SOL     OW17929   2.185   0.906   6.566 -0.7564  0.3386  0.0916
 2098SOL    HW117930   2.273   0.904   6.528 -0.9734 -0.8854 -0.3337
 2098SOL    HW217931   2.209   0.851   6.641 -0.1372 -1.7822 -1.6604
 2099SOL     OW17932   1.555   1.136  15.676 -0.6443 -0.2366 -0.4709
 2099SOL    HW117933   1.562   1.225  15.642  1.4198 -1.1688 -2.4755
 2099SOL    HW217934   1.531   1.084  15.600  1.4232  0.2096 -1.4306
 2100SOL     OW17935   1.661   1.167  16.954 -0.2406 -0.1781 -0.1078
 2100SOL    HW117936   1.723   1.227  16.997 -2.2090 -0.8966  3.7238
 2100SOL    HW217937   1.730   1.114  16.914 -0.1506  0.3374 -0.6280
 2101SOL     OW17938   0.941   0.836   4.208  0.2309 -0.0635 -0.3506
 2101SOL    HW117939   0.991   0.773   4.260  2.1505  1.2953 -0.5765
 2101SOL    HW217940   0.945   0.791   4.124 -1.1738  0.0556 -0.4830
 2102SOL     OW17941   4.219   1.243  11.473  0.1204  0.0581 -0.3045
 2102SOL    HW117942   4.133   1.209  11.499  1.0441 -1.7141  0.4597
 2102SOL    HW217943   4.275   1.166  11.485  2.6057  2.1203  1.0653
 2103SOL     OW17944   1.703   1.103   4.047  0.6432  0.5002  0.1370
 2103SOL    HW117945   1.760   1.098   3.971  1.4755 -0.3014  0.8053
 2103SOL    HW217946   1.692   1.195   4.069 -0.2084  0.6159 -0.7672
 2104SOL     OW17947   2.719   1.142  16.507 -0.0486 -0.1577 -0.1305
 2104SOL    HW117948   2.730   1.049  16.488 -1.6609  0.1491 -2.5302
 2104SOL    HW217949   2.809   1.176  16.506 -1.0353  2.5206  0.3518
 2105SOL     OW17950   0.379   0.243  16.139 -0.3092  0.3521  0.8567
 2105SOL    HW117951   0.294   0.201  16.148 -0.7173  1.2093  1.0457
 2105SOL    HW217952   0.366   0.317  16.199 -1.4919  1.4971 -0.8057
 2106SOL     OW17953   2.464   1.481   5.806  0.2851 -0.4001  0.1305
 2106SOL    HW117954   2.418   1.485   5.890  0.6354  0.7343  0.2636
 2106SOL    HW217955   2.525   1.555   5.803 -0.2777  0.1173  1.5870
 2107SOL     OW17956   3.048   4.688   6.664  0.3170 -0.6835 -0.9272
 2107SOL    HW117957   3.064   4.721   6.752 -1.7882  0.5761 -1.0017
 2107SOL    HW217958   3.045   0.032   6.612  0.0607 -0.1440 -0.0785
 2108SOL     OW17959   4.374   0.821   8.575  0.7568 -0.1012 -0.2052
 2108SOL    HW117960   4.347   0.912   8.565  1.2708 -0.0359 -1.0106
 2108SOL    HW217961   4.363   0.793   8.484  0.7001 -3.5472  0.8622
 2109SOL     OW17962   1.418   3.012  17.646  0.3469 -0.2216  0.4039
 2109SOL    HW117963   1.453   2.923  17.637 -0.7161 -0.5631 -0.4840
 2109SOL    HW217964   1.372   3.015  17.562  0.0694  0.4023  0.5797
 2110SOL     OW17965   0.462   2.281   9.410 -0.0345  0.0392 -0.5521
 2110SOL    HW117966   0.445   2.229   9.331 -3.3876  2.5088 -1.4228
 2110SOL    HW217967   0.464   2.208   9.471 -1.7765 -1.7104 -2.6032
 2111SOL     OW17968   0.529   1.517   6.890  0.5762  0.1903 -0.7677
 2111SOL    HW117969   0.472   1.582   6.931  0.8363 -0.3148  0.4053
 2111SOL    HW217970   0.595   1.573   6.849  0.2004  1.5566  0.5057
 2112SOL     OW17971   1.836   1.197   2.164 -0.6899  0.0643 -0.0763
 2112SOL    HW117972   1.907   1.176   2.103 -1.2405 -1.9813 -0.0280
 2112SOL    HW217973   1.757   1.150   2.137  0.1370  0.0640 -2.4977
 2113SOL     OW17974   2.513   2.163   8.350 -0.7879 -0.8201 -0.1284
 2113SOL    HW117975   2.603   2.129   8.355 -0.3205  1.1143  4.0616
 2113SOL    HW217976   2.499   2.172   8.444  0.2001 -1.4192  0.0814
 2114SOL     OW17977   0.291   2.071   8.786  0.2035 -0.5991 -0.4732
 2114SOL    HW117978   0.308   2.165   8.780 -3.2574  0.0933  0.6153
 2114SOL    HW217979   0.260   2.051   8.698  0.9450  1.3000 -1.1696
 2115SOL     OW17980   4.116   4.642   2.379  0.9254 -0.2184 -0.2458
 2115SOL    HW117981   4.179   4.661   2.309  1.8184 -2.9014 -0.1811
 2115SOL    HW217982   4.044   4.703   2.371 -0.7596 -2.4443 -1.9793
 2116SOL     OW17983   4.373   2.666   0.526 -0.5703 -0.2526  0.3317
 2116SOL    HW117984   4.404   2.648   0.437  1.7025 -1.7526  1.4084
 2116SOL    HW217985   4.404   2.756   0.537 -3.3825  0.5281  1.6982
 2117SOL     OW17986   4.143   3.582   6.204 -0.1465  0.2176 -0.5894
 2117SOL    HW117987   4.233   3.602   6.227 -0.1499  1.1419 -1.3856
 2117SOL    HW217988   4.126   3.492   6.233  2.1851 -0.3751 -1.1079
 2118SOL     OW17989   2.315   1.638   3.977 -0.3596  0.5509  0.1855
 2118SOL    HW117990   2.220   1.631   3.972 -0.3679  0.8730 -0.0716
 2118SOL    HW217991   2.339   1.672   3.891  3.5428 -1.7917  0.3336
 2119SOL     OW17992   0.923   0.800   1.694 -0.7688 -0.5764  0.1384
 2119SOL    HW117993   0.932   0.806   1.599  0.2205 -2.0697  0.1383
 2119SOL    HW217994   0.828   0.795   1.703 -0.8940  2.9798  0.7884
 2120SOL     OW17995   0.338   0.797  12.548  0.0061 -0.3185  0.2913
 2120SOL    HW117996   0.382   0.863  12.602  2.1941 -0.9062 -0.7599
 2120SOL    HW217997   0.354   0.715  12.595 -4.3577 -1.3175  0.0823
 2121SOL     OW17998   3.407   1.064   1.905 -0.0699 -0.6968 -0.5425
 2121SOL    HW117999   3.449   0.979   1.893 -0.4074 -1.0176  0.5514
 2121SOL    HW218000   3.323   1.037   1.943 -0.7848  0.5117 -1.2544
 2122SOL     OW18001   1.164   2.631   6.227 -0.3110 -0.0028  0.0863
 2122SOL    HW118002   1.078   2.605   6.193 -0.3440  0.7725 -0.4279
 2122SOL    HW218003   1.143   2.691   6.299 -1.0516  0.2497 -0.3308
 2123SOL     OW18004   2.783   3.160   2.494  0.5158 -0.4468 -0.3069
 2123SOL    HW118005   2.702   3.125   2.459 -0.5340  0.0690  1.5899
 2123SOL    HW218006   2.797   3.091   2.559 -3.2650  0.3897  1.4283
 2124SOL     OW18007   0.738   4.054  17.219  0.4063 -0.3244 -0.1591
 2124SOL    HW118008   0.712   3.984  17.279 -2.5749  0.4365 -0.5213
 2124SOL    HW218009   0.657   4.072  17.171  1.1833  2.1017 -0.5982
 2125SOL     OW18010   0.311   2.858   5.067  0.1556 -0.2631  0.3114
 2125SOL    HW118011   0.385   2.862   5.006  0.8354  0.7551  1.1988
 2125SOL    HW218012   0.289   2.766   5.080  0.2951 -0.0995  1.6927
 2126SOL     OW18013   0.403   0.036  11.349 -0.4390 -0.3770 -0.3203
 2126SOL    HW118014   0.454   0.114  11.331 -1.0867  0.0210 -0.4296
 2126SOL    HW218015   0.394   0.002  11.260  1.0165  1.0569 -1.0048
 2127SOL     OW18016   2.237   3.066   9.618 -0.2649  0.1570  0.1330
 2127SOL    HW118017   2.191   3.128   9.562 -1.9315  0.4038  1.7701
 2127SOL    HW218018   2.179   2.993   9.639 -1.9834  1.1310 -1.2285
 2128SOL     OW18019   1.965   1.825  16.950  0.6598 -0.2858  0.3002
 2128SOL    HW118020   1.949   1.860  17.038  0.2593  0.2955 -0.0103
 2128SOL    HW218021   1.991   1.906  16.906 -0.5163  0.1372  0.3989
 2129SOL     OW18022   1.881   1.793   3.771  0.4299 -0.2196 -0.3603
 2129SOL    HW118023   1.801   1.744   3.750  1.2366 -2.2714  1.3347
 2129SOL    HW218024   1.888   1.853   3.697 -0.7556 -0.5789 -0.7693
 2130SOL     OW18025   1.311   3.371   8.570 -0.5992 -0.1400 -0.3284
 2130SOL    HW118026   1.400   3.400   8.546 -0.5541 -0.2581 -0.3028
 2130SOL    HW218027   1.338   3.329   8.651  0.5895  0.9845 -0.1290
 2131SOL     OW18028   4.258   3.134   2.477 -0.0012  0.6517  0.0995
 2131SOL    HW118029   4.289   3.079   2.404 -0.2992  1.0728 -0.3453
 2131SOL    HW218030   4.326   3.199   2.463  0.7497 -0.6859 -2.5689
 2132SOL     OW18031   1.050   2.329   1.734 -0.6397  0.2337 -0.0946
 2132SOL    HW118032   1.139   2.320   1.771 -0.0260  0.1298 -1.6116
 2132SOL    HW218033   1.008   2.397   1.786  0.5419 -0.9657  2.4409
 2133SOL     OW18034   3.868   4.735   8.783 -0.3083  0.4545  0.0752
 2133SOL    HW118035   3.906   4.660   8.829  0.5685  0.9785  0.2032
 2133SOL    HW218036   3.813   0.039   8.848  1.1734  0.7794  1.1213
 2134SOL     OW18037   0.859   1.772   1.505 -0.2410  0.1415  0.1264
 2134SOL    HW118038   0.770   1.741   1.487 -0.0900 -0.4290  0.3406
 2134SOL    HW218039   0.878   1.826   1.428 -0.9786  0.1102 -0.0795
 2135SOL     OW18040   3.277   4.370   0.836 -0.2026  0.3455  0.3906
 2135SOL    HW118041   3.183   4.351   0.844 -0.7270  1.6526 -2.4020
 2135SOL    HW218042   3.276   4.451   0.887 -1.4944  2.3787 -2.8361
 2136SOL     OW18043   4.015   0.817  10.445  0.5341  0.7650 -0.2623
 2136SOL    HW118044   4.035   0.741  10.500  0.3504  1.0533  0.2000
 2136SOL    HW218045   3.940   0.849  10.495 -0.7621 -0.9327 -1.1182
 2137SOL     OW18046   2.578   4.328   7.989 -0.0568 -0.0839  0.6068
 2137SOL    HW118047   2.640   4.257   8.006  2.1893  1.9992  1.0750
 2137SOL    HW218048   2.546   4.346   8.078 -1.4683 -1.1914  0.3298
 2138SOL     OW18049   0.288   0.013   3.910  0.3725 -0.1879  0.3942
 2138SOL    HW118050   0.223   0.009   3.840 -0.3151 -1.0273  1.0735
 2138SOL    HW218051   0.359   0.033   3.850 -1.0697  2.9101 -0.2898
 2139SOL     OW18052   0.668   1.913   3.462  0.3131 -0.2059 -0.0967
 2139SOL    HW118053   0.602   1.889   3.398  2.2942 -0.3301 -2.1038
 2139SOL    HW218054   0.622   1.898   3.544 -1.4025  1.0912 -0.8328
 2140SOL     OW18055   0.909   2.992  13.190 -0.6085 -0.2086  0.2197
 2140SOL    HW118056   0.822   3.005  13.229 -0.9982 -0.6543 -0.4954
 2140SOL    HW218057   0.899   2.914  13.135 -2.0643 -1.5352  2.3799
 2141SOL     OW18058   4.372   4.088  15.208 -0.0764 -0.0935 -0.5301
 2141SOL    HW118059   4.322   4.165  15.181 -1.4551 -0.3572  1.2739
 2141SOL    HW218060   4.350   4.097  15.301 -0.7162 -3.6622 -0.3344
 2142SOL     OW18061   4.606   3.485   4.870  0.2916 -0.2545 -0.6550
 2142SOL    HW118062   4.529   3.533   4.901  0.1567 -1.8869  1.5512
 2142SOL    HW218063   4.641   3.465   4.957 -0.6535 -0.6689 -0.3697
 2143SOL     OW18064   0.517   3.878   6.274  1.0145  0.2500 -0.2718
 2143SOL    HW118065   0.430   3.892   6.313  0.1817 -2.3813 -1.1944
 2143SOL    HW218066   0.554   3.811   6.331  0.9054 -0.0426 -0.5446
 2144SOL     OW18067   2.893   4.180   5.512  0.3627 -0.4158  0.0843
 2144SOL    HW118068   2.904   4.090   5.482  1.3718 -0.5367  0.8202
 2144SOL    HW218069   2.804   4.173   5.546  0.7181 -2.3923  0.5672
 2145SOL     OW18070   2.219   3.091   0.291  0.1905 -0.0827  0.3755
 2145SOL    HW118071   2.241   3.021   0.352 -1.5566  0.1110  1.2417
 2145SOL    HW218072   2.123   3.091   0.299  0.2695  1.7355  1.4211
 2146SOL     OW18073   2.584   0.949  15.825  0.6858  0.1703 -0.1234
 2146SOL    HW118074   2.640   0.934  15.749  1.4582 -1.2548  0.7187
 2146SOL    HW218075   2.640   1.012  15.872  0.0333 -0.0539  0.9610
 2147SOL     OW18076   2.906   4.057   6.054 -0.0674  0.1617  0.8150
 2147SOL    HW118077   2.850   4.093   5.986 -0.6572 -1.3378  0.4948
 2147SOL    HW218078   2.876   4.084   6.141  1.2353  5.0086 -0.2516
 2148SOL     OW18079   3.875   1.976   3.341 -0.2704 -0.6584 -0.5057
 2148SOL    HW118080   3.908   1.904   3.396  0.3576  0.0259  0.0075
 2148SOL    HW218081   3.934   2.047   3.366 -2.0175  1.4551 -2.4769
 2149SOL     OW18082   2.029   0.395   2.820  0.2057  0.5738 -0.0691
 2149SOL    HW118083   1.986   0.423   2.902 -0.3901  2.6307 -1.0638
 2149SOL    HW218084   1.948   0.350   2.795 -1.5708  2.0345  2.9934
 2150SOL     OW18085   3.915   2.470   6.241  0.1553 -0.7192  0.3413
 2150SOL    HW118086   3.942   2.388   6.200 -0.2854 -0.9661  0.5466
 2150SOL    HW218087   3.856   2.444   6.312 -2.4222 -0.2813 -1.6082
 2151SOL     OW18088   1.168   4.633   2.141  0.0333  0.4495 -0.4324
 2151SOL    HW118089   1.100   4.577   2.103 -0.8682  1.1633  0.1277
 2151SOL    HW218090   1.245   4.611   2.089 -0.5059  1.6455 -1.7377
 2152SOL     OW18091   3.729   0.750  12.216 -0.0368  0.2152  0.5358
 2152SOL    HW118092   3.822   0.774  12.218  0.0210 -0.0522  1.0410
 2152SOL    HW218093   3.683   0.826  12.251 -1.0235 -0.1577  0.0187
 2153SOL     OW18094   3.032   2.445   2.033  0.0761 -0.0714 -0.9287
 2153SOL    HW118095   2.948   2.401   2.022  1.0019 -1.3596 -2.9870
 2153SOL    HW218096   3.076   2.373   2.079 -2.7883 -2.3129 -1.7416
 2154SOL     OW18097   4.443   2.866   2.739 -0.3721 -0.1738 -0.0263
 2154SOL    HW118098   4.383   2.798   2.769  2.6770 -3.1117 -0.6289
 2154SOL    HW218099   4.397   2.948   2.756  0.5579  0.6129 -1.2542
 2155SOL     OW18100   3.658   3.507   3.974  0.6049  0.3028 -0.2481
 2155SOL    HW118101   3.720   3.444   3.938 -0.7586 -0.2201 -1.6566
 2155SOL    HW218102   3.591   3.453   4.016  1.2903 -0.9491 -0.7415
 2156SOL     OW18103   3.339   1.368   2.661  0.5378  0.5100 -0.3169
 2156SOL    HW118104   3.357   1.289   2.610 -2.4241  0.7745 -1.7553
 2156SOL    HW218105   3.399   1.435   2.626  1.9496 -1.1146 -1.0090
 2157SOL     OW18106   3.558   4.051   3.572 -0.5649  0.2890 -0.5048
 2157SOL    HW118107   3.634   4.084   3.622  0.1319 -0.4914 -1.0608
 2157SOL    HW218108   3.564   4.093   3.486 -1.2027 -1.2521 -1.2861
 2158SOL     OW18109   0.369   0.981   2.646  0.1214  0.0427  0.0995
 2158SOL    HW118110   0.363   0.913   2.579  1.7923 -0.3952  0.3878
 2158SOL    HW218111   0.465   0.991   2.645  0.1002  0.1750 -0.5907
 2159SOL     OW18112   4.401   4.577  13.095 -0.0639  0.0144 -0.6675
 2159SOL    HW118113   4.324   4.532  13.130  1.0861 -2.3726 -1.1860
 2159SOL    HW218114   4.469   4.548  13.155 -0.8293 -0.4434 -0.0131
 2160SOL     OW18115   2.393   0.681   8.842 -0.4821  0.3234 -0.1839
 2160SOL    HW118116   2.386   0.640   8.928 -0.6501  0.0678 -0.3212
 2160SOL    HW218117   2.476   0.729   8.848  1.0705 -2.4493  0.4116
 2161SOL     OW18118   1.780   2.835   5.503  0.7857  0.8426  0.1914
 2161SOL    HW118119   1.770   2.823   5.598 -0.4341 -1.4150 -0.2182
 2161SOL    HW218120   1.872   2.826   5.480  0.3075 -2.3691 -0.3981
 2162SOL     OW18121   1.522   1.773   4.392  0.3230 -0.3224  0.0393
 2162SOL    HW118122   1.586   1.706   4.416  1.2805  0.8817  0.8098
 2162SOL    HW218123   1.440   1.724   4.381  0.6058 -0.9768  0.7606
 2163SOL     OW18124   1.726   4.042   1.160 -0.1577 -0.0458 -0.0227
 2163SOL    HW118125   1.805   4.097   1.163 -0.9459  1.1588 -1.2715
 2163SOL    HW218126   1.715   4.049   1.065  1.5879  0.6021 -0.1681
 2164SOL     OW18127   4.572   0.752   4.413  0.0088  0.1175 -0.4622
 2164SOL    HW118128   4.529   0.718   4.491 -1.1730  2.2203 -0.1993
 2164SOL    HW218129   4.495   0.773   4.360 -0.8259 -0.2397  0.6372
 2165SOL     OW18130   0.600   4.587   3.228  0.0767 -0.7611 -0.2072
 2165SOL    HW118131   0.605   4.533   3.150  0.1981 -1.3095  0.1839
 2165SOL    HW218132   0.624   4.672   3.190 -0.2546 -0.1832  0.8579
 2166SOL     OW18133   2.154   2.840  17.723  1.0844  0.4758  0.0938
 2166SOL    HW118134   2.241   2.860  17.688  0.9283  0.2278 -0.4398
 2166SOL    HW218135   2.167   2.857   0.071  1.5085 -0.6807  0.2330
 2167SOL     OW18136   4.049   2.793   9.962 -0.0140 -0.6981 -0.4847
 2167SOL    HW118137   4.000   2.851  10.020 -1.5866 -2.7281  0.2428
 2167SOL    HW218138   4.135   2.831   9.979 -0.7543  0.7568 -0.0341
 2168SOL     OW18139   1.073   3.016   4.180  0.4242 -0.2149  0.5140
 2168SOL    HW118140   1.006   2.952   4.155  0.0842  0.4653 -0.3289
 2168SOL    HW218141   1.142   2.966   4.223 -2.2329 -2.1360  2.5179
 2169SOL     OW18142   1.266   1.517   5.850  0.3126  0.2346 -0.2993
 2169SOL    HW118143   1.181   1.515   5.894  1.1167 -0.8415  1.1943
 2169SOL    HW218144   1.275   1.429   5.813  0.8439 -1.3639  3.6548
 2170SOL     OW18145   1.258   3.520  11.911 -0.3702 -0.0736  0.3451
 2170SOL    HW118146   1.333   3.499  11.856 -0.3070  0.0788  0.3707
 2170SOL    HW218147   1.240   3.439  11.957  0.4268 -1.1912 -1.3272
 2171SOL     OW18148   0.101   3.625   7.091  0.6344 -0.1394 -0.0104
 2171SOL    HW118149   0.019   3.582   7.065  1.8206 -3.0360  0.9650
 2171SOL    HW218150   0.073   3.664   7.173 -0.7311  0.6585 -0.8464
 2172SOL     OW18151   3.799   2.307   0.754 -0.5051  0.0961 -0.0015
 2172SOL    HW118152   3.721   2.362   0.743 -0.7219 -0.8589 -3.0061
 2172SOL    HW218153   3.867   2.370   0.775  0.6469 -2.2525  3.3688
 2173SOL     OW18154   4.179   1.839  17.525 -0.3380  0.2771 -0.1780
 2173SOL    HW118155   4.230   1.790  17.460 -1.5377 -1.2859  0.0477
 2173SOL    HW218156   4.229   1.916  17.551  0.8341 -0.3573 -0.5789
 2174SOL     OW18157   4.709   2.231   6.620  0.6073  0.3638 -0.3723
 2174SOL    HW118158   4.624   2.190   6.638  0.8145 -0.6974 -1.8084
 2174SOL    HW218159   0.032   2.175   6.670  1.7737  1.4928 -0.4762
 2175SOL     OW18160   3.520   1.511   7.435 -0.0723  0.2445  0.2668
 2175SOL    HW118161   3.519   1.462   7.352  0.8609 -0.5250  0.7136
 2175SOL    HW218162   3.430   1.542   7.434 -0.5790 -1.2053  1.1893
 2176SOL     OW18163   4.380   2.909   8.234 -0.0001  0.2303 -0.1665
 2176SOL    HW118164   4.348   2.978   8.175 -1.3775 -0.0589  0.2472
 2176SOL    HW218165   4.468   2.918   8.197 -0.1557  0.6953 -0.4295
 2177SOL     OW18166   2.514   2.044   6.255 -0.2645  0.5334  0.3160
 2177SOL    HW118167   2.574   2.015   6.187 -1.2391  0.7876 -0.6532
 2177SOL    HW218168   2.546   1.996   6.331 -2.5246 -2.2529 -0.4716
 2178SOL     OW18169   1.401   0.138  12.768 -0.5650  0.1163  1.0565
 2178SOL    HW118170   1.458   0.210  12.743 -0.7525 -0.0160  0.2456
 2178SOL    HW218171   1.322   0.192  12.760 -0.9570 -0.4668  0.9641
 2179SOL     OW18172   3.189   2.786   7.512  0.3708 -0.2314 -0.1608
 2179SOL    HW118173   3.183   2.781   7.417 -2.5551  2.6629 -0.1211
 2179SOL    HW218174   3.259   2.724   7.533  0.5941 -0.2837 -1.0563
 2180SOL     OW18175   4.510   2.543   7.092 -0.7035 -0.0218  0.8595
 2180SOL    HW118176   4.509   2.490   7.013 -0.9674  0.7259  0.3639
 2180SOL    HW218177   4.553   2.618   7.050  1.6051 -1.8403 -0.0483
 2181SOL     OW18178   2.432   2.990   6.634  0.4515  0.2080  0.0031
 2181SOL    HW118179   2.395   2.904   6.617  0.1518  0.2650  0.3667
 2181SOL    HW218180   2.353   3.044   6.640 -0.4663 -1.1615  0.2196
 2182SOL     OW18181   3.142   0.664   3.957  0.2278 -1.5628  0.0715
 2182SOL    HW118182   3.127   0.708   4.041  1.4282  0.1757 -0.6465
 2182SOL    HW218183   3.059   0.699   3.924 -1.3351 -0.9468  4.6372
 2183SOL     OW18184   4.565   2.884   8.814  0.4530 -0.0746 -0.1609
 2183SOL    HW118185   4.519   2.934   8.882 -0.6266 -1.7514  0.3564
 2183SOL    HW218186   4.650   2.927   8.816  0.4692 -0.0796 -0.7497
 2184SOL     OW18187   2.679   3.908   4.736  0.0655  0.1452 -0.4834
 2184SOL    HW118188   2.612   3.944   4.795  0.4880  0.7422 -0.3642
 2184SOL    HW218189   2.729   3.857   4.800  3.8469  3.1878 -1.0338
 2185SOL     OW18190   0.753   0.367  14.254  0.0653 -0.2641 -0.5599
 2185SOL    HW118191   0.710   0.291  14.215  1.3417 -0.1419 -2.2086
 2185SOL    HW218192   0.787   0.323  14.332  1.8164  2.7795  0.4034
 2186SOL     OW18193   1.454   2.058   7.490  0.0174  0.6193 -0.2286
 2186SOL    HW118194   1.500   2.140   7.468 -0.0474  0.8212  0.4007
 2186SOL    HW218195   1.485   2.049   7.580  3.3834  0.0100 -1.4500
 2187SOL     OW18196   4.369   2.640   6.051  0.2173 -0.4715 -0.0233
 2187SOL    HW118197   4.308   2.694   6.002  0.3446  1.0585  1.4983
 2187SOL    HW218198   4.314   2.599   6.118 -1.0116 -1.5208 -1.6795
 2188SOL     OW18199   0.132   1.792   9.151  0.2973  0.2397 -0.5664
 2188SOL    HW118200   0.108   1.854   9.219  3.0317 -0.3072  0.8975
 2188SOL    HW218201   0.046   1.772   9.115 -0.1163 -1.8225  1.6370
 2189SOL     OW18202   1.059   1.314   8.837  0.0729  0.5031 -0.0789
 2189SOL    HW118203   1.016   1.347   8.915 -1.1977  0.1453 -0.6270
 2189SOL    HW218204   1.140   1.278   8.873  0.2106  0.7954 -0.0979
 2190SOL     OW18205   3.879   4.218   6.771 -0.0883 -0.1987 -0.5398
 2190SOL    HW118206   3.806   4.193   6.714  0.1197  1.5814 -1.5761
 2190SOL    HW218207   3.911   4.133   6.801  0.6517  0.3072  0.0786
 2191SOL     OW18208   1.790   2.399  14.512 -0.0482  0.0111 -0.6834
 2191SOL    HW118209   1.864   2.420  14.569 -1.1624  3.8523 -0.6077
 2191SOL    HW218210   1.718   2.452  14.548  2.6769  0.8622  3.5019
 2192SOL     OW18211   4.535   3.142   0.958  0.0489  0.1812 -0.0719
 2192SOL    HW118212   4.553   3.230   0.991  0.5169  0.0054  0.1386
 2192SOL    HW218213   4.586   3.148   0.878 -0.0111 -0.0302 -0.1274
 2193SOL     OW18214   3.933   2.358   2.106 -0.4090  0.4106 -0.0153
 2193SOL    HW118215   3.881   2.281   2.084 -1.3349  1.7574 -2.5338
 2193SOL    HW218216   4.026   2.333   2.107 -0.3003  0.8147 -0.3444
 2194SOL     OW18217   4.000   0.129  12.795 -0.0529 -0.3440 -0.0002
 2194SOL    HW118218   3.908   0.142  12.817 -0.0947 -2.1663  0.9361
 2194SOL    HW218219   4.051   0.152  12.873 -0.5308  2.7250 -0.6097
 2195SOL     OW18220   4.332   4.222   1.375 -0.2391  0.4727  0.0065
 2195SOL    HW118221   4.361   4.155   1.313 -0.7212  0.2137  0.0672
 2195SOL    HW218222   4.243   4.192   1.390 -0.5356  1.8032  0.9142
 2196SOL     OW18223   2.749   0.484   9.430  0.0787  0.1805 -0.0424
 2196SOL    HW118224   2.786   0.445   9.350  3.7929  0.6477  1.4343
 2196SOL    HW218225   2.791   0.423   9.491  0.6747 -0.6511 -1.2834
 2197SOL     OW18226   2.609   1.498   4.589 -0.1019 -0.6715 -0.5782
 2197SOL    HW118227   2.582   1.419   4.544 -1.2368 -0.9904  0.6694
 2197SOL    HW218228   2.549   1.564   4.555  0.1411 -0.3316 -0.3568
 2198SOL     OW18229   3.550   1.354  11.791 -0.3036 -0.0338 -0.2861
 2198SOL    HW118230   3.489   1.412  11.745  1.1741  0.8789 -1.0810
 2198SOL    HW218231   3.625   1.354  11.731  1.6503 -0.7563  2.1586
 2199SOL     OW18232   1.283   4.119   4.751  0.2246 -0.4657 -0.1360
 2199SOL    HW118233   1.299   4.039   4.801  2.0194  0.3932  0.6451
 2199SOL    HW218234   1.259   4.179   4.822 -1.5289  0.3894 -1.4423
 2200SOL     OW18235   0.680   4.727   4.236 -0.0288  0.3099 -0.2675
 2200SOL    HW118236   0.593   4.715   4.197 -0.0938 -0.1753  0.0140
 2200SOL    HW218237   0.736   4.678   4.176 -0.4044  1.7767 -1.7971
 2201SOL     OW18238   1.719   3.063  13.014 -0.0597 -0.2625  0.4039
 2201SOL    HW118239   1.676   3.081  12.931 -1.3990  1.2356  1.4041
 2201SOL    HW218240   1.778   3.138  13.012 -0.5870  0.0699 -1.9696
 2202SOL     OW18241   3.527   3.303   4.387  0.2035 -0.0572 -0.7107
 2202SOL    HW118242   3.578   3.375   4.424 -1.3943  0.9173 -0.3835
 2202SOL    HW218243   3.539   3.228   4.445 -1.1474 -1.2314 -1.9339
 2203SOL     OW18244   4.416   4.230   8.953 -0.0205 -0.3603  0.1336
 2203SOL    HW118245   4.502   4.245   8.913 -0.2877  1.8350  0.3653
 2203SOL    HW218246   4.413   4.307   9.011  1.9465  1.0037 -1.6046
 2204SOL     OW18247   0.164   2.312   5.113  0.1944  0.2332  0.5676
 2204SOL    HW118248   0.211   2.239   5.071  0.7964  1.2322 -0.5093
 2204SOL    HW218249   0.086   2.262   5.136 -0.0075  0.5943  0.6564
 2205SOL     OW18250   1.593   4.111  13.688 -0.9440  0.4062  0.0398
 2205SOL    HW118251   1.608   4.194  13.644  1.8852 -0.6493 -1.0202
 2205SOL    HW218252   1.530   4.064  13.633 -1.7960  2.5144 -0.7656
 2206SOL     OW18253   0.991   3.134  11.014 -0.1686  0.7461  0.4332
 2206SOL    HW118254   1.045   3.056  11.028  0.0269  0.7715 -0.1781
 2206SOL    HW218255   1.045   3.179  10.948 -0.8733  0.6103 -0.2403
 2207SOL     OW18256   3.871   2.249   7.680 -0.3379  0.0235  0.0176
 2207SOL    HW118257   3.966   2.260   7.686 -0.3798  0.2576  0.2382
 2207SOL    HW218258   3.855   2.230   7.588  0.2843  2.3200 -0.5500
 2208SOL     OW18259   2.908   3.052   2.153 -0.1409 -1.0512 -0.1317
 2208SOL    HW118260   2.850   3.127   2.167  0.1265 -0.7074 -0.8456
 2208SOL    HW218261   2.901   3.041   2.059  0.8630  0.9529 -0.4418
 2209SOL     OW18262   4.292   3.917   8.180 -0.1607  0.5140 -0.1741
 2209SOL    HW118263   4.227   3.953   8.239  0.3036 -0.0437  0.6808
 2209SOL    HW218264   4.301   3.990   8.118 -0.0018 -0.1274 -0.9082
 2210SOL     OW18265   3.751   4.003   5.013 -0.2950 -0.0569  0.3927
 2210SOL    HW118266   3.674   3.968   4.968  0.5239  0.5130 -1.4508
 2210SOL    HW218267   3.783   3.920   5.050  1.5022  1.9750  3.3541
 2211SOL     OW18268   2.240   2.674   6.957  0.5497 -0.2158  0.4000
 2211SOL    HW118269   2.205   2.749   7.004 -1.3927 -0.2244 -1.0158
 2211SOL    HW218270   2.329   2.665   6.990  0.9943 -0.9701 -0.9946
 2212SOL     OW18271   1.019   3.003   9.116  0.3208 -0.5408  0.2490
 2212SOL    HW118272   1.103   3.049   9.119 -0.2598  0.3522  2.9169
 2212SOL    HW218273   1.014   2.972   9.207 -1.9521 -1.3532 -0.1654
 2213SOL     OW18274   4.499   3.053  11.356 -0.3669 -0.6681  0.0451
 2213SOL    HW118275   4.494   3.005  11.274 -0.0322 -1.6758  0.6140
 2213SOL    HW218276   4.406   3.057  11.378 -0.5224 -2.1782 -0.3251
 2214SOL     OW18277   2.220   1.974   3.607  0.6009 -0.5519 -0.5919
 2214SOL    HW118278   2.167   1.896   3.623  0.0585  0.1179  0.8230
 2214SOL    HW218279   2.261   1.958   3.522 -1.0149 -1.0614 -1.2649
 2215SOL     OW18280   2.334   2.605   8.800  0.0940  0.6958  0.1781
 2215SOL    HW118281   2.315   2.513   8.783  4.6616 -0.2947  0.2730
 2215SOL    HW218282   2.386   2.619   8.721 -0.1623 -1.2053 -0.3373
 2216SOL     OW18283   4.651   0.235   1.115 -0.2215  0.1390 -0.1192
 2216SOL    HW118284   4.630   0.319   1.074  0.1307 -0.5568 -1.7296
 2216SOL    HW218285   4.721   0.200   1.060 -2.0664  0.3405 -2.6222
 2217SOL     OW18286   4.411   1.671   2.482 -0.2586 -0.3331  0.4454
 2217SOL    HW118287   4.327   1.694   2.521 -0.9530 -0.4916 -0.9672
 2217SOL    HW218288   4.393   1.670   2.388  2.0290  2.1673 -0.0020
 2218SOL     OW18289   1.822   0.441   3.627  0.1872  0.4586  0.0711
 2218SOL    HW118290   1.844   0.351   3.604 -0.5539  0.4941 -0.7358
 2218SOL    HW218291   1.901   0.464   3.677 -1.9369  0.7956  3.2622
 2219SOL     OW18292   0.591   4.102   5.392  0.7240  0.3000  0.4132
 2219SOL    HW118293   0.605   4.181   5.443  0.6604  0.9029 -0.4900
 2219SOL    HW218294   0.537   4.140   5.323  0.9134  3.0888  1.8295
 2220SOL     OW18295   2.488   3.911   8.601 -0.0425 -0.2726 -0.4204
 2220SOL    HW118296   2.490   4.006   8.613 -2.5855 -0.1851 -0.5582
 2220SOL    HW218297   2.567   3.878   8.644  0.1026  1.8057  0.9324
 2221SOL     OW18298   3.464   3.951   4.591 -0.2971  0.6592  0.0682
 2221SOL    HW118299   3.435   3.897   4.517  0.6071  2.6191 -1.6804
 2221SOL    HW218300   3.389   3.930   4.648 -1.1546  1.7801 -0.6428
 2222SOL     OW18301   3.528   0.157   5.173 -0.0618 -0.2666  0.0553
 2222SOL    HW118302   3.592   0.107   5.123  0.0574  0.5649 -0.6187
 2222SOL    HW218303   3.509   0.225   5.108 -1.0070 -1.1480 -0.5991
 2223SOL     OW18304   0.336   1.783   6.127 -0.2986  0.1207  0.0349
 2223SOL    HW118305   0.253   1.802   6.170 -1.3351 -0.2932 -1.7945
 2223SOL    HW218306   0.378   1.870   6.125  0.0968 -0.0557  0.4016
 2224SOL     OW18307   1.928   2.436   5.981  0.0949  0.8771 -0.0385
 2224SOL    HW118308   1.881   2.416   5.900  0.3185  1.3172 -0.2761
 2224SOL    HW218309   1.954   2.348   6.007 -1.0599  0.7433  0.6662
 2225SOL     OW18310   3.972   4.312  14.904 -0.3527  0.2767  0.5170
 2225SOL    HW118311   4.011   4.382  14.852  0.9387 -1.2945 -0.6336
 2225SOL    HW218312   4.016   4.314  14.989  0.9657 -0.0826 -0.1702
 2226SOL     OW18313   0.916   0.621   0.952  0.3562  0.6484  0.3334
 2226SOL    HW118314   0.981   0.691   0.953  0.6839  0.3871 -1.6469
 2226SOL    HW218315   0.932   0.590   0.863  0.8961 -2.4517  1.5310
 2227SOL     OW18316   2.384   0.418  10.643  0.1710 -0.4006  0.5332
 2227SOL    HW118317   2.419   0.498  10.605  0.3141  0.4181  2.3635
 2227SOL    HW218318   2.466   0.372  10.656 -0.4745 -1.2322  1.7155
 2228SOL     OW18319   4.136   3.309  12.045 -0.4055  0.1869  0.0938
 2228SOL    HW118320   4.079   3.367  12.096 -0.2981 -1.1397  1.7028
 2228SOL    HW218321   4.168   3.251  12.114 -1.4118 -0.6616 -0.1490
 2229SOL     OW18322   1.459   3.411  11.759  0.1039 -0.3564  0.3892
 2229SOL    HW118323   1.529   3.345  11.763 -0.6786 -1.1023  1.7660
 2229SOL    HW218324   1.425   3.391  11.672  1.4591 -0.3294 -0.1525
 2230SOL     OW18325   4.537   1.191   2.907 -0.6081  0.2085  0.3353
 2230SOL    HW118326   4.487   1.233   2.977 -3.4756 -3.4060  0.4494
 2230SOL    HW218327   4.565   1.271   2.863 -0.4903  0.6911  1.2935
 2231SOL     OW18328   2.047   2.795   0.472 -0.4415  0.2246 -0.3709
 2231SOL    HW118329   1.984   2.724   0.468  0.3875 -0.4499 -1.4729
 2231SOL    HW218330   2.119   2.746   0.433 -0.2227  0.5923 -0.4298
 2232SOL     OW18331   2.711   3.691   8.345 -0.4693  0.0651 -0.0061
 2232SOL    HW118332   2.625   3.714   8.308 -0.5191 -1.9265 -1.0996
 2232SOL    HW218333   2.695   3.600   8.370 -0.6058 -0.2701 -1.3084
 2233SOL     OW18334   2.514   2.570   6.210  0.1377  0.0341  0.0111
 2233SOL    HW118335   2.568   2.635   6.254  0.6241  0.0723 -0.6310
 2233SOL    HW218336   2.449   2.548   6.276  0.8520 -2.2274 -0.0325
 2234SOL     OW18337   3.585   1.878   6.406  0.3876  0.4184  0.0777
 2234SOL    HW118338   3.515   1.872   6.472  1.0087  0.2424  0.7234
 2234SOL    HW218339   3.570   1.796   6.358 -1.0588  0.0676  1.1115
 2235SOL     OW18340   1.542   0.540   9.157  0.1482  0.0928  0.0338
 2235SOL    HW118341   1.556   0.582   9.242  0.0955 -1.7712  0.9581
 2235SOL    HW218342   1.612   0.476   9.155  0.8711  0.8169  2.0821
 2236SOL     OW18343   3.131   4.381   8.714 -0.3543  0.0463  0.4596
 2236SOL    HW118344   3.159   4.291   8.727  0.2995 -0.0811 -1.8064
 2236SOL    HW218345   3.036   4.370   8.708 -0.1172 -1.4981 -0.2585
 2237SOL     OW18346   3.849   3.021   3.067 -0.1705  0.2821  0.4056
 2237SOL    HW118347   3.795   3.069   3.004  0.2839  1.1158  0.6373
 2237SOL    HW218348   3.849   2.934   3.027 -1.4643  0.1644  0.6770
 2238SOL     OW18349   1.180   1.144   3.961  0.3721 -0.3152 -0.3241
 2238SOL    HW118350   1.152   1.061   3.923  0.6057 -1.5692  2.2105
 2238SOL    HW218351   1.219   1.183   3.882  0.0421  0.5098 -0.0800
 2239SOL     OW18352   3.144   3.348   4.443 -0.4604  0.2037  0.4827
 2239SOL    HW118353   3.058   3.370   4.481 -1.1977  0.0622 -1.0916
 2239SOL    HW218354   3.180   3.436   4.452  2.5639 -1.0956  0.9429
 2240SOL     OW18355   0.123   1.549  10.311  0.3427  0.4220  0.4812
 2240SOL    HW118356   0.110   1.519  10.401  0.6597  1.1594  0.7744
 2240SOL    HW218357   0.159   1.637  10.326 -0.1626  0.2943  2.4702
 2241SOL     OW18358   1.599   2.979  13.257  0.0336 -0.4224  0.2607
 2241SOL    HW118359   1.629   2.973  13.167 -0.5518  0.1619  0.0296
 2241SOL    HW218360   1.626   2.892  13.288 -1.6842 -0.7104  0.9659
 2242SOL     OW18361   0.269   2.720  16.630 -0.2495  0.7600  0.1345
 2242SOL    HW118362   0.176   2.699  16.624 -0.7152  3.0460 -0.4855
 2242SOL    HW218363   0.264   2.792  16.567 -0.7653 -0.0793 -0.7837
 2243SOL     OW18364   0.797   2.072   8.830 -0.1835  0.1047 -0.6194
 2243SOL    HW118365   0.843   2.115   8.758 -2.0094  0.4301 -1.5980
 2243SOL    HW218366   0.740   2.143   8.859 -2.3915 -1.7802 -0.3391
 2244SOL     OW18367   0.892   2.910   8.872 -0.2789 -0.0238 -0.2239
 2244SOL    HW118368   0.918   2.942   8.958 -0.6855  3.0897 -1.2423
 2244SOL    HW218369   0.798   2.915   8.888 -0.5555 -3.5310 -0.7322
 2245SOL     OW18370   1.316   0.109  17.016 -0.0186 -0.2249 -0.2138
 2245SOL    HW118371   1.313   0.204  17.011  1.7477 -0.1213  0.3344
 2245SOL    HW218372   1.408   0.095  17.039 -0.4179 -1.1778  0.7959
 2246SOL     OW18373   2.787   1.459   9.023 -0.4617  0.2325  0.0779
 2246SOL    HW118374   2.855   1.525   9.034  0.4978 -0.5216 -1.4735
 2246SOL    HW218375   2.821   1.406   8.952  1.5459  2.8603 -0.9079
 2247SOL     OW18376   4.358   2.813   7.631 -0.2545 -0.0758 -0.3913
 2247SOL    HW118377   4.349   2.878   7.700  1.8400  1.3393 -1.4545
 2247SOL    HW218378   4.365   2.731   7.680  1.9616 -0.4033 -1.2543
 2248SOL     OW18379   4.276   4.167   1.089 -0.4657  0.1801  0.3011
 2248SOL    HW118380   4.268   4.189   0.996  1.8380  2.1133  0.5732
 2248SOL    HW218381   4.236   4.246   1.125 -2.5583 -0.5818 -0.3277
 2249SOL     OW18382   4.401   3.043   3.171  0.5577  0.2635  0.2740
 2249SOL    HW118383   4.382   2.955   3.140  1.3506  0.6940 -1.4319
 2249SOL    HW218384   4.316   3.061   3.210  0.4267  1.6664 -0.6513
 2250SOL     OW18385   1.942   0.507   4.292 -0.4106 -0.4400  0.4413
 2250SOL    HW118386   1.980   0.474   4.374  0.5719  0.1570  0.2306
 2250SOL    HW218387   1.932   0.424   4.247 -1.0561  0.1184 -0.4292
 2251SOL     OW18388   0.356   0.861  13.731  0.2768  0.3094  0.3881
 2251SOL    HW118389   0.422   0.870  13.800  1.8198 -0.2248 -1.0336
 2251SOL    HW218390   0.306   0.942  13.741  1.4802  1.0991 -0.1132
 2252SOL     OW18391   1.568   0.155  13.745  0.2846  0.0103 -0.5489
 2252SOL    HW118392   1.580   0.106  13.664  0.4062  1.5653 -1.4859
 2252SOL    HW218393   1.629   0.228  13.734  0.8770 -0.0791  2.1581
 2253SOL     OW18394   4.723   1.478   6.419 -0.1739 -0.2098 -0.0864
 2253SOL    HW118395   4.697   1.569   6.425  2.0995  0.4361  0.1197
 2253SOL    HW218396   4.662   1.449   6.352  0.4996  1.6845 -1.5158
 2254SOL     OW18397   1.570   1.194   2.039  0.6515  0.2387  0.2904
 2254SOL    HW118398   1.554   1.209   2.132  0.9172 -1.1897  0.5740
 2254SOL    HW218399   1.484   1.203   1.997  0.4778 -0.3642  0.5255
 2255SOL     OW18400   1.763   4.142   9.313 -0.3430 -0.2122  0.3157
 2255SOL    HW118401   1.762   4.077   9.383  2.0716 -1.5143 -0.8821
 2255SOL    HW218402   1.809   4.211   9.360  0.2315 -2.4799  3.1170
 2256SOL     OW18403   1.489   4.404   4.774 -0.3152  0.0289  0.1254
 2256SOL    HW118404   1.426   4.338   4.802  0.0218 -0.3091  0.0973
 2256SOL    HW218405   1.469   4.481   4.828 -0.7839  1.6423 -2.3336
 2257SOL     OW18406   3.322   0.556   6.499  0.3862 -0.5135 -0.2637
 2257SOL    HW118407   3.306   0.647   6.478 -0.5943 -1.1473 -2.2633
 2257SOL    HW218408   3.366   0.552   6.584 -0.3552 -0.9035  0.0965
 2258SOL     OW18409   2.708   4.101   5.864 -0.4483 -0.3350  0.1821
 2258SOL    HW118410   2.647   4.028   5.872 -1.9965  1.0345  0.8325
 2258SOL    HW218411   2.674   4.145   5.786 -0.3736 -1.4291 -0.4683
 2259SOL     OW18412   4.102   1.870  16.376  0.3232 -0.1698 -0.1842
 2259SOL    HW118413   4.008   1.888  16.367  0.5674  0.5895 -1.2020
 2259SOL    HW218414   4.132   1.957  16.404 -1.1734 -0.1164  1.2502
 2260SOL     OW18415   3.634   1.405   9.221 -0.7245  0.4398 -0.2051
 2260SOL    HW118416   3.591   1.484   9.189 -2.4455  0.4823  2.1979
 2260SOL    HW218417   3.637   1.434   9.312  1.6342 -1.6180  0.3691
 2261SOL     OW18418   1.376   0.502   4.018 -0.5636 -0.2769 -0.5248
 2261SOL    HW118419   1.436   0.511   3.944 -2.5755  2.4848 -1.8387
 2261SOL    HW218420   1.324   0.581   4.000 -1.7350 -0.2526  2.9405
 2262SOL     OW18421   0.748   4.405   1.276  0.4888  0.1704 -0.3674
 2262SOL    HW118422   0.748   4.473   1.343 -2.9574  1.1678 -1.4172
 2262SOL    HW218423   0.676   4.351   1.307 -0.0151 -0.4534 -2.6169
 2263SOL     OW18424   1.682   1.652  16.154 -0.1717 -0.3704 -0.0340
 2263SOL    HW118425   1.741   1.590  16.197  0.1525 -0.1331 -0.1379
 2263SOL    HW218426   1.596   1.630  16.188 -1.4950  3.7597 -0.6497
 2264SOL     OW18427   4.428   1.384   3.152  0.0688 -0.1089  0.3424
 2264SOL    HW118428   4.337   1.361   3.174  0.0386 -0.0662  0.2616
 2264SOL    HW218429   4.405   1.448   3.084 -0.2570  0.0662  0.6135
 2265SOL     OW18430   0.585   4.031   2.881  0.0675  0.3087 -0.1993
 2265SOL    HW118431   0.612   3.950   2.838 -0.1361  0.4767 -0.6495
 2265SOL    HW218432   0.662   4.057   2.931  0.0102 -0.3172  0.2087
 2266SOL     OW18433   3.066   2.549   9.730  0.1683  0.5982  0.3539
 2266SOL    HW118434   3.148   2.523   9.689 -0.8466 -2.6420  0.3896
 2266SOL    HW218435   3.090   2.565   9.821  3.1989  0.5488 -0.4364
 2267SOL     OW18436   0.276   2.140   7.102  0.4828  0.2797  0.8255
 2267SOL    HW118437   0.236   2.175   7.181  0.4832 -0.5285  1.1807
 2267SOL    HW218438   0.241   2.053   7.120 -0.6906  0.3352 -1.1713
 2268SOL     OW18439   4.638   3.768   8.508  0.2663 -0.4494  0.3368
 2268SOL    HW118440   4.676   3.718   8.580  1.7519  1.7385  1.0789
 2268SOL    HW218441   4.587   3.831   8.559  2.6742  1.1416  0.7660
 2269SOL     OW18442   0.124   0.336   5.007  0.5233 -0.0138 -0.9778
 2269SOL    HW118443   0.210   0.294   5.004  0.3522 -0.4703  0.7370
 2269SOL    HW218444   0.096   0.303   5.092  0.3664 -1.2225 -1.4879
 2270SOL     OW18445   0.021   0.548  12.760  0.1031  0.4151  0.1454
 2270SOL    HW118446   0.014   0.527  12.853 -1.0412 -1.8614 -0.4397
 2270SOL    HW218447   4.717   0.470  12.721 -0.2161  0.4368  0.4380
 2271SOL     OW18448   1.543   1.355  17.388 -0.2312  0.1809  0.0833
 2271SOL    HW118449   1.522   1.448  17.387 -0.0856  0.2156  0.4758
 2271SOL    HW218450   1.486   1.330  17.315  0.9768 -1.1070 -0.4453
 2272SOL     OW18451   4.670   0.389   9.947 -0.2558  0.2300  0.5687
 2272SOL    HW118452   4.635   0.468   9.905 -0.6388  0.4931  1.3917
 2272SOL    HW218453   4.585   0.356   9.975 -0.8419  0.6237 -0.7113
 2273SOL     OW18454   4.347   1.307   3.553 -0.2772  0.1772  0.0329
 2273SOL    HW118455   4.356   1.212   3.561  0.1976  0.1925 -0.2925
 2273SOL    HW218456   4.374   1.324   3.643  1.3660 -1.3099 -0.1752
 2274SOL     OW18457   0.617   0.233   5.192 -0.1503 -0.1284  0.1167
 2274SOL    HW118458   0.710   0.210   5.190 -0.0732  0.0631  1.3132
 2274SOL    HW218459   0.620   0.327   5.176  1.3575 -0.1549  0.2349
 2275SOL     OW18460   4.375   4.026  16.442  0.7869 -0.1895 -0.6555
 2275SOL    HW118461   4.387   3.953  16.381 -0.5254 -0.7992 -0.1993
 2275SOL    HW218462   4.337   3.985  16.520  2.3527 -0.0099  0.1953
 2276SOL     OW18463   2.639   0.408   3.522  0.0669 -0.1124 -0.3534
 2276SOL    HW118464   2.614   0.465   3.449  1.5388 -1.3372 -1.7904
 2276SOL    HW218465   2.734   0.406   3.512 -0.0301 -1.4089 -0.9510
 2277SOL     OW18466   4.427   1.013   7.637  1.0749  0.7449 -0.7951
 2277SOL    HW118467   4.475   1.096   7.635  4.9281 -1.4434  0.4121
 2277SOL    HW218468   4.347   1.034   7.588  0.7689  0.4453 -0.4245
 2278SOL     OW18469   0.116   0.953  11.200 -0.4024  0.0127  0.4100
 2278SOL    HW118470   0.179   1.016  11.165  1.3758 -1.1774  1.4283
 2278SOL    HW218471   0.036   1.005  11.192 -0.7289 -0.3867  1.0570
 2279SOL     OW18472   2.909   1.243   2.270 -0.5718  0.7727 -0.0754
 2279SOL    HW118473   2.962   1.239   2.350 -1.7206 -1.2693  0.5742
 2279SOL    HW218474   2.859   1.162   2.276 -0.8350  0.9677  0.3697
 2280SOL     OW18475   4.262   2.072   1.389 -0.2303  0.6916 -0.0508
 2280SOL    HW118476   4.179   2.073   1.342 -0.4979 -1.9950  0.3250
 2280SOL    HW218477   4.232   2.075   1.480 -1.1402 -0.7104 -0.3010
 2281SOL     OW18478   0.964   2.187   6.447 -0.2076 -0.1524  0.0350
 2281SOL    HW118479   0.989   2.138   6.368  2.7595  3.1322 -1.0741
 2281SOL    HW218480   1.050   2.221   6.474  0.0510 -0.6691 -0.1426
 2282SOL     OW18481   2.953   1.748   2.366  0.1636  0.2678  0.4819
 2282SOL    HW118482   3.016   1.712   2.429 -0.4190 -1.5859  0.0175
 2282SOL    HW218483   2.949   1.685   2.294 -0.8066  1.7639 -0.7623
 2283SOL     OW18484   0.046   1.884   5.880 -0.0231 -0.5274 -0.1019
 2283SOL    HW118485   0.039   1.816   5.947 -1.2430  0.6660  0.9788
 2283SOL    HW218486   0.142   1.887   5.869  0.1559 -0.8646  1.3542
 2284SOL     OW18487   0.922   1.864   1.245 -0.0660 -0.5055  0.2034
 2284SOL    HW118488   0.856   1.898   1.185  0.0202  1.9521  1.4798
 2284SOL    HW218489   0.928   1.941   1.302  0.8019 -1.5267  1.5149
 2285SOL     OW18490   3.492   4.232   3.354  0.3065 -0.3223 -0.2038
 2285SOL    HW118491   3.557   4.299   3.377  0.6747 -0.7867  0.1195
 2285SOL    HW218492   3.420   4.292   3.332  1.1227  1.8514  3.0549
 2286SOL     OW18493   3.010   3.716   9.040 -0.7121  0.2312 -0.2377
 2286SOL    HW118494   3.060   3.709   9.122 -1.4986 -0.1013  0.2080
 2286SOL    HW218495   3.081   3.738   8.980 -0.0110 -0.4980  0.3167
 2287SOL     OW18496   4.333   2.848   1.942 -0.5023 -0.5355  0.7552
 2287SOL    HW118497   4.402   2.889   1.993 -1.1399  0.0398  1.1542
 2287SOL    HW218498   4.270   2.920   1.942  1.6841  1.3452  0.3783
 2288SOL     OW18499   2.204   0.531   2.376 -0.0881 -0.1746  0.5275
 2288SOL    HW118500   2.163   0.530   2.462  0.6360  1.7451  0.8888
 2288SOL    HW218501   2.285   0.580   2.388 -0.3411  0.9657 -2.3979
 2289SOL     OW18502   4.007   1.064   3.144 -0.3577  0.2252 -0.8854
 2289SOL    HW118503   4.102   1.063   3.152 -0.5037 -0.3233  0.9759
 2289SOL    HW218504   3.997   0.974   3.177 -0.9289  0.4934 -0.3109
 2290SOL     OW18505   3.499   3.148   7.845 -0.6953  0.2882  0.2066
 2290SOL    HW118506   3.523   3.231   7.804 -0.7738  0.0237 -0.3763
 2290SOL    HW218507   3.408   3.141   7.818 -1.4338  0.8641  2.5908
 2291SOL     OW18508   1.470   2.669   1.334 -0.5327  0.0377  0.0120
 2291SOL    HW118509   1.498   2.621   1.413 -1.6455 -0.3113  0.1945
 2291SOL    HW218510   1.510   2.614   1.267 -0.3112 -0.7775  0.8033
 2292SOL     OW18511   4.193   4.075   8.476 -0.3966  0.5972  0.1143
 2292SOL    HW118512   4.159   3.993   8.439 -0.8639  0.6683  0.3809
 2292SOL    HW218513   4.185   4.127   8.397  0.1080  0.9028  0.2603
 2293SOL     OW18514   1.892   4.334   9.501 -0.5742 -0.1204  0.1159
 2293SOL    HW118515   1.845   4.415   9.482 -0.7149 -0.1967  0.1362
 2293SOL    HW218516   1.909   4.351   9.593 -0.4062  1.9673 -0.3023
 2294SOL     OW18517   3.995   1.614   4.681  0.1590 -0.3879  0.4642
 2294SOL    HW118518   3.957   1.554   4.746  1.6883 -1.3269  0.4788
 2294SOL    HW218519   3.919   1.615   4.623  0.7237 -1.4482 -0.2952
 2295SOL     OW18520   2.787   4.303  14.653  0.0488 -0.2215 -0.6829
 2295SOL    HW118521   2.851   4.234  14.668 -0.8436 -1.1145 -1.0406
 2295SOL    HW218522   2.781   4.336  14.742  0.9307  1.0907 -1.0926
 2296SOL     OW18523   0.602   3.574   3.795 -0.1396 -0.1529  0.1798
 2296SOL    HW118524   0.651   3.652   3.822 -0.9505  0.5929 -0.5057
 2296SOL    HW218525   0.608   3.578   3.699  0.0996 -0.5674  0.1782
 2297SOL     OW18526   3.385   3.845   4.346  0.0905 -0.7406 -0.3656
 2297SOL    HW118527   3.407   3.815   4.258  2.4583 -1.3492  0.4275
 2297SOL    HW218528   3.309   3.899   4.323  1.4853  0.0111 -3.2386
 2298SOL     OW18529   3.053   2.698   4.581 -0.9770  0.1707 -0.4511
 2298SOL    HW118530   2.989   2.763   4.612 -1.1157  0.5023 -1.4318
 2298SOL    HW218531   3.009   2.649   4.511 -1.3833 -0.2606  0.1047
 2299SOL     OW18532   0.269   2.977   2.226  0.0067  0.5190 -0.0040
 2299SOL    HW118533   0.198   3.026   2.184 -1.4884 -0.5978  1.2446
 2299SOL    HW218534   0.243   2.972   2.317 -1.1096  0.1136 -0.3487
 2300SOL     OW18535   4.533   1.687   8.517 -0.0666  0.8029 -0.1064
 2300SOL    HW118536   4.557   1.601   8.550 -1.3808  0.2145 -0.6888
 2300SOL    HW218537   4.488   1.731   8.589  0.1896  1.3552 -0.2832
 2301SOL     OW18538   2.527   2.382   7.926 -0.0174  0.2461  0.2425
 2301SOL    HW118539   2.590   2.449   7.954  0.5069  1.1685 -3.1449
 2301SOL    HW218540   2.473   2.371   8.004 -1.4838  0.6298 -0.7310
 2302SOL     OW18541   2.634   2.917   7.934  0.5727  0.1294  0.8430
 2302SOL    HW118542   2.681   2.997   7.909  0.0533  0.2889  0.3937
 2302SOL    HW218543   2.544   2.948   7.927  0.0426 -1.6680 -0.1994
 2303SOL     OW18544   4.358   0.022   6.378 -0.4969  0.0709  0.3768
 2303SOL    HW118545   4.336   0.077   6.303 -1.4522  0.5892  1.0337
 2303SOL    HW218546   4.333   4.673   6.344  0.1935  0.8946 -2.1844
 2304SOL     OW18547   1.453   0.644   8.544  0.1009  0.0411  0.3722
 2304SOL    HW118548   1.485   0.554   8.548 -2.3082 -0.7167  2.4988
 2304SOL    HW218549   1.373   0.633   8.595  0.3372 -2.6766  0.1548
 2305SOL     OW18550   3.855   0.217   1.766  0.0744  0.1386  0.3015
 2305SOL    HW118551   3.775   0.165   1.770  0.2072  0.1303  3.4650
 2305SOL    HW218552   3.827   0.274   1.695 -0.1133 -0.2900  0.0365
 2306SOL     OW18553   0.112   0.451   8.908  0.5887  0.6249  0.4236
 2306SOL    HW118554   0.061   0.479   8.984  1.8760  1.4194  0.9772
 2306SOL    HW218555   0.198   0.480   8.938  0.8543 -3.5914  3.7330
 2307SOL     OW18556   1.065   3.315   9.253 -0.2313  0.2977  0.1798
 2307SOL    HW118557   1.089   3.379   9.321 -1.0231 -1.4644  2.1273
 2307SOL    HW218558   1.147   3.272   9.230  0.3345 -0.4872  3.6384
 2308SOL     OW18559   0.824   1.519  12.525 -0.3062  0.5184  0.1165
 2308SOL    HW118560   0.767   1.578  12.575  0.3246  1.2345 -0.0187
 2308SOL    HW218561   0.909   1.562  12.518 -1.1017  1.4819 -3.6590
 2309SOL     OW18562   4.414   4.152   2.395 -0.0682 -0.4559  0.1861
 2309SOL    HW118563   4.435   4.162   2.302  0.1026 -1.5665  0.0986
 2309SOL    HW218564   4.383   4.061   2.399  0.0961 -0.5189  0.0630
 2310SOL     OW18565   3.517   3.909   4.912  0.3578 -0.2347 -0.0299
 2310SOL    HW118566   3.463   3.852   4.858 -0.7863 -0.9389  1.8530
 2310SOL    HW218567   3.472   3.992   4.894  1.1508 -0.2949 -2.2805
 2311SOL     OW18568   4.457   4.581   5.743  0.2219  0.7519  0.0346
 2311SOL    HW118569   4.410   4.645   5.797  0.4457  0.7504  0.2332
 2311SOL    HW218570   4.385   4.565   5.682  0.4047 -0.6790  0.1972
 2312SOL     OW18571   3.575   1.269   5.985  0.4281 -0.3552  0.1628
 2312SOL    HW118572   3.607   1.358   5.998  1.4540 -0.5921 -0.7361
 2312SOL    HW218573   3.589   1.265   5.890  1.8923 -0.1263  0.3780
 2313SOL     OW18574   4.119   0.092   7.345 -0.7855 -0.2314  0.1679
 2313SOL    HW118575   4.177   0.158   7.307 -0.1129 -0.8645  0.1029
 2313SOL    HW218576   4.048   0.139   7.388 -0.0196  0.2442  0.9173
 2314SOL     OW18577   3.599   2.017   4.257 -0.4001 -0.2021 -0.3273
 2314SOL    HW118578   3.677   1.973   4.225 -0.7186 -0.9573 -0.0548
 2314SOL    HW218579   3.527   1.972   4.213 -1.0244  1.1179 -0.6685
 2315SOL     OW18580   0.409   2.791   8.687  0.5362  0.1675  0.4189
 2315SOL    HW118581   0.486   2.749   8.650 -0.5160 -0.7715 -0.7125
 2315SOL    HW218582   0.440   2.880   8.673 -2.4201  0.9013 -1.6641
 2316SOL     OW18583   3.185   4.066   5.934 -0.3397 -0.2569 -0.5853
 2316SOL    HW118584   3.114   4.131   5.930 -2.4575 -2.2821  3.1767
 2316SOL    HW218585   3.244   4.101   5.868 -0.7417 -0.3036 -0.9712
 2317SOL     OW18586   2.360   1.055   0.535 -0.2568  0.3146 -0.9501
 2317SOL    HW118587   2.420   1.125   0.509  0.1565 -0.2904 -1.6318
 2317SOL    HW218588   2.285   1.106   0.567 -0.2434  0.5076 -1.2285
 2318SOL     OW18589   3.253   3.184   9.947 -0.2014  0.2094 -0.0831
 2318SOL    HW118590   3.178   3.231   9.983 -0.4907 -0.6592  0.4658
 2318SOL    HW218591   3.223   3.113   9.890 -1.8163  1.6739 -1.0298
 2319SOL     OW18592   0.758   4.645  10.933  0.3570 -0.3327 -0.8017
 2319SOL    HW118593   0.725   4.691  11.011  2.8170 -1.0173  0.6660
 2319SOL    HW218594   0.828   4.698  10.894  2.4198 -1.8273  0.8387
 2320SOL     OW18595   0.608   1.618   4.722  0.0744 -0.3419  0.1078
 2320SOL    HW118596   0.696   1.625   4.758 -0.0319 -0.5966  0.4127
 2320SOL    HW218597   0.617   1.691   4.660  2.0057  0.0674  0.8930
 2321SOL     OW18598   4.536   1.228   2.202 -0.0788 -0.2916 -0.4144
 2321SOL    HW118599   4.492   1.200   2.122  0.7556  1.7835 -1.5854
 2321SOL    HW218600   4.483   1.175   2.261 -0.4206  0.7188  0.1762
 2322SOL     OW18601   1.940   2.438  12.033  0.3212  0.8240 -0.1418
 2322SOL    HW118602   1.880   2.489  12.088  1.1613 -0.0378  1.5873
 2322SOL    HW218603   1.963   2.370  12.096 -1.0288  0.3390 -0.1541
 2323SOL     OW18604   1.647   2.447   0.319 -0.3514 -0.5475 -0.1937
 2323SOL    HW118605   1.660   2.411   0.231  2.3103 -0.6112  0.2253
 2323SOL    HW218606   1.592   2.378   0.355  0.9650  0.7403  4.2210
 2324SOL     OW18607   1.616   4.725  12.788 -0.0738 -0.1105 -0.9065
 2324SOL    HW118608   1.540   0.048  12.791  0.1302  0.0449  1.2018
 2324SOL    HW218609   1.600   4.688  12.701  0.9226  0.2157 -1.2281
 2325SOL     OW18610   2.902   0.603  16.021  0.2214 -0.2462 -0.3093
 2325SOL    HW118611   2.928   0.666  15.954  1.7286  0.4534  0.9262
 2325SOL    HW218612   2.809   0.627  16.030  0.0003 -0.6059 -1.6284
 2326SOL     OW18613   0.027   0.823   2.202  0.0222  0.4520 -0.0887
 2326SOL    HW118614   0.110   0.817   2.249  0.8334  1.0450 -1.4434
 2326SOL    HW218615   0.022   0.730   2.180 -2.0614  0.7120 -0.7465
 2327SOL     OW18616   1.301   0.128   6.131  0.8853 -0.2286 -0.3527
 2327SOL    HW118617   1.251   0.054   6.096  0.1594 -0.8205  1.9484
 2327SOL    HW218618   1.330   0.090   6.214 -1.2289  0.4600  0.6865
 2328SOL     OW18619   1.093   3.949   7.903 -0.3968  0.2111 -0.4143
 2328SOL    HW118620   1.065   4.032   7.865  0.1576  1.0253  0.9653
 2328SOL    HW218621   1.045   3.950   7.986  1.8024 -1.9682  0.8831
 2329SOL     OW18622   1.644   2.714   4.204  0.5012 -0.7555 -0.7253
 2329SOL    HW118623   1.561   2.679   4.233  0.5465 -1.8053 -1.8703
 2329SOL    HW218624   1.676   2.765   4.279 -0.4961  0.0447 -0.8366
 2330SOL     OW18625   3.720   3.124   3.655  0.0131  0.3363  0.9502
 2330SOL    HW118626   3.638   3.102   3.610 -0.5102  1.1207  1.5261
 2330SOL    HW218627   3.695   3.175   3.732 -1.2017  1.7322 -0.3719
 2331SOL     OW18628   0.301   3.559  10.330 -0.8869  0.7481  0.0322
 2331SOL    HW118629   0.368   3.523  10.388 -1.3915  0.0331  0.1760
 2331SOL    HW218630   0.225   3.563  10.388  1.7161  1.2175  3.4167
 2332SOL     OW18631   1.622   2.646   4.784 -0.2274  0.0813 -0.1712
 2332SOL    HW118632   1.659   2.661   4.871 -1.5267  0.2020  0.3772
 2332SOL    HW218633   1.620   2.550   4.780 -1.7661  0.1287 -0.7353
 2333SOL     OW18634   0.467   2.997   5.260  0.1581  0.2953  0.2834
 2333SOL    HW118635   0.541   2.985   5.201  0.3806  0.1359  0.5964
 2333SOL    HW218636   0.402   2.939   5.221  0.4441  1.1977 -1.5608
 2334SOL     OW18637   4.712   0.970   7.902  0.0064 -0.1099 -0.0625
 2334SOL    HW118638   4.634   1.001   7.949 -1.1773 -1.4577 -1.1417
 2334SOL    HW218639   0.043   0.989   7.966  0.8873  0.1183 -1.0704
 2335SOL     OW18640   4.723   2.546  11.432  0.6679 -0.0513  0.2879
 2335SOL    HW118641   0.054   2.581  11.372  0.5242  0.6509  0.5340
 2335SOL    HW218642   4.672   2.619  11.467 -0.0721 -0.2918 -0.3002
 2336SOL     OW18643   3.722   1.480   8.230 -0.6417  0.0844  0.5039
 2336SOL    HW118644   3.807   1.524   8.223 -0.3522 -0.2217  2.0259
 2336SOL    HW218645   3.673   1.530   8.165  1.8369 -0.5527 -1.8949
 2337SOL     OW18646   4.065   3.151   3.904 -0.2346  0.0213  0.0199
 2337SOL    HW118647   4.070   3.067   3.858 -0.8302 -0.7071  1.2711
 2337SOL    HW218648   4.157   3.175   3.889 -0.6299  1.8871  0.6921
 2338SOL     OW18649   1.183   0.771  11.085 -0.8215 -0.7691 -0.6958
 2338SOL    HW118650   1.264   0.820  11.072  1.3784 -3.8727  1.5072
 2338SOL    HW218651   1.146   0.837  11.144  1.9853  0.6370 -0.5137
 2339SOL     OW18652   4.653   1.684  14.743  0.1278 -0.1951  0.0841
 2339SOL    HW118653   4.703   1.664  14.664 -1.2814 -0.8484 -0.6333
 2339SOL    HW218654   4.612   1.599  14.761 -0.4724  0.1751  0.4543
 2340SOL     OW18655   2.448   4.316   0.521 -0.1816  0.5530 -0.0339
 2340SOL    HW118656   2.440   4.340   0.429 -0.4790  1.0552  0.1203
 2340SOL    HW218657   2.401   4.388   0.564 -3.8596 -1.4073 -0.7839
 2341SOL     OW18658   1.658   4.371   6.262 -0.1123  0.0969  0.3596
 2341SOL    HW118659   1.645   4.285   6.223  0.8237  0.1115  0.0226
 2341SOL    HW218660   1.665   4.345   6.354  0.1917 -1.1067 -0.0115
 2342SOL     OW18661   2.614   3.235  12.514  0.2390 -0.1267 -0.3787
 2342SOL    HW118662   2.658   3.307  12.558  1.0638 -1.5704  1.1840
 2342SOL    HW218663   2.549   3.273  12.455 -0.1911  1.2548  0.9917
 2343SOL     OW18664   2.189   2.165   5.865 -0.0804  0.8507 -0.2462
 2343SOL    HW118665   2.159   2.253   5.841  0.7810  0.5002 -2.5880
 2343SOL    HW218666   2.282   2.177   5.847  0.2314 -0.8224  0.2723
 2344SOL     OW18667   3.910   4.512   3.332 -0.1844  0.0287  0.0137
 2344SOL    HW118668   3.933   4.424   3.301  0.4399  0.0642  0.3857
 2344SOL    HW218669   3.997   4.549   3.341 -0.2697  0.0713  0.6609
 2345SOL     OW18670   0.156   4.034   2.079 -0.4004 -0.2970 -0.3354
 2345SOL    HW118671   0.210   4.113   2.072 -0.6268 -0.3103 -2.3520
 2345SOL    HW218672   0.215   3.960   2.090 -0.0494  0.3877  2.3183
 2346SOL     OW18673   4.569   1.519   6.769  0.1900 -0.2982 -0.0888
 2346SOL    HW118674   4.607   1.502   6.856  1.8168  0.9327 -0.5640
 2346SOL    HW218675   4.648   1.501   6.719 -1.2547 -0.3321 -2.3388
 2347SOL     OW18676   1.229   3.942   5.968 -0.4203  0.2248  0.4603
 2347SOL    HW118677   1.294   3.902   6.025 -0.0647  0.1017 -0.0352
 2347SOL    HW218678   1.159   3.878   5.984 -1.3324  1.5462  1.7354
 2348SOL     OW18679   0.882   0.899  13.819  0.8828  0.3222 -0.0587
 2348SOL    HW118680   0.911   0.809  13.806  3.1361  1.0141  0.2802
 2348SOL    HW218681   0.851   0.892  13.909 -0.1858 -0.2322 -0.4638
 2349SOL     OW18682   1.307   3.961   2.988  0.1411 -0.5679 -0.2968
 2349SOL    HW118683   1.294   3.866   2.981  0.4384 -0.6803  0.6956
 2349SOL    HW218684   1.232   3.982   3.043 -1.8991 -0.9560 -2.9661
 2350SOL     OW18685   0.941   0.203  16.985 -0.2621 -0.1805  0.5251
 2350SOL    HW118686   1.013   0.234  16.929  0.6732 -0.1539  1.7504
 2350SOL    HW218687   0.870   0.243  16.934  1.3705  1.5044 -0.4698
 2351SOL     OW18688   0.225   0.836  11.987  0.6373  0.1444 -0.0212
 2351SOL    HW118689   0.286   0.763  11.976 -0.5272 -0.8578  0.2128
 2351SOL    HW218690   0.226   0.840  12.082  2.4554 -0.7447 -0.0017
 2352SOL     OW18691   1.916   2.116   5.944  0.5178  0.4229 -1.0335
 2352SOL    HW118692   1.832   2.085   5.911  0.6043 -1.2301  0.3052
 2352SOL    HW218693   1.959   2.118   5.858 -0.1432  0.0384 -1.3676
 2353SOL     OW18694   0.642   1.730  10.114  0.0248 -0.0072  0.0165
 2353SOL    HW118695   0.552   1.749  10.138 -0.1153 -0.5484 -0.0885
 2353SOL    HW218696   0.675   1.812  10.076 -0.1775  0.7009  1.3704
 2354SOL     OW18697   3.517   3.319   3.338 -0.0948  0.2125  0.2201
 2354SOL    HW118698   3.429   3.353   3.325 -0.3873 -0.6973 -0.1327
 2354SOL    HW218699   3.512   3.236   3.386 -0.5459 -0.0316 -0.2562
 2355SOL     OW18700   1.993   1.799   5.009  0.1229  0.3107 -0.3014
 2355SOL    HW118701   2.087   1.808   4.997 -0.1115  0.8844 -1.7936
 2355SOL    HW218702   1.979   1.848   5.090  0.1681 -0.6158  0.2658
 2356SOL     OW18703   4.599   3.704   8.246 -0.1333  0.1391 -0.1844
 2356SOL    HW118704   4.545   3.782   8.256 -1.0477 -0.1900 -2.5586
 2356SOL    HW218705   4.627   3.704   8.337  1.2437 -0.8152 -0.6007
 2357SOL     OW18706   2.672   0.325  17.485 -0.5522  0.4213 -0.4321
 2357SOL    HW118707   2.728   0.391  17.446 -1.4521  2.3132  1.4997
 2357SOL    HW218708   2.611   0.376  17.538 -0.8153 -0.1463 -0.1835
 2358SOL     OW18709   3.987   0.990   1.784 -0.0180  0.5357 -0.1803
 2358SOL    HW118710   3.939   1.043   1.849  2.1170  0.9921  1.0263
 2358SOL    HW218711   4.039   0.929   1.836 -2.0374 -1.7741 -0.8552
 2359SOL     OW18712   1.636   3.903   1.957  0.0603 -0.4309 -0.0822
 2359SOL    HW118713   1.563   3.882   2.015 -0.1753  1.0283  0.1400
 2359SOL    HW218714   1.684   3.820   1.962  1.6260  0.3840 -1.5266
 2360SOL     OW18715   3.967   1.342   4.444  0.1041 -0.1768 -0.1464
 2360SOL    HW118716   4.040   1.392   4.481 -0.6745 -1.0966  2.5783
 2360SOL    HW218717   3.913   1.415   4.415  1.4600  0.0166 -2.2308
 2361SOL     OW18718   3.759   1.195   1.872 -0.3315  0.1875 -0.7556
 2361SOL    HW118719   3.694   1.219   1.807 -0.8627  1.6234  0.3089
 2361SOL    HW218720   3.797   1.281   1.891  0.7348 -0.3650 -0.3311
 2362SOL     OW18721   0.356   1.675   9.906 -0.2103 -0.1563  0.1996
 2362SOL    HW118722   0.368   1.707   9.995  1.0350  0.9881 -0.3667
 2362SOL    HW218723   0.273   1.632   9.925  0.1216 -0.3780  1.1318
 2363SOL     OW18724   3.798   1.138   8.629 -0.2199  0.2142  0.1028
 2363SOL    HW118725   3.808   1.210   8.567 -0.0795 -0.3769 -0.5596
 2363SOL    HW218726   3.796   1.198   8.704  0.3566  1.7169 -1.1110
 2364SOL     OW18727   2.111   2.248  15.679 -0.2204  0.4697 -0.3915
 2364SOL    HW118728   2.065   2.330  15.665 -1.1988  0.5983  3.4186
 2364SOL    HW218729   2.139   2.220  15.592 -1.8103  1.7420 -1.3059
 2365SOL     OW18730   4.083   0.073  14.885 -0.3818 -0.0538 -0.4094
 2365SOL    HW118731   4.176   0.094  14.895 -0.9988  2.2070  0.7052
 2365SOL    HW218732   4.070   0.127  14.807  0.8791  2.8280  1.3519
 2366SOL     OW18733   2.500   4.092   6.954 -0.2141 -0.1786 -0.0433
 2366SOL    HW118734   2.520   4.181   6.981  2.7918 -0.3505 -1.6795
 2366SOL    HW218735   2.453   4.051   7.027  1.1306 -0.0599  0.8933
 2367SOL     OW18736   3.906   3.574  17.261 -0.1645  0.3481 -0.7329
 2367SOL    HW118737   3.960   3.511  17.213  1.5572 -0.3693  2.1521
 2367SOL    HW218738   3.870   3.513  17.326  0.1416  0.7352 -0.2120
 2368SOL     OW18739   2.975   2.905   3.768  0.5831 -0.0835 -0.1004
 2368SOL    HW118740   3.020   2.901   3.684  1.4248  1.5039  0.2863
 2368SOL    HW218741   2.994   2.990   3.808 -1.0188  0.5260 -0.6564
 2369SOL     OW18742   0.502   4.474   7.301 -0.5477 -0.8607 -0.5082
 2369SOL    HW118743   0.551   4.457   7.220 -0.6740 -1.2490 -0.5065
 2369SOL    HW218744   0.424   4.519   7.269 -0.7521 -1.9203 -1.5130
 2370SOL     OW18745   4.732   4.644   5.379  0.0750 -0.1314 -0.2423
 2370SOL    HW118746   4.716   4.661   5.471  1.4786  1.1016 -0.2147
 2370SOL    HW218747   4.722   4.549   5.376 -1.5259  0.0358 -0.0074
 2371SOL     OW18748   0.805   0.435  12.257  0.2152  0.3590 -1.1174
 2371SOL    HW118749   0.897   0.414  12.245  0.1214 -0.7012  0.1131
 2371SOL    HW218750   0.813   0.517  12.306  0.8753 -2.6247  3.7206
 2372SOL     OW18751   4.357   4.688   7.846 -0.5957  0.0181  0.3622
 2372SOL    HW118752   4.354   0.031   7.794  0.2482 -0.2657 -0.1336
 2372SOL    HW218753   4.301   4.637   7.788 -0.7539  2.0404 -1.2542
 2373SOL     OW18754   2.572   3.863  12.045 -0.2994 -0.0077  0.1029
 2373SOL    HW118755   2.533   3.865  12.133  3.2295 -0.5806  1.6939
 2373SOL    HW218756   2.492   3.853  11.994  1.0511 -0.1708 -1.9478
 2374SOL     OW18757   1.590   3.270  11.134 -0.0720  0.5219 -0.4588
 2374SOL    HW118758   1.672   3.312  11.107  0.2355  0.8357  0.9715
 2374SOL    HW218759   1.632   3.221  11.204  0.1819 -1.1361 -1.7669
 2375SOL     OW18760   0.395   2.767   7.934 -0.1054 -0.7391  0.0769
 2375SOL    HW118761   0.490   2.754   7.932  0.0259  0.3728 -1.0118
 2375SOL    HW218762   0.400   2.862   7.947 -0.4893 -0.4711 -1.7123
 2376SOL     OW18763   4.604   4.695   2.157  0.4016  0.2136 -0.5020
 2376SOL    HW118764   4.612   4.600   2.167 -1.1158 -0.1372 -2.5370
 2376SOL    HW218765   4.511   4.709   2.135  0.5060 -0.7874 -1.6190
 2377SOL     OW18766   2.630   3.255  13.115  0.1510 -0.1239 -0.0119
 2377SOL    HW118767   2.661   3.277  13.028  1.3816  1.5105  0.8321
 2377SOL    HW218768   2.581   3.335  13.135  1.4757  0.7407 -0.1855
 2378SOL     OW18769   0.350   3.248   5.270  0.2416 -0.4558 -0.0382
 2378SOL    HW118770   0.423   3.198   5.234 -2.0434 -2.4028 -1.9614
 2378SOL    HW218771   0.292   3.209   5.205  0.9612  0.3108 -1.1557
 2379SOL     OW18772   0.071   0.383   8.456 -0.3970  0.1395 -0.2531
 2379SOL    HW118773   0.092   0.356   8.545 -1.1437 -1.3257 -0.5147
 2379SOL    HW218774   4.729   0.435   8.472 -0.9097 -0.9674  0.7796
 2380SOL     OW18775   0.116   2.506   1.312 -0.0804  0.5791  0.8778
 2380SOL    HW118776   0.200   2.551   1.324  0.4053 -0.5705  1.7803
 2380SOL    HW218777   0.069   2.587   1.292  1.0714  0.7806 -0.9933
 2381SOL     OW18778   3.111   4.134   4.919  0.3011 -0.1715 -0.0278
 2381SOL    HW118779   3.135   4.049   4.955  0.7752  1.0920  2.6637
 2381SOL    HW218780   3.199   4.173   4.917  1.4139 -2.7477 -0.8444
 2382SOL     OW18781   1.526   1.392  14.942 -0.1448  0.6961  0.1711
 2382SOL    HW118782   1.464   1.457  14.908  0.7303  1.6925  0.4794
 2382SOL    HW218783   1.591   1.459  14.962  0.9330 -0.7763  1.5842
 2383SOL     OW18784   2.406   0.498   9.954 -0.7643  0.3447 -0.1306
 2383SOL    HW118785   2.446   0.412   9.963  0.6162  0.9551 -0.5332
 2383SOL    HW218786   2.313   0.476   9.954 -0.3625 -1.3391 -0.5944
 2384SOL     OW18787   2.160   3.047   8.920 -0.2308 -0.3141  0.0599
 2384SOL    HW118788   2.218   2.990   8.868  1.6178  1.5735  0.0572
 2384SOL    HW218789   2.081   3.036   8.867  0.8043  2.1209 -2.0249
 2385SOL     OW18790   2.680   3.584   5.979 -0.3003 -0.2826  0.5631
 2385SOL    HW118791   2.588   3.563   5.998 -0.7398  2.3316  1.4667
 2385SOL    HW218792   2.708   3.595   6.069  0.3406  0.2132  0.3068
 2386SOL     OW18793   4.107   2.110   9.830  0.0639 -0.0259  0.0253
 2386SOL    HW118794   4.140   2.123   9.919  0.3927  0.8149 -0.2191
 2386SOL    HW218795   4.165   2.042   9.794  0.7108  1.3497 -1.5685
 2387SOL     OW18796   3.382   2.202   9.060  0.3946  0.2682 -0.1665
 2387SOL    HW118797   3.427   2.203   8.975 -0.7495  0.9368 -0.7574
 2387SOL    HW218798   3.292   2.203   9.028  0.3170 -0.4345  0.0396
 2388SOL     OW18799   4.098   1.880   4.011 -0.0701  0.3636 -0.1949
 2388SOL    HW118800   4.182   1.846   4.040 -1.0630 -1.3267  0.6834
 2388SOL    HW218801   4.133   1.932   3.939  1.0952 -1.8681 -1.2537
 2389SOL     OW18802   4.442   1.223   6.276 -0.5642  0.3142 -0.8995
 2389SOL    HW118803   4.444   1.275   6.196 -0.4799  4.6153  1.9177
 2389SOL    HW218804   4.389   1.144   6.263 -0.8213  0.2008  0.7641
 2390SOL     OW18805   3.051   4.636   4.480  0.3427 -0.5089 -0.0577
 2390SOL    HW118806   3.066   4.545   4.455 -0.7720 -0.7116  0.0314
 2390SOL    HW218807   3.097   4.635   4.564  0.3160  1.2827 -0.0232
 2391SOL     OW18808   0.497   3.478   9.015 -0.4603 -0.7004  0.7989
 2391SOL    HW118809   0.454   3.526   9.085  0.7574  2.5805 -0.6978
 2391SOL    HW218810   0.444   3.401   8.992 -0.4801 -0.4662  0.0638
 2392SOL     OW18811   0.806   0.468   3.696  0.1520  0.2931  0.6121
 2392SOL    HW118812   0.827   0.416   3.618  0.8228  3.2712 -1.1789
 2392SOL    HW218813   0.759   0.541   3.656  0.8164  1.4437  1.9729
 2393SOL     OW18814   1.274   0.818   3.465  0.0385 -0.1641 -0.0553
 2393SOL    HW118815   1.313   0.854   3.386 -0.2073  0.1678 -0.0254
 2393SOL    HW218816   1.235   0.733   3.446 -1.5367  0.5465 -0.0409
 2394SOL     OW18817   1.126   3.800   7.680  0.9970 -0.4415 -0.1087
 2394SOL    HW118818   1.211   3.768   7.711  0.4881 -1.2243  0.4710
 2394SOL    HW218819   1.108   3.856   7.756 -1.4720 -2.1460  0.5356
 2395SOL     OW18820   1.061   0.808  14.099 -0.5678 -0.0019  0.3658
 2395SOL    HW118821   1.110   0.766  14.029  2.1890 -1.3412  3.0632
 2395SOL    HW218822   1.007   0.736  14.130 -3.0601  1.5150 -0.4420
 2396SOL     OW18823   1.778   2.135   2.859  0.4672  0.9107 -0.1848
 2396SOL    HW118824   1.841   2.070   2.892 -1.5729 -0.7564  0.4427
 2396SOL    HW218825   1.738   2.175   2.936 -1.0837 -0.6717 -0.1549
 2397SOL     OW18826   2.841   4.707   8.658  0.3835  0.6280  0.1522
 2397SOL    HW118827   2.891   4.721   8.578 -0.9210  1.5095 -0.5036
 2397SOL    HW218828   2.823   0.057   8.692  0.1489 -0.1840  2.1152
 2398SOL     OW18829   4.304   0.438   9.023 -0.2141  0.1191  0.0499
 2398SOL    HW118830   4.316   0.484   8.940 -2.2026 -2.0791 -1.4458
 2398SOL    HW218831   4.211   0.452   9.040  0.4539  2.2017  2.0769
 2399SOL     OW18832   4.282   4.148   7.990 -0.2083 -0.0918 -0.2816
 2399SOL    HW118833   4.365   4.120   7.951 -1.2290 -0.6034 -2.0717
 2399SOL    HW218834   4.270   4.238   7.959 -2.2995  0.6516  2.6981
 2400SOL     OW18835   3.386   4.668   7.133 -0.1797  0.0416  0.6069
 2400SOL    HW118836   3.418   0.012   7.093  2.0175 -0.2373  1.7907
 2400SOL    HW218837   3.357   4.705   7.216 -1.2295  0.6714 -0.0427
 2401SOL     OW18838   0.563   0.247  17.524  0.1665 -0.0778  0.0724
 2401SOL    HW118839   0.636   0.252  17.586  1.2505 -1.6473 -1.0835
 2401SOL    HW218840   0.619   0.228  17.449  3.6501  1.6155  2.2144
 2402SOL     OW18841   4.062   1.333   1.845  0.2367  0.5117  0.1288
 2402SOL    HW118842   4.093   1.418   1.814  1.0054  0.5740  1.0749
 2402SOL    HW218843   3.984   1.360   1.893 -1.1826 -1.4033 -1.1158
 2403SOL     OW18844   3.134   2.573   9.124 -0.5114  0.0774 -0.2483
 2403SOL    HW118845   3.080   2.629   9.179 -1.6271 -0.6524 -0.5864
 2403SOL    HW218846   3.224   2.594   9.150  0.2967 -0.4049 -2.5940
 2404SOL     OW18847   2.175   2.819   8.696 -0.6169 -0.2207 -0.6016
 2404SOL    HW118848   2.225   2.740   8.716 -0.7661 -0.8428 -2.7504
 2404SOL    HW218849   2.090   2.784   8.671 -1.2386  0.7484  0.1266
 2405SOL     OW18850   3.420   4.253  14.939 -0.2057  0.5986 -0.3810
 2405SOL    HW118851   3.342   4.210  14.973  1.4381  0.7492  3.6248
 2405SOL    HW218852   3.495   4.213  14.983 -0.2008  0.0161 -0.9239
 2406SOL     OW18853   2.226   4.500   1.657  0.3588  0.4377 -0.2169
 2406SOL    HW118854   2.134   4.526   1.659  0.6854  1.4365  2.2050
 2406SOL    HW218855   2.267   4.567   1.712  0.4212  1.2548 -1.2715
 2407SOL     OW18856   0.891   2.075   5.271 -0.0516  0.1396  0.1257
 2407SOL    HW118857   0.829   2.044   5.206 -0.8382  2.0885 -0.0656
 2407SOL    HW218858   0.975   2.058   5.228 -0.3899 -2.3953  0.4770
 2408SOL     OW18859   2.698   3.084   5.065  0.2358 -0.1595 -0.3556
 2408SOL    HW118860   2.755   3.007   5.074  0.0481 -0.4153 -1.3337
 2408SOL    HW218861   2.655   3.094   5.149  2.0912 -0.3280  0.6115
 2409SOL     OW18862   3.871   2.124   2.416 -0.4500  0.8517  0.1395
 2409SOL    HW118863   3.851   2.092   2.328 -2.5700  0.5212  0.7464
 2409SOL    HW218864   3.940   2.189   2.404 -1.2444  1.4911 -0.9292
 2410SOL     OW18865   4.221   3.546  12.798  0.2222  0.0708 -0.6533
 2410SOL    HW118866   4.239   3.637  12.776  3.0995 -0.0079  1.3940
 2410SOL    HW218867   4.133   3.548  12.836  1.0535 -1.4501  1.3537
 2411SOL     OW18868   2.969   1.047  16.282  0.5574 -0.6580  0.6183
 2411SOL    HW118869   2.882   1.014  16.263  0.1173  1.8227 -1.6074
 2411SOL    HW218870   3.000   1.004  16.362 -0.8240  1.3034  2.2102
 2412SOL     OW18871   2.066   0.492   8.836 -0.2904 -0.1854  0.0996
 2412SOL    HW118872   1.987   0.523   8.881  0.3860  0.8305  0.5717
 2412SOL    HW218873   2.123   0.502   8.912  2.0861  0.2385 -1.7712
 2413SOL     OW18874   1.771   4.044   6.730 -0.0831  0.5661 -0.6492
 2413SOL    HW118875   1.707   4.075   6.794  1.4239  3.2579 -0.4497
 2413SOL    HW218876   1.811   4.123   6.695  0.5878  0.2201 -0.6700
 2414SOL     OW18877   3.590   3.246   9.490 -0.8122 -0.0540 -0.8422
 2414SOL    HW118878   3.655   3.213   9.428 -0.6211  1.8265 -1.6538
 2414SOL    HW218879   3.618   3.332   9.521 -0.2919 -0.6243  0.2629
 2415SOL     OW18880   2.789   4.278   1.886  0.6040  0.1551  1.0259
 2415SOL    HW118881   2.758   4.367   1.898  0.4846  0.4111 -1.1656
 2415SOL    HW218882   2.808   4.277   1.792  0.9798  0.3856  1.0997
 2416SOL     OW18883   1.855   2.528   4.381  0.0694 -0.1072  0.1823
 2416SOL    HW118884   1.860   2.537   4.286 -1.2481 -0.7684  0.0474
 2416SOL    HW218885   1.807   2.609   4.402  2.1172  1.9864 -3.3472
 2417SOL     OW18886   2.215   3.491  13.093  0.2278  0.0094 -0.7366
 2417SOL    HW118887   2.297   3.513  13.049 -0.4410 -0.2887 -2.1441
 2417SOL    HW218888   2.182   3.572  13.132 -0.0925  0.4135 -1.8452
 2418SOL     OW18889   0.707   4.528   8.887  0.2631 -0.4474  0.0950
 2418SOL    HW118890   0.731   4.437   8.869  0.6156 -0.1412 -0.9896
 2418SOL    HW218891   0.654   4.526   8.966  0.7324  0.8614  0.4321
 2419SOL     OW18892   3.077   2.606   1.344  0.2397  0.1547  0.6897
 2419SOL    HW118893   3.051   2.576   1.430  1.2768  0.2760  1.0434
 2419SOL    HW218894   3.169   2.630   1.351  0.1119  0.6176  0.7739
 2420SOL     OW18895   2.624   1.322   5.659  0.0954  0.6671 -0.2138
 2420SOL    HW118896   2.570   1.327   5.580  0.0654  0.2428 -0.2215
 2420SOL    HW218897   2.567   1.368   5.721  0.5918 -0.3028  0.9475
 2421SOL     OW18898   3.098   1.922   3.710  0.0952  0.3404  0.6019
 2421SOL    HW118899   3.172   1.867   3.683 -1.2321 -1.2392  0.1368
 2421SOL    HW218900   3.084   1.884   3.797  1.1378 -0.4213  0.4419
 2422SOL     OW18901   1.609   3.501   4.863 -0.3451  0.2278  0.3256
 2422SOL    HW118902   1.671   3.448   4.913  0.4171  1.6718  0.9147
 2422SOL    HW218903   1.637   3.497   4.772 -1.4545 -0.2867  0.0059
 2423SOL     OW18904   2.302   3.601   2.628 -0.0515 -0.5896  0.1906
 2423SOL    HW118905   2.243   3.526   2.629 -0.6412 -0.1156  2.7759
 2423SOL    HW218906   2.381   3.567   2.671 -0.0157 -0.0780  0.5323
 2424SOL     OW18907   3.008   1.804   8.334 -0.1859  1.0853 -0.2226
 2424SOL    HW118908   3.074   1.786   8.402 -0.2642  0.7072 -0.2471
 2424SOL    HW218909   2.936   1.849   8.377 -0.8840  0.5137 -0.8090
 2425SOL     OW18910   3.064   0.414   8.067 -0.3223 -0.5280 -0.0779
 2425SOL    HW118911   3.070   0.419   7.972  0.7836 -2.0389 -0.0736
 2425SOL    HW218912   3.150   0.377   8.083 -0.4920  0.0668  2.3480
 2426SOL     OW18913   2.186   1.358  15.974 -0.1648 -0.4467 -0.4363
 2426SOL    HW118914   2.140   1.274  15.969 -1.4654  0.1380  1.8236
 2426SOL    HW218915   2.127   1.416  15.927  2.6131  1.9943 -0.9397
 2427SOL     OW18916   3.976   0.306   4.752 -0.2089 -0.0061  1.2555
 2427SOL    HW118917   3.899   0.252   4.769  1.4186 -2.8513 -0.3605
 2427SOL    HW218918   3.968   0.370   4.823  1.9077  0.0470  1.4489
 2428SOL     OW18919   4.448   0.760   9.469  0.2935  0.1847 -0.4819
 2428SOL    HW118920   4.418   0.812   9.543 -1.8241 -0.1614 -1.0953
 2428SOL    HW218921   4.440   0.679   9.519 -0.5655  0.1956 -0.5929
 2429SOL     OW18922   0.186   4.180   1.617 -0.3782  0.0680  1.0028
 2429SOL    HW118923   0.223   4.098   1.651 -1.0075 -0.1641  1.1319
 2429SOL    HW218924   0.254   4.205   1.555 -0.2779  0.7785  1.4060
 2430SOL     OW18925   0.706   2.049   2.372  0.3574 -0.5508  0.6716
 2430SOL    HW118926   0.690   2.073   2.463 -0.8885 -2.8435  1.0567
 2430SOL    HW218927   0.695   1.954   2.366 -1.7820 -0.3106  0.5049
 2431SOL     OW18928   3.766   2.722   7.038  0.1724  0.5524 -0.5744
 2431SOL    HW118929   3.824   2.728   6.962  0.6126  0.8597 -0.2065
 2431SOL    HW218930   3.686   2.767   7.011  0.7372  2.0638  0.3349
 2432SOL     OW18931   0.331   2.040  16.356 -0.6995 -0.2900 -0.1968
 2432SOL    HW118932   0.367   2.129  16.345 -1.7340 -0.1819 -2.6315
 2432SOL    HW218933   0.377   2.014  16.436 -2.0219  0.4591  0.7932
 2433SOL     OW18934   0.074   0.947  10.406  0.1004  0.1481  0.2024
 2433SOL    HW118935   0.103   1.005  10.336 -0.7153  1.5495  1.0281
 2433SOL    HW218936   0.157   0.901  10.421  0.7063  1.3324  0.4114
 2434SOL     OW18937   0.887   1.612   3.602 -0.1798  0.0068 -0.6136
 2434SOL    HW118938   0.975   1.584   3.574  0.0898 -1.1613  1.3333
 2434SOL    HW218939   0.825   1.568   3.545 -1.2268  2.4843 -1.3937
 2435SOL     OW18940   3.978   2.809  17.370  0.7583 -0.2606  0.1163
 2435SOL    HW118941   3.903   2.854  17.408  0.1378  0.3328 -1.7812
 2435SOL    HW218942   3.961   2.716  17.387  2.5305 -0.7553 -0.7888
 2436SOL     OW18943   1.017   2.415   8.138  0.1972 -0.7029  0.1820
 2436SOL    HW118944   1.001   2.341   8.079 -1.5659  0.3786 -0.6870
 2436SOL    HW218945   0.985   2.387   8.224 -0.5655 -2.5068 -0.6794
 2437SOL     OW18946   3.500   0.009   0.677  0.7754  0.2383 -0.1814
 2437SOL    HW118947   3.477   0.096   0.644 -2.5741 -0.2211  0.9493
 2437SOL    HW218948   3.449   4.699   0.611 -0.5237 -1.8930  2.3123
 2438SOL     OW18949   1.881   3.809   2.916  0.6447  0.1793 -0.2226
 2438SOL    HW118950   1.843   3.875   2.858  0.4761  0.3773  0.1119
 2438SOL    HW218951   1.853   3.730   2.871 -1.5756 -0.8146  2.9255
 2439SOL     OW18952   2.516   1.475  12.043 -0.2073  0.5452 -0.2768
 2439SOL    HW118953   2.430   1.515  12.057  0.5102  1.9802 -0.0176
 2439SOL    HW218954   2.564   1.550  12.009  3.5047 -2.1913 -1.0376
 2440SOL     OW18955   3.601   4.488  11.658  0.0226  0.0410 -0.1138
 2440SOL    HW118956   3.685   4.516  11.696 -0.1271  2.9618 -1.9309
 2440SOL    HW218957   3.622   4.459  11.570 -0.4506 -2.0688  0.4821
 2441SOL     OW18958   1.214   3.402  10.619 -0.2535 -0.5895 -0.6428
 2441SOL    HW118959   1.209   3.471  10.685  2.0923 -2.0564  1.0496
 2441SOL    HW218960   1.291   3.354  10.650 -0.3562  0.0270  0.5616
 2442SOL     OW18961   3.590   0.060   8.410 -0.3126 -0.0766 -0.1283
 2442SOL    HW118962   3.598   0.093   8.500  0.8642  2.2930 -1.1227
 2442SOL    HW218963   3.502   0.022   8.414 -0.3486  0.2117  1.9794
 2443SOL     OW18964   1.917   2.208   6.716 -0.1365 -0.0339 -0.1348
 2443SOL    HW118965   1.851   2.139   6.706  1.0732 -1.1948 -0.2765
 2443SOL    HW218966   1.871   2.261   6.781  1.4105  0.1649  0.8009
 2444SOL     OW18967   0.753   1.703  11.308 -0.4792  0.2338 -0.4382
 2444SOL    HW118968   0.751   1.798  11.319 -3.1357 -0.0688  1.7101
 2444SOL    HW218969   0.698   1.695  11.231  0.7064  1.1007 -1.3735
 2445SOL     OW18970   0.371   2.304   1.261 -0.2962 -0.1773 -0.0682
 2445SOL    HW118971   0.356   2.360   1.338 -0.4886  1.4955 -1.3302
 2445SOL    HW218972   0.328   2.345   1.186 -0.5883 -0.5415 -0.1023
 2446SOL     OW18973   1.789   4.448   5.785 -0.1337 -0.4013  0.5090
 2446SOL    HW118974   1.775   4.362   5.746  0.9177 -0.5045  0.3516
 2446SOL    HW218975   1.722   4.440   5.853 -1.6512 -0.0540 -0.9411
 2447SOL     OW18976   2.425   4.578   8.510 -0.4186 -0.0496 -0.2906
 2447SOL    HW118977   2.489   4.571   8.439 -0.1847 -4.4420  0.3532
 2447SOL    HW218978   2.486   4.579   8.583 -2.0525 -0.6404  1.0831
 2448SOL     OW18979   0.764   2.085  17.477 -0.2397 -0.8396  0.0450
 2448SOL    HW118980   0.770   2.138  17.398  1.9817  0.9763  1.4511
 2448SOL    HW218981   0.766   2.002  17.429 -1.3836  0.5948 -2.5226
 2449SOL     OW18982   4.571   3.885  13.846 -0.1137  0.1739  0.2384
 2449SOL    HW118983   4.481   3.861  13.869 -0.6675  0.9890 -1.1106
 2449SOL    HW218984   4.548   3.953  13.782  2.9166 -1.5709 -2.6851
 2450SOL     OW18985   4.492   2.142   6.061 -0.0849 -0.4915  0.7034
 2450SOL    HW118986   4.413   2.173   6.018  0.7172 -1.1637 -1.2392
 2450SOL    HW218987   4.534   2.220   6.096 -0.0089 -0.3632  0.3275
 2451SOL     OW18988   2.495   4.421   5.562  0.4675 -0.1071 -0.0056
 2451SOL    HW118989   2.404   4.416   5.535  0.8174 -0.3725 -1.1533
 2451SOL    HW218990   2.494   4.507   5.604  3.0411 -0.7510  1.3369
 2452SOL     OW18991   3.353   1.902   6.554  0.1472 -0.0615  0.0339
 2452SOL    HW118992   3.328   1.988   6.589 -0.8367 -0.2659 -0.1689
 2452SOL    HW218993   3.276   1.878   6.502 -0.1621  1.9343 -0.4449
 2453SOL     OW18994   4.012   2.922   7.199  0.0433 -0.4094  0.4529
 2453SOL    HW118995   3.997   2.981   7.273  0.6976 -0.8342  0.9346
 2453SOL    HW218996   3.931   2.874   7.179 -0.1900  0.5700 -0.9424
 2454SOL     OW18997   3.615   3.895   1.263  1.0302 -0.9551  0.8795
 2454SOL    HW118998   3.650   3.907   1.174  1.3666 -3.3625  0.6773
 2454SOL    HW218999   3.608   3.800   1.268  1.3967 -1.0963 -1.0839
 2455SOL     OW19000   2.473   1.930   2.011 -0.1248  0.2361  0.1207
 2455SOL    HW119001   2.424   1.849   2.022 -1.8750  1.1086 -1.4189
 2455SOL    HW219002   2.528   1.932   2.090 -1.0042 -1.0544  0.7705
 2456SOL     OW19003   3.042   0.104   8.491 -0.8284 -0.0427  0.4852
 2456SOL    HW119004   3.106   0.102   8.420 -3.8788 -1.6479 -2.2449
 2456SOL    HW219005   3.000   0.188   8.475 -0.4005  0.3361  1.3594
 2457SOL     OW19006   3.118   3.665   1.861 -0.5760 -0.1234 -0.2289
 2457SOL    HW119007   3.101   3.612   1.939 -0.0283  0.1423  0.0734
 2457SOL    HW219008   3.036   3.714   1.851 -0.4170  0.3555  0.8338
 2458SOL     OW19009   0.195   2.801   6.914  0.1782  0.0033  0.1994
 2458SOL    HW119010   0.279   2.756   6.917  0.1224 -0.1643 -0.6696
 2458SOL    HW219011   0.195   2.823   6.821 -0.4863 -1.2839 -0.1071
 2459SOL     OW19012   2.831   1.923  17.157 -0.4373  0.0904  0.1519
 2459SOL    HW119013   2.874   1.865  17.221  2.0093 -0.3693 -1.9346
 2459SOL    HW219014   2.802   1.862  17.089 -0.7671  0.8440 -0.3707
 2460SOL     OW19015   3.854   1.498   5.791  0.0412 -0.1465 -0.3575
 2460SOL    HW119016   3.818   1.553   5.722  1.1692  0.9678 -0.0492
 2460SOL    HW219017   3.933   1.549   5.810 -1.1449  1.1361  1.0815
 2461SOL     OW19018   1.305   2.941  17.408 -0.0539 -0.1207  0.1976
 2461SOL    HW119019   1.261   3.020  17.376 -0.8175 -0.3034  0.7922
 2461SOL    HW219020   1.240   2.871  17.400 -2.7711  2.1487  2.3165
 2462SOL     OW19021   3.962   1.588   3.925  0.2688 -0.5161  0.4195
 2462SOL    HW119022   3.971   1.572   4.018  1.8101  1.6079  0.6469
 2462SOL    HW219023   4.008   1.672   3.926 -0.7183  0.0620 -1.8209
 2463SOL     OW19024   1.588   0.308   8.313 -0.0435 -0.2878  0.2754
 2463SOL    HW119025   1.627   0.386   8.272  0.4727 -0.1174  1.0870
 2463SOL    HW219026   1.612   0.330   8.403  0.6621 -0.4649  0.1308
 2464SOL     OW19027   1.934   3.626   7.163  0.1634  0.2118 -0.1181
 2464SOL    HW119028   1.878   3.549   7.170  1.9733 -1.1066 -0.0722
 2464SOL    HW219029   1.945   3.662   7.251  0.3666  0.0360 -0.0706
 2465SOL     OW19030   1.364   2.783   6.113  0.0747 -0.7359 -0.2059
 2465SOL    HW119031   1.425   2.736   6.169  1.7234  1.5049 -0.1049
 2465SOL    HW219032   1.279   2.765   6.155  1.0592 -0.9789  1.6785
 2466SOL     OW19033   1.214   1.652   8.390  0.3417  0.2921 -0.4184
 2466SOL    HW119034   1.241   1.731   8.343  0.1614  0.1698 -0.7267
 2466SOL    HW219035   1.291   1.628   8.440  0.0570 -1.7411 -0.9761
 2467SOL     OW19036   3.110   3.125   8.872 -0.8264  0.1436  0.2642
 2467SOL    HW119037   3.199   3.121   8.837  0.0257  2.4199  2.2115
 2467SOL    HW219038   3.117   3.123   8.967 -2.7072  2.0586  0.4404
 2468SOL     OW19039   2.459   3.205   9.729 -0.0198 -0.5473  0.7346
 2468SOL    HW119040   2.436   3.207   9.822 -0.2045  1.6641  0.6416
 2468SOL    HW219041   2.385   3.151   9.703 -1.4256  2.1041 -0.7191
 2469SOL     OW19042   1.900   2.057   5.687  0.1653 -0.0614  0.3651
 2469SOL    HW119043   1.889   1.966   5.662  0.5342  0.1234 -0.4642
 2469SOL    HW219044   1.924   2.106   5.608 -0.7886 -0.6407 -0.2694
 2470SOL     OW19045   2.379   3.704  13.336 -0.7314 -0.4801  0.4681
 2470SOL    HW119046   2.318   3.726  13.265 -1.1693  0.7984  1.2368
 2470SOL    HW219047   2.359   3.771  13.401 -0.5315  1.9288 -1.9489
 2471SOL     OW19048   1.046   3.654  12.228 -0.5130  0.0959  0.3133
 2471SOL    HW119049   1.026   3.672  12.137  0.3077 -0.2821  0.0546
 2471SOL    HW219050   0.993   3.721  12.271 -0.7962 -1.2353  2.0564
 2472SOL     OW19051   3.480   3.721   4.068 -0.6649 -0.2442 -0.0584
 2472SOL    HW119052   3.562   3.686   4.033  0.2240  0.7146  1.0401
 2472SOL    HW219053   3.512   3.812   4.063 -0.2859 -0.4372 -1.2343
 2473SOL     OW19054   0.218   0.535   8.292 -0.1724  0.2509 -0.4106
 2473SOL    HW119055   0.179   0.525   8.205 -1.1951 -4.1581  0.5883
 2473SOL    HW219056   0.172   0.463   8.334  1.1933 -0.2226  0.2844
 2474SOL     OW19057   3.369   2.007   5.699 -0.0068 -0.4358  0.4291
 2474SOL    HW119058   3.344   1.933   5.755 -3.9101 -0.8675 -1.8396
 2474SOL    HW219059   3.287   2.017   5.651  0.5903  0.9112 -0.2890
 2475SOL     OW19060   0.608   2.267  11.230 -0.2071  0.4698 -0.8211
 2475SOL    HW119061   0.549   2.253  11.305  0.9545 -0.5898 -0.1052
 2475SOL    HW219062   0.586   2.358  11.214 -1.4585  0.9363  3.3651
 2476SOL     OW19063   0.104   4.664   3.696 -0.1404 -0.3424  0.5433
 2476SOL    HW119064   0.071   4.644   3.608  1.6527  0.5589 -0.3449
 2476SOL    HW219065   0.025   4.662   3.750 -0.0077 -1.8855  0.6719
 2477SOL     OW19066   2.031   1.878   8.064  0.4708 -0.3845  0.0139
 2477SOL    HW119067   2.110   1.842   8.105  0.4936 -2.5985 -2.0344
 2477SOL    HW219068   2.028   1.829   7.983  2.4210 -1.7045  0.7392
 2478SOL     OW19069   2.643   4.405   8.955  0.1368 -0.0262  0.6374
 2478SOL    HW119070   2.710   4.400   9.023 -1.7740  2.7823  2.7259
 2478SOL    HW219071   2.617   4.313   8.959  0.1626 -0.2017 -3.2739
 2479SOL     OW19072   4.314   0.477   5.203 -0.7052 -0.5268 -0.1344
 2479SOL    HW119073   4.286   0.560   5.163  1.2661  0.0574 -0.3092
 2479SOL    HW219074   4.269   0.474   5.287 -0.6935 -0.5960 -0.1306
 2480SOL     OW19075   1.537   4.257   5.600  0.3207  0.4386 -0.4884
 2480SOL    HW119076   1.613   4.259   5.659 -1.4250 -2.1449  1.8489
 2480SOL    HW219077   1.509   4.166   5.610 -3.7634  1.8049  0.1602
 2481SOL     OW19078   1.325   4.320   6.715 -0.8488  0.0688 -0.4515
 2481SOL    HW119079   1.239   4.349   6.683 -2.0249 -1.1991  1.5073
 2481SOL    HW219080   1.356   4.407   6.739  1.2013 -1.1523  1.3255
 2482SOL     OW19081   2.415   4.554   9.207 -0.4063  0.7426 -0.0920
 2482SOL    HW119082   2.413   4.463   9.239  1.1473  1.5579  2.3130
 2482SOL    HW219083   2.502   4.587   9.229  0.2358 -0.9389 -0.0358
 2483SOL     OW19084   0.314   1.246   7.057 -0.4394 -0.2793  0.2086
 2483SOL    HW119085   0.265   1.246   7.139  3.4856 -1.4807  2.5327
 2483SOL    HW219086   0.375   1.173   7.059  0.1708  0.2005 -0.6244
 2484SOL     OW19087   0.782   3.612   8.465  0.3483  0.0969 -0.3758
 2484SOL    HW119088   0.869   3.644   8.439  0.0621  1.2992  0.1622
 2484SOL    HW219089   0.742   3.695   8.490  1.3602  0.7581 -0.9652
 2485SOL     OW19090   2.498   0.826   5.655  0.1761  0.0820  0.2663
 2485SOL    HW119091   2.525   0.884   5.727  2.3330 -1.7114  0.8845
 2485SOL    HW219092   2.538   0.875   5.584  2.2816 -2.9805 -0.6454
 2486SOL     OW19093   1.575   2.411   5.507  0.3827 -0.0723 -0.1243
 2486SOL    HW119094   1.612   2.329   5.537 -0.2696 -0.2926  0.0678
 2486SOL    HW219095   1.488   2.412   5.548 -0.1161  0.1866 -1.1733
 2487SOL     OW19096   0.798   4.720   7.294 -0.0220 -0.0112 -0.0407
 2487SOL    HW119097   0.754   4.666   7.228  0.9951 -1.0687  0.1532
 2487SOL    HW219098   0.801   0.075   7.266 -0.8446 -0.1560 -0.6045
 2488SOL     OW19099   2.581   2.816   5.335  0.3440 -0.1119  0.1777
 2488SOL    HW119100   2.639   2.843   5.264 -1.8053  0.6365 -1.2708
 2488SOL    HW219101   2.642   2.822   5.409  1.4037 -0.3654 -0.6812
 2489SOL     OW19102   4.604   4.139   4.774 -0.0228 -0.0563 -0.0343
 2489SOL    HW119103   4.675   4.117   4.713 -0.2041  0.3069 -0.3779
 2489SOL    HW219104   4.590   4.052   4.812  1.8689 -0.1606  0.4270
 2490SOL     OW19105   1.308   2.127  15.008  0.6505  0.4309 -0.4505
 2490SOL    HW119106   1.242   2.060  14.992 -1.1490  2.3184 -0.8858
 2490SOL    HW219107   1.387   2.073  14.996  1.3491  1.2121  0.6603
 2491SOL     OW19108   4.047   0.434   1.197  0.0977  0.2399  0.6709
 2491SOL    HW119109   3.968   0.475   1.160 -0.2910 -0.0271  1.2177
 2491SOL    HW219110   4.012   0.368   1.256 -0.7292  0.2762  0.2329
 2492SOL     OW19111   0.230   2.436  13.597  0.2955  0.0880 -0.0069
 2492SOL    HW119112   0.233   2.364  13.661 -0.3050  1.2287  1.2977
 2492SOL    HW219113   0.143   2.423  13.558  0.2226 -0.9892  0.5001
 2493SOL     OW19114   3.577   0.013   5.405  0.1186  0.1595  0.5798
 2493SOL    HW119115   3.495   0.039   5.447  1.0411  1.7944  1.3705
 2493SOL    HW219116   3.573   0.080   5.337  4.0284 -1.6520 -1.3938
 2494SOL     OW19117   1.767   3.310   7.167  0.4825  0.0065 -0.1589
 2494SOL    HW119118   1.748   3.352   7.083  0.6908  0.5690  0.0758
 2494SOL    HW219119   1.834   3.246   7.142  0.3223  0.4085 -1.6200
 2495SOL     OW19120   4.120   2.476   2.642  0.0104 -0.1330 -0.3658
 2495SOL    HW119121   4.063   2.547   2.612  0.7682  0.8566  0.5558
 2495SOL    HW219122   4.056   2.429   2.696 -0.3399  2.3786  1.4028
 2496SOL     OW19123   3.412   1.707   4.558 -0.2891  0.0513 -0.4153
 2496SOL    HW119124   3.325   1.671   4.542 -0.8708  0.4766  1.7035
 2496SOL    HW219125   3.415   1.790   4.510 -0.5114 -0.2459 -0.9323
 2497SOL     OW19126   1.046   1.029  13.650 -0.6129 -0.0377 -0.0904
 2497SOL    HW119127   1.064   0.943  13.613 -0.0322  0.8376 -1.8399
 2497SOL    HW219128   0.975   1.008  13.710 -0.0286  0.9522  0.9489
 2498SOL     OW19129   3.107   1.734  15.823  0.0515 -0.1645 -0.3881
 2498SOL    HW119130   3.100   1.639  15.830 -0.7537 -0.2766 -2.5549
 2498SOL    HW219131   3.127   1.735  15.729 -0.3765  1.7599 -0.4568
 2499SOL     OW19132   3.332   2.801  14.444  0.3904  0.1026 -0.4910
 2499SOL    HW119133   3.317   2.853  14.366 -1.1541 -1.2966 -1.1340
 2499SOL    HW219134   3.402   2.746  14.409  0.6886  0.5769 -0.6404
 2500SOL     OW19135   3.471   2.056   1.333  0.2226 -0.0551  0.1674
 2500SOL    HW119136   3.519   2.021   1.408  0.0433  0.0437  0.3299
 2500SOL    HW219137   3.541   2.090   1.278  1.0940 -1.3134  0.4997
 2501SOL     OW19138   3.360   2.876   2.807 -0.4284  0.4674 -0.0403
 2501SOL    HW119139   3.449   2.884   2.772 -0.5620  0.5328 -0.3665
 2501SOL    HW219140   3.324   2.935   2.740  0.2719 -0.5701 -1.3356
 2502SOL     OW19141   0.329   2.651   5.993  0.5395 -0.0319  0.4927
 2502SOL    HW119142   0.388   2.613   6.058 -0.3773  1.2714  2.1043
 2502SOL    HW219143   0.308   2.743   6.011  0.6609 -0.0537  0.7528
 2503SOL     OW19144   1.977   3.902  11.060  0.0874 -0.1456 -0.2402
 2503SOL    HW119145   2.032   3.952  11.000 -0.5549 -0.4083 -1.0365
 2503SOL    HW219146   1.899   3.959  11.063 -0.8000 -1.3365 -0.7564
 2504SOL     OW19147   4.252   3.036   1.069 -0.5178 -0.3108 -0.2641
 2504SOL    HW119148   4.245   3.119   1.022  1.3978 -0.0392 -0.1034
 2504SOL    HW219149   4.166   3.026   1.108  0.0147 -2.7786  0.2851
 2505SOL     OW19150   1.503   3.214  10.204  0.2363  0.9050 -0.2282
 2505SOL    HW119151   1.476   3.262  10.125  2.6920 -0.4260 -1.8932
 2505SOL    HW219152   1.416   3.201  10.242  0.1615 -0.0596 -0.7326
 2506SOL     OW19153   0.358   1.815   4.803  0.4852  0.8131 -0.4164
 2506SOL    HW119154   0.370   1.750   4.872 -1.1753  0.1320 -0.7661
 2506SOL    HW219155   0.310   1.757   4.744  0.0390  0.8169 -0.0573
 2507SOL     OW19156   2.850   0.463   7.040  0.0579 -0.5688  0.0021
 2507SOL    HW119157   2.941   0.477   7.012 -0.9031  0.0943 -2.8013
 2507SOL    HW219158   2.833   0.379   6.998  2.6471 -1.2438  0.2824
 2508SOL     OW19159   4.319   1.233   6.644  0.3733  0.2712  0.1677
 2508SOL    HW119160   4.301   1.327   6.637 -0.5575  0.1118  0.4520
 2508SOL    HW219161   4.269   1.200   6.570 -0.6598  0.3560  0.8270
 2509SOL     OW19162   3.272   2.417   9.592 -0.0846  0.3858 -0.1724
 2509SOL    HW119163   3.211   2.344   9.585  0.0478  0.3246 -0.6623
 2509SOL    HW219164   3.349   2.377   9.552 -0.5337  1.1761 -1.7963
 2510SOL     OW19165   3.262   2.939   1.468  0.5994  0.6090  0.4546
 2510SOL    HW119166   3.205   2.973   1.538 -1.0373 -2.8839  0.8407
 2510SOL    HW219167   3.305   2.860   1.502 -0.2044 -0.0539 -0.0736
 2511SOL     OW19168   3.419   3.828   3.667 -0.2013  0.1467  0.4631
 2511SOL    HW119169   3.460   3.898   3.617 -0.5067  1.0856  1.5146
 2511SOL    HW219170   3.498   3.797   3.711 -0.6942  1.0738  2.0294
 2512SOL     OW19171   1.380   1.548   1.428 -0.1563 -0.1775  0.0068
 2512SOL    HW119172   1.309   1.610   1.410  0.1713 -0.8732 -3.6017
 2512SOL    HW219173   1.356   1.540   1.520  0.1672 -0.8275  0.0303
 2513SOL     OW19174   2.106   0.761  15.836  0.0057  0.2503  0.5085
 2513SOL    HW119175   2.124   0.773  15.929  1.2966 -0.5988  0.3747
 2513SOL    HW219176   2.147   0.675  15.833 -0.2817  0.1327 -0.2091
 2514SOL     OW19177   4.668   2.522   4.231 -0.0305 -0.6285 -0.2812
 2514SOL    HW119178   4.695   2.475   4.310  0.1145  2.2096  1.3565
 2514SOL    HW219179   4.656   2.606   4.274  0.1854 -0.0634 -1.3208
 2515SOL     OW19180   1.700   4.581  17.323  0.1428 -0.1648  0.0114
 2515SOL    HW119181   1.739   4.545  17.243  2.1077  0.6896  0.5774
 2515SOL    HW219182   1.672   4.500  17.365  0.6616 -0.8451 -0.9290
 2516SOL     OW19183   1.305   4.435   3.901 -0.6137 -0.3505  0.0540
 2516SOL    HW119184   1.399   4.430   3.916 -0.2133 -2.3101 -3.0569
 2516SOL    HW219185   1.283   4.526   3.919  1.0808  0.2109 -0.7098
 2517SOL     OW19186   2.804   0.356   8.122  0.2375  0.0258  0.3176
 2517SOL    HW119187   2.807   0.442   8.164  0.1565  0.2668 -0.1706
 2517SOL    HW219188   2.895   0.352   8.095 -0.4326 -1.7717 -1.6294
 2518SOL     OW19189   2.577   3.325   3.418  0.4133  0.1671  0.4467
 2518SOL    HW119190   2.612   3.252   3.366  2.6598  0.3533  1.6946
 2518SOL    HW219191   2.540   3.378   3.347 -0.0544  0.8262  1.1904
 2519SOL     OW19192   2.552   2.123   1.828  0.2613 -0.0077  0.2319
 2519SOL    HW119193   2.501   2.156   1.902 -0.3091 -1.8225  0.6703
 2519SOL    HW219194   2.556   2.029   1.849 -1.1808 -0.4067 -1.2137
 2520SOL     OW19195   1.819   2.259  15.528  0.1944  0.7380 -0.0831
 2520SOL    HW119196   1.855   2.338  15.569 -0.0152  1.0648 -0.5303
 2520SOL    HW219197   1.729   2.278  15.552 -0.2266 -1.8843  0.4524
 2521SOL     OW19198   0.276   1.441   2.870  0.2920  0.0776 -0.0942
 2521SOL    HW119199   0.281   1.376   2.800  0.7614 -1.6078  1.5373
 2521SOL    HW219200   0.185   1.440   2.899 -0.1212 -1.6814 -1.4733
 2522SOL     OW19201   4.567   2.425   6.079  0.2309  0.1463  0.3761
 2522SOL    HW119202   4.515   2.489   6.030  0.8977 -0.6888 -1.4303
 2522SOL    HW219203   4.654   2.466   6.069 -0.2224  1.1991  0.7447
 2523SOL     OW19204   0.212   0.283  11.945  0.1629  0.3055 -0.2509
 2523SOL    HW119205   0.255   0.338  12.011 -1.0720  0.1364  0.6825
 2523SOL    HW219206   0.286   0.234  11.908 -0.1505 -0.5047  0.1766
 2524SOL     OW19207   3.323   4.205   3.734 -0.6357  0.9969 -0.0383
 2524SOL    HW119208   3.242   4.208   3.682 -0.6909 -1.1325 -0.0512
 2524SOL    HW219209   3.380   4.145   3.686 -1.1768  1.4368 -1.2296
 2525SOL     OW19210   0.331   0.831   9.750  0.4733 -0.3889 -0.3514
 2525SOL    HW119211   0.375   0.907   9.713 -1.4710  0.8234 -0.2079
 2525SOL    HW219212   0.271   0.812   9.677 -0.5683  1.5852 -0.0222
 2526SOL     OW19213   1.708   3.438   6.389 -0.0726 -0.2397 -0.1442
 2526SOL    HW119214   1.640   3.401   6.445  1.3199 -0.8617  1.1340
 2526SOL    HW219215   1.649   3.495   6.340  1.1115  1.3281  0.2062
 2527SOL     OW19216   1.847   2.684   6.778  0.0891 -0.1520  0.4168
 2527SOL    HW119217   1.816   2.728   6.857  0.1627  0.0636  0.3263
 2527SOL    HW219218   1.784   2.616   6.758 -0.1158  0.3394 -0.5960
 2528SOL     OW19219   3.712   2.664  10.102  0.1241 -0.2475 -0.8849
 2528SOL    HW119220   3.743   2.574  10.104 -0.0302 -0.2397  1.6980
 2528SOL    HW219221   3.702   2.678  10.008  0.7591  1.1429 -0.7539
 2529SOL     OW19222   3.730   3.441   5.122  0.1379  0.4611  0.2535
 2529SOL    HW119223   3.756   3.350   5.136 -2.6327 -0.3353  0.1245
 2529SOL    HW219224   3.798   3.458   5.056  0.4050 -0.9248  0.1731
 2530SOL     OW19225   3.711   1.172   4.783  0.3170  0.4005 -0.0465
 2530SOL    HW119226   3.649   1.191   4.712  0.0722 -0.9687 -0.1939
 2530SOL    HW219227   3.780   1.129   4.734 -0.2661 -1.0406  0.3943
 2531SOL     OW19228   1.858   0.539   6.842 -0.3672 -0.3552  0.0616
 2531SOL    HW119229   1.877   0.466   6.901 -0.8143 -1.4690 -1.1856
 2531SOL    HW219230   1.768   0.565   6.862 -0.7790  0.3387 -2.6870
 2532SOL     OW19231   1.638   0.793  16.628  0.4694  0.4425  0.1622
 2532SOL    HW119232   1.562   0.766  16.678 -0.7199 -1.5815 -2.7314
 2532SOL    HW219233   1.604   0.864  16.573 -2.2781  0.4521  1.8629
 2533SOL     OW19234   2.572   3.749  10.310  0.1065 -0.2240  0.4667
 2533SOL    HW119235   2.505   3.817  10.305 -0.0163 -0.3497  0.4169
 2533SOL    HW219236   2.578   3.737  10.405 -1.0313 -0.9960  0.4368
 2534SOL     OW19237   3.178   1.661   4.447  0.2661  0.4154  0.1835
 2534SOL    HW119238   3.208   1.740   4.404  0.5178 -0.0606 -0.5110
 2534SOL    HW219239   3.086   1.657   4.418  0.4771 -0.2402 -0.4026
 2535SOL     OW19240   1.537   4.402   5.923 -0.1068 -0.1338 -0.1589
 2535SOL    HW119241   1.520   4.308   5.917 -1.9655  0.2190 -0.6400
 2535SOL    HW219242   1.485   4.438   5.995 -0.4684 -1.2356  0.1346
 2536SOL     OW19243   2.781   2.068   3.906 -0.1678 -0.3594  0.3623
 2536SOL    HW119244   2.850   2.132   3.894 -0.7499  0.2805  0.4435
 2536SOL    HW219245   2.842   2.001   3.937  1.7190  0.1751 -2.2233
 2537SOL     OW19246   0.061   3.671   1.517  0.0789 -0.8777  0.4808
 2537SOL    HW119247   0.062   3.578   1.540 -1.5067 -1.3236 -1.2895
 2537SOL    HW219248   4.707   3.696   1.533  1.6306  3.4183  2.6168
 2538SOL     OW19249   1.063   1.487   2.159 -0.2035  0.0873  0.5002
 2538SOL    HW119250   1.034   1.409   2.207  3.1955 -1.5067 -0.0489
 2538SOL    HW219251   0.982   1.537   2.156  0.6147  1.2941 -1.0655
 2539SOL     OW19252   0.109   2.423   9.011 -0.4514  0.4829  0.0044
 2539SOL    HW119253   0.115   2.454   8.921  0.9537  1.5021  0.4504
 2539SOL    HW219254   0.200   2.410   9.038 -0.7443 -1.0477  0.2298
 2540SOL     OW19255   4.207   3.608   7.959  0.4938  0.2163 -0.7576
 2540SOL    HW119256   4.139   3.661   8.002  0.6674  1.1730 -1.6702
 2540SOL    HW219257   4.252   3.680   7.915  1.3698  0.4500  0.5257
 2541SOL     OW19258   4.149   4.315   1.866  0.3056  0.0154 -0.1439
 2541SOL    HW119259   4.237   4.338   1.837  0.3166  0.3371  0.1410
 2541SOL    HW219260   4.157   4.221   1.882  0.3773 -0.1481 -1.1552
 2542SOL     OW19261   0.407   2.825  13.502 -0.3656 -0.4154 -0.0358
 2542SOL    HW119262   0.345   2.756  13.478 -0.2536 -0.2934 -0.6707
 2542SOL    HW219263   0.482   2.772  13.528 -0.7517 -1.0644 -0.2522
 2543SOL     OW19264   1.641   4.447  13.614 -0.0830 -0.1102 -0.1947
 2543SOL    HW119265   1.671   4.533  13.585 -2.7175  0.7447 -0.4202
 2543SOL    HW219266   1.722   4.419  13.658 -0.8564  0.2255  1.4507
 2544SOL     OW19267   1.549   0.285   6.873  0.9360  0.0429  0.0729
 2544SOL    HW119268   1.582   0.276   6.962 -0.8809 -1.0309  0.6376
 2544SOL    HW219269   1.613   0.249   6.812  0.4425 -0.1542 -0.3195
 2545SOL     OW19270   1.873   2.215   7.656 -0.4585  0.0327 -0.2764
 2545SOL    HW119271   1.850   2.307   7.665  0.7841  0.3813 -0.6619
 2545SOL    HW219272   1.962   2.216   7.690  0.2226 -0.6845 -2.0486
 2546SOL     OW19273   3.345   3.537  16.270 -0.2381 -0.0820  0.0499
 2546SOL    HW119274   3.317   3.446  16.281  0.3095  0.0789  2.8352
 2546SOL    HW219275   3.422   3.522  16.216 -0.7073 -0.2677 -0.5632
 2547SOL     OW19276   0.382   2.713   2.333 -0.0486 -0.1878  0.0431
 2547SOL    HW119277   0.319   2.749   2.271  1.2037  4.0411  1.2334
 2547SOL    HW219278   0.371   2.622   2.307  1.3174 -1.1595  2.9733
 2548SOL     OW19279   0.760   1.927   7.718 -0.4027  0.1521 -0.4854
 2548SOL    HW119280   0.798   1.842   7.695 -2.1638 -0.6058 -0.5630
 2548SOL    HW219281   0.776   1.927   7.813 -1.9378  0.6297 -0.2282
 2549SOL     OW19282   3.089   1.230   1.824  0.5168  0.8520 -0.2007
 2549SOL    HW119283   3.010   1.209   1.875  0.1353  1.9679 -0.3324
 2549SOL    HW219284   3.149   1.223   1.898 -0.2712 -2.4523  0.1593
 2550SOL     OW19285   0.440   4.646   4.121  0.1336  0.2716 -0.4941
 2550SOL    HW119286   0.407   4.564   4.157 -0.8772  1.3722  1.0894
 2550SOL    HW219287   0.372   4.674   4.060 -2.1704  1.0550  2.4143
 2551SOL     OW19288   4.513   3.196   9.215  0.3146  0.0057  0.3834
 2551SOL    HW119289   4.448   3.140   9.173 -0.2742  1.4175 -0.6183
 2551SOL    HW219290   4.491   3.189   9.308  3.3668  0.9076  1.1630
 2552SOL     OW19291   2.125   2.312   5.045  0.3850  0.3592 -0.1396
 2552SOL    HW119292   2.136   2.256   5.122 -1.3322 -0.5284 -0.5493
 2552SOL    HW219293   2.030   2.323   5.040  0.5584  1.6003 -0.6631
 2553SOL     OW19294   1.187   0.633  14.589  0.0145  0.1246  0.1316
 2553SOL    HW119295   1.134   0.691  14.644  1.7477  1.3734  0.4844
 2553SOL    HW219296   1.152   0.669  14.509 -0.6328 -0.6362  0.0670
 2554SOL     OW19297   2.763   0.072  10.078  0.4037 -0.2395 -0.6406
 2554SOL    HW119298   2.809   0.078   9.994  0.7465 -1.6895 -0.5567
 2554SOL    HW219299   2.675   0.040  10.059 -1.1678  2.5759  1.9890
 2555SOL     OW19300   3.458   2.899   8.608 -0.4666  0.1448  0.2160
 2555SOL    HW119301   3.542   2.872   8.646 -0.5909 -0.8868 -0.2358
 2555SOL    HW219302   3.503   2.961   8.551  1.1256 -0.2504  1.0305
 2556SOL     OW19303   1.348   3.615   2.920  0.1978 -0.5755 -0.0925
 2556SOL    HW119304   1.357   3.554   2.993  1.5461 -0.7498 -0.4039
 2556SOL    HW219305   1.431   3.597   2.877  1.1407  2.4983  0.4322
 2557SOL     OW19306   1.091   1.269   4.244 -0.4386 -0.6795 -0.8210
 2557SOL    HW119307   1.148   1.318   4.304 -1.4837 -0.5494  0.0661
 2557SOL    HW219308   1.160   1.222   4.197 -0.4277  0.2612 -1.7420
 2558SOL     OW19309   2.253   4.627   6.682 -0.0719 -0.4345 -0.2669
 2558SOL    HW119310   2.170   4.641   6.727  0.8132  0.4929  1.0632
 2558SOL    HW219311   2.311   4.630   6.757 -1.1376  1.7209  0.5046
 2559SOL     OW19312   2.083   2.619  16.204  0.0512  0.2657  0.0738
 2559SOL    HW119313   2.092   2.595  16.112  0.8837  1.3587 -0.1354
 2559SOL    HW219314   1.990   2.641  16.214 -0.2719 -2.4860  2.9128
 2560SOL     OW19315   0.547   0.257   7.561 -0.0684  0.0718 -0.0554
 2560SOL    HW119316   0.613   0.287   7.624 -1.0710 -1.0790  1.5313
 2560SOL    HW219317   0.598   0.192   7.514  3.5647  2.3033  0.7917
 2561SOL     OW19318   0.717   3.766   4.287 -0.1681 -0.0971 -0.2290
 2561SOL    HW119319   0.721   3.861   4.295  0.3783 -0.2221  0.9740
 2561SOL    HW219320   0.808   3.742   4.304 -0.3849  0.6184  1.9652
 2562SOL     OW19321   1.708   0.223   6.638  0.3389 -0.3929 -0.2099
 2562SOL    HW119322   1.708   0.314   6.609  2.0831 -1.0722 -2.3111
 2562SOL    HW219323   1.686   0.172   6.560 -1.4060 -1.1744  0.8015
 2563SOL     OW19324   4.263   4.081  15.485 -0.1455 -0.2341  0.0871
 2563SOL    HW119325   4.217   4.019  15.542 -1.4856 -0.5075 -1.2885
 2563SOL    HW219326   4.215   4.160  15.510  1.6169  1.0357 -0.6177
 2564SOL     OW19327   1.361   0.879   1.439 -0.1353  0.3178 -0.3000
 2564SOL    HW119328   1.289   0.839   1.391  0.5408 -2.0720  0.6378
 2564SOL    HW219329   1.318   0.946   1.492 -2.0914 -1.0092 -0.2261
 2565SOL     OW19330   3.890   1.380  16.531  0.3877  0.4502  0.7295
 2565SOL    HW119331   3.849   1.293  16.536  0.1073  0.5756  0.6266
 2565SOL    HW219332   3.937   1.378  16.614  0.2085 -0.5338  0.8020
 2566SOL     OW19333   2.810   2.299   9.578 -0.3891  0.0952  0.5737
 2566SOL    HW119334   2.829   2.367   9.513  1.3801  0.4663  1.4874
 2566SOL    HW219335   2.811   2.208   9.547  0.0104  0.6406 -0.9987
 2567SOL     OW19336   1.106   2.467   5.780  0.2438 -0.9103 -0.0106
 2567SOL    HW119337   1.034   2.529   5.781  2.6152  1.8376  1.3518
 2567SOL    HW219338   1.134   2.447   5.869 -0.6665  2.2133  0.9500
 2568SOL     OW19339   3.503   4.325   5.111  0.7080  0.3024 -0.2180
 2568SOL    HW119340   3.543   4.300   5.194 -0.5455 -1.1753 -0.0469
 2568SOL    HW219341   3.420   4.276   5.111  2.6271 -2.9695 -1.1939
 2569SOL     OW19342   2.843   4.713   7.801  0.5667  0.3622  0.0181
 2569SOL    HW119343   2.838   0.027   7.882  0.6199  1.1529 -0.4758
 2569SOL    HW219344   2.839   4.622   7.831  0.2515  0.8290  1.3723
 2570SOL     OW19345   0.303   0.679   8.914 -0.0597 -0.5852  0.3097
 2570SOL    HW119346   0.275   0.762   8.954  2.7474  0.3822  0.2344
 2570SOL    HW219347   0.348   0.644   8.991 -1.0278  0.8564  1.5247
 2571SOL     OW19348   4.375   2.085   0.219  0.2731 -0.0317 -0.2545
 2571SOL    HW119349   4.310   2.043   0.275  0.4696 -0.3581 -0.2709
 2571SOL    HW219350   4.386   2.017   0.153 -1.4559  0.3686 -0.9613
 2572SOL     OW19351   1.362   4.645   8.244 -0.0967 -0.0875  0.2307
 2572SOL    HW119352   1.331   4.587   8.313 -0.5212 -0.2903 -0.1290
 2572SOL    HW219353   1.364   4.728   8.292  1.4912 -0.1052  0.1990
 2573SOL     OW19354   3.130   3.294  13.840  0.1072  0.2648  0.3478
 2573SOL    HW119355   3.218   3.332  13.839  0.0229  0.4459 -0.1830
 2573SOL    HW219356   3.091   3.381  13.829 -0.7210 -0.1187  0.2833
 2574SOL     OW19357   0.437   1.399   5.714  0.6480 -0.1129 -0.3191
 2574SOL    HW119358   0.394   1.450   5.783  0.2410 -2.2959  1.0253
 2574SOL    HW219359   0.518   1.451   5.708 -1.2179  2.5015 -2.8815
 2575SOL     OW19360   1.790   4.559  15.851  0.0296  0.5698  0.4287
 2575SOL    HW119361   1.767   4.518  15.935 -2.3750  0.1757 -0.4250
 2575SOL    HW219362   1.886   4.553  15.849 -0.1233 -0.8372 -2.0771
 2576SOL     OW19363   0.512   2.258  16.293  0.1752 -0.7523  0.5432
 2576SOL    HW119364   0.601   2.228  16.310  1.7830  3.5419 -0.4726
 2576SOL    HW219365   0.515   2.285  16.201 -0.0673 -1.1557  0.4148
 2577SOL     OW19366   3.223   1.225   8.939  0.2699  0.2771 -0.1222
 2577SOL    HW119367   3.307   1.271   8.935  1.4281 -1.8969 -0.9226
 2577SOL    HW219368   3.162   1.299   8.943 -0.8672 -0.5445 -2.2137
 2578SOL     OW19369   3.775   0.927   5.304  0.0213  0.8110 -0.3123
 2578SOL    HW119370   3.747   0.969   5.223  0.2433  0.8453 -0.3718
 2578SOL    HW219371   3.866   0.904   5.283  0.9038  2.8764  1.1315
 2579SOL     OW19372   4.621   0.387   9.264 -0.3802 -0.0706  0.0944
 2579SOL    HW119373   4.660   0.442   9.196 -1.7233  1.7865  0.8040
 2579SOL    HW219374   4.686   0.318   9.271  0.3564  0.6038 -0.0879
 2580SOL     OW19375   2.878   1.553   9.483 -0.2706  0.0568 -0.4680
 2580SOL    HW119376   2.947   1.538   9.548 -0.5258  0.0124 -0.2073
 2580SOL    HW219377   2.910   1.628   9.434 -2.8033  0.8897 -0.8468
 2581SOL     OW19378   3.513   1.456   3.192 -0.1075  0.2311 -0.1267
 2581SOL    HW119379   3.531   1.405   3.271 -1.5822 -0.5381 -0.2790
 2581SOL    HW219380   3.538   1.391   3.127  3.9857  1.2181  0.4760
 2582SOL     OW19381   3.367   3.256   6.999 -0.6204 -0.1875  0.1188
 2582SOL    HW119382   3.432   3.262   7.069 -0.1728  1.6794 -0.4503
 2582SOL    HW219383   3.399   3.298   6.920 -1.3509 -0.6109 -0.3989
 2583SOL     OW19384   2.175   0.458   3.917  0.4699 -0.1614 -0.6968
 2583SOL    HW119385   2.143   0.377   3.877  0.3899 -0.8907  0.8815
 2583SOL    HW219386   2.164   0.514   3.839  1.7529  0.0636 -0.7165
 2584SOL     OW19387   1.219   0.253   3.852  0.5347  0.1145  0.3740
 2584SOL    HW119388   1.219   0.333   3.799  1.6552 -0.1295 -0.0058
 2584SOL    HW219389   1.244   0.296   3.934 -2.1286  1.3979  0.5231
 2585SOL     OW19390   0.558   2.552  11.245 -0.1096 -0.7282  0.5632
 2585SOL    HW119391   0.590   2.561  11.335  3.6271 -1.0043 -0.7036
 2585SOL    HW219392   0.552   2.645  11.221 -0.1246 -0.6167  0.9921
 2586SOL     OW19393   4.205   2.324   1.527  0.7689  0.7682 -0.1392
 2586SOL    HW119394   4.279   2.273   1.494  2.2396  2.4322  0.6151
 2586SOL    HW219395   4.183   2.260   1.595 -0.4444  1.4420  0.0981
 2587SOL     OW19396   4.630   2.926   8.102 -0.3058  0.7014 -0.2075
 2587SOL    HW119397   4.702   2.887   8.052 -0.5290  0.4240 -0.3067
 2587SOL    HW219398   4.662   3.014   8.119  1.2747  0.0283  0.2950
 2588SOL     OW19399   1.389   2.146   1.627  0.1515 -0.0480  0.1324
 2588SOL    HW119400   1.441   2.208   1.678 -2.1891  0.6789  1.6197
 2588SOL    HW219401   1.421   2.066   1.668  0.7512  1.6564  2.9782
 2589SOL     OW19402   0.832   2.182  14.970  0.6374  0.3158 -0.0849
 2589SOL    HW119403   0.882   2.154  15.046 -0.0275 -0.2225  0.1523
 2589SOL    HW219404   0.760   2.119  14.963  1.4857 -0.7650  0.8909
 2590SOL     OW19405   4.114   1.825   6.261  0.1262 -0.4630 -0.1154
 2590SOL    HW119406   4.029   1.782   6.248 -0.4397  0.2142  1.3649
 2590SOL    HW219407   4.086   1.849   6.349 -0.3688  0.6691 -0.5887
 2591SOL     OW19408   3.441   3.876   9.071  0.2897  0.2372 -0.0850
 2591SOL    HW119409   3.410   3.867   9.161 -1.9981 -1.3285 -1.0156
 2591SOL    HW219410   3.485   3.961   9.072 -1.1438  0.9274  2.2086
 2592SOL     OW19411   3.646   1.005   6.427 -0.2243 -0.3360  0.5272
 2592SOL    HW119412   3.665   1.074   6.364  1.2233  0.2208  1.5603
 2592SOL    HW219413   3.670   0.928   6.375 -0.9923  0.5673 -1.1509
 2593SOL     OW19414   3.037   1.356   5.145 -0.2813  0.0187 -0.7674
 2593SOL    HW119415   3.061   1.279   5.197  1.0319  1.6346  1.0437
 2593SOL    HW219416   2.953   1.378   5.185 -0.7652 -1.1903 -1.1561
 2594SOL     OW19417   1.573   0.162   8.077 -0.0060  0.3762 -0.1006
 2594SOL    HW119418   1.585   0.223   8.149  1.4737 -0.3378  0.2639
 2594SOL    HW219419   1.600   0.078   8.113 -1.1669 -0.0286 -0.1929
 2595SOL     OW19420   3.363   3.774   6.226  0.7808  0.2415  0.3478
 2595SOL    HW119421   3.350   3.867   6.240  1.2957  1.0850 -4.7612
 2595SOL    HW219422   3.340   3.763   6.134 -2.7633  2.3990  0.9951
 2596SOL     OW19423   3.515   4.186   0.352 -0.3612 -0.1408  0.3947
 2596SOL    HW119424   3.462   4.152   0.280  0.6296  0.6380 -0.7231
 2596SOL    HW219425   3.464   4.171   0.431 -1.6067 -2.0659 -0.7692
 2597SOL     OW19426   1.080   3.294  17.072  0.8467 -0.2324  0.3232
 2597SOL    HW119427   1.087   3.356  17.144  1.2268  2.2128 -1.8376
 2597SOL    HW219428   0.990   3.261  17.077  0.7471  0.3852  2.5046
 2598SOL     OW19429   3.002   4.542   5.027  0.1061  0.0854 -0.2045
 2598SOL    HW119430   2.961   4.463   4.992  1.7754 -0.0471 -1.8809
 2598SOL    HW219431   2.986   4.521   5.119  0.5864 -0.9433 -0.3680
 2599SOL     OW19432   1.794   1.874   8.743 -0.2683  0.2067  0.6625
 2599SOL    HW119433   1.728   1.811   8.772 -0.7804  0.8547  0.8969
 2599SOL    HW219434   1.801   1.838   8.655  1.5764  1.1957  0.4109
 2600SOL     OW19435   2.218   4.715   2.226  0.0188  0.5375  0.1252
 2600SOL    HW119436   2.267   4.696   2.306  1.3118 -1.1279 -1.0441
 2600SOL    HW219437   2.144   0.026   2.262 -1.6341  1.1388 -4.1032
 2601SOL     OW19438   2.056   1.495   4.892 -0.2049  0.1833 -0.1370
 2601SOL    HW119439   2.043   1.467   4.801  1.1141  1.9001 -0.8642
 2601SOL    HW219440   2.090   1.584   4.878 -1.5838  0.8717  0.8907
 2602SOL     OW19441   1.693   3.781   9.334 -0.0358  0.1356  0.3379
 2602SOL    HW119442   1.788   3.783   9.325 -0.2820 -1.9689 -2.8679
 2602SOL    HW219443   1.680   3.786   9.239 -0.5900 -0.4655  0.3827
 2603SOL     OW19444   4.103   4.451   9.080  0.3680  0.1491  0.9684
 2603SOL    HW119445   4.088   4.387   9.149  0.3033 -0.8792  0.0026
 2603SOL    HW219446   4.077   4.530   9.128  1.8934  0.4712  1.2628
 2604SOL     OW19447   0.116   0.402  16.554  0.0551  0.0490 -0.6258
 2604SOL    HW119448   0.193   0.448  16.588  0.1292  0.3153 -1.1496
 2604SOL    HW219449   0.078   0.386  16.640  2.2643 -0.8146  0.1926
 2605SOL     OW19450   2.891   0.742  13.449  0.2375  0.6002  0.0455
 2605SOL    HW119451   2.912   0.680  13.519 -0.9331 -0.0209 -0.1555
 2605SOL    HW219452   2.831   0.687  13.399  1.8420 -1.1745  0.0504
 2606SOL     OW19453   4.577   3.515   2.786  0.2437  0.2378  0.0809
 2606SOL    HW119454   4.509   3.463   2.744  0.2579  0.0428  0.2994
 2606SOL    HW219455   4.596   3.579   2.717  0.3070  0.0802 -0.0502
 2607SOL     OW19456   4.476   1.386   4.899 -0.0576 -0.0992  0.3793
 2607SOL    HW119457   4.450   1.350   4.814  0.5000 -2.5172  1.2277
 2607SOL    HW219458   4.538   1.451   4.868 -0.1575 -0.4476 -0.5657
 2608SOL     OW19459   3.865   2.157  12.029 -0.3543  0.2192 -0.4841
 2608SOL    HW119460   3.926   2.114  11.970  1.3328  1.4563  0.3738
 2608SOL    HW219461   3.787   2.103  12.012 -0.5420  0.7390 -1.2704
 2609SOL     OW19462   3.788   0.459   9.175  0.3096 -0.0215 -0.4157
 2609SOL    HW119463   3.713   0.403   9.156  1.4899 -1.1220 -1.8749
 2609SOL    HW219464   3.848   0.444   9.102  0.4158  0.3681 -0.4115
 2610SOL     OW19465   2.245   0.043   7.015  0.7751  0.2969  0.3088
 2610SOL    HW119466   2.315   0.045   7.080 -0.4482  1.1406  1.6040
 2610SOL    HW219467   2.290   0.018   6.935 -2.0666 -2.0323 -0.5768
 2611SOL     OW19468   1.836   0.457   8.399 -0.0406  0.7547  0.0327
 2611SOL    HW119469   1.811   0.509   8.323  0.0208  2.1465  0.9630
 2611SOL    HW219470   1.906   0.504   8.445  2.3223 -1.6025 -1.1815
 2612SOL     OW19471   3.487   3.090   4.837 -0.2547 -0.3569  0.2157
 2612SOL    HW119472   3.410   3.103   4.893  0.0203  1.0889  0.2534
 2612SOL    HW219473   3.501   2.999   4.865 -2.3752  0.0087  2.4856
 2613SOL     OW19474   1.943   0.717   6.207 -0.2164 -0.4089  0.9775
 2613SOL    HW119475   2.032   0.725   6.241 -0.0223  0.9641  0.0939
 2613SOL    HW219476   1.936   0.621   6.214 -1.9783 -0.2669  1.3613
 2614SOL     OW19477   0.288   2.685   4.351  0.3503 -0.1678 -0.0001
 2614SOL    HW119478   0.256   2.661   4.438  0.4037 -2.4683 -0.5970
 2614SOL    HW219479   0.350   2.754   4.373  0.7126 -0.7015  0.6413
 2615SOL     OW19480   3.733   2.253   4.252  0.3338  0.1554  0.2153
 2615SOL    HW119481   3.673   2.178   4.255 -0.1155  0.5851  1.7666
 2615SOL    HW219482   3.741   2.272   4.159 -0.5900  1.2145  0.3528
 2616SOL     OW19483   3.928   0.179  14.183  0.2371 -0.0661  0.0601
 2616SOL    HW119484   3.879   0.187  14.101 -2.1050  0.8354  1.5520
 2616SOL    HW219485   3.859   0.150  14.242 -1.2631 -1.1016 -2.1812
 2617SOL     OW19486   3.908   2.713   7.431  0.2781  0.1779 -0.1148
 2617SOL    HW119487   3.872   2.802   7.425  1.7770  0.6049 -2.6781
 2617SOL    HW219488   3.948   2.726   7.517  3.0167 -1.4883 -1.1070
 2618SOL     OW19489   2.123   1.337   6.683  0.6273  0.1331 -0.1919
 2618SOL    HW119490   2.089   1.413   6.634 -0.0037  0.2967  0.5020
 2618SOL    HW219491   2.074   1.267   6.640  1.3435 -0.5689  0.1571
 2619SOL     OW19492   3.640   2.842   1.168  0.3348 -0.0141  0.0601
 2619SOL    HW119493   3.710   2.860   1.105  0.6316  1.2590  0.7525
 2619SOL    HW219494   3.672   2.907   1.231  1.4824 -1.5297  1.0591
 2620SOL     OW19495   2.431   2.456  13.529  0.4998  0.4113 -0.1121
 2620SOL    HW119496   2.373   2.426  13.599  0.0597  2.9671  0.6170
 2620SOL    HW219497   2.412   2.550  13.519  2.1737  0.6455 -1.0301
 2621SOL     OW19498   3.392   3.032   8.306 -0.0678  0.2241  0.5356
 2621SOL    HW119499   3.342   3.083   8.244  0.2054 -0.7925 -0.5221
 2621SOL    HW219500   3.386   2.942   8.275 -1.3126  0.7837 -0.8448
 2622SOL     OW19501   4.627   4.693   7.010 -0.1337 -1.0813  0.6426
 2622SOL    HW119502   4.637   4.647   6.926 -0.3151  1.3277 -0.7283
 2622SOL    HW219503   4.710   0.004   7.015 -0.7708  0.2751 -1.3568
 2623SOL     OW19504   1.827   2.003   9.481  0.1434  0.0720  0.1263
 2623SOL    HW119505   1.907   1.949   9.482 -0.9181 -1.5060 -0.6031
 2623SOL    HW219506   1.762   1.937   9.458 -1.2522  0.8993  1.6670
 2624SOL     OW19507   3.070   1.946   4.030 -0.0023 -0.8830 -0.2166
 2624SOL    HW119508   3.031   1.979   4.111  2.7859 -1.2212  1.2972
 2624SOL    HW219509   3.070   1.852   4.046 -1.0744 -0.6713  0.9762
 2625SOL     OW19510   2.727   0.902   6.087  0.6856  0.2603  0.1268
 2625SOL    HW119511   2.766   0.848   6.018 -2.2328  0.0100 -1.2861
 2625SOL    HW219512   2.768   0.982   6.054  1.9048 -0.7494 -0.8072
 2626SOL     OW19513   1.796   3.749   3.433  0.0425  0.1974 -0.0718
 2626SOL    HW119514   1.789   3.661   3.398 -2.4282  0.2519  0.2906
 2626SOL    HW219515   1.765   3.792   3.353  0.8253  1.4432  0.2968
 2627SOL     OW19516   0.916   1.318  14.097 -0.1302 -0.1409 -0.3193
 2627SOL    HW119517   0.966   1.237  14.106  0.1783  0.0417 -0.3840
 2627SOL    HW219518   0.928   1.337  14.004 -1.8889  1.3193 -0.2442
 2628SOL     OW19519   2.769   1.708   3.921  0.1511 -0.1082 -0.5636
 2628SOL    HW119520   2.859   1.732   3.942  0.5944 -0.9450 -1.4805
 2628SOL    HW219521   2.763   1.752   3.836  0.4077  0.8339 -0.0899
 2629SOL     OW19522   0.803   1.193   2.440  0.5824 -0.7207  0.0495
 2629SOL    HW119523   0.781   1.116   2.387 -0.0151  0.0790 -0.8729
 2629SOL    HW219524   0.720   1.241   2.433  1.4475  0.7976  0.2180
 2630SOL     OW19525   0.356   1.957   7.852 -0.2338  0.1913 -0.2519
 2630SOL    HW119526   0.370   1.884   7.913 -0.0910  0.9516  0.6281
 2630SOL    HW219527   0.289   2.007   7.899  0.7203 -1.3501  2.7957
 2631SOL     OW19528   0.253   4.472   6.257 -0.0068 -0.1920  0.2645
 2631SOL    HW119529   0.158   4.463   6.257 -0.1058  0.8105 -1.8561
 2631SOL    HW219530   0.274   4.559   6.221  0.0858  0.8743  2.9252
 2632SOL     OW19531   1.343   1.872  11.664 -0.2822 -0.0381 -0.4468
 2632SOL    HW119532   1.415   1.870  11.602 -0.1808  0.1257 -0.3328
 2632SOL    HW219533   1.345   1.783  11.699  0.5530 -0.5976 -1.9155
 2633SOL     OW19534   0.898   1.353   7.588 -0.0265  0.0628  0.7651
 2633SOL    HW119535   0.939   1.270   7.614 -1.7475 -0.8385  0.5820
 2633SOL    HW219536   0.909   1.356   7.493  2.6497 -1.2581  1.0198
 2634SOL     OW19537   0.915   2.432   2.500 -0.6466  0.2246 -0.0314
 2634SOL    HW119538   0.850   2.363   2.518 -0.4851  0.5199  1.7191
 2634SOL    HW219539   0.865   2.503   2.461 -0.8715  0.5245  0.7937
 2635SOL     OW19540   1.749   3.133   4.671 -0.4642  0.0812  0.4545
 2635SOL    HW119541   1.698   3.077   4.729  0.3745 -1.7493 -0.5905
 2635SOL    HW219542   1.825   3.083   4.643 -0.9411  1.2219 -2.9007
 2636SOL     OW19543   4.492   4.377   1.506  0.7338  0.3490  0.0699
 2636SOL    HW119544   4.441   4.301   1.478  1.6312  0.2593 -1.3610
 2636SOL    HW219545   4.431   4.439   1.465  2.0459  2.5069  1.3835
 2637SOL     OW19546   2.318   2.508   7.317 -0.3188 -0.6297  0.2036
 2637SOL    HW119547   2.389   2.485   7.377  0.9506 -0.8763 -1.3939
 2637SOL    HW219548   2.240   2.496   7.370  0.2779  1.1386  1.4420
 2638SOL     OW19549   1.419   1.981   3.816 -0.0420  0.2022 -0.0703
 2638SOL    HW119550   1.398   1.996   3.909  0.8568 -2.1316  0.5157
 2638SOL    HW219551   1.329   1.994   3.787 -0.2302 -3.6841 -1.1200
 2639SOL     OW19552   0.645   2.483  13.456 -0.4187  0.1895  0.5150
 2639SOL    HW119553   0.695   2.562  13.478 -0.1616  0.0475  0.4384
 2639SOL    HW219554   0.570   2.520  13.410 -1.0444 -2.3883 -0.5265
 2640SOL     OW19555   4.399   3.195   9.880 -0.5981 -0.4399  0.1332
 2640SOL    HW119556   4.322   3.163   9.834 -0.6686 -2.4233  1.6645
 2640SOL    HW219557   4.419   3.133   9.950  1.6117  0.1729  0.0772
 2641SOL     OW19558   4.060   3.997   2.261  0.1217  0.5796  0.3555
 2641SOL    HW119559   4.042   4.073   2.206 -1.8502  1.5685  2.3534
 2641SOL    HW219560   4.016   3.928   2.211  0.1965  0.6306  0.2204
 2642SOL     OW19561   3.794   3.807   8.712  0.2397 -0.0961  0.1935
 2642SOL    HW119562   3.732   3.783   8.780  0.9992 -2.7933 -0.0453
 2642SOL    HW219563   3.880   3.804   8.753 -0.0708  1.8185  0.9627
 2643SOL     OW19564   1.995   3.321   5.195  0.4738 -0.2202 -0.1422
 2643SOL    HW119565   2.057   3.385   5.158  1.3037 -0.8133  0.2328
 2643SOL    HW219566   1.991   3.345   5.288  1.2337 -0.6798  0.0086
 2644SOL     OW19567   4.235   1.346  16.574 -0.2163 -0.8256 -0.6413
 2644SOL    HW119568   4.296   1.348  16.647  0.3463  1.0536 -1.1676
 2644SOL    HW219569   4.238   1.437  16.547 -0.4560 -0.8957 -0.9089
 2645SOL     OW19570   3.940   3.427   1.212  0.1112 -0.2868 -0.0094
 2645SOL    HW119571   3.925   3.494   1.145 -0.2989 -0.3856 -0.0197
 2645SOL    HW219572   3.856   3.383   1.199  0.5254 -0.5700 -1.7547
 2646SOL     OW19573   2.408   1.339   6.400  0.7855 -0.1875  0.4442
 2646SOL    HW119574   2.351   1.311   6.327  0.5225  2.5392 -0.3725
 2646SOL    HW219575   2.449   1.417   6.364 -1.6751  0.3394 -1.2390
 2647SOL     OW19576   2.423   0.844   7.265 -0.3375  0.3181 -0.3855
 2647SOL    HW119577   2.414   0.786   7.190 -0.3760 -0.7590  0.4511
 2647SOL    HW219578   2.330   0.862   7.278  0.0567  1.9871  0.1333
 2648SOL     OW19579   0.636   1.997   8.591  0.2636 -0.2577  0.3338
 2648SOL    HW119580   0.699   1.996   8.663  1.3983  1.0534 -0.6612
 2648SOL    HW219581   0.576   1.926   8.616 -1.8610  0.3221 -3.1195
 2649SOL     OW19582   3.428   3.128   2.587  0.1937 -0.1689  0.3186
 2649SOL    HW119583   3.408   3.140   2.494  1.6130 -2.2002 -0.2453
 2649SOL    HW219584   3.367   3.189   2.629  0.3242 -0.4214  0.8695
 2650SOL     OW19585   0.333   3.030   7.906  0.2187 -0.3370 -0.2363
 2650SOL    HW119586   0.380   3.049   7.988 -0.0794  0.1098 -0.1673
 2650SOL    HW219587   0.246   3.056   7.937  0.4162 -0.3715  0.3510
 2651SOL     OW19588   3.239   2.299   8.064 -0.6886 -0.3987 -0.0280
 2651SOL    HW119589   3.251   2.204   8.064  1.1757 -0.1671 -3.8582
 2651SOL    HW219590   3.143   2.296   8.065 -0.5891 -3.4935  1.5088
 2652SOL     OW19591   0.491   1.817   7.229  0.8230  0.5543 -0.1593
 2652SOL    HW119592   0.581   1.796   7.208  0.7458 -0.3538  0.4061
 2652SOL    HW219593   0.508   1.887   7.292  2.0132  1.6201 -1.6940
 2653SOL     OW19594   2.337   3.599   2.336  0.2734  0.3356  0.7841
 2653SOL    HW119595   2.419   3.616   2.291  0.0039  1.3229  0.6634
 2653SOL    HW219596   2.345   3.622   2.428 -1.6383  2.0252  0.5257
 2654SOL     OW19597   4.520   3.396   6.450 -0.1131 -0.0921 -0.1877
 2654SOL    HW119598   4.579   3.321   6.442  0.7738  0.7154 -1.3133
 2654SOL    HW219599   4.529   3.414   6.543  2.3374  0.6105 -0.5575
 2655SOL     OW19600   0.226   4.182  16.669 -0.2286  0.0606 -0.1958
 2655SOL    HW119601   0.291   4.131  16.621  2.1795  3.0486 -0.1225
 2655SOL    HW219602   0.163   4.114  16.691 -0.5047  0.2499 -0.3974
 2656SOL     OW19603   4.052   4.545  14.792  0.1415  0.4351  0.0397
 2656SOL    HW119604   4.040   4.634  14.824  0.3586  1.3031 -2.3294
 2656SOL    HW219605   4.100   4.564  14.712  0.8269 -2.0286 -0.1498
 2657SOL     OW19606   2.154   0.240  15.458 -0.1708  0.4807  0.2774
 2657SOL    HW119607   2.075   0.190  15.435 -0.3618 -0.3771  2.8017
 2657SOL    HW219608   2.206   0.229  15.379 -1.0584  1.5582 -0.4602
 2658SOL     OW19609   3.671   2.946   7.775  0.0790  0.1762 -0.3348
 2658SOL    HW119610   3.626   3.010   7.830 -0.2132  0.2215 -0.6256
 2658SOL    HW219611   3.598   2.927   7.715 -0.6975 -0.1111  0.7078
 2659SOL     OW19612   0.017   3.927   8.918 -0.3575 -0.4780 -0.8182
 2659SOL    HW119613   0.030   4.004   8.972 -0.7963 -1.5008  0.7396
 2659SOL    HW219614   0.003   3.860   8.985 -1.9275  0.8241  0.1539
 2660SOL     OW19615   0.927   0.800   4.879  0.7109 -0.2021 -0.3486
 2660SOL    HW119616   0.842   0.795   4.835 -2.1791 -2.7101  5.5123
 2660SOL    HW219617   0.964   0.870   4.825  0.1160 -1.2032 -2.0553
 2661SOL     OW19618   0.274   0.503  12.124  0.1305  0.3686  0.0235
 2661SOL    HW119619   0.293   0.509  12.217  0.0344 -3.5420  0.3148
 2661SOL    HW219620   0.187   0.543  12.128 -0.0444  0.3005 -2.6183
 2662SOL     OW19621   0.878   1.935  13.311 -0.2506  0.6243 -0.2080
 2662SOL    HW119622   0.783   1.940  13.301  0.2029  1.7849 -3.8314
 2662SOL    HW219623   0.900   2.009  13.254 -0.6636  1.6063  0.9175
 2663SOL     OW19624   4.512   2.367   1.443  0.7964 -0.3247 -0.3380
 2663SOL    HW119625   4.465   2.386   1.362 -0.0228 -1.8727 -0.2373
 2663SOL    HW219626   4.587   2.325   1.401  0.3978 -0.9635 -0.4168
 2664SOL     OW19627   2.033   0.995  16.030 -0.0721  0.3487 -0.0383
 2664SOL    HW119628   2.118   1.019  15.993  1.1156  0.1900  2.5943
 2664SOL    HW219629   1.989   0.973  15.947  2.7065  1.0727 -1.6904
 2665SOL     OW19630   0.499   1.333   3.312 -0.8169  0.0187 -0.4685
 2665SOL    HW119631   0.467   1.375   3.232 -0.3182  0.9558 -0.1843
 2665SOL    HW219632   0.424   1.361   3.365  1.7745  2.5992  1.8623
 2666SOL     OW19633   1.831   1.154  15.546  0.2834  0.3843  0.5913
 2666SOL    HW119634   1.835   1.146  15.451  1.1456  1.8894  0.5081
 2666SOL    HW219635   1.749   1.201  15.558 -0.3868 -0.1587 -2.0094
 2667SOL     OW19636   1.103   3.561   4.160 -0.0542  0.3481 -0.4456
 2667SOL    HW119637   1.074   3.596   4.076  0.3118 -1.0516 -1.1492
 2667SOL    HW219638   1.066   3.473   4.164  2.9943 -1.0210 -1.9485
 2668SOL     OW19639   3.213   2.974   8.562  0.6417 -0.1822 -0.0147
 2668SOL    HW119640   3.303   2.940   8.560  0.4896 -0.4366 -1.8923
 2668SOL    HW219641   3.227   3.069   8.560 -1.4729  0.1335  0.2653
 2669SOL     OW19642   1.588   0.350   8.568 -0.0290 -0.2467  0.3174
 2669SOL    HW119643   1.551   0.376   8.653  0.0315  1.4312 -0.1811
 2669SOL    HW219644   1.663   0.409   8.564 -1.1730  1.2492  1.1195
 2670SOL     OW19645   3.813   4.571   1.732 -0.2564 -0.1854  0.5328
 2670SOL    HW119646   3.897   4.570   1.686 -1.3268 -3.1757 -1.3038
 2670SOL    HW219647   3.768   4.492   1.705 -1.8808  0.9139  0.0194
 2671SOL     OW19648   3.205   4.572   4.717  0.3056 -0.0172  0.6980
 2671SOL    HW119649   3.181   4.480   4.709 -0.9834  0.1523  2.4637
 2671SOL    HW219650   3.173   4.599   4.804  2.6377  0.8593  1.2888
 2672SOL     OW19651   1.645   1.278   8.733 -0.4268 -0.2527  0.4052
 2672SOL    HW119652   1.719   1.334   8.757 -1.5756  0.5264  2.1229
 2672SOL    HW219653   1.579   1.339   8.765  0.7409  1.1456  0.1294
 2673SOL     OW19654   1.856   3.261  12.805  0.2956 -0.0575 -0.5243
 2673SOL    HW119655   1.845   3.350  12.772  1.0687 -0.4855 -1.9133
 2673SOL    HW219656   1.918   3.277  12.876  0.3595  0.9195 -0.7903
 2674SOL     OW19657   3.858   0.295  13.671 -0.2172  0.5648 -0.1700
 2674SOL    HW119658   3.830   0.270  13.582 -0.4499  1.5119 -0.3567
 2674SOL    HW219659   3.880   0.386  13.653 -0.0858  0.8765  1.6591
 2675SOL     OW19660   0.570   4.200   4.248 -0.1782 -0.1311 -0.4773
 2675SOL    HW119661   0.652   4.241   4.276 -0.6399  0.3999  0.0772
 2675SOL    HW219662   0.515   4.190   4.325 -1.9283 -1.3010 -1.8619
 2676SOL     OW19663   3.369   2.033   9.318 -0.2770  0.5940  0.3010
 2676SOL    HW119664   3.284   2.038   9.362 -0.5426 -0.5632 -0.0877
 2676SOL    HW219665   3.357   2.069   9.230 -1.0550  1.0777  0.6000
 2677SOL     OW19666   3.973   0.311   8.020 -0.5180 -0.2179  0.1148
 2677SOL    HW119667   4.062   0.330   7.993 -0.4762  0.3694  0.6661
 2677SOL    HW219668   4.004   0.250   8.087  1.2591 -0.0175 -0.5255
 2678SOL     OW19669   0.235   0.842   0.244  0.1754  0.1048 -0.3306
 2678SOL    HW119670   0.152   0.863   0.286  1.1681 -0.3301  1.8594
 2678SOL    HW219671   0.248   0.914   0.182 -3.0620  0.3530 -0.7408
 2679SOL     OW19672   2.938   3.006   5.642 -0.1569  0.2200 -0.0378
 2679SOL    HW119673   2.860   3.060   5.628  2.2522  3.9569  0.8918
 2679SOL    HW219674   2.950   3.016   5.737  0.7562 -3.8161  0.2618
 2680SOL     OW19675   2.159   1.306   6.257 -0.4978  0.0364 -0.7165
 2680SOL    HW119676   2.198   1.220   6.276  0.4982  1.0940  1.8623
 2680SOL    HW219677   2.116   1.298   6.172  0.4155  0.4218 -1.2168
 2681SOL     OW19678   2.124   2.493   7.519 -0.8300  0.2396  0.4135
 2681SOL    HW119679   2.049   2.493   7.578  0.2403  0.2242  1.7858
 2681SOL    HW219680   2.180   2.552   7.569  0.0795  0.3939 -0.7977
 2682SOL     OW19681   3.252   0.185   5.867 -0.4021 -0.4727  0.3741
 2682SOL    HW119682   3.269   0.092   5.856 -0.3046 -0.7791  3.2745
 2682SOL    HW219683   3.217   0.185   5.956 -1.9780  0.4105 -0.2423
 2683SOL     OW19684   1.520   0.381   1.761 -0.7317  0.0934 -0.1643
 2683SOL    HW119685   1.510   0.287   1.780  2.0601 -0.8755 -3.4946
 2683SOL    HW219686   1.611   0.396   1.787 -0.6053 -2.2081  0.7476
 2684SOL     OW19687   4.552   1.944   1.988  0.3614  0.2058 -0.4555
 2684SOL    HW119688   4.608   2.018   2.011 -0.8187  1.4133 -1.4591
 2684SOL    HW219689   4.605   1.891   1.928 -0.2966 -0.0729 -0.7922
 2685SOL     OW19690   4.371   1.899   2.177 -0.5825 -0.5071 -0.0172
 2685SOL    HW119691   4.434   1.915   2.107 -0.2003  0.0557  0.4578
 2685SOL    HW219692   4.403   1.812   2.199  1.3717  0.5518  1.2607
 2686SOL     OW19693   1.405   4.384   7.583  0.2023  0.1868  0.0405
 2686SOL    HW119694   1.358   4.307   7.617 -1.6714  0.5855 -1.6761
 2686SOL    HW219695   1.463   4.342   7.520  1.5500  1.2151  0.5931
 2687SOL     OW19696   3.832   0.390   4.019  0.3568 -0.3181  0.1450
 2687SOL    HW119697   3.739   0.412   4.017  0.1629 -1.1135  0.2999
 2687SOL    HW219698   3.830   0.383   4.114  0.3876 -0.9291  0.0998
 2688SOL     OW19699   4.387   3.999   0.428  0.1062  0.1711  0.3060
 2688SOL    HW119700   4.397   3.943   0.351 -0.3264 -0.5552  0.7756
 2688SOL    HW219701   4.292   4.010   0.424 -0.0039 -0.4892  1.2836
 2689SOL     OW19702   4.168   1.006  12.074 -0.0268  0.2955 -0.0284
 2689SOL    HW119703   4.179   1.085  12.125 -2.0923  0.9131 -0.5317
 2689SOL    HW219704   4.256   0.979  12.048 -0.2870 -0.1482 -0.4650
 2690SOL     OW19705   0.417   1.908  12.081 -0.2870  0.0730 -0.3319
 2690SOL    HW119706   0.419   1.935  11.989  1.8606 -0.8625 -0.5593
 2690SOL    HW219707   0.353   1.838  12.085 -1.2302  0.9143 -0.6258
 2691SOL     OW19708   0.895   1.913   6.589  0.5415  0.1111 -0.0616
 2691SOL    HW119709   0.825   1.907   6.524  2.0924  0.1198 -1.7327
 2691SOL    HW219710   0.938   1.992   6.558 -2.7748  0.8882 -2.6610
 2692SOL     OW19711   3.966   4.449   6.705 -0.3271  0.6148  0.2251
 2692SOL    HW119712   3.977   4.425   6.613 -0.5208 -0.5396  0.4979
 2692SOL    HW219713   3.949   4.367   6.752  0.1134  0.8120  0.7337
 2693SOL     OW19714   4.160   3.160   7.678 -0.7028  0.5635  0.7025
 2693SOL    HW119715   4.069   3.151   7.650 -0.9844 -0.9190  2.0844
 2693SOL    HW219716   4.149   3.233   7.739 -0.4096 -1.0993  2.7346
 2694SOL     OW19717   1.430   3.765  14.871 -0.2812  0.2284 -0.0478
 2694SOL    HW119718   1.378   3.691  14.901 -0.2139  0.0098 -0.4694
 2694SOL    HW219719   1.368   3.797  14.805  1.3377 -1.1515 -2.2421
 2695SOL     OW19720   1.496   2.455   6.374 -0.1505 -0.1863 -0.3450
 2695SOL    HW119721   1.514   2.420   6.287  1.7037  0.1636 -0.0968
 2695SOL    HW219722   1.537   2.391   6.434 -1.1346 -0.9103 -0.4412
 2696SOL     OW19723   2.974   3.755   7.360  1.2062  0.3694 -0.0741
 2696SOL    HW119724   3.043   3.729   7.299 -0.1902  0.2424 -1.5971
 2696SOL    HW219725   2.910   3.774   7.291  1.3968  2.6650  0.3682
 2697SOL     OW19726   1.648   0.943   2.289 -0.0160  0.2638  0.1172
 2697SOL    HW119727   1.634   1.038   2.290  0.5838  0.3609 -1.2707
 2697SOL    HW219728   1.655   0.922   2.382  4.5912 -0.5087 -0.3728
 2698SOL     OW19729   0.183   2.060  12.771 -0.1938  0.0952  0.1454
 2698SOL    HW119730   0.257   2.092  12.720  0.5605 -2.0707 -0.0864
 2698SOL    HW219731   0.172   2.130  12.835 -0.4166 -0.1354  0.3584
 2699SOL     OW19732   2.460   2.740  12.307 -0.1505  0.4706 -0.4291
 2699SOL    HW119733   2.517   2.789  12.366 -0.5601  2.0258 -1.3223
 2699SOL    HW219734   2.428   2.669  12.363 -1.4018  0.4290 -1.1863
 2700SOL     OW19735   0.783   2.634   2.972 -0.3246  0.5024 -0.2846
 2700SOL    HW119736   0.861   2.646   2.919  0.2600 -2.5689 -0.0952
 2700SOL    HW219737   0.745   2.561   2.923 -1.2077 -0.7835  2.3094
 2701SOL     OW19738   1.451   0.743   4.776 -0.5440 -0.3097 -0.3146
 2701SOL    HW119739   1.406   0.668   4.814  1.3291 -0.4791  1.6107
 2701SOL    HW219740   1.400   0.819   4.805 -0.4322  0.3307 -1.7932
 2702SOL     OW19741   4.495   3.379   7.429 -0.0156 -0.1554  0.5108
 2702SOL    HW119742   4.589   3.387   7.445 -0.4157  0.4772  2.6443
 2702SOL    HW219743   4.476   3.302   7.482  2.5180 -0.6361  0.7343
 2703SOL     OW19744   4.036   2.852   2.643  0.2753 -0.5287  0.1122
 2703SOL    HW119745   4.111   2.908   2.619 -0.3768 -0.0929 -0.8919
 2703SOL    HW219746   4.030   2.779   2.581 -0.2016 -0.1388 -0.3003
 2704SOL     OW19747   0.025   0.995   0.378 -0.4735  0.3267 -0.1614
 2704SOL    HW119748   4.721   0.977   0.463 -1.3053 -0.7880 -0.7944
 2704SOL    HW219749   0.089   1.064   0.393  0.4771 -0.3856 -0.9174
 2705SOL     OW19750   4.122   1.036   7.069  0.0566  0.2748 -0.0987
 2705SOL    HW119751   4.163   1.030   6.983  1.1954  1.1566  0.3834
 2705SOL    HW219752   4.078   0.950   7.069 -1.8142  1.2247  0.3803
 2706SOL     OW19753   2.862   1.689   7.165  0.3252  0.0652 -0.3570
 2706SOL    HW119754   2.842   1.775   7.130 -4.9864 -1.0359  0.0052
 2706SOL    HW219755   2.798   1.682   7.235 -1.2013 -0.9040 -1.8536
 2707SOL     OW19756   3.528   3.699   5.423 -0.2687 -0.2586  0.1814
 2707SOL    HW119757   3.443   3.732   5.452  0.2399  1.0846  0.1422
 2707SOL    HW219758   3.540   3.771   5.360  1.7496 -0.7995 -0.0507
 2708SOL     OW19759   1.906   0.337  15.073  0.1048  0.9852 -0.7067
 2708SOL    HW119760   1.988   0.321  15.025 -0.6898 -0.2873 -1.6517
 2708SOL    HW219761   1.846   0.330  14.999  0.4385  2.5911 -1.1220
 2709SOL     OW19762   1.687   3.369   2.560 -0.0092 -0.7434  0.0885
 2709SOL    HW119763   1.614   3.400   2.507  0.2396  1.7911  1.2120
 2709SOL    HW219764   1.756   3.366   2.493 -0.4631  1.2510 -0.4674
 2710SOL     OW19765   1.549   3.565   1.817  0.2949  0.0162 -0.8330
 2710SOL    HW119766   1.625   3.518   1.852 -0.2421  1.6052  2.4143
 2710SOL    HW219767   1.478   3.514   1.857  0.7473  1.0219  1.2425
 2711SOL     OW19768   3.191   2.160   8.622 -0.1007 -0.6069 -0.2963
 2711SOL    HW119769   3.225   2.195   8.540 -0.2878  0.0653 -0.0872
 2711SOL    HW219770   3.183   2.242   8.670 -1.1775 -0.0845 -1.3504
 2712SOL     OW19771   1.574   4.034   1.718  0.0848  0.0691 -0.3503
 2712SOL    HW119772   1.600   4.000   1.804 -0.4600 -0.2931 -0.3274
 2712SOL    HW219773   1.657   4.064   1.682  0.1412 -0.9896 -1.0854
 2713SOL     OW19774   2.325   0.617   5.692  0.1556 -0.2499  0.2853
 2713SOL    HW119775   2.369   0.702   5.688 -2.0612  0.9400  1.5510
 2713SOL    HW219776   2.243   0.636   5.647  0.0687 -0.4871  0.3436
 2714SOL     OW19777   1.186   3.168   8.426  0.1716 -0.3595  0.1316
 2714SOL    HW119778   1.219   3.244   8.474  1.2171 -2.0490  2.0870
 2714SOL    HW219779   1.130   3.138   8.497  1.3077  0.6270  1.4755
 2715SOL     OW19780   3.377   1.872   0.245 -0.2966 -0.1727  0.6927
 2715SOL    HW119781   3.455   1.888   0.190  0.1331  0.4056  1.4709
 2715SOL    HW219782   3.425   1.853   0.326  0.3547  1.3081  0.6592
 2716SOL     OW19783   2.757   3.916  10.171 -0.4597  0.0960  0.5790
 2716SOL    HW119784   2.706   3.886  10.246 -1.2081  0.6155  0.2684
 2716SOL    HW219785   2.820   3.977  10.211 -0.6140  0.3448  0.4383
 2717SOL     OW19786   3.566   4.377   6.903  0.5175  0.3697  0.0258
 2717SOL    HW119787   3.495   4.390   6.966  0.5545 -0.8319  0.3254
 2717SOL    HW219788   3.557   4.282   6.913  0.3375  0.4378  0.5465
 2718SOL     OW19789   0.753   4.342   0.338 -0.3066 -0.0862  0.3116
 2718SOL    HW119790   0.667   4.361   0.301  1.3417  0.9740 -2.9447
 2718SOL    HW219791   0.809   4.318   0.265  0.5119 -1.7687  1.4899
 2719SOL     OW19792   1.346   0.117  13.887  0.4419  0.0341 -0.0526
 2719SOL    HW119793   1.281   0.157  13.829 -0.8077  0.6677  1.7762
 2719SOL    HW219794   1.419   0.151  13.837  0.6299 -1.7507 -0.9870
 2720SOL     OW19795   0.061   0.796   5.113 -0.0041 -0.5523  0.5604
 2720SOL    HW119796   0.046   0.853   5.189 -0.5981  0.3335 -0.2224
 2720SOL    HW219797   0.058   0.717   5.166  0.0655 -0.5908  0.5073
 2721SOL     OW19798   0.943   1.763  17.503  0.3399  0.3801  0.1494
 2721SOL    HW119799   0.873   1.697  17.499  0.0792  0.5727  1.5165
 2721SOL    HW219800   0.908   1.824  17.439 -0.4265 -0.3703 -0.1455
 2722SOL     OW19801   4.055   3.130   0.659 -0.7022  0.1001  0.0588
 2722SOL    HW119802   4.016   3.190   0.595 -0.8200  1.3215  1.2640
 2722SOL    HW219803   4.042   3.182   0.738 -5.3888  0.7721 -1.1254
 2723SOL     OW19804   2.266   4.695  10.478 -0.6958  0.0537  0.0176
 2723SOL    HW119805   2.255   4.600  10.483  2.6483 -0.3669 -0.6170
 2723SOL    HW219806   2.338   4.703  10.416 -0.5492  0.9417  0.3006
 2724SOL     OW19807   1.639   1.630   3.379 -0.4015  0.0368  0.1889
 2724SOL    HW119808   1.595   1.636   3.464 -0.1513 -1.7902  0.4387
 2724SOL    HW219809   1.721   1.585   3.398 -0.2380  1.0894  1.9314
 2725SOL     OW19810   2.585   4.726   1.184  0.0464 -1.1242  0.1607
 2725SOL    HW119811   2.515   0.023   1.241  1.4964  1.5678  0.3699
 2725SOL    HW219812   2.555   4.637   1.168 -1.8165 -0.7148  1.2805
 2726SOL     OW19813   1.479   2.689  16.028 -0.1164 -0.9043  0.0727
 2726SOL    HW119814   1.422   2.615  16.049  1.5491 -2.1341  0.3452
 2726SOL    HW219815   1.460   2.745  16.103 -0.2075  0.2939 -0.8457
 2727SOL     OW19816   2.673   0.989  10.752  0.0424  0.4897 -0.5196
 2727SOL    HW119817   2.605   0.977  10.818  1.3620  1.5658  1.0540
 2727SOL    HW219818   2.620   0.983  10.673 -0.1432  0.6158 -0.4045
 2728SOL     OW19819   3.263   1.227   8.542  0.0918  0.0654  0.1618
 2728SOL    HW119820   3.186   1.279   8.565 -0.3506 -1.1542  1.3940
 2728SOL    HW219821   3.326   1.298   8.554  0.3883 -0.3583  1.0922
 2729SOL     OW19822   3.403   2.256   5.324 -0.2961 -0.2367  0.3192
 2729SOL    HW119823   3.403   2.214   5.238  1.0240  0.9583 -0.2671
 2729SOL    HW219824   3.448   2.338   5.304  0.0258 -0.0483  1.8593
 2730SOL     OW19825   3.162   4.044   5.593 -0.0812  0.3071  0.2190
 2730SOL    HW119826   3.174   4.139   5.595  2.0446  0.0326  1.2408
 2730SOL    HW219827   3.073   4.035   5.625 -0.0260 -0.1033  0.2666
 2731SOL     OW19828   2.913   3.846   8.247 -0.0214  0.0901 -0.6400
 2731SOL    HW119829   2.879   3.760   8.273  0.6266 -0.7836 -2.6271
 2731SOL    HW219830   2.841   3.909   8.255 -0.7841 -0.5981 -1.9643
 2732SOL     OW19831   4.182   0.127  11.838 -0.0674 -0.1398  0.0924
 2732SOL    HW119832   4.098   0.152  11.798 -0.0973  0.4596  0.5321
 2732SOL    HW219833   4.231   0.112  11.757 -0.2522 -1.0226  0.1480
 2733SOL     OW19834   3.104   2.971   1.756  0.2845 -0.0733  0.3289
 2733SOL    HW119835   3.111   2.936   1.845 -1.6563  0.4467  0.7042
 2733SOL    HW219836   3.030   2.917   1.726 -0.9689  0.1973  2.9093
 2734SOL     OW19837   4.671   2.131   9.664  0.4633 -0.2840  0.1741
 2734SOL    HW119838   4.653   2.206   9.607 -1.1939 -0.7547  0.0600
 2734SOL    HW219839   0.011   2.176   9.700 -0.3123  0.5033  0.8908
 2735SOL     OW19840   1.383   3.779   7.743 -0.2488 -0.1789  0.0669
 2735SOL    HW119841   1.427   3.850   7.696  1.8724 -2.4445 -1.3761
 2735SOL    HW219842   1.459   3.721   7.741 -2.4775 -3.1447  1.1284
 2736SOL     OW19843   2.888   2.508   2.720 -0.6591 -0.4193  0.3009
 2736SOL    HW119844   2.949   2.560   2.773 -0.5911  0.9265 -1.0760
 2736SOL    HW219845   2.872   2.434   2.778 -0.2307  1.9389  3.4153
 2737SOL     OW19846   4.067   2.432  16.088  0.2401 -0.2330  0.1683
 2737SOL    HW119847   4.132   2.502  16.081  0.6214 -0.4814  1.1806
 2737SOL    HW219848   4.110   2.363  16.139 -2.5088 -0.9291  1.5108
 2738SOL     OW19849   3.469   1.489   5.440 -0.0255  0.2196  0.1929
 2738SOL    HW119850   3.417   1.433   5.497  0.1824  1.5741  1.7174
 2738SOL    HW219851   3.559   1.472   5.469  0.3931  0.3437 -1.0436
 2739SOL     OW19852   1.531   1.014   3.763 -1.2242 -0.0473  0.0247
 2739SOL    HW119853   1.599   1.041   3.703 -1.0267 -1.5895 -0.4521
 2739SOL    HW219854   1.559   0.927   3.793 -0.7684  0.2593  0.4804
 2740SOL     OW19855   2.992   3.719   7.638 -0.1641  0.5061  0.3915
 2740SOL    HW119856   2.995   3.756   7.550 -2.3043 -0.1447  0.0606
 2740SOL    HW219857   2.900   3.695   7.647 -0.3724  0.7726 -1.0213
 2741SOL     OW19858   2.789   4.086   7.730  0.0500 -0.1284 -0.4355
 2741SOL    HW119859   2.778   4.174   7.694  2.2400 -0.7313 -2.6078
 2741SOL    HW219860   2.881   4.079   7.703  0.1339 -0.3281 -0.1041
 2742SOL     OW19861   1.555   4.200  10.576  0.5583 -0.0770  0.1893
 2742SOL    HW119862   1.500   4.269  10.612  1.4080 -0.4164  2.1893
 2742SOL    HW219863   1.493   4.127  10.575  0.2162  0.2817 -3.3663
 2743SOL     OW19864   1.290   0.508   5.523 -0.4246 -0.0552 -0.3108
 2743SOL    HW119865   1.296   0.579   5.588 -0.0216  0.8265 -1.3172
 2743SOL    HW219866   1.351   0.545   5.459 -0.0069 -0.1542  0.0300
 2744SOL     OW19867   0.691   0.977   2.304  0.4579  0.2753  0.0945
 2744SOL    HW119868   0.642   0.904   2.266 -0.8092  1.8721 -1.3094
 2744SOL    HW219869   0.759   0.984   2.237  0.3373 -0.4034 -0.1030
 2745SOL     OW19870   0.139   4.414   4.830  0.2927 -0.1554 -0.0469
 2745SOL    HW119871   0.173   4.333   4.867 -2.0052 -1.2106 -0.1953
 2745SOL    HW219872   0.153   4.395   4.737 -0.2540  0.0431 -0.1703
 2746SOL     OW19873   2.321   1.973   1.316 -0.1240 -0.4586  0.1895
 2746SOL    HW119874   2.404   1.996   1.274 -1.5268  5.8426  0.9033
 2746SOL    HW219875   2.317   2.012   1.403 -0.0848  1.5315 -0.7053
 2747SOL     OW19876   0.750   2.442   7.537 -0.2706  0.2694  0.2647
 2747SOL    HW119877   0.659   2.446   7.507 -0.9027 -0.0466  2.1269
 2747SOL    HW219878   0.776   2.350   7.543 -0.2088  0.4618  2.7652
 2748SOL     OW19879   1.004   3.794   6.071 -0.2712  0.4535  0.2484
 2748SOL    HW119880   0.968   3.723   6.018 -1.4131 -0.1526  1.8388
 2748SOL    HW219881   0.923   3.828   6.109  0.0356  1.4781 -0.0212
 2749SOL     OW19882   3.450   0.899   4.353 -0.4162  0.5279  0.0752
 2749SOL    HW119883   3.355   0.911   4.349 -0.4456 -0.0852 -1.0505
 2749SOL    HW219884   3.474   0.900   4.261 -2.2679 -2.2489 -0.4438
 2750SOL     OW19885   2.611   0.266  11.193  0.4055 -0.4957 -0.3731
 2750SOL    HW119886   2.583   0.235  11.106 -0.1601  0.2437 -0.4515
 2750SOL    HW219887   2.696   0.308  11.180  0.0703 -0.8038 -3.6610
 2751SOL     OW19888   0.357   4.642   4.518  0.9434  0.2987  0.0847
 2751SOL    HW119889   0.277   4.603   4.485  1.5030 -1.6550  1.0310
 2751SOL    HW219890   0.321   4.696   4.589 -0.7958  2.2398 -2.2669
 2752SOL     OW19891   3.530   0.832   1.845  0.0914 -0.1808 -0.3525
 2752SOL    HW119892   3.491   0.747   1.825  0.7430 -0.8038  1.0759
 2752SOL    HW219893   3.620   0.802   1.831 -0.0704 -1.5381  1.5790
 2753SOL     OW19894   2.424   1.626   1.961 -0.3056 -0.3833 -0.2856
 2753SOL    HW119895   2.397   1.577   2.038  1.4409 -0.9860 -0.0642
 2753SOL    HW219896   2.352   1.606   1.902 -0.2647 -1.2365 -0.0419
 2754SOL     OW19897   4.678   2.180   7.821 -0.4791  0.4673 -0.0850
 2754SOL    HW119898   4.714   2.209   7.905 -2.2850  0.9320  0.5391
 2754SOL    HW219899   4.729   2.232   7.759 -1.2966  1.9220  0.4719
 2755SOL     OW19900   4.620   2.527   0.653 -0.4839  0.2562  0.2718
 2755SOL    HW119901   4.531   2.563   0.645  0.7382  2.9057 -1.6735
 2755SOL    HW219902   4.594   2.440   0.622 -0.2194  0.7864 -1.4753
 2756SOL     OW19903   1.595   0.792   1.528 -0.2354  0.2667  0.0881
 2756SOL    HW119904   1.616   0.753   1.443 -0.0859  1.4938 -0.4413
 2756SOL    HW219905   1.505   0.818   1.512 -0.7670 -1.2547  0.6455
 2757SOL     OW19906   1.632   0.242   7.145  0.2449  0.2804 -0.7234
 2757SOL    HW119907   1.715   0.275   7.180  1.9022 -2.0635 -2.5034
 2757SOL    HW219908   1.565   0.249   7.213 -0.5200 -0.8535 -1.3442
 2758SOL     OW19909   4.168   4.290   2.191 -0.0146  0.1096 -0.2577
 2758SOL    HW119910   4.143   4.305   2.282  0.7002 -0.0417 -0.0335
 2758SOL    HW219911   4.186   4.377   2.155 -1.0403  0.5153  0.1920
 2759SOL     OW19912   2.075   1.530   3.168 -0.2730  0.1020 -0.8910
 2759SOL    HW119913   2.143   1.484   3.120  2.3767  1.8145  1.2336
 2759SOL    HW219914   2.118   1.582   3.235 -1.3698 -0.2560  0.1047
 2760SOL     OW19915   0.246   4.102   5.725 -0.4239 -0.6150  0.3593
 2760SOL    HW119916   0.162   4.062   5.750  0.3115 -0.2891  3.3284
 2760SOL    HW219917   0.282   4.110   5.812  2.5548 -3.9020 -0.5627
 2761SOL     OW19918   4.173   2.635   1.881 -0.0554 -0.2467 -0.7754
 2761SOL    HW119919   4.234   2.700   1.914  0.9519 -0.6267 -1.8830
 2761SOL    HW219920   4.088   2.655   1.920  0.8403  3.3810 -0.6846
 2762SOL     OW19921   3.289   0.162   3.857 -0.4369  0.3170 -0.4917
 2762SOL    HW119922   3.269   0.175   3.950  1.4732 -0.0091 -0.0530
 2762SOL    HW219923   3.251   0.074   3.855  2.0685 -0.7257 -1.4325
 2763SOL     OW19924   4.438   0.959   4.759 -0.7940  0.2790 -0.0559
 2763SOL    HW119925   4.373   1.015   4.718 -0.6446 -0.4436 -1.2871
 2763SOL    HW219926   4.416   0.873   4.724 -2.3186  1.6161 -2.3946
 2764SOL     OW19927   2.375   3.191  13.784 -0.6565 -0.0463  0.1431
 2764SOL    HW119928   2.364   3.192  13.689 -0.9372 -0.2305  0.1713
 2764SOL    HW219929   2.363   3.099  13.809 -0.2078 -0.0638  0.2934
 2765SOL     OW19930   3.992   0.376   8.989  0.1056  0.1787  0.3828
 2765SOL    HW119931   4.019   0.383   8.897  1.9923  0.6306  0.9602
 2765SOL    HW219932   4.007   0.284   9.008 -0.3535  0.1504  0.5973
 2766SOL     OW19933   3.165   0.492  15.513 -0.4470 -0.2233 -0.5900
 2766SOL    HW119934   3.084   0.449  15.487  0.1665 -0.2971 -2.4296
 2766SOL    HW219935   3.235   0.427  15.515 -0.8258 -0.6128 -0.1938
 2767SOL     OW19936   2.233   3.812   6.016  0.0929  0.6337 -0.3342
 2767SOL    HW119937   2.297   3.795   6.085  1.6212  0.4956 -1.8005
 2767SOL    HW219938   2.154   3.809   6.070  0.5304  0.0934  0.2765
 2768SOL     OW19939   0.674   3.401  16.901  0.6465  0.2555  0.4587
 2768SOL    HW119940   0.691   3.347  16.978 -2.3598 -2.4773 -0.7949
 2768SOL    HW219941   0.743   3.465  16.914  0.6128  0.6334 -1.1648
 2769SOL     OW19942   3.705   4.191   0.760  0.0482 -0.4547  0.7159
 2769SOL    HW119943   3.684   4.098   0.764 -3.3258  0.2634 -0.7853
 2769SOL    HW219944   3.644   4.226   0.825  3.0873  2.4958  2.0043
 2770SOL     OW19945   0.658   1.986  11.305  0.3477  0.3659  0.9037
 2770SOL    HW119946   0.668   2.080  11.293  1.3052 -0.0904 -1.7995
 2770SOL    HW219947   0.562   1.986  11.307  0.2832 -1.5731 -2.1960
 2771SOL     OW19948   4.613   3.995   8.075  0.1923 -0.4174  0.1009
 2771SOL    HW119949   4.562   4.038   8.144  0.7778  1.2442 -0.5074
 2771SOL    HW219950   4.697   4.040   8.079  0.5296 -1.0234 -0.2097
 2772SOL     OW19951   4.731   2.798   3.659 -0.1239  0.5353 -0.1174
 2772SOL    HW119952   0.002   2.785   3.754  1.0343  1.8174 -0.0340
 2772SOL    HW219953   0.075   2.849   3.651 -1.0744  1.8735 -1.1228
 2773SOL     OW19954   1.154   2.423   6.691 -0.2040 -0.4051  0.8721
 2773SOL    HW119955   1.104   2.391   6.766 -0.8539  1.2252  1.1337
 2773SOL    HW219956   1.084   2.456   6.635  0.3647  0.6625  0.7783
 2774SOL     OW19957   1.234   3.684  13.089  0.4359  0.0272  0.3366
 2774SOL    HW119958   1.279   3.732  13.020 -0.2083 -0.8206 -0.6642
 2774SOL    HW219959   1.147   3.725  13.088  1.0462  1.3541  1.3537
 2775SOL     OW19960   0.223   4.218   6.712  0.2145  0.1984  0.2357
 2775SOL    HW119961   0.304   4.167   6.703  1.6000  1.9929  2.7347
 2775SOL    HW219962   0.198   4.248   6.625 -0.8526  0.3528  0.5940
 2776SOL     OW19963   2.332   1.658  15.852 -0.0967 -0.0767  0.8585
 2776SOL    HW119964   2.294   1.730  15.901 -1.3197 -1.9096  2.6026
 2776SOL    HW219965   2.392   1.701  15.791 -0.5223  0.5570  0.8864
 2777SOL     OW19966   2.972   2.543  11.993  0.2633 -0.0686 -0.1593
 2777SOL    HW119967   3.027   2.568  11.919 -0.3605  0.0353 -0.5868
 2777SOL    HW219968   2.920   2.623  12.002  2.5100  1.3142  0.6704
 2778SOL     OW19969   1.473   4.553  14.578  0.2238 -0.0986 -0.0612
 2778SOL    HW119970   1.441   4.626  14.525 -0.6028 -0.8552 -0.6082
 2778SOL    HW219971   1.568   4.563  14.579  0.4944 -2.3735 -2.1293
 2779SOL     OW19972   4.199   4.043   1.670 -0.0421 -0.7246  0.0067
 2779SOL    HW119973   4.129   4.011   1.727 -0.5081  0.4010  0.0727
 2779SOL    HW219974   4.161   4.044   1.582 -0.4586 -0.0214  0.1901
 2780SOL     OW19975   1.052   0.978   1.265 -0.7961  0.0345  1.0392
 2780SOL    HW119976   1.099   0.896   1.262 -0.5872  0.2538 -1.1410
 2780SOL    HW219977   0.970   0.957   1.221 -0.1265 -0.5987  0.1187
 2781SOL     OW19978   2.221   1.127  14.947 -0.5187 -0.0851  0.0585
 2781SOL    HW119979   2.210   1.120  14.852 -0.7442 -0.6051  0.1229
 2781SOL    HW219980   2.148   1.073  14.977 -1.0248  0.6604  0.1681
 2782SOL     OW19981   1.670   0.320   9.098  0.0564  0.0417  0.0960
 2782SOL    HW119982   1.758   0.348   9.073 -0.9849  2.0352 -1.4108
 2782SOL    HW219983   1.688   0.283   9.184 -0.4246 -1.2792 -0.3803
 2783SOL     OW19984   1.888   1.586   5.716  0.3798  0.1085  0.1851
 2783SOL    HW119985   1.822   1.613   5.779 -0.3440 -0.5269 -0.2927
 2783SOL    HW219986   1.962   1.618   5.767 -0.0202  0.2390  0.6772
 2784SOL     OW19987   4.025   4.440   3.820 -0.2679 -0.3463 -0.0011
 2784SOL    HW119988   3.937   4.412   3.847 -0.7151 -0.7109 -1.7846
 2784SOL    HW219989   4.039   4.522   3.866  2.1347 -1.0640  0.5442
 2785SOL     OW19990   1.927   0.985   6.001 -0.1370 -0.1581 -0.3550
 2785SOL    HW119991   1.985   0.910   5.987  1.3341  0.8684  0.1699
 2785SOL    HW219992   1.912   0.980   6.096  1.7366 -0.8053 -0.0838
 2786SOL     OW19993   0.632   3.051   3.617 -0.6162  0.3824 -0.5315
 2786SOL    HW119994   0.695   3.026   3.684 -2.7446 -1.4709  0.7916
 2786SOL    HW219995   0.603   3.136   3.652  2.4993  1.2724 -0.0771
 2787SOL     OW19996   3.437   4.107   2.740 -0.1235 -0.6972 -0.6520
 2787SOL    HW119997   3.426   4.156   2.658 -2.2429 -1.7870 -1.0187
 2787SOL    HW219998   3.393   4.157   2.808 -0.1180  1.8768 -2.5546
 2788SOL     OW19999   0.950   1.984   6.262  0.0066 -0.0630 -0.7548
 2788SOL    HW120000   0.878   1.924   6.281  1.5771 -2.1937 -1.5537
 2788SOL    HW220001   0.999   1.928   6.203 -2.3545 -0.3553 -2.4434
 2789SOL     OW20002   2.916   4.060  10.329  0.4566 -0.0150 -0.1747
 2789SOL    HW120003   2.878   4.147  10.326  2.0944  0.6812 -1.4062
 2789SOL    HW220004   2.991   4.077  10.386  0.8157 -3.1694  0.3034
 2790SOL     OW20005   0.085   0.132   6.789 -0.1481 -0.1041 -0.6971
 2790SOL    HW120006   0.070   0.140   6.884  1.5700  3.2227 -0.7068
 2790SOL    HW220007   0.055   0.042   6.776  1.6056 -0.5330 -1.6931
 2791SOL     OW20008   2.662   0.212   1.778  0.3916 -0.5260 -0.3317
 2791SOL    HW120009   2.611   0.292   1.779  1.3380  0.0655  1.9333
 2791SOL    HW220010   2.627   0.160   1.851 -3.8581  1.3437 -1.0614
 2792SOL     OW20011   0.999   2.093  11.349 -0.6227 -0.6421 -0.3486
 2792SOL    HW120012   0.971   2.169  11.399 -2.2944 -1.1502 -0.5221
 2792SOL    HW220013   1.045   2.051  11.422  0.1016  2.0835  0.7404
 2793SOL     OW20014   3.633   4.219   5.331 -0.3774  0.5966  0.6863
 2793SOL    HW120015   3.588   4.157   5.388 -4.8837  3.1010 -0.0556
 2793SOL    HW220016   3.704   4.164   5.300 -0.9057 -0.7992  1.9652
 2794SOL     OW20017   0.356   4.676   2.132  0.2700  0.1457 -0.0438
 2794SOL    HW120018   0.278   4.725   2.159  1.1988  2.5133 -1.7260
 2794SOL    HW220019   0.397   4.657   2.217 -1.0009  0.0774  0.5651
 2795SOL     OW20020   1.040   2.057   5.520  0.5698  0.2246 -0.5190
 2795SOL    HW120021   0.970   2.099   5.470  1.0371  1.3314 -0.2412
 2795SOL    HW220022   1.110   2.060   5.455  0.3403  0.1874 -0.7664
 2796SOL     OW20023   0.079   3.013   7.095  0.0388  0.2688 -0.3208
 2796SOL    HW120024   0.116   2.934   7.055 -1.5889 -0.9567  0.6008
 2796SOL    HW220025   0.158   3.041   7.142 -0.1050 -1.8898  1.1907
 2797SOL     OW20026   2.422   0.197   8.010  0.1250  0.4012 -0.5817
 2797SOL    HW120027   2.493   0.198   8.073  0.2639 -2.9158 -0.6889
 2797SOL    HW220028   2.378   0.123   8.051  2.2783  0.6673  2.1816
 2798SOL     OW20029   0.410   3.619   4.245  0.2105 -0.2061  0.1115
 2798SOL    HW120030   0.422   3.631   4.339 -1.1005  0.9167  0.1291
 2798SOL    HW220031   0.356   3.695   4.225  1.4173  1.2177  2.2809
 2799SOL     OW20032   4.049   0.300   9.516 -0.1057 -0.4648 -0.3236
 2799SOL    HW120033   4.008   0.378   9.478  2.2248  0.4385 -0.9832
 2799SOL    HW220034   3.967   0.252   9.529 -0.2411 -0.8709 -2.6295
 2800SOL     OW20035   4.720   2.211   3.532 -0.0065 -0.0573  0.2279
 2800SOL    HW120036   0.065   2.194   3.486 -0.3374 -0.0063 -0.3838
 2800SOL    HW220037   4.707   2.306   3.531 -1.2768 -0.2360 -1.0296
 2801SOL     OW20038   4.671   4.003   1.394  0.4512  0.3454  0.0591
 2801SOL    HW120039   4.661   3.911   1.370  2.3457 -0.7503  3.4014
 2801SOL    HW220040   4.624   4.047   1.323 -3.2992  1.0015  2.9356
 2802SOL     OW20041   2.063   1.353   3.476 -0.2643  0.6034 -0.2495
 2802SOL    HW120042   2.078   1.351   3.570  0.7187  0.8968 -0.4008
 2802SOL    HW220043   2.107   1.270   3.456 -1.2847 -0.3877  1.6152
 2803SOL     OW20044   0.702   2.601   3.932  0.2324 -0.7873 -0.4150
 2803SOL    HW120045   0.664   2.688   3.922 -0.0968 -0.5450  3.2190
 2803SOL    HW220046   0.777   2.594   3.872  0.8766  1.5868  0.1186
 2804SOL     OW20047   0.382   4.617   4.916 -0.1523  0.2956 -0.3519
 2804SOL    HW120048   0.374   4.670   4.836  3.2921 -0.3785 -1.1830
 2804SOL    HW220049   0.318   4.548   4.902  0.7062 -0.3240 -1.1965
 2805SOL     OW20050   1.517   2.495   2.817 -0.0608 -0.2039  0.0110
 2805SOL    HW120051   1.493   2.402   2.820  0.7208 -0.4576 -1.7623
 2805SOL    HW220052   1.454   2.531   2.754  1.2783 -0.8534 -1.6862
 2806SOL     OW20053   0.454   4.194   4.681  0.4062 -0.1533  0.3934
 2806SOL    HW120054   0.413   4.196   4.768 -1.4735  0.1370 -0.5010
 2806SOL    HW220055   0.509   4.271   4.694 -0.8141  0.9027 -0.7037
 2807SOL     OW20056   3.215   0.894   1.644 -0.0063  0.1570  0.3587
 2807SOL    HW120057   3.182   0.980   1.618  0.8851  0.0916 -0.9673
 2807SOL    HW220058   3.235   0.903   1.737  2.5431 -1.5251 -0.0395
 2808SOL     OW20059   1.436   4.219   8.809  0.4980  0.2270  0.1272
 2808SOL    HW120060   1.459   4.154   8.875 -0.1432  0.4181  0.5478
 2808SOL    HW220061   1.352   4.189   8.773 -1.3258  1.8011  3.0018
 2809SOL     OW20062   3.611   2.475   7.911  0.0940 -0.0016  0.2426
 2809SOL    HW120063   3.639   2.470   7.819 -0.2205 -1.8369  0.2566
 2809SOL    HW220064   3.660   2.554   7.934 -0.5908  0.9179 -1.4249
 2810SOL     OW20065   4.720   2.357   1.113 -0.5835 -0.0522  0.0470
 2810SOL    HW120066   0.032   2.279   1.139  0.0122  0.2127 -0.2826
 2810SOL    HW220067   0.013   2.420   1.179  0.2097 -1.0580  0.6578
 2811SOL     OW20068   1.351   0.145   3.096 -0.0170 -0.0230  0.4396
 2811SOL    HW120069   1.283   0.136   3.163 -0.4128  0.9276  0.1654
 2811SOL    HW220070   1.319   0.220   3.046 -2.2088  1.5814  4.3019
 2812SOL     OW20071   0.500   1.450   2.577  0.7222  0.1828 -0.4230
 2812SOL    HW120072   0.420   1.402   2.599  0.4908  1.0074  0.5189
 2812SOL    HW220073   0.463   1.537   2.566 -0.6146 -0.5132 -1.4195
 2813SOL     OW20074   2.444   2.489   3.296 -0.0501  0.6011  0.2075
 2813SOL    HW120075   2.457   2.422   3.229  1.4834  1.7250 -0.6362
 2813SOL    HW220076   2.529   2.496   3.341 -0.5971  0.4992  1.2445
 2814SOL     OW20077   3.231   3.111   3.653 -0.1344  0.4287  0.3642
 2814SOL    HW120078   3.280   3.154   3.582  0.7856 -0.1692  0.6409
 2814SOL    HW220079   3.202   3.027   3.618  0.1174  0.9810 -1.1813
 2815SOL     OW20080   1.558   4.681   9.334 -0.4157 -0.2528 -0.0883
 2815SOL    HW120081   1.470   4.643   9.340 -0.0680 -1.1561 -0.9725
 2815SOL    HW220082   1.541   0.035   9.360  0.7721  0.4052 -1.6155
 2816SOL     OW20083   3.185   1.100   3.910 -0.1893 -0.0338  0.6139
 2816SOL    HW120084   3.274   1.126   3.933  0.4005  0.0557 -1.7295
 2816SOL    HW220085   3.131   1.160   3.962  1.7260  0.3825  2.0895
 2817SOL     OW20086   3.209   0.372   8.557 -0.7911  0.0970 -0.5336
 2817SOL    HW120087   3.214   0.278   8.575 -0.7021  0.0503 -0.7991
 2817SOL    HW220088   3.297   0.401   8.536 -0.6024 -1.5047 -1.9553
 2818SOL     OW20089   3.785   2.051  16.792  0.1336 -0.2867  0.1031
 2818SOL    HW120090   3.747   2.054  16.704 -1.1131  1.8185  0.7084
 2818SOL    HW220091   3.757   2.139  16.818 -1.1015 -0.2721 -1.2540
 2819SOL     OW20092   2.279   3.591   3.433  0.0394 -0.5688  0.2611
 2819SOL    HW120093   2.327   3.672   3.417 -2.1686  1.0690  1.8399
 2819SOL    HW220094   2.346   3.523   3.437 -0.1181 -0.7694 -0.5197
 2820SOL     OW20095   2.685   1.405   6.118  0.4307  0.4602  0.1967
 2820SOL    HW120096   2.707   1.485   6.070  0.8208  1.0982  1.4362
 2820SOL    HW220097   2.639   1.439   6.195 -1.6965  1.7229 -1.6307
 2821SOL     OW20098   2.501   1.173   3.675 -0.5969  0.1563  0.0575
 2821SOL    HW120099   2.536   1.203   3.591 -2.0552 -0.0686 -0.6338
 2821SOL    HW220100   2.545   1.088   3.680 -1.3676 -0.1244  2.1414
 2822SOL     OW20101   4.153   2.792   1.401  0.3440  0.5748 -0.0300
 2822SOL    HW120102   4.163   2.734   1.476  1.2414  0.2943 -0.3697
 2822SOL    HW220103   4.220   2.754   1.343  1.5063  0.2160  1.5621
 2823SOL     OW20104   0.038   0.276   0.281 -0.5326  0.2449 -0.2279
 2823SOL    HW120105   0.099   0.242   0.215 -0.8285  1.0226 -0.8897
 2823SOL    HW220106   4.691   0.239   0.252 -1.1883  1.2137  0.4448
 2824SOL     OW20107   1.114   2.006   5.144  0.0217  0.7568  0.7730
 2824SOL    HW120108   1.204   1.973   5.150 -0.0734  0.2762 -0.5164
 2824SOL    HW220109   1.076   1.957   5.071  1.0778  3.7259 -1.7538
 2825SOL     OW20110   3.818   3.910   7.677 -0.5430  0.0272 -0.7662
 2825SOL    HW120111   3.737   3.874   7.712  1.4702 -1.4075  2.2872
 2825SOL    HW220112   3.873   3.954   7.742 -1.0201 -0.6041  0.0518
 2826SOL     OW20113   2.489   3.627   8.862  0.7078  0.6078 -0.2906
 2826SOL    HW120114   2.534   3.608   8.945  0.8244  2.9529  0.1842
 2826SOL    HW220115   2.467   3.720   8.869 -0.5833  0.0323  3.0381
 2827SOL     OW20116   3.795   3.920   8.459  0.3008 -0.2979 -0.8166
 2827SOL    HW120117   3.814   3.896   8.550 -0.5027  0.3579 -0.4734
 2827SOL    HW220118   3.707   3.882   8.456  0.9111 -1.9699  2.0790
 2828SOL     OW20119   0.947   1.616   3.957  0.1885 -0.3681  0.1965
 2828SOL    HW120120   0.932   1.563   3.879 -0.7372  2.0340 -1.2535
 2828SOL    HW220121   0.889   1.571   4.019  1.4267 -0.3498  1.3817
 2829SOL     OW20122   0.725   1.560  10.413  0.1903  0.2529  0.0078
 2829SOL    HW120123   0.724   1.655  10.415  0.7553  0.2634 -0.0779
 2829SOL    HW220124   0.631   1.544  10.405  0.2587 -0.4855  0.7106
 2830SOL     OW20125   3.340   2.568   6.231 -0.1673 -0.0369  0.5821
 2830SOL    HW120126   3.394   2.529   6.301 -0.9631  2.2250  2.4443
 2830SOL    HW220127   3.319   2.649   6.278 -2.7820 -0.6524  0.4863
 2831SOL     OW20128   0.019   3.957   5.811  0.6342 -0.2851 -1.1595
 2831SOL    HW120129   4.689   3.921   5.869  0.7164  0.3654 -0.6616
 2831SOL    HW220130   4.706   3.977   5.732 -2.7201  0.0460  1.0117
 2832SOL     OW20131   4.447   0.698  10.785 -0.0984 -0.3514  0.1984
 2832SOL    HW120132   4.473   0.727  10.872 -1.3661  1.3709  0.0117
 2832SOL    HW220133   4.364   0.745  10.779  0.0338 -0.2583 -0.9806
 2833SOL     OW20134   3.899   4.453   0.081  0.6964 -0.4077  0.0859
 2833SOL    HW120135   3.852   4.375   0.052  0.3030  0.1272 -0.7002
 2833SOL    HW220136   3.852   4.529   0.047  2.6548  0.5014 -0.5993
 2834SOL     OW20137   0.118   3.075   6.831 -0.3118 -0.1735 -0.0057
 2834SOL    HW120138   0.047   3.046   6.888 -0.2719 -0.7817 -0.2639
 2834SOL    HW220139   0.112   3.169   6.843  0.3386  0.0926 -1.8287
 2835SOL     OW20140   3.693   1.978  15.662  0.1155  0.7026 -0.3309
 2835SOL    HW120141   3.607   1.991  15.703  0.1456 -1.2277  0.3383
 2835SOL    HW220142   3.676   1.978  15.568  2.9420  0.6972 -0.8486
 2836SOL     OW20143   4.277   2.395   3.281 -0.2067  0.3039 -0.1441
 2836SOL    HW120144   4.287   2.381   3.187  1.0290  2.4756 -0.3206
 2836SOL    HW220145   4.334   2.323   3.307  0.6717  0.8348 -0.6107
 2837SOL     OW20146   0.498   3.914   4.943 -0.1451  0.6581 -0.5104
 2837SOL    HW120147   0.415   3.867   4.952  0.8209 -0.6727  1.3718
 2837SOL    HW220148   0.554   3.871   5.007  1.8041 -1.1006 -3.3941
 2838SOL     OW20149   4.567   3.944   7.533 -0.0672  0.2858  0.1629
 2838SOL    HW120150   4.544   3.852   7.524  3.4428 -0.4436 -1.6787
 2838SOL    HW220151   4.661   3.925   7.525  0.0667  0.8017  0.5365
 2839SOL     OW20152   3.364   1.169   6.112 -0.3521 -0.8124  0.0657
 2839SOL    HW120153   3.379   1.075   6.126  1.6082 -0.7513 -1.5399
 2839SOL    HW220154   3.445   1.200   6.071  0.5223 -1.1395  1.5703
 2840SOL     OW20155   0.659   1.058  16.359  0.4679 -0.1188 -0.0233
 2840SOL    HW120156   0.718   1.132  16.361 -0.7187  0.8794 -1.3576
 2840SOL    HW220157   0.625   1.059  16.269  0.7832  1.6116 -0.1156
 2841SOL     OW20158   2.592   4.433  14.507 -0.0400 -0.1763 -0.0879
 2841SOL    HW120159   2.533   4.431  14.581 -0.1461  0.8688 -0.1447
 2841SOL    HW220160   2.667   4.392  14.551 -0.4706 -0.1437  0.6679
 2842SOL     OW20161   0.246   0.281   7.926 -0.3759 -0.5467  0.5806
 2842SOL    HW120162   0.231   0.223   7.851 -0.7419 -1.0794  1.0653
 2842SOL    HW220163   0.310   0.227   7.972  0.6575 -0.2397 -0.4779
 2843SOL     OW20164   2.910   4.131   9.109 -0.6343  0.2254  0.2053
 2843SOL    HW120165   2.873   4.073   9.176 -0.6020 -0.1726 -0.1228
 2843SOL    HW220166   2.999   4.122   9.143 -0.6414 -0.5947  0.0048
 2844SOL     OW20167   3.580   1.953   2.669 -0.6252 -0.7909 -0.1701
 2844SOL    HW120168   3.551   1.863   2.659  1.1259 -1.4184  0.3640
 2844SOL    HW220169   3.639   1.968   2.596 -0.2793 -1.0658  0.0548
 2845SOL     OW20170   1.071   4.409  14.869 -0.9980  0.2729 -0.2467
 2845SOL    HW120171   1.051   4.499  14.893 -0.7889 -0.3973  2.3898
 2845SOL    HW220172   1.091   4.408  14.775 -2.3702 -1.3768 -0.5276
 2846SOL     OW20173   2.839   1.619   6.005  0.0193 -0.2196  0.0885
 2846SOL    HW120174   2.928   1.647   6.026 -0.7471  1.1124  1.6034
 2846SOL    HW220175   2.852   1.550   5.940  1.0727 -0.2111  0.2968
 2847SOL     OW20176   4.706   1.945   4.887  0.4746  0.5170 -0.2524
 2847SOL    HW120177   4.614   1.972   4.895 -0.7130 -3.3667 -0.4217
 2847SOL    HW220178   4.731   1.934   4.979 -0.9995 -0.3600  0.0466
 2848SOL     OW20179   4.190   1.963   0.375  0.5606  0.4068 -0.2605
 2848SOL    HW120180   4.128   2.035   0.389 -1.5332 -1.3975 -0.4421
 2848SOL    HW220181   4.139   1.884   0.390 -0.6210  1.2694  0.2399
 2849SOL     OW20182   2.330   2.578  13.981  0.5482  0.3047 -0.5817
 2849SOL    HW120183   2.401   2.568  13.918  0.7541 -1.3412 -0.0853
 2849SOL    HW220184   2.364   2.632  14.052 -1.2631  1.6848 -0.7608
 2850SOL     OW20185   1.374   0.389   9.018  0.3146  0.3613 -0.6396
 2850SOL    HW120186   1.433   0.359   8.949  0.1584  0.1308 -0.6723
 2850SOL    HW220187   1.425   0.459   9.058  1.0655 -0.5566  0.0154
 2851SOL     OW20188   2.038   3.901   4.772 -0.2489 -0.2517  0.5902
 2851SOL    HW120189   2.092   3.824   4.793 -1.1557 -1.6179 -2.0610
 2851SOL    HW220190   2.101   3.969   4.748 -0.7912 -0.7296 -2.2664
 2852SOL     OW20191   2.983   2.952  11.047  0.0480  0.0054 -0.1810
 2852SOL    HW120192   2.939   3.035  11.067 -0.0104  0.4018 -1.9326
 2852SOL    HW220193   2.911   2.890  11.051  2.1008 -2.4295 -0.5509
 2853SOL     OW20194   3.738   0.087   5.744 -0.2448  0.4129  0.1908
 2853SOL    HW120195   3.663   0.132   5.704  0.5371  0.0591 -1.6835
 2853SOL    HW220196   3.758   0.027   5.671 -2.0055  1.3302 -1.0556
 2854SOL     OW20197   4.545   3.780   1.571  0.3725 -0.2994 -0.5944
 2854SOL    HW120198   4.465   3.786   1.519  1.6184 -0.1728 -2.4962
 2854SOL    HW220199   4.537   3.863   1.618 -0.5598 -0.1633 -0.9988
 2855SOL     OW20200   0.369   4.128   7.160  0.8069 -0.4953 -0.1031
 2855SOL    HW120201   0.317   4.156   7.085 -1.0805 -0.5243  1.1745
 2855SOL    HW220202   0.448   4.178   7.142  0.1132  0.4910 -0.4059
 2856SOL     OW20203   1.558   2.323  15.617  0.2033  0.2903 -0.3026
 2856SOL    HW120204   1.545   2.392  15.681 -0.3205 -1.1249  1.0999
 2856SOL    HW220205   1.536   2.374  15.539 -1.1628  1.6523  0.9872
 2857SOL     OW20206   3.785   1.940   5.363 -0.1290 -0.1105  0.0152
 2857SOL    HW120207   3.742   1.887   5.296 -2.3474 -1.1649  2.2823
 2857SOL    HW220208   3.710   1.969   5.416  1.8988  1.3754  2.0356
 2858SOL     OW20209   3.935   2.609   2.499 -0.3315  0.0718  0.0821
 2858SOL    HW120210   3.840   2.598   2.497 -0.2721 -0.2433 -1.2661
 2858SOL    HW220211   3.946   2.640   2.409  1.4453  0.3666  0.4006
 2859SOL     OW20212   2.755   1.074  11.115  0.3054  0.6979 -0.6715
 2859SOL    HW120213   2.730   1.142  11.054  1.0866  2.1291  0.5932
 2859SOL    HW220214   2.747   1.120  11.199  0.6148  0.7528 -0.6733
 2860SOL     OW20215   2.891   1.766   7.700 -0.4194 -0.1838 -0.1474
 2860SOL    HW120216   2.882   1.819   7.779  2.9088  1.2556 -0.7224
 2860SOL    HW220217   2.976   1.782   7.660 -1.1656 -1.6347 -2.3335
 2861SOL     OW20218   0.973   0.107  10.907  0.0583 -0.1177 -0.2294
 2861SOL    HW120219   1.061   0.075  10.884 -0.3748 -1.5523  0.1132
 2861SOL    HW220220   0.988   0.199  10.886  3.5814 -0.4074  0.9873
 2862SOL     OW20221   1.013   4.252  12.960  0.4388 -0.5403 -0.1675
 2862SOL    HW120222   0.977   4.164  12.963  2.2979 -1.3248 -0.9689
 2862SOL    HW220223   1.083   4.252  13.025  1.2182 -0.6802 -1.0109
 2863SOL     OW20224   3.044   4.244   5.800  0.7250 -0.8877 -0.0978
 2863SOL    HW120225   3.067   4.196   5.721 -0.6700 -1.4311 -0.1780
 2863SOL    HW220226   2.961   4.289   5.787  2.4130  2.8297  2.1591
 2864SOL     OW20227   0.756   0.544  10.278 -0.0548  0.2220 -0.1418
 2864SOL    HW120228   0.776   0.637  10.280  0.6874  0.0355  1.5942
 2864SOL    HW220229   0.661   0.551  10.284 -0.0260 -0.6338  1.4183
 2865SOL     OW20230   0.069   2.456  11.692  0.2986 -0.0810  0.8339
 2865SOL    HW120231   0.004   2.492  11.752 -1.8525  1.8345 -2.6710
 2865SOL    HW220232   0.010   2.449  11.617  0.5977 -1.5864  0.7431
 2866SOL     OW20233   2.442   1.416   7.634  0.1631 -0.2532 -0.3760
 2866SOL    HW120234   2.516   1.476   7.643 -0.3759  0.5927 -1.5370
 2866SOL    HW220235   2.364   1.468   7.654  2.0743  1.9655  1.3198
 2867SOL     OW20236   2.720   1.793   9.678  0.0917 -0.5760  0.0057
 2867SOL    HW120237   2.781   1.757   9.743 -2.6842 -1.6298  2.0852
 2867SOL    HW220238   2.647   1.821   9.734  0.3575 -1.2106  0.6672
 2868SOL     OW20239   4.548   1.992   4.493 -0.6237  0.0116 -0.1467
 2868SOL    HW120240   4.600   1.934   4.549  0.7851 -0.2851 -1.7599
 2868SOL    HW220241   4.535   2.056   4.563 -0.0033 -0.5982  0.5225
 2869SOL     OW20242   2.620   0.511   8.754 -0.2531  0.4119  0.4212
 2869SOL    HW120243   2.566   0.474   8.684  0.1680  0.2170  0.2018
 2869SOL    HW220244   2.569   0.508   8.834  1.1613 -1.7140  1.2532
 2870SOL     OW20245   3.723   2.725   9.206 -0.3912  0.1724 -0.3647
 2870SOL    HW120246   3.689   2.753   9.291  1.0784 -1.1329  0.6400
 2870SOL    HW220247   3.808   2.700   9.242  0.5850  1.9081 -1.5113
 2871SOL     OW20248   0.807   3.524  12.270 -0.0901  0.0413 -0.2791
 2871SOL    HW120249   0.820   3.439  12.229  1.2810 -0.3189  0.9121
 2871SOL    HW220250   0.897   3.553  12.258 -0.0675  0.0316 -0.1348
 2872SOL     OW20251   1.571   0.869   8.624  0.2509  0.3852  0.0516
 2872SOL    HW120252   1.531   0.789   8.590 -0.4951  0.6763  0.2500
 2872SOL    HW220253   1.520   0.931   8.572 -0.7569 -2.4390 -2.3364
 2873SOL     OW20254   4.603   1.396  13.169  0.2870 -0.5752 -0.4448
 2873SOL    HW120255   4.676   1.452  13.141 -1.1392  1.6840  0.3369
 2873SOL    HW220256   4.641   1.309  13.156 -1.4552 -1.3967 -0.0636
 2874SOL     OW20257   1.045   4.161   5.924 -0.3603  0.0941 -0.2940
 2874SOL    HW120258   1.117   4.132   5.980 -1.0589  0.3155  0.7061
 2874SOL    HW220259   0.965   4.120   5.957  0.7768  0.7367  3.1933
 2875SOL     OW20260   4.161   2.340  14.269  0.8512  0.5318  0.0997
 2875SOL    HW120261   4.151   2.251  14.304 -1.3686  0.3707 -0.9657
 2875SOL    HW220262   4.156   2.324  14.175  0.9861  1.2989 -0.0342
 2876SOL     OW20263   0.282   2.332  16.421  0.0272 -0.0097  0.0159
 2876SOL    HW120264   0.364   2.326  16.371  1.5992  1.6663  2.4011
 2876SOL    HW220265   0.225   2.313  16.346 -1.5650 -0.0832  1.2499
 2877SOL     OW20266   1.561   2.573   3.507  0.2676 -0.2581  0.0153
 2877SOL    HW120267   1.568   2.575   3.412  0.5251  1.0874  0.0581
 2877SOL    HW220268   1.519   2.488   3.521  2.9842 -1.3455  1.4895
 2878SOL     OW20269   3.417   0.624   3.450 -0.2827  0.1183  0.2674
 2878SOL    HW120270   3.503   0.627   3.493  0.3192  0.9197 -0.9863
 2878SOL    HW220271   3.377   0.697   3.499  0.4183  0.5202  0.2535
 2879SOL     OW20272   4.131   1.683  14.758  0.1249 -0.5089  0.2204
 2879SOL    HW120273   4.120   1.696  14.852  1.5759 -2.1889  0.6376
 2879SOL    HW220274   4.094   1.596  14.740  1.2541 -0.9333 -0.0490
 2880SOL     OW20275   3.436   3.800   8.155  0.3008  0.2567  0.0638
 2880SOL    HW120276   3.447   3.728   8.093  0.3426  0.9031 -0.6694
 2880SOL    HW220277   3.341   3.807   8.147 -0.0247 -1.0934  2.4316
 2881SOL     OW20278   1.179   4.069   6.339 -0.1920 -0.1052 -0.6234
 2881SOL    HW120279   1.182   4.016   6.259 -1.7311 -2.9457  1.1685
 2881SOL    HW220280   1.102   4.036   6.387 -0.4856  1.7109  0.1343
 2882SOL     OW20281   3.031   1.601   6.437 -0.0190 -0.0800 -0.2477
 2882SOL    HW120282   3.043   1.621   6.529  1.6406  2.0996 -0.9200
 2882SOL    HW220283   3.082   1.674   6.401  1.4461 -1.4016 -0.8797
 2883SOL     OW20284   2.335   3.300   1.383  0.0216  0.0788 -0.2179
 2883SOL    HW120285   2.357   3.392   1.369  1.5601 -0.4948 -1.5271
 2883SOL    HW220286   2.306   3.282   1.294  0.2360 -1.1454 -0.0436
 2884SOL     OW20287   3.031   3.444   9.229  0.5599 -0.4631  0.4720
 2884SOL    HW120288   2.973   3.369   9.242 -0.8476  0.4597 -0.5251
 2884SOL    HW220289   3.063   3.441   9.139  0.0705  1.7996  0.2405
 2885SOL     OW20290   3.222   2.213  17.134  0.0459  0.1468  0.4416
 2885SOL    HW120291   3.312   2.185  17.149  0.6409  0.5673 -2.2795
 2885SOL    HW220292   3.178   2.138  17.094  1.8259 -0.8621  0.3786
 2886SOL     OW20293   3.606   4.372  13.756 -0.8908 -0.5621  0.5626
 2886SOL    HW120294   3.619   4.280  13.735  0.2669 -0.6606  1.7011
 2886SOL    HW220295   3.670   4.417  13.701  0.5757 -3.5719 -0.1998
 2887SOL     OW20296   1.667   4.405  14.072  0.7042  0.2245 -0.2516
 2887SOL    HW120297   1.743   4.426  14.019  1.0572 -0.5849 -0.0648
 2887SOL    HW220298   1.650   4.312  14.057  0.1825  0.0174  1.5380
 2888SOL     OW20299   0.577   1.166   8.813  0.0131 -0.1446  0.7580
 2888SOL    HW120300   0.624   1.226   8.755  0.6815  1.2695  2.7624
 2888SOL    HW220301   0.576   1.214   8.896 -0.5480  2.1430 -0.5794
 2889SOL     OW20302   2.975   2.340   6.094 -0.4903 -0.1067 -0.1291
 2889SOL    HW120303   3.052   2.396   6.082 -0.3239  0.2774  2.8825
 2889SOL    HW220304   2.960   2.315   6.003 -1.7839  0.4903 -0.0861
 2890SOL     OW20305   0.675   2.766  13.614 -0.0334 -0.2062  0.1558
 2890SOL    HW120306   0.688   2.681  13.657 -0.4964 -0.4027 -0.0862
 2890SOL    HW220307   0.652   2.821  13.689  0.8129 -0.1243  0.3517
 2891SOL     OW20308   3.858   2.169  14.051  0.2059 -0.2397  0.3106
 2891SOL    HW120309   3.939   2.124  14.075 -0.5880 -2.1952 -0.7527
 2891SOL    HW220310   3.808   2.186  14.131 -1.7909  1.7446 -1.3557
 2892SOL     OW20311   3.851   0.638  13.219 -0.0126  0.2354 -0.0984
 2892SOL    HW120312   3.823   0.562  13.169  0.7953 -0.2965  0.2524
 2892SOL    HW220313   3.923   0.664  13.162  0.2590  0.2635  0.2569
 2893SOL     OW20314   1.230   2.463  17.361 -0.1177  0.7148  0.8049
 2893SOL    HW120315   1.316   2.497  17.336 -0.1715  0.5514  0.4087
 2893SOL    HW220316   1.173   2.517  17.306  0.3060 -0.2970 -0.6024
 2894SOL     OW20317   0.746   0.841  10.230  0.1760  0.6471  0.6576
 2894SOL    HW120318   0.724   0.798  10.147  1.1422  1.9758 -0.2727
 2894SOL    HW220319   0.663   0.886  10.248 -2.5561 -2.9985 -2.8436
 2895SOL     OW20320   1.478   1.020  11.158 -0.0437  0.2507  0.2065
 2895SOL    HW120321   1.474   1.038  11.064 -2.0095 -2.7659 -0.2841
 2895SOL    HW220322   1.414   1.074  11.205 -1.9919  0.1016 -2.2202
 2896SOL     OW20323   2.744   3.672   9.000  0.0315  0.3148  0.0435
 2896SOL    HW120324   2.684   3.679   9.075  1.0581  0.9164  0.8124
 2896SOL    HW220325   2.831   3.664   9.040  0.4031  2.9158 -0.2349
 2897SOL     OW20326   2.976   2.278   8.146  0.0513  0.4731 -0.1659
 2897SOL    HW120327   2.977   2.373   8.139  1.6080  0.4521 -0.1559
 2897SOL    HW220328   2.896   2.258   8.098  0.9021  0.5196 -1.6063
 2898SOL     OW20329   4.392   1.492   2.874  0.2501  0.2027 -0.0362
 2898SOL    HW120330   4.398   1.477   2.780  0.9150  1.3083 -0.1724
 2898SOL    HW220331   4.398   1.588   2.879  0.0860  0.1347  1.5449
 2899SOL     OW20332   1.369   1.586  14.849  0.0675  0.5725 -0.0537
 2899SOL    HW120333   1.294   1.635  14.814 -0.4356  0.3259  0.6797
 2899SOL    HW220334   1.434   1.647  14.815  0.2106  0.5449  0.1730
 2900SOL     OW20335   3.022   1.660   2.651 -0.1927  0.2979  0.1083
 2900SOL    HW120336   2.959   1.627   2.714  1.8794 -0.7966  1.6262
 2900SOL    HW220337   3.034   1.746   2.690  2.1381  0.2798 -0.5641
 2901SOL     OW20338   4.349   0.565  13.471  0.0911 -0.3215  0.0101
 2901SOL    HW120339   4.411   0.494  13.488  1.1339  0.7523  0.6444
 2901SOL    HW220340   4.264   0.530  13.496  0.2188 -1.3820 -1.0212
 2902SOL     OW20341   0.858   3.974   5.068  0.0408  0.4063  0.4206
 2902SOL    HW120342   0.912   4.051   5.087  1.0923 -0.3695  0.5660
 2902SOL    HW220343   0.782   4.006   5.019  1.2662  1.7601 -0.6183
 2903SOL     OW20344   1.186   0.482   5.238 -0.2156 -0.5322 -0.6520
 2903SOL    HW120345   1.158   0.512   5.325  0.3822 -1.2035 -0.2215
 2903SOL    HW220346   1.114   0.518   5.186  1.0849  0.6321 -1.6655
 2904SOL     OW20347   1.759   1.836   4.649 -0.5365 -0.2827 -0.1447
 2904SOL    HW120348   1.733   1.748   4.623  1.4870 -1.0209  0.3105
 2904SOL    HW220349   1.835   1.852   4.592  0.1912  3.0430  1.7997
 2905SOL     OW20350   2.021   3.188   7.486  0.5025  0.0803 -0.1863
 2905SOL    HW120351   2.002   3.281   7.476 -0.3064 -0.0287  0.3187
 2905SOL    HW220352   2.020   3.170   7.581 -0.1439 -1.0392 -0.4003
 2906SOL     OW20353   3.533   3.201   1.994  0.1084  0.2183 -0.1326
 2906SOL    HW120354   3.534   3.270   1.928 -1.1056  0.9615  0.6527
 2906SOL    HW220355   3.498   3.250   2.067  0.5791 -0.8327  0.8025
 2907SOL     OW20356   2.923   4.387   5.258 -0.0314  0.0463 -0.1688
 2907SOL    HW120357   2.997   4.327   5.246  0.0585 -0.1066  1.1417
 2907SOL    HW220358   2.865   4.337   5.316  1.8939 -0.6236  1.1969
 2908SOL     OW20359   1.591   2.654   6.194  0.4791 -0.1224  0.0010
 2908SOL    HW120360   1.559   2.580   6.143  0.6025 -0.2565  0.1187
 2908SOL    HW220361   1.596   2.611   6.280  2.1954  1.7026  0.8268
 2909SOL     OW20362   3.605   0.641   9.198  0.8629 -0.4377 -0.2750
 2909SOL    HW120363   3.678   0.580   9.210 -0.7705 -2.3620 -0.0729
 2909SOL    HW220364   3.543   0.584   9.153  1.2620 -0.3423 -0.9447
 2910SOL     OW20365   4.161   1.175   6.431 -0.7801 -0.0150 -0.4485
 2910SOL    HW120366   4.091   1.110   6.435 -1.3823  0.5741 -1.7971
 2910SOL    HW220367   4.201   1.144   6.350 -1.0064 -1.5982  0.0383
 2911SOL     OW20368   4.584   3.104   7.785  0.3659 -0.4754 -0.4800
 2911SOL    HW120369   4.528   3.108   7.707 -0.4276  2.4192  0.2454
 2911SOL    HW220370   4.564   3.018   7.822  1.1592 -0.9475 -1.1305
 2912SOL     OW20371   4.500   2.320  11.620  0.2832 -0.1184  0.3106
 2912SOL    HW120372   4.589   2.300  11.592  1.1309  0.5373  2.5499
 2912SOL    HW220373   4.477   2.227  11.616 -1.0506  0.1955  0.7303
 2913SOL     OW20374   4.590   1.875   6.641 -0.2661  0.0327 -0.1502
 2913SOL    HW120375   4.530   1.849   6.711  0.0076 -0.3970 -0.0772
 2913SOL    HW220376   4.538   1.889   6.562 -0.0599  0.0976 -0.2740
 2914SOL     OW20377   3.693   0.920  14.769 -0.8132  0.8064 -0.1960
 2914SOL    HW120378   3.656   0.921  14.857 -1.7601 -2.3074 -0.5805
 2914SOL    HW220379   3.750   0.997  14.767 -0.5767  0.7143  2.6328
 2915SOL     OW20380   3.390   4.099  10.011  0.3323 -0.0212 -0.3930
 2915SOL    HW120381   3.410   4.028  10.072  2.8868 -0.6401 -1.9097
 2915SOL    HW220382   3.333   4.054   9.949  0.3211  0.7374 -0.9391
 2916SOL     OW20383   4.040   1.084   3.581  0.6246  0.3024 -0.3025
 2916SOL    HW120384   4.132   1.061   3.587  0.1481 -1.3520  0.5416
 2916SOL    HW220385   4.039   1.115   3.490  0.5712  3.1611  0.6711
 2917SOL     OW20386   1.807   1.362   5.604  0.0331 -0.1238  0.1018
 2917SOL    HW120387   1.858   1.320   5.673  0.7279  1.7154  0.7073
 2917SOL    HW220388   1.833   1.453   5.619  0.1008 -0.0746 -0.3106
 2918SOL     OW20389   4.412   1.027  11.031 -0.5048  0.3408 -0.6095
 2918SOL    HW120390   4.330   1.020  11.080 -1.1389  3.0049 -1.2535
 2918SOL    HW220391   4.383   0.989  10.947 -1.5062  0.8438 -0.4971
 2919SOL     OW20392   0.996   4.276   2.725 -0.3352  0.0162  0.3214
 2919SOL    HW120393   1.066   4.243   2.781  0.9747  1.3916 -0.5240
 2919SOL    HW220394   1.029   4.260   2.636 -1.1693  1.8252 -0.2958
 2920SOL     OW20395   4.061   1.106   5.541  0.5090 -0.0143  0.3886
 2920SOL    HW120396   3.984   1.111   5.598 -0.5814 -2.2877 -0.9234
 2920SOL    HW220397   4.123   1.088   5.611  0.4146 -1.8633 -0.0109
 2921SOL     OW20398   1.008   4.118   0.228  0.1447  0.5643  0.5258
 2921SOL    HW120399   1.096   4.135   0.194  0.9256 -1.5011  1.4874
 2921SOL    HW220400   0.993   4.040   0.175  0.7032  0.4111  0.5942
 2922SOL     OW20401   4.060   0.522   4.432  0.1310  0.4368  0.9082
 2922SOL    HW120402   4.019   0.443   4.467  0.2521 -0.4567 -0.9556
 2922SOL    HW220403   4.150   0.494   4.415  0.4517  1.9717  0.0355
 2923SOL     OW20404   1.193   3.163  17.296 -0.1625 -0.3044  0.0964
 2923SOL    HW120405   1.170   3.255  17.309 -1.6657 -0.2949 -2.7107
 2923SOL    HW220406   1.128   3.138  17.230 -0.3630 -2.0822  0.9544
 2924SOL     OW20407   2.899   0.311   4.601  0.1514 -0.0423 -0.1224
 2924SOL    HW120408   2.972   0.277   4.653  0.9847  0.4244 -0.9889
 2924SOL    HW220409   2.835   0.239   4.608 -1.3128  1.0976 -1.6655
 2925SOL     OW20410   2.094   3.691   3.102  0.0118  0.3741 -0.1065
 2925SOL    HW120411   2.107   3.777   3.142 -0.0098  0.2113  0.2486
 2925SOL    HW220412   2.030   3.717   3.036  2.3030  2.5708 -1.4544
 2926SOL     OW20413   2.287   2.495   3.666  0.0336 -0.4892 -0.1975
 2926SOL    HW120414   2.219   2.451   3.716 -1.5194  0.3271 -1.5852
 2926SOL    HW220415   2.260   2.586   3.672  0.5335 -0.4428  1.2843
 2927SOL     OW20416   1.991   4.471   3.532 -0.9941 -0.0348  0.2376
 2927SOL    HW120417   1.958   4.394   3.486  1.7165 -1.1399  0.1242
 2927SOL    HW220418   1.915   4.502   3.580 -1.7315 -0.4483 -0.6680
 2928SOL     OW20419   1.973   0.219   4.225  1.0013  0.7168 -0.4430
 2928SOL    HW120420   2.016   0.140   4.191 -0.4809  0.3063 -1.3468
 2928SOL    HW220421   1.962   0.190   4.316 -0.5434  2.1365 -0.1890
 2929SOL     OW20422   0.795   3.368   2.256  0.0405 -0.4909  0.0937
 2929SOL    HW120423   0.784   3.460   2.231 -1.3705 -1.4065 -2.6798
 2929SOL    HW220424   0.851   3.376   2.333  0.1746 -1.1832  0.0646
 2930SOL     OW20425   2.467   1.932   0.697 -0.2204 -0.4428 -0.5040
 2930SOL    HW120426   2.457   1.846   0.737 -0.1889 -0.4668 -0.5480
 2930SOL    HW220427   2.404   1.976   0.755  0.6811  1.3360 -0.8754
 2931SOL     OW20428   2.781   1.086   6.982  0.6324  0.4277  0.5237
 2931SOL    HW120429   2.830   1.085   7.064  1.5816  0.7194 -0.0375
 2931SOL    HW220430   2.796   1.176   6.953  1.1021 -0.1682 -1.1265
 2932SOL     OW20431   4.444   2.592   9.595  0.3111 -0.1443 -0.1108
 2932SOL    HW120432   4.491   2.634   9.667 -0.6342 -2.9838  2.1669
 2932SOL    HW220433   4.426   2.510   9.641  2.4746 -0.7582 -0.3500
 2933SOL     OW20434   2.812   3.077   4.722 -0.5678 -0.1385  0.0378
 2933SOL    HW120435   2.787   3.154   4.772  0.7699  0.7585 -0.6891
 2933SOL    HW220436   2.808   3.106   4.631 -1.0684 -1.1604 -0.2769
 2934SOL     OW20437   2.771   1.235   3.169  0.5806 -0.5501  0.0758
 2934SOL    HW120438   2.756   1.329   3.169 -0.3235 -0.6987  1.1183
 2934SOL    HW220439   2.689   1.213   3.213  0.9736 -1.3344  0.4188
 2935SOL     OW20440   1.436   0.666   2.029  0.1245 -0.0548 -0.2293
 2935SOL    HW120441   1.490   0.599   2.072 -0.3851 -0.9372 -0.9632
 2935SOL    HW220442   1.354   0.618   2.017  0.2567 -0.1119 -0.8664
 2936SOL     OW20443   0.915   1.171   4.654 -0.2768 -0.3884  0.3508
 2936SOL    HW120444   0.893   1.142   4.566 -1.2556  1.6005 -0.0505
 2936SOL    HW220445   0.854   1.119   4.707 -0.5120  1.1371  1.5890
 2937SOL     OW20446   0.774   3.531  15.252 -0.1235 -0.2102 -0.0466
 2937SOL    HW120447   0.741   3.492  15.171 -0.4867  2.3488 -1.1305
 2937SOL    HW220448   0.843   3.467  15.271  1.7570  1.9591  0.3077
 2938SOL     OW20449   2.389   3.482   6.062 -0.4782  0.4127 -0.7325
 2938SOL    HW120450   2.374   3.550   6.128  1.3648 -0.3093  0.4206
 2938SOL    HW220451   2.322   3.421   6.093 -0.2409  0.2157 -0.6128
 2939SOL     OW20452   3.523   2.578   4.007  0.0943  0.1276  0.0594
 2939SOL    HW120453   3.462   2.601   4.077 -0.1047  0.4481 -0.2216
 2939SOL    HW220454   3.468   2.534   3.942  0.1603 -1.6333  1.1830
 2940SOL     OW20455   4.311   1.354   8.022 -0.0864 -0.1300 -0.2189
 2940SOL    HW120456   4.351   1.434   8.055  1.2118 -0.6310 -0.5934
 2940SOL    HW220457   4.300   1.366   7.928 -2.6912  0.4280  0.1634
 2941SOL     OW20458   4.275   1.180   7.244 -0.8107  0.2751 -0.4831
 2941SOL    HW120459   4.201   1.231   7.276 -2.9577 -2.2153 -1.4590
 2941SOL    HW220460   4.246   1.141   7.162  0.5290  2.2548 -1.8812
 2942SOL     OW20461   2.371   3.726   7.328 -0.0316 -0.1733  0.0679
 2942SOL    HW120462   2.338   3.702   7.241 -0.6891  0.9682  0.0025
 2942SOL    HW220463   2.394   3.638   7.356 -0.1710 -0.7522 -1.6108
 2943SOL     OW20464   3.574   2.289  15.674  0.1680 -0.7707  0.0938
 2943SOL    HW120465   3.509   2.223  15.699 -1.2321 -0.5037 -2.8709
 2943SOL    HW220466   3.532   2.303  15.589  1.3308  2.4530  0.0375
 2944SOL     OW20467   0.509   2.560  17.602  0.1616 -0.2225  0.2021
 2944SOL    HW120468   0.549   2.639  17.564 -0.0836  0.1441  0.7101
 2944SOL    HW220469   0.574   2.494  17.579  0.3300  0.4013 -1.1626
 2945SOL     OW20470   3.491   2.062   1.729 -0.1400 -0.0470  0.5155
 2945SOL    HW120471   3.404   2.067   1.690  0.7370 -3.8017 -2.0113
 2945SOL    HW220472   3.480   2.123   1.802 -1.0300  0.3063  0.0909
 2946SOL     OW20473   1.482   1.055  17.386  0.1048 -0.1932 -0.0086
 2946SOL    HW120474   1.523   0.973  17.415 -2.6560 -0.6272  2.6441
 2946SOL    HW220475   1.542   1.105  17.442 -0.2582  0.9202 -0.6097
 2947SOL     OW20476   1.831   0.795   7.795 -0.2837  0.4424 -0.0322
 2947SOL    HW120477   1.875   0.866   7.749  0.5314 -1.2567 -1.8874
 2947SOL    HW220478   1.856   0.723   7.737 -0.1617  0.4500  0.0108
 2948SOL     OW20479   1.550   0.922   7.093  0.4397  0.0233 -0.8539
 2948SOL    HW120480   1.575   0.846   7.145  1.8586  0.9991 -0.1169
 2948SOL    HW220481   1.474   0.885   7.048  0.4141 -0.5363 -0.3475
 2949SOL     OW20482   3.762   1.654   6.511  0.4897 -0.1158  0.4969
 2949SOL    HW120483   3.729   1.578   6.558  0.5017 -0.7555 -0.5405
 2949SOL    HW220484   3.750   1.615   6.424 -1.2963  1.5705 -0.0108
 2950SOL     OW20485   1.854   3.676   8.604  0.4352  0.5595  0.6794
 2950SOL    HW120486   1.932   3.716   8.565  0.8582  0.0815  1.0368
 2950SOL    HW220487   1.881   3.584   8.603 -2.2581 -0.2168 -0.5418
 2951SOL     OW20488   0.388   2.769   0.943  0.2365 -0.0377  0.0187
 2951SOL    HW120489   0.376   2.861   0.916 -0.4352 -0.2145 -0.2900
 2951SOL    HW220490   0.472   2.757   0.898  0.0207 -1.5532  0.0202
 2952SOL     OW20491   2.002   4.613   6.779  0.4186 -0.2607  0.4578
 2952SOL    HW120492   1.944   4.620   6.703  1.8003  1.3897 -0.4553
 2952SOL    HW220493   1.996   4.521   6.804 -1.3770 -0.5502 -0.9955
 2953SOL     OW20494   0.234   1.568   8.897  0.2852 -0.0585 -0.1849
 2953SOL    HW120495   0.253   1.482   8.859  0.6751 -0.6679  1.4204
 2953SOL    HW220496   0.265   1.562   8.987 -1.3766 -1.4732  0.2931
 2954SOL     OW20497   3.091   1.470   2.447  0.3066  0.2462 -0.3419
 2954SOL    HW120498   3.086   1.378   2.474 -0.8043  0.1989 -0.6854
 2954SOL    HW220499   3.080   1.529   2.521  0.9613 -0.8575  0.6275
 2955SOL     OW20500   4.331   0.204   2.838  0.3853 -0.4553  0.0191
 2955SOL    HW120501   4.289   0.122   2.865 -1.3173  0.6494  0.7827
 2955SOL    HW220502   4.395   0.213   2.908  0.4571 -0.7594 -0.0064
 2956SOL     OW20503   2.115   3.573   4.014  0.0372 -0.5398  0.3517
 2956SOL    HW120504   2.025   3.562   4.042  0.0070  2.7230  1.4388
 2956SOL    HW220505   2.109   3.562   3.919  0.5109 -0.5464  0.3190
 2957SOL     OW20506   3.400   2.503   9.244 -0.7716  0.3598  0.2876
 2957SOL    HW120507   3.415   2.478   9.335  1.7822 -2.4888 -0.9123
 2957SOL    HW220508   3.465   2.445   9.206  1.2569  1.6417  1.8205
 2958SOL     OW20509   2.907   0.088   9.851  0.0877  0.0436 -0.0896
 2958SOL    HW120510   2.958   0.008   9.845  1.7147  0.9875  0.9261
 2958SOL    HW220511   2.977   0.154   9.850  0.3829 -0.2628  0.2913
 2959SOL     OW20512   1.525   2.199   2.672 -0.1574 -0.6262 -0.5160
 2959SOL    HW120513   1.603   2.165   2.715  0.5461  2.0256  0.2765
 2959SOL    HW220514   1.468   2.128   2.702 -1.2690  0.8321  0.8302
 2960SOL     OW20515   2.947   4.366   8.045  0.8473  0.4595  0.0456
 2960SOL    HW120516   2.937   4.274   8.069 -3.3113  0.5455 -1.3930
 2960SOL    HW220517   3.027   4.364   7.993  0.1231  0.9536 -1.0787
 2961SOL     OW20518   2.362   1.626   6.642 -0.0633  0.4673 -0.1792
 2961SOL    HW120519   2.266   1.637   6.642 -0.1730 -0.3656 -2.7059
 2961SOL    HW220520   2.378   1.555   6.703 -0.4438  0.2578 -0.3212
 2962SOL     OW20521   1.784   2.285  15.959  0.0444  0.3137 -0.7702
 2962SOL    HW120522   1.716   2.328  15.907  1.2480  1.7609 -1.1662
 2962SOL    HW220523   1.744   2.200  15.978  2.5597 -1.0287 -1.3969
 2963SOL     OW20524   2.254   0.809   9.089 -0.2622 -0.5020 -0.0681
 2963SOL    HW120525   2.248   0.715   9.073  0.3286 -0.3144 -1.4425
 2963SOL    HW220526   2.337   0.828   9.131 -0.0746  0.9663 -1.1199
 2964SOL     OW20527   0.291   1.959   5.880 -0.2800  0.3963  0.1456
 2964SOL    HW120528   0.322   1.942   5.969  0.8463 -0.5878 -0.4409
 2964SOL    HW220529   0.352   2.029   5.855 -1.3311  1.2396 -0.0298
 2965SOL     OW20530   2.556   1.281   4.410 -0.3693  0.1236 -0.0883
 2965SOL    HW120531   2.488   1.325   4.359  1.4355  0.1877 -2.3829
 2965SOL    HW220532   2.517   1.203   4.451  1.2491 -1.2714 -1.2189
 2966SOL     OW20533   2.141   1.140   9.389 -0.4639  0.3707 -0.2146
 2966SOL    HW120534   2.101   1.204   9.331  2.8203  1.8959 -0.8080
 2966SOL    HW220535   2.151   1.068   9.327  3.4239  3.1501 -2.7901
 2967SOL     OW20536   4.259   0.258   7.957 -0.1030 -0.0057  0.2394
 2967SOL    HW120537   4.311   0.331   7.924 -1.1496  0.6552  0.0820
 2967SOL    HW220538   4.306   0.223   8.033  0.5151  1.0528  0.3405
 2968SOL     OW20539   3.326   0.088   5.529  0.0907 -0.2681 -0.2137
 2968SOL    HW120540   3.246   0.136   5.552  1.0563  0.1910  2.2040
 2968SOL    HW220541   3.294   0.030   5.459  1.8327 -1.8098  0.2789
 2969SOL     OW20542   3.116   1.167   6.249 -0.2502 -0.0999 -0.5684
 2969SOL    HW120543   3.127   1.142   6.341 -0.5417 -2.6018 -1.2015
 2969SOL    HW220544   3.195   1.215   6.227 -1.2946  1.8204 -0.0972
 2970SOL     OW20545   3.781   4.232  17.739 -0.3934 -0.4335 -0.6122
 2970SOL    HW120546   3.812   4.156  17.688 -0.4041  0.1159 -1.4409
 2970SOL    HW220547   3.752   4.190   0.074 -0.0071 -0.7738 -0.6467
 2971SOL     OW20548   1.885   1.768   5.530  0.0910 -0.2807 -0.4864
 2971SOL    HW120549   1.876   1.703   5.600 -0.0621  0.6745  0.3779
 2971SOL    HW220550   1.821   1.736   5.466 -0.0660  1.0483 -0.9768
 2972SOL     OW20551   3.550   3.460   6.270  0.1904  0.0074  0.5231
 2972SOL    HW120552   3.515   3.373   6.291  0.4920 -0.7277 -2.0549
 2972SOL    HW220553   3.533   3.500   6.355  0.5832  1.5020 -0.1036
 2973SOL     OW20554   4.377   2.793   7.320 -0.2855 -0.1268 -0.2701
 2973SOL    HW120555   4.465   2.830   7.328 -0.7772  0.8888  0.4231
 2973SOL    HW220556   4.336   2.826   7.399 -0.6587  0.1278 -0.5690
 2974SOL     OW20557   2.911   1.610  16.157 -0.3928  0.0598 -0.4264
 2974SOL    HW120558   2.915   1.678  16.224 -0.4658  1.1681 -1.5429
 2974SOL    HW220559   3.000   1.577  16.150  0.4540  2.5528 -1.2393
 2975SOL     OW20560   1.710   1.177   5.963  0.5611 -0.6579 -0.0228
 2975SOL    HW120561   1.725   1.084   5.982  0.1272 -0.9370 -1.0712
 2975SOL    HW220562   1.785   1.187   5.904  2.4223 -1.6800  2.1380
 2976SOL     OW20563   0.453   0.701   8.461 -0.3753  0.0591  0.1495
 2976SOL    HW120564   0.478   0.794   8.459  4.4906 -1.2601  0.6969
 2976SOL    HW220565   0.365   0.702   8.423 -1.6951 -0.1963  3.1748
 2977SOL     OW20566   4.597   3.019   5.030 -0.8796  0.0222  0.1335
 2977SOL    HW120567   4.602   3.072   5.109  0.5419  1.6001 -1.0100
 2977SOL    HW220568   4.562   3.074   4.959 -0.6394 -0.5531 -0.4296
 2978SOL     OW20569   4.535   3.951   8.697 -0.6643  0.2090  0.0375
 2978SOL    HW120570   4.570   3.937   8.785 -3.2405 -1.6504  0.7980
 2978SOL    HW220571   4.552   4.043   8.679  0.6010  0.0383  0.3985
 2979SOL     OW20572   1.645   0.363   3.401  0.3871 -0.1951 -0.3739
 2979SOL    HW120573   1.644   0.374   3.496 -1.6106 -1.9475 -0.2047
 2979SOL    HW220574   1.716   0.299   3.390  0.3303 -0.2405 -0.4733
 2980SOL     OW20575   1.656   2.740   2.797 -0.3537 -0.1198 -0.6570
 2980SOL    HW120576   1.608   2.734   2.714 -0.5965  1.3017 -0.6189
 2980SOL    HW220577   1.620   2.672   2.854  2.5897 -1.8880 -0.9095
 2981SOL     OW20578   0.221   4.365   0.290  0.5615 -0.0231 -0.0680
 2981SOL    HW120579   0.288   4.405   0.346  0.6887 -0.4109  0.0592
 2981SOL    HW220580   0.152   4.421   0.324 -0.4899 -3.3402  3.3001
 2982SOL     OW20581   4.098   0.882   1.458  0.2952  1.4215 -0.2697
 2982SOL    HW120582   4.128   0.973   1.458  1.1374  1.1439 -1.4056
 2982SOL    HW220583   4.188   0.849   1.455 -1.2955 -2.8172 -0.7333
 2983SOL     OW20584   3.097   4.526   9.291 -0.0679 -0.4211  0.3749
 2983SOL    HW120585   3.131   4.596   9.235  1.7516 -1.0967  0.6348
 2983SOL    HW220586   3.047   4.579   9.353  0.3368 -0.1333  0.4513
 2984SOL     OW20587   0.509   4.699   5.939 -0.0165 -0.4296  0.1064
 2984SOL    HW120588   0.582   4.650   5.977 -0.1777 -1.4680 -0.9401
 2984SOL    HW220589   0.507   4.679   5.846  1.8575  0.4091 -0.1053
 2985SOL     OW20590   4.185   2.369   2.956  0.1099 -0.4466 -0.2346
 2985SOL    HW120591   4.127   2.441   2.980  0.9511 -0.4994  1.9026
 2985SOL    HW220592   4.248   2.420   2.905  0.2757  1.3455  1.7789
 2986SOL     OW20593   2.755   2.292   0.831  0.2352 -0.0644 -0.6481
 2986SOL    HW120594   2.813   2.291   0.755  2.1841  0.9308  0.8077
 2986SOL    HW220595   2.798   2.227   0.887 -3.5071 -1.9873 -0.0438
 2987SOL     OW20596   2.630   2.119   2.325 -0.3995 -0.3434 -0.0653
 2987SOL    HW120597   2.542   2.138   2.293 -1.0686  0.1197  2.0222
 2987SOL    HW220598   2.675   2.202   2.306 -2.7712  0.3947 -2.4212
 2988SOL     OW20599   3.377   2.720   1.586  0.0844  0.6529 -0.0199
 2988SOL    HW120600   3.472   2.731   1.582  0.3246 -1.0236  1.4931
 2988SOL    HW220601   3.371   2.625   1.585 -1.0037  0.7505 -2.7271
 2989SOL     OW20602   3.638   1.686   8.464  0.0714  0.0416 -0.0248
 2989SOL    HW120603   3.595   1.764   8.429 -0.0812 -0.2437 -0.4741
 2989SOL    HW220604   3.674   1.650   8.383  1.9128 -0.1776  0.8796
 2990SOL     OW20605   1.241   2.274   6.479  0.5705  0.8295 -0.2451
 2990SOL    HW120606   1.305   2.206   6.502 -2.5000 -1.9011  0.1893
 2990SOL    HW220607   1.226   2.321   6.561 -1.7128 -1.1257  0.4328
 2991SOL     OW20608   4.558   1.291  11.253 -0.1226  0.1187 -0.0881
 2991SOL    HW120609   4.526   1.372  11.211 -1.6547 -1.7527 -2.5562
 2991SOL    HW220610   4.474   1.245  11.255  1.7376 -3.1328  2.2250
 2992SOL     OW20611   2.795   2.552   8.325  0.2580  0.0664 -0.4365
 2992SOL    HW120612   2.813   2.465   8.359  0.4243  0.4451  0.4372
 2992SOL    HW220613   2.703   2.554   8.298 -1.0050  0.9724  4.0109
 2993SOL     OW20614   4.395   4.215  13.940 -0.0592 -0.4088 -0.4754
 2993SOL    HW120615   4.335   4.147  13.972 -0.1445  0.4435  1.1892
 2993SOL    HW220616   4.433   4.169  13.866  1.8369 -1.4018  1.1103
 2994SOL     OW20617   3.018   2.965   8.086 -0.7181  0.6971  0.4366
 2994SOL    HW120618   2.953   3.035   8.096 -2.4450 -0.8143 -0.2349
 2994SOL    HW220619   3.055   2.971   8.173 -0.0217  1.0641  0.1111
 2995SOL     OW20620   2.766   3.260   2.096  0.2501  0.0550  0.3038
 2995SOL    HW120621   2.690   3.294   2.144  0.0348  0.8668 -0.6050
 2995SOL    HW220622   2.747   3.292   2.008 -1.4928  0.7472  0.9315
 2996SOL     OW20623   3.587   1.963  13.850 -0.9436  0.2445 -0.7479
 2996SOL    HW120624   3.577   1.987  13.942 -0.1795  1.5024 -1.0022
 2996SOL    HW220625   3.571   2.050  13.813 -2.3010 -0.2310 -1.2628
 2997SOL     OW20626   0.437   4.178   2.094 -0.2058 -0.5584 -0.5809
 2997SOL    HW120627   0.391   4.261   2.108 -1.5669 -1.4430  0.1614
 2997SOL    HW220628   0.462   4.143   2.179 -1.8430 -1.4797 -0.4843
 2998SOL     OW20629   0.787   4.324   4.348  0.1713  0.0429  0.1726
 2998SOL    HW120630   0.862   4.308   4.406 -0.9302  1.8310  2.1170
 2998SOL    HW220631   0.726   4.375   4.401 -0.1547 -0.0797 -0.0836
 2999SOL     OW20632   0.547   0.919  13.913  0.2111  0.1352  0.1511
 2999SOL    HW120633   0.517   0.982  13.979 -1.6026  0.5231 -1.0626
 2999SOL    HW220634   0.617   0.865  13.950  1.9669  0.5724 -2.5376
 3000SOL     OW20635   3.554   3.545  16.108  0.2532 -0.3785  0.4493
 3000SOL    HW120636   3.605   3.625  16.127  2.1937 -1.3638 -0.6134
 3000SOL    HW220637   3.554   3.534  16.013  3.5257  1.0531  0.2741
 3001SOL     OW20638   3.020   3.674   3.580 -0.1788 -0.5985 -0.2341
 3001SOL    HW120639   3.036   3.622   3.659  0.2403 -0.8860 -0.5072
 3001SOL    HW220640   2.986   3.747   3.630  0.4496  0.7745 -1.8128
 3002SOL     OW20641   1.018   3.001  11.460 -0.1516 -0.0983  0.3066
 3002SOL    HW120642   1.022   2.905  11.457 -1.8825 -0.1190 -1.2792
 3002SOL    HW220643   0.971   3.023  11.540 -1.5722 -0.7127 -0.3697
 3003SOL     OW20644   1.556   1.377  10.507  0.5316  0.6881  0.3512
 3003SOL    HW120645   1.481   1.377  10.566  0.8039 -0.7283  0.7141
 3003SOL    HW220646   1.580   1.469  10.502 -1.6214  1.1990 -0.9191
 3004SOL     OW20647   2.623   2.771  12.692  0.5051 -0.0252 -0.0087
 3004SOL    HW120648   2.636   2.679  12.668 -1.6158  0.3297 -2.4496
 3004SOL    HW220649   2.583   2.800  12.610  0.4214 -2.8404 -0.9686
 3005SOL     OW20650   3.034   3.202   0.701  0.2734 -0.3698  0.3425
 3005SOL    HW120651   2.992   3.194   0.615  0.2280  0.0330  0.3268
 3005SOL    HW220652   2.976   3.151   0.759 -0.4970  0.3966  0.2431
 3006SOL     OW20653   0.478   2.211   5.736  0.1353 -0.1630  0.1434
 3006SOL    HW120654   0.499   2.291   5.783  1.8900 -0.0786 -0.7582
 3006SOL    HW220655   0.399   2.233   5.687 -1.3814 -2.1780  1.7090
 3007SOL     OW20656   3.818   1.759   2.627  0.2306 -0.2953 -0.1484
 3007SOL    HW120657   3.876   1.824   2.666 -0.3974 -1.2198  2.3252
 3007SOL    HW220658   3.811   1.695   2.698  0.3074 -0.7493 -0.5448
 3008SOL     OW20659   3.582   1.815  16.547 -0.6152 -0.5366 -0.6654
 3008SOL    HW120660   3.580   1.816  16.643 -2.0886 -0.1594 -0.6949
 3008SOL    HW220661   3.493   1.841  16.522 -0.9565 -1.1482 -0.0984
 3009SOL     OW20662   4.515   0.284   5.296  0.1433 -0.0525 -0.0556
 3009SOL    HW120663   4.454   0.338   5.244  0.0112  0.6819  0.8510
 3009SOL    HW220664   4.480   0.198   5.276  1.3989 -0.1548 -1.7934
 3010SOL     OW20665   2.429   2.909  17.661  0.1642 -0.1859 -0.1916
 3010SOL    HW120666   2.460   2.897  17.571  2.9446  2.6145  0.4135
 3010SOL    HW220667   2.422   3.003  17.676 -0.3588 -0.3331  0.4804
 3011SOL     OW20668   3.687   2.502   2.091 -0.3457 -0.0810  0.2617
 3011SOL    HW120669   3.772   2.471   2.121  0.0492 -0.0275 -0.7848
 3011SOL    HW220670   3.632   2.430   2.121 -0.4040 -0.4992 -0.8288
 3012SOL     OW20671   2.995   1.517  14.677  0.1935  0.0107  0.0005
 3012SOL    HW120672   2.902   1.521  14.697  0.7678 -1.6256  3.1383
 3012SOL    HW220673   3.023   1.491  14.765 -1.4104 -1.0301  0.1958
 3013SOL     OW20674   0.864   0.210   4.272 -0.3072  0.4247 -0.1869
 3013SOL    HW120675   0.921   0.194   4.197 -0.3419  0.5774 -0.2459
 3013SOL    HW220676   0.812   0.131   4.261 -1.8743  1.4918 -0.4068
 3014SOL     OW20677   4.394   4.727  15.194  0.1349  0.2903  0.1158
 3014SOL    HW120678   4.440   4.651  15.229 -0.5024  0.6508  1.7485
 3014SOL    HW220679   4.447   0.067  15.216 -1.5043  1.1720  1.0017
 3015SOL     OW20680   1.180   2.531   8.518  0.6026 -0.1712 -0.6192
 3015SOL    HW120681   1.225   2.603   8.562  1.3799 -0.8591 -0.2863
 3015SOL    HW220682   1.117   2.499   8.582  0.8832  0.8237  0.1477
 3016SOL     OW20683   3.627   2.162  16.568 -0.9635 -0.2955  0.0107
 3016SOL    HW120684   3.623   2.115  16.485  1.8287 -0.6026  0.0492
 3016SOL    HW220685   3.540   2.201  16.560 -1.0133 -0.4266 -0.0896
 3017SOL     OW20686   1.428   0.591   7.967  0.0590 -0.3079  0.2952
 3017SOL    HW120687   1.387   0.562   8.049 -1.0438  0.3266 -0.0327
 3017SOL    HW220688   1.424   0.686   7.974 -1.1757 -0.3988  0.8813
 3018SOL     OW20689   2.550   1.751  15.602  0.0044  0.3181 -0.3211
 3018SOL    HW120690   2.530   1.672  15.551  0.0957  0.2393 -0.2331
 3018SOL    HW220691   2.495   1.822  15.569  0.6256  1.1631  0.4776
 3019SOL     OW20692   3.849   4.028   5.280 -0.6562  0.3252  0.0702
 3019SOL    HW120693   3.840   3.936   5.256 -2.5791  0.3315  0.7666
 3019SOL    HW220694   3.905   4.049   5.206  0.1089 -1.9006  0.0105
 3020SOL     OW20695   3.019   0.028   5.579 -0.4624  0.3947  0.0764
 3020SOL    HW120696   3.044   4.697   5.517 -1.4433  0.3044 -0.2294
 3020SOL    HW220697   3.009   4.726   5.666  1.9864  0.1534  0.2542
 3021SOL     OW20698   3.077   3.955   0.888  0.5068 -0.1072  0.1340
 3021SOL    HW120699   3.077   3.860   0.874  0.4921  0.1547 -1.6063
 3021SOL    HW220700   2.983   3.972   0.894  0.2012 -1.5859 -0.3981
 3022SOL     OW20701   2.743   3.287   4.519 -0.0010 -0.0291  0.3297
 3022SOL    HW120702   2.693   3.356   4.564 -0.2233 -0.1639  0.2890
 3022SOL    HW220703   2.673   3.244   4.469 -2.2581  2.6652  1.1098
 3023SOL     OW20704   0.113   1.991  12.093 -0.4398 -0.0391 -0.4152
 3023SOL    HW120705   0.072   1.977  12.007  0.7450 -0.2194 -0.9567
 3023SOL    HW220706   0.154   1.910  12.121 -1.7579 -0.8349 -0.8101
 3024SOL     OW20707   0.547   0.480   9.342 -0.1271  0.2864 -0.3064
 3024SOL    HW120708   0.598   0.399   9.350 -1.1989 -0.3383  0.0871
 3024SOL    HW220709   0.520   0.497   9.432  1.1307 -0.9499  0.3114
 3025SOL     OW20710   2.627   1.707   5.701  0.4803  0.9486  0.1237
 3025SOL    HW120711   2.707   1.656   5.714 -0.0433 -0.3011 -1.5693
 3025SOL    HW220712   2.661   1.792   5.673  2.7437  0.4967  1.4884
 3026SOL     OW20713   1.053   3.960   3.735  0.1600  0.4762  0.1805
 3026SOL    HW120714   0.968   4.000   3.752  0.2672  0.5241  0.5959
 3026SOL    HW220715   1.119   4.013   3.780 -0.3232  1.8971 -0.7643
 3027SOL     OW20716   0.910   1.919   2.848  0.5098 -0.3405 -0.1826
 3027SOL    HW120717   0.895   2.012   2.829  0.2382 -0.4808 -0.6640
 3027SOL    HW220718   0.928   1.924   2.942  1.3636 -0.4508 -0.3338
 3028SOL     OW20719   3.484   0.517  15.736  0.4298  0.1171 -0.2621
 3028SOL    HW120720   3.492   0.565  15.819  1.2945 -0.2043 -0.1633
 3028SOL    HW220721   3.526   0.433  15.752  3.9729  1.5132 -2.1437
 3029SOL     OW20722   4.580   4.616  14.214  0.7531  0.3460  0.0416
 3029SOL    HW120723   4.580   4.530  14.172  0.7393  0.4741 -0.2234
 3029SOL    HW220724   4.521   4.656  14.150 -0.0084 -2.0749 -0.7889
 3030SOL     OW20725   3.408   3.819   9.373  0.1465  0.0795  0.2588
 3030SOL    HW120726   3.496   3.781   9.372  0.3235  0.4351  3.0204
 3030SOL    HW220727   3.353   3.744   9.397  0.8536  0.2610  2.4611
 3031SOL     OW20728   1.955   0.718  12.153  0.3766 -0.1960  0.1884
 3031SOL    HW120729   2.038   0.752  12.121 -0.6988  0.6588 -1.7155
 3031SOL    HW220730   1.937   0.642  12.098 -0.5801 -0.6504  1.1298
 3032SOL     OW20731   2.496   3.675   7.677 -0.0353  0.3681  0.4962
 3032SOL    HW120732   2.415   3.700   7.721 -0.3131  0.0413  0.1827
 3032SOL    HW220733   2.530   3.763   7.689  2.0186 -0.4971  0.9533
 3033SOL     OW20734   2.708   4.630   9.225  0.9962 -0.8274 -0.6127
 3033SOL    HW120735   2.722   4.536   9.217 -0.3213 -1.1124  0.3758
 3033SOL    HW220736   2.794   4.663   9.250 -0.5514  1.2021  2.0535
 3034SOL     OW20737   2.965   0.717   5.065  0.2068  0.6387  0.2979
 3034SOL    HW120738   2.917   0.796   5.088 -0.3765  0.8102 -1.4926
 3034SOL    HW220739   3.012   0.760   4.992  0.6113 -0.6055 -0.1739
 3035SOL     OW20740   1.968   3.402   4.332  0.3345 -0.0969 -0.2083
 3035SOL    HW120741   1.946   3.314   4.302 -1.9738 -0.1938  1.7746
 3035SOL    HW220742   1.881   3.434   4.307  1.0628  0.9111 -1.4472
 3036SOL     OW20743   3.778   0.206   7.112 -0.0643  0.0878 -0.8986
 3036SOL    HW120744   3.779   0.301   7.102 -0.8288  0.0242 -1.6334
 3036SOL    HW220745   3.695   0.184   7.071  0.5808 -0.7934 -1.7602
 3037SOL     OW20746   4.716   1.635   1.500  0.1521  0.2410 -0.3544
 3037SOL    HW120747   0.037   1.560   1.516 -2.0777 -1.4619 -0.3741
 3037SOL    HW220748   0.052   1.696   1.488 -0.2871  1.0788  1.3309
 3038SOL     OW20749   0.490   0.465   3.843 -0.2172  0.3433 -0.2534
 3038SOL    HW120750   0.486   0.532   3.774 -0.9016 -0.2184 -0.7639
 3038SOL    HW220751   0.580   0.478   3.872 -0.4804  2.9197 -0.5698
 3039SOL     OW20752   4.714   3.878   4.326  0.2000  0.1863 -0.1570
 3039SOL    HW120753   0.007   3.865   4.236  0.5812  0.1644 -0.0246
 3039SOL    HW220754   4.711   3.787   4.354  3.8818 -0.1784 -1.0625
 3040SOL     OW20755   1.978   0.099   4.492 -0.1644  0.5042  0.4538
 3040SOL    HW120756   1.910   0.032   4.489  1.7682 -1.6176  3.4283
 3040SOL    HW220757   2.006   0.086   4.583 -0.1457  0.4246  0.4370
 3041SOL     OW20758   3.261   2.341   2.223 -0.6876 -0.3263 -0.3272
 3041SOL    HW120759   3.296   2.430   2.231  0.1754 -0.5962 -1.0438
 3041SOL    HW220760   3.286   2.295   2.303 -1.0312  0.0757  0.0084
 3042SOL     OW20761   0.442   0.531   0.475 -0.2324  0.0406 -0.0745
 3042SOL    HW120762   0.358   0.513   0.431  0.1003 -0.2786 -0.5818
 3042SOL    HW220763   0.500   0.515   0.400 -0.6055  1.1562 -0.6107
 3043SOL     OW20764   1.479   1.635   6.020 -0.2239 -0.1622 -0.4197
 3043SOL    HW120765   1.454   1.683   6.099 -0.0664 -0.9826  0.1223
 3043SOL    HW220766   1.397   1.587   6.006 -1.2850  0.6449  2.9010
 3044SOL     OW20767   2.288   2.378   8.645 -0.4943 -0.4767 -0.3204
 3044SOL    HW120768   2.219   2.318   8.616 -1.5671  0.1841  0.8464
 3044SOL    HW220769   2.320   2.408   8.560 -2.1806 -2.2969 -1.6023
 3045SOL     OW20770   0.054   2.030   0.917 -0.2493 -0.2463  0.7025
 3045SOL    HW120771   0.057   1.934   0.917  0.2177 -0.2365  2.4325
 3045SOL    HW220772   0.127   2.054   0.973  1.4752 -0.8028 -1.3477
 3046SOL     OW20773   1.351   3.309  16.999 -0.3008  0.2523  0.1451
 3046SOL    HW120774   1.265   3.290  17.035 -1.0359  0.4135 -1.5320
 3046SOL    HW220775   1.332   3.305  16.905  2.2450 -2.5123 -0.2650
 3047SOL     OW20776   2.444   0.033   7.742 -0.0633  0.1489 -0.1742
 3047SOL    HW120777   2.470   0.022   7.833  0.8770 -0.0831 -0.4713
 3047SOL    HW220778   2.351   0.008   7.748  0.1887 -1.0537 -1.2024
 3048SOL     OW20779   4.085   2.676   6.146 -0.5528 -0.2244 -0.0781
 3048SOL    HW120780   4.156   2.645   6.202  1.1669  1.0273 -1.6012
 3048SOL    HW220781   4.045   2.596   6.110 -1.0427 -0.3125  0.6543
 3049SOL     OW20782   3.283   3.787  17.441 -0.2275  0.4657  0.1726
 3049SOL    HW120783   3.294   3.714  17.502  1.4020 -0.2326 -0.9518
 3049SOL    HW220784   3.348   3.772  17.372 -1.2352  0.6287 -0.8216
 3050SOL     OW20785   1.702   1.606   4.507 -0.4174 -0.0090 -0.6662
 3050SOL    HW120786   1.643   1.553   4.561  2.0630 -0.7973  1.2303
 3050SOL    HW220787   1.741   1.545   4.445  1.6114  2.2312 -1.5851
 3051SOL     OW20788   0.819   4.542  12.359  0.1499 -0.7088  0.1213
 3051SOL    HW120789   0.725   4.534  12.377 -0.0125 -0.4955 -0.6106
 3051SOL    HW220790   0.862   4.500  12.433 -2.2788  0.9089  2.4199
 3052SOL     OW20791   1.896   2.487   7.678 -0.5425 -0.2854 -0.0649
 3052SOL    HW120792   1.866   2.545   7.748  0.0982  0.8266 -0.6975
 3052SOL    HW220793   1.832   2.506   7.609 -0.3585  0.8063  0.0540
 3053SOL     OW20794   3.718   4.063   4.655  0.2205 -0.2808  0.1964
 3053SOL    HW120795   3.770   3.983   4.667  1.2093  0.5552  1.4734
 3053SOL    HW220796   3.641   4.033   4.703 -2.3490  0.7480 -3.3150
 3054SOL     OW20797   0.426   1.520   4.559 -0.4087  0.3633  0.2479
 3054SOL    HW120798   0.481   1.547   4.633 -0.9607  2.9853 -0.2958
 3054SOL    HW220799   0.471   1.438   4.540 -1.0139  0.4937 -1.7478
 3055SOL     OW20800   0.262   0.826   1.644  0.2652 -0.0397  0.4290
 3055SOL    HW120801   0.351   0.825   1.609 -0.6260  0.8606 -1.8303
 3055SOL    HW220802   0.267   0.909   1.690 -0.3000  0.9804 -1.3482
 3056SOL     OW20803   0.875   3.216   2.042  0.1251  0.4286  0.1426
 3056SOL    HW120804   0.917   3.154   2.101  0.7697  2.0055  1.3494
 3056SOL    HW220805   0.820   3.266   2.102  1.6024  0.8915  1.1104
 3057SOL     OW20806   4.560   3.665   6.944  0.0804 -0.0318 -0.2910
 3057SOL    HW120807   4.590   3.756   6.953 -1.3865  0.2316  2.0386
 3057SOL    HW220808   4.466   3.678   6.954  0.3860 -0.1242  2.8297
 3058SOL     OW20809   1.845   0.853  11.643  0.5667  0.1631  0.2697
 3058SOL    HW120810   1.899   0.895  11.710 -0.9596  3.1137 -0.3692
 3058SOL    HW220811   1.771   0.815  11.691  0.2174  1.4558  0.7576
 3059SOL     OW20812   0.430   4.428   5.429 -0.4221  0.2084  0.4439
 3059SOL    HW120813   0.494   4.499   5.426 -1.0614  0.9082  3.2853
 3059SOL    HW220814   0.350   4.468   5.397  0.8127  2.6298  0.4296
 3060SOL     OW20815   3.726   0.405   7.851 -0.0240 -0.6615  0.1757
 3060SOL    HW120816   3.738   0.321   7.807  3.5137  0.9691 -2.0107
 3060SOL    HW220817   3.752   0.379   7.939  2.8474 -0.2109 -0.5404
 3061SOL     OW20818   0.871   4.073   4.722  0.2329  0.1777 -0.2251
 3061SOL    HW120819   0.854   4.136   4.792  0.0606  0.6196 -0.6577
 3061SOL    HW220820   0.834   3.999   4.770 -1.3241  0.9574 -0.2168
 3062SOL     OW20821   3.487   1.193   2.201 -0.0382 -0.6717 -0.0134
 3062SOL    HW120822   3.440   1.217   2.121  1.6310  1.7211 -0.3005
 3062SOL    HW220823   3.471   1.100   2.218 -1.1109 -0.5943 -0.5966
 3063SOL     OW20824   3.762   0.458   1.147  0.0629 -0.6050 -0.2889
 3063SOL    HW120825   3.682   0.436   1.195  1.1258 -0.2665  1.6498
 3063SOL    HW220826   3.756   0.394   1.077  1.6760  2.0135 -2.8042
 3064SOL     OW20827   0.236   2.196   3.400  0.2539  0.2972  0.2268
 3064SOL    HW120828   0.281   2.258   3.457  2.2167 -0.0908 -0.9049
 3064SOL    HW220829   0.246   2.239   3.315  3.0255  0.3305  0.5711
 3065SOL     OW20830   1.486   1.468   1.038 -0.3046  0.2970  0.2223
 3065SOL    HW120831   1.490   1.453   1.132 -1.0720  1.2901  0.4066
 3065SOL    HW220832   1.402   1.514   1.035  0.0637  0.8280 -1.9754
 3066SOL     OW20833   1.868   1.850   1.999 -0.1543 -0.1761 -0.3739
 3066SOL    HW120834   1.794   1.907   2.020  1.6640  2.2213 -0.4791
 3066SOL    HW220835   1.849   1.833   1.907  1.2418  0.0580 -0.7005
 3067SOL     OW20836   1.304   2.046   4.055  0.0292 -0.0921 -0.0154
 3067SOL    HW120837   1.374   2.045   4.120 -1.0927  2.0109  1.2435
 3067SOL    HW220838   1.241   2.104   4.098 -1.8657 -1.5362 -0.8591
 3068SOL     OW20839   4.299   2.893  10.079 -0.6412  0.2393 -0.1016
 3068SOL    HW120840   4.292   2.844  10.161 -1.9019  0.0496 -0.3156
 3068SOL    HW220841   4.343   2.974  10.105 -2.4513 -0.0542  3.8012
 3069SOL     OW20842   3.825   3.924  13.559  0.3276  0.9270 -0.2794
 3069SOL    HW120843   3.882   3.909  13.635  0.4820  2.1272 -0.1622
 3069SOL    HW220844   3.835   3.840  13.514  1.0546  0.4276  0.8232
 3070SOL     OW20845   1.935   2.008  13.864 -0.7377 -0.6447  0.1065
 3070SOL    HW120846   1.852   2.035  13.905 -0.9884  2.2301 -2.3187
 3070SOL    HW220847   1.911   1.944  13.797  2.5947 -1.6419 -0.1375
 3071SOL     OW20848   1.368   3.772   1.134  0.2614 -0.4862  0.2690
 3071SOL    HW120849   1.414   3.801   1.213 -1.0269 -2.2512  1.6600
 3071SOL    HW220850   1.419   3.695   1.108  0.2460  0.1819 -1.7629
 3072SOL     OW20851   0.987   4.422   2.039  0.1247 -0.0550 -0.2983
 3072SOL    HW120852   1.061   4.385   1.990  1.0922  2.2675 -0.5779
 3072SOL    HW220853   0.913   4.395   1.984  0.0015  0.0940 -0.2056
 3073SOL     OW20854   2.624   1.013   7.302  0.1119 -0.0850 -0.3306
 3073SOL    HW120855   2.585   1.079   7.359  0.5738  0.0229 -0.1427
 3073SOL    HW220856   2.550   0.963   7.267  0.9704 -1.0170 -0.8217
 3074SOL     OW20857   2.048   2.909   7.572 -0.2302 -0.2400  0.2616
 3074SOL    HW120858   1.996   2.987   7.550 -0.7688 -0.5790  0.3510
 3074SOL    HW220859   2.046   2.909   7.667 -0.5309 -2.8523  0.2498
 3075SOL     OW20860   0.125   1.713   8.375 -0.1352  0.4011 -0.6731
 3075SOL    HW120861   0.219   1.732   8.380 -0.1018 -0.4277  1.8780
 3075SOL    HW220862   0.107   1.718   8.469 -0.1974  2.1033 -0.7834
 3076SOL     OW20863   1.911   0.117   9.143  0.0194  0.2087 -0.4301
 3076SOL    HW120864   1.903   0.021   9.144  2.2339  0.0182  0.0862
 3076SOL    HW220865   1.947   0.118   9.054 -2.1506  4.6239 -1.2390
 3077SOL     OW20866   2.623   3.711  12.851  0.0122  0.1807  0.0066
 3077SOL    HW120867   2.590   3.758  12.775 -0.4749 -2.0157 -1.1584
 3077SOL    HW220868   2.713   3.690  12.826  0.0826 -0.4258  0.7734
 3078SOL     OW20869   3.731   0.262  15.058  0.4432  0.4923  1.0295
 3078SOL    HW120870   3.673   0.302  14.994 -0.6539 -0.8456  1.1843
 3078SOL    HW220871   3.683   0.180  15.071 -0.9064  0.8297 -1.7820
 3079SOL     OW20872   1.417   2.798  17.092  0.2731 -0.2964 -0.4106
 3079SOL    HW120873   1.368   2.791  17.010  0.5616  2.3917 -0.8243
 3079SOL    HW220874   1.423   2.894  17.093 -1.8943 -0.1415 -1.8348
 3080SOL     OW20875   1.672   0.005  15.711 -0.1260  0.2422  0.0684
 3080SOL    HW120876   1.719   4.671  15.755 -0.4400 -0.4292 -0.6717
 3080SOL    HW220877   1.672   4.702  15.624 -1.3241  2.0096 -0.7173
 3081SOL     OW20878   1.246   3.563  10.844  0.2853  0.2836  0.2360
 3081SOL    HW120879   1.304   3.633  10.813  0.2807  0.3262  0.3219
 3081SOL    HW220880   1.163   3.603  10.868  0.8056  0.5122  1.6605
 3082SOL     OW20881   2.522   1.868   7.047 -0.1757  0.1679  0.1977
 3082SOL    HW120882   2.558   1.799   6.991  1.4646 -0.7280  2.3753
 3082SOL    HW220883   2.482   1.926   6.982 -0.3864 -0.0273  0.1487
 3083SOL     OW20884   0.404   0.244   8.435 -0.3302  1.2252 -0.0386
 3083SOL    HW120885   0.316   0.274   8.457 -1.9084 -1.1620 -3.1353
 3083SOL    HW220886   0.436   0.232   8.524 -0.8338  0.5412  0.0471
 3084SOL     OW20887   4.501   2.751  10.607  0.1577  0.2630  0.1995
 3084SOL    HW120888   4.577   2.808  10.616 -1.6060  1.9123  4.6413
 3084SOL    HW220889   4.546   2.669  10.630  0.8769  1.1203  1.8613
 3085SOL     OW20890   0.802   2.301  14.710  0.2392 -0.1751 -0.1885
 3085SOL    HW120891   0.822   2.257  14.793  0.4321 -1.5836 -0.9727
 3085SOL    HW220892   0.835   2.234  14.649  1.6773  1.0522 -0.7469
 3086SOL     OW20893   3.143   1.726   7.581 -0.5997 -0.3451  0.0626
 3086SOL    HW120894   3.232   1.746   7.609  0.5460 -2.1280 -2.3125
 3086SOL    HW220895   3.141   1.630   7.586 -0.5303 -0.2771  1.3445
 3087SOL     OW20896   4.299   3.467   4.447  0.1952 -0.1923 -0.1563
 3087SOL    HW120897   4.271   3.551   4.481 -1.3664 -0.6416 -0.3416
 3087SOL    HW220898   4.384   3.483   4.489  0.9848  3.3474 -3.0293
 3088SOL     OW20899   0.596   4.412   4.713  0.0230 -0.3103 -0.4623
 3088SOL    HW120900   0.598   4.462   4.631 -2.0424 -1.5364 -1.2535
 3088SOL    HW220901   0.650   4.467   4.770  0.8341  0.1345 -1.6648
 3089SOL     OW20902   4.701   0.864   9.394 -0.7645 -0.0312  0.3180
 3089SOL    HW120903   4.716   0.835   9.304  1.8466 -0.0672  0.7803
 3089SOL    HW220904   4.608   0.841   9.398 -0.5159 -0.8717  1.2121
 3090SOL     OW20905   2.318   2.982  12.396 -0.2643  0.2469 -0.1445
 3090SOL    HW120906   2.250   2.941  12.343 -1.2046 -0.1303  1.3520
 3090SOL    HW220907   2.270   3.007  12.475 -0.4625  0.9657 -0.4859
 3091SOL     OW20908   4.310   3.230  13.723 -0.1183 -0.3085  0.5603
 3091SOL    HW120909   4.248   3.271  13.663  0.2320 -0.4927  0.0819
 3091SOL    HW220910   4.264   3.240  13.807  0.7140  0.6547  0.8959
 3092SOL     OW20911   0.060   0.693   7.550 -0.0813  0.0541  0.1934
 3092SOL    HW120912   4.702   0.691   7.564 -0.0977  0.5275  0.1526
 3092SOL    HW220913   0.065   0.786   7.573 -0.9542  0.1806 -0.1615
 3093SOL     OW20914   0.030   4.309   1.335 -0.0063  0.4022  0.3161
 3093SOL    HW120915   0.075   4.239   1.287  1.0471  0.8433  0.6488
 3093SOL    HW220916   4.721   4.260   1.404  3.3043 -2.9069  0.1565
 3094SOL     OW20917   0.588   2.253   6.784 -0.2904  0.1887 -0.0953
 3094SOL    HW120918   0.632   2.317   6.840  1.2579  0.1754 -1.2928
 3094SOL    HW220919   0.509   2.236   6.836 -0.4734  0.8569 -0.1531
 3095SOL     OW20920   1.402   2.991   7.292 -0.2889 -0.2432  0.1611
 3095SOL    HW120921   1.321   2.968   7.338 -0.2927  2.4879  1.5322
 3095SOL    HW220922   1.412   3.086   7.300 -0.4131 -0.3134  1.1945
 3096SOL     OW20923   0.723   1.503   7.757  0.0330  0.1202  0.5713
 3096SOL    HW120924   0.707   1.458   7.840  0.7299  1.2032  1.2767
 3096SOL    HW220925   0.771   1.437   7.707 -0.6772 -2.1188  2.8226
 3097SOL     OW20926   1.234   1.976   2.885  0.3660 -0.2737  0.0283
 3097SOL    HW120927   1.214   1.975   2.791 -3.0752  0.9587  0.7616
 3097SOL    HW220928   1.182   1.899   2.908  1.0414 -0.5312  0.6807
 3098SOL     OW20929   2.079   1.333   7.532  0.5880 -0.1690 -0.6178
 3098SOL    HW120930   2.095   1.333   7.438 -0.3585  1.5074 -0.7846
 3098SOL    HW220931   2.158   1.284   7.554  0.7688  0.9736  1.3112
 3099SOL     OW20932   2.768   0.111   3.312  0.1959  0.0128 -0.0576
 3099SOL    HW120933   2.811   0.183   3.359  1.2381 -0.4794 -0.2465
 3099SOL    HW220934   2.796   0.121   3.221  0.6317 -1.5890 -0.1168
 3100SOL     OW20935   3.266   4.337   7.408 -0.1040 -0.2772 -0.2827
 3100SOL    HW120936   3.300   4.308   7.492 -3.8708 -3.6340  0.0576
 3100SOL    HW220937   3.260   4.431   7.427  1.6386 -0.0853 -0.6952
 3101SOL     OW20938   4.101   2.889  12.004  0.0860 -0.0429  0.0040
 3101SOL    HW120939   4.129   2.820  12.064  0.7199 -0.0782 -0.3393
 3101SOL    HW220940   4.117   2.966  12.058 -0.1963 -0.8291  1.2125
 3102SOL     OW20941   0.171   2.843   6.400  0.2223 -0.1445 -0.0501
 3102SOL    HW120942   0.168   2.783   6.475 -2.7853 -0.5449 -0.4870
 3102SOL    HW220943   0.242   2.903   6.423 -0.1052  0.6867 -1.2447
 3103SOL     OW20944   0.842   1.041   3.656 -0.1505 -0.4996 -0.0383
 3103SOL    HW120945   0.760   1.009   3.618 -0.8294 -0.3475  1.2804
 3103SOL    HW220946   0.848   1.127   3.614 -1.4302  0.6722  2.1587
 3104SOL     OW20947   1.896   2.537  17.432  0.3397  0.2573  0.2292
 3104SOL    HW120948   1.923   2.606  17.492 -1.5295  0.5444  0.7139
 3104SOL    HW220949   1.884   2.464  17.493  1.7131  0.9965  1.4063
 3105SOL     OW20950   4.281   2.804   9.303 -0.3716 -0.2232 -0.2608
 3105SOL    HW120951   4.207   2.755   9.266  1.2645 -1.9135 -1.3475
 3105SOL    HW220952   4.239   2.877   9.348 -1.5074 -0.0647 -1.5690
 3106SOL     OW20953   4.206   0.269   3.732  0.0672 -0.6741 -0.3262
 3106SOL    HW120954   4.130   0.318   3.762  0.2535 -1.5184  1.5336
 3106SOL    HW220955   4.238   0.236   3.817  0.1861  0.5585  0.1099
 3107SOL     OW20956   1.363   1.788   7.211  0.5899  0.1092  0.1649
 3107SOL    HW120957   1.413   1.819   7.286  1.8531 -1.1641 -0.1619
 3107SOL    HW220958   1.383   1.695   7.210 -1.5506 -0.3506 -1.1585
 3108SOL     OW20959   3.890   0.744  15.460 -0.0750  0.6592 -0.1453
 3108SOL    HW120960   3.857   0.780  15.542 -1.4107  0.2643 -0.5102
 3108SOL    HW220961   3.902   0.824  15.408  1.4432  0.2896 -0.3633
 3109SOL     OW20962   4.419   0.565   6.319 -0.4422 -0.0887 -0.0613
 3109SOL    HW120963   4.463   0.600   6.396 -1.8351 -1.0335  1.1466
 3109SOL    HW220964   4.462   0.481   6.304 -0.3491 -0.0172 -0.1964
 3110SOL     OW20965   0.034   0.615  16.935  0.4213  0.0430  0.0911
 3110SOL    HW120966   0.115   0.667  16.941 -0.1641  0.7857  1.4955
 3110SOL    HW220967   4.706   0.673  16.896 -0.3908 -0.8002  0.1844
 3111SOL     OW20968   1.516   2.551  12.678 -0.2461 -0.2671  0.4269
 3111SOL    HW120969   1.563   2.522  12.756  2.2072  0.8126 -0.6412
 3111SOL    HW220970   1.496   2.639  12.708 -1.7575 -0.6579  0.5739
 3112SOL     OW20971   0.975   3.707   4.376 -0.3289  0.3138 -0.3153
 3112SOL    HW120972   1.036   3.698   4.303 -0.5136  0.2473 -0.4628
 3112SOL    HW220973   1.025   3.781   4.409 -0.2067  0.2437 -0.3452
 3113SOL     OW20974   2.857   0.933   6.464 -0.4982 -0.6403 -0.7686
 3113SOL    HW120975   2.797   0.987   6.412 -1.6269  0.9960  2.2310
 3113SOL    HW220976   2.835   0.975   6.547  0.3081 -0.9524 -0.4005
 3114SOL     OW20977   1.893   1.733   8.262 -0.1934  0.1343 -0.3561
 3114SOL    HW120978   1.951   1.782   8.204  2.5058 -2.2204  0.3372
 3114SOL    HW220979   1.908   1.642   8.236  1.4518  0.2582  0.1510
 3115SOL     OW20980   0.259   4.513   7.949 -0.2190  0.5762 -0.8327
 3115SOL    HW120981   0.213   4.547   8.025  0.9386 -1.4493  0.7825
 3115SOL    HW220982   0.289   4.593   7.907  0.9649  1.2875  1.4415
 3116SOL     OW20983   0.633   4.214   9.233 -0.4772  0.2313 -0.3487
 3116SOL    HW120984   0.645   4.121   9.212 -0.3524  0.2988 -0.5785
 3116SOL    HW220985   0.569   4.208   9.303 -0.5673 -0.0703 -0.4577
 3117SOL     OW20986   1.909   3.489   5.707 -0.7527  0.0490 -0.1858
 3117SOL    HW120987   1.841   3.540   5.751 -1.1131  0.7724 -1.6112
 3117SOL    HW220988   1.920   3.407   5.756 -0.5327  0.5551  0.6130
 3118SOL     OW20989   2.852   2.129   1.032 -0.3791  0.4142  0.5469
 3118SOL    HW120990   2.896   2.104   1.114 -0.7551 -1.5681  0.1313
 3118SOL    HW220991   2.789   2.059   1.016 -0.7894  0.8861  0.0774
 3119SOL     OW20992   1.142   0.745   3.197  0.2262 -0.0188 -0.0747
 3119SOL    HW120993   1.081   0.818   3.198  2.5962  1.9378  0.6791
 3119SOL    HW220994   1.139   0.708   3.285 -0.2886 -0.0681 -0.1122
 3120SOL     OW20995   2.777   2.823   0.994 -0.1406 -0.3075  0.6186
 3120SOL    HW120996   2.789   2.813   1.089 -0.5500  1.1418  0.8209
 3120SOL    HW220997   2.825   2.748   0.960  2.8008  1.5738  0.6749
 3121SOL     OW20998   3.558   4.106   6.919 -0.0325 -0.0549 -0.0601
 3121SOL    HW120999   3.543   4.013   6.900 -1.9050  0.2719 -0.0933
 3121SOL    HW221000   3.650   4.105   6.946 -0.4435 -3.9646  1.2059
 3122SOL     OW21001   3.469   2.465   7.116  0.1305  0.4201 -0.3767
 3122SOL    HW121002   3.448   2.389   7.062 -0.5378  0.3911 -0.0705
 3122SOL    HW221003   3.507   2.423   7.193  1.2844  0.4620 -0.9205
 3123SOL     OW21004   0.779   4.468  16.124 -0.4043 -0.6459 -0.7178
 3123SOL    HW121005   0.824   4.539  16.169  0.2642  0.7685 -3.6144
 3123SOL    HW221006   0.830   4.393  16.153 -1.2557 -0.4270  1.3219
 3124SOL     OW21007   4.221   1.050   6.186 -0.2165  0.2032 -0.4859
 3124SOL    HW121008   4.294   0.989   6.175 -0.5822  0.0255 -1.9083
 3124SOL    HW221009   4.149   0.991   6.164  1.6619 -1.6170 -1.6829
 3125SOL     OW21010   0.005   2.499   5.238 -0.4265 -0.2223  0.4596
 3125SOL    HW121011   0.045   2.415   5.216  2.2674  1.2364 -0.2198
 3125SOL    HW221012   4.648   2.481   5.236  0.0495 -2.5067 -0.6914
 3126SOL     OW21013   1.546   4.695   5.221  0.1673  0.5175 -0.2583
 3126SOL    HW121014   1.641   4.703   5.227  0.3242 -2.0291  0.4478
 3126SOL    HW221015   1.515   0.049   5.217 -2.0911 -0.1780  1.1773
 3127SOL     OW21016   1.114   1.522   4.929 -0.9471  0.4591 -0.3410
 3127SOL    HW121017   1.130   1.491   5.018 -0.7864  0.3560 -0.4061
 3127SOL    HW221018   1.020   1.505   4.924 -0.2522 -2.8962 -2.2898
 3128SOL     OW21019   3.523   4.413  11.897  0.0208  0.1438  0.3117
 3128SOL    HW121020   3.540   4.452  11.811  0.3698  0.4810  0.5341
 3128SOL    HW221021   3.454   4.347  11.888 -1.2030  1.6603 -1.6613
 3129SOL     OW21022   0.077   4.487   9.118  0.0211 -0.8306 -0.2308
 3129SOL    HW121023   0.051   4.560   9.061  0.8985  0.9763  1.6802
 3129SOL    HW221024   0.003   4.431   9.139  1.1137 -1.5857  1.5640
 3130SOL     OW21025   4.605   2.369  13.802 -0.7443 -0.2742 -0.6358
 3130SOL    HW121026   4.555   2.299  13.761 -1.7868  1.2812 -2.0388
 3130SOL    HW221027   4.545   2.415  13.862 -0.3680 -1.2234  0.4716
 3131SOL     OW21028   3.169   0.793   6.785 -0.0349  0.4545 -0.2730
 3131SOL    HW121029   3.150   0.848   6.708  0.8971  0.3330 -0.5920
 3131SOL    HW221030   3.142   0.855   6.853 -0.5647 -1.5628  1.3552
 3132SOL     OW21031   2.319   3.900  14.280  0.4615 -0.7116 -0.3027
 3132SOL    HW121032   2.414   3.898  14.288  0.6036  0.1033 -1.7488
 3132SOL    HW221033   2.301   3.889  14.373  2.0938  0.3433  0.1284
 3133SOL     OW21034   2.453   0.102   3.170  0.3372 -0.2658 -0.5290
 3133SOL    HW121035   2.476   0.066   3.255 -0.3415 -0.1431 -0.2972
 3133SOL    HW221036   2.501   0.184   3.179 -1.1106  0.5155  0.0593
 3134SOL     OW21037   1.979   3.041   8.041  0.2645  0.4887  0.2611
 3134SOL    HW121038   1.894   3.019   8.002  1.1405  0.8234 -1.8418
 3134SOL    HW221039   1.991   2.960   8.092 -0.8310  0.7633  0.9481
 3135SOL     OW21040   0.230   2.802   0.665  0.3108  0.2222 -0.6096
 3135SOL    HW121041   0.187   2.798   0.579  0.8977  0.7991 -0.9355
 3135SOL    HW221042   0.267   2.714   0.662 -0.7921 -0.2769  0.9514
 3136SOL     OW21043   2.040   2.757   5.461  0.3554  0.3846 -0.2768
 3136SOL    HW121044   2.109   2.748   5.527 -2.1686 -2.9947  1.8932
 3136SOL    HW221045   2.072   2.839   5.422 -1.6442  0.9081 -0.8195
 3137SOL     OW21046   1.862   3.498  16.267  0.4966 -0.4794  0.2933
 3137SOL    HW121047   1.834   3.586  16.245  0.1537 -0.6055  0.2257
 3137SOL    HW221048   1.955   3.510  16.249  0.4460 -0.5803 -0.0366
 3138SOL     OW21049   0.196   3.347   6.298  0.1066  0.2008  0.0986
 3138SOL    HW121050   0.189   3.338   6.393 -1.7330 -0.0237 -0.0574
 3138SOL    HW221051   0.152   3.265   6.273 -1.1165  0.7726  0.3778
 3139SOL     OW21052   3.408   2.009   2.210 -0.2212 -0.8057  0.0791
 3139SOL    HW121053   3.369   1.931   2.248 -0.8130  0.1673  1.4639
 3139SOL    HW221054   3.338   2.044   2.154 -0.6580 -0.7797  0.6457
 3140SOL     OW21055   0.477   2.695   6.842 -0.2977  0.0750 -0.5503
 3140SOL    HW121056   0.499   2.696   6.749  0.5520  0.5308 -0.3480
 3140SOL    HW221057   0.532   2.761   6.884 -0.2134 -1.0012  1.0233
 3141SOL     OW21058   1.963   0.519   0.329  0.2217 -0.3437  0.0467
 3141SOL    HW121059   1.915   0.438   0.313 -0.3732 -0.2135  1.1577
 3141SOL    HW221060   1.900   0.587   0.308  1.1384  0.2399 -0.8518
 3142SOL     OW21061   0.484   0.990   7.207  0.0944 -0.2903 -0.1877
 3142SOL    HW121062   0.498   1.040   7.288  0.0941 -1.8718  0.7971
 3142SOL    HW221063   0.567   1.009   7.164  0.5455  0.3176  0.9354
 3143SOL     OW21064   3.463   2.191  14.029 -0.1086 -0.1207 -0.1187
 3143SOL    HW121065   3.389   2.133  14.050 -0.5579 -0.0152 -1.4505
 3143SOL    HW221066   3.445   2.200  13.936  0.0263 -1.6178 -0.2895
 3144SOL     OW21067   1.037   2.570   7.864 -0.3456  0.1742 -0.2766
 3144SOL    HW121068   1.027   2.536   7.953  1.1943 -1.0389 -0.5737
 3144SOL    HW221069   1.066   2.491   7.818 -0.8576 -0.0853 -0.1592
 3145SOL     OW21070   2.573   2.139   7.826  0.1852  0.3422  0.0648
 3145SOL    HW121071   2.559   2.231   7.849 -1.5403  0.1095 -0.0359
 3145SOL    HW221072   2.642   2.154   7.762 -1.0944  0.5342 -1.2564
 3146SOL     OW21073   0.274   2.089   4.634  0.3102  0.3626 -0.0119
 3146SOL    HW121074   0.358   2.093   4.587  0.8120 -1.7138  0.7143
 3146SOL    HW221075   0.283   2.025   4.705 -0.9894  0.5729  0.3460
 3147SOL     OW21076   0.558   0.705   7.355  0.2872 -0.0729 -0.2426
 3147SOL    HW121077   0.560   0.800   7.364  0.0110 -0.1927  1.2138
 3147SOL    HW221078   0.462   0.701   7.360  0.3490 -2.2690 -1.1411
 3148SOL     OW21079   3.650   4.553   7.238  0.5228  1.0741  0.4166
 3148SOL    HW121080   3.573   4.608   7.226 -1.4727 -2.1006 -1.3381
 3148SOL    HW221081   3.656   4.521   7.328 -0.6247  0.6167  0.3316
 3149SOL     OW21082   3.548   1.800  17.174  0.6232  0.1986 -0.4328
 3149SOL    HW121083   3.625   1.821  17.121  0.5439 -0.1627 -0.6943
 3149SOL    HW221084   3.530   1.885  17.213  3.6416  1.4052 -1.6499
 3150SOL     OW21085   4.428   1.861   6.390 -0.5020  0.5571  0.3919
 3150SOL    HW121086   4.483   1.858   6.312 -0.4708  2.2078  0.3465
 3150SOL    HW221087   4.380   1.944   6.387  1.4791  1.7016  0.6727
 3151SOL     OW21088   2.620   2.315   6.606  0.1564  0.3839 -0.0854
 3151SOL    HW121089   2.594   2.399   6.569 -0.9332 -0.4083 -1.1495
 3151SOL    HW221090   2.551   2.256   6.575  0.0235  0.0360  0.8792
 3152SOL     OW21091   3.559   3.346   7.194  0.0690  0.1213  0.2280
 3152SOL    HW121092   3.646   3.373   7.165  0.1004  0.4287  0.6035
 3152SOL    HW221093   3.582   3.255   7.216 -1.1539 -0.2858 -0.1742
 3153SOL     OW21094   3.765   4.331  11.140  0.0292 -0.6322 -0.0346
 3153SOL    HW121095   3.671   4.347  11.132 -0.4774 -3.4028  0.6538
 3153SOL    HW221096   3.770   4.334  11.235 -0.0442  1.4246 -0.0963
 3154SOL     OW21097   0.172   2.340   0.709 -0.2560  0.0103  0.1527
 3154SOL    HW121098   0.081   2.362   0.731 -0.0758 -1.1945  2.1586
 3154SOL    HW221099   0.216   2.393   0.775 -0.5141  1.0606 -0.5201
 3155SOL     OW21100   3.625   3.503   0.990 -0.0679  0.6141 -0.0276
 3155SOL    HW121101   3.604   3.410   1.002  2.6781 -0.0274 -0.1359
 3155SOL    HW221102   3.585   3.542   1.067 -0.9800  0.6972 -0.5317
 3156SOL     OW21103   3.079   2.929   9.568 -0.0483  0.4506  0.4056
 3156SOL    HW121104   3.068   2.846   9.521  2.1624  0.3777  0.0210
 3156SOL    HW221105   3.130   2.994   9.520 -0.6121  0.7631  0.2385
 3157SOL     OW21106   3.048   3.797   4.049  0.3502  0.2420  0.1629
 3157SOL    HW121107   3.084   3.731   4.107  4.1771 -0.6977 -3.2484
 3157SOL    HW221108   3.086   3.879   4.080 -0.7612  0.6537  0.4232
 3158SOL     OW21109   1.737   4.009   2.787 -0.2454 -0.2973  0.3180
 3158SOL    HW121110   1.684   4.022   2.865 -0.5952  2.3862 -0.3809
 3158SOL    HW221111   1.674   3.962   2.732 -1.0229 -0.5681  1.4620
 3159SOL     OW21112   3.579   2.638   4.740  0.5315 -0.2077  0.0755
 3159SOL    HW121113   3.526   2.717   4.727 -0.5587 -1.1489 -1.2374
 3159SOL    HW221114   3.511   2.575   4.716  0.4212 -0.3008  0.6273
 3160SOL     OW21115   4.162   4.264   5.976 -0.1716  0.7632  0.2005
 3160SOL    HW121116   4.184   4.172   5.960  1.1686  1.3102 -1.1527
 3160SOL    HW221117   4.106   4.279   5.900  2.6307  0.1018 -1.9876
 3161SOL     OW21118   0.110   4.607   9.505  0.2466  0.0232 -0.1115
 3161SOL    HW121119   0.149   4.652   9.430 -2.3535 -0.1935 -1.6049
 3161SOL    HW221120   0.167   4.632   9.578 -1.7607 -1.7391  2.0777
 3162SOL     OW21121   2.452   0.337   0.915 -0.1261 -0.1291  0.5963
 3162SOL    HW121122   2.407   0.362   0.996  0.4299 -0.7934  1.1176
 3162SOL    HW221123   2.372   0.341   0.862  0.5409  0.9605 -0.3197
 3163SOL     OW21124   2.619   0.521   6.027  0.0848 -0.0971  0.8468
 3163SOL    HW121125   2.665   0.553   5.949 -0.5245 -2.7494 -0.6167
 3163SOL    HW221126   2.679   0.560   6.090  1.0719 -2.2829  1.2522
 3164SOL     OW21127   1.273   1.317   4.665  0.2727 -0.4556 -0.0411
 3164SOL    HW121128   1.183   1.302   4.695  0.0884 -0.8916 -0.8016
 3164SOL    HW221129   1.326   1.312   4.744  0.5348 -1.4721 -0.2832
 3165SOL     OW21130   3.721   4.150   8.757  0.1094 -0.5476  0.3120
 3165SOL    HW121131   3.763   4.171   8.840 -1.1067 -1.1888  1.0931
 3165SOL    HW221132   3.691   4.059   8.766 -2.1088  0.3104  1.4084
 3166SOL     OW21133   2.201   2.480   6.403  0.2612 -0.4168  0.4031
 3166SOL    HW121134   2.283   2.438   6.429  1.2508  1.2332 -0.0763
 3166SOL    HW221135   2.155   2.488   6.487  0.2879  0.0658  0.3719
 3167SOL     OW21136   3.638   1.989  11.934  0.4824 -0.0304 -0.0464
 3167SOL    HW121137   3.581   2.051  11.981 -1.8179 -0.5589 -2.1451
 3167SOL    HW221138   3.573   1.939  11.885  1.6416 -1.7802  0.2349
 3168SOL     OW21139   3.493   0.887   1.521  0.1698 -0.5612 -0.2785
 3168SOL    HW121140   3.428   0.834   1.568 -0.0180  0.8993  1.1295
 3168SOL    HW221141   3.565   0.896   1.584 -2.2654  1.9769  2.1519
 3169SOL     OW21142   3.234   3.963  12.527  0.3846 -0.1018 -0.2507
 3169SOL    HW121143   3.237   3.948  12.433 -2.6078 -0.6011 -0.2666
 3169SOL    HW221144   3.321   4.000  12.539  1.0062 -0.8437 -2.4620
 3170SOL     OW21145   3.321   0.387   5.368  0.7828  0.7033  0.2420
 3170SOL    HW121146   3.333   0.439   5.289  2.8104  0.6082  0.4721
 3170SOL    HW221147   3.379   0.313   5.351  1.3330  0.7217  1.9955
 3171SOL     OW21148   0.811   0.124  12.435 -0.1389  0.0827 -0.5427
 3171SOL    HW121149   0.800   0.038  12.394 -2.7976 -0.0093  0.3931
 3171SOL    HW221150   0.848   0.176  12.364 -0.4670  0.8110 -0.1705
 3172SOL     OW21151   1.987   0.327  13.906 -0.7495  0.5555  0.2113
 3172SOL    HW121152   1.991   0.396  13.972 -2.9423 -1.0182  1.9776
 3172SOL    HW221153   2.081   0.312  13.898 -1.0256 -0.0376 -2.0208
 3173SOL     OW21154   2.140   2.853  15.316  0.4089  0.0684  0.2271
 3173SOL    HW121155   2.123   2.945  15.334  0.2000  0.5551 -2.4540
 3173SOL    HW221156   2.221   2.850  15.265 -0.2571 -1.0534 -0.7680
 3174SOL     OW21157   2.188   0.208   3.790  0.4731  0.3453 -0.0625
 3174SOL    HW121158   2.174   0.118   3.817 -0.6611  0.2982 -0.8083
 3174SOL    HW221159   2.238   0.194   3.710 -1.4262  2.7706 -1.6595
 3175SOL     OW21160   3.749   4.102   6.553  0.4185  0.6723 -0.1007
 3175SOL    HW121161   3.750   4.008   6.535  0.1415  0.4478  1.0928
 3175SOL    HW221162   3.660   4.131   6.532  0.1935 -0.2494 -0.4153
 3176SOL     OW21163   4.593   3.492   9.478 -0.3343 -0.6349 -0.1556
 3176SOL    HW121164   4.610   3.424   9.412  0.0155 -1.8813  1.2181
 3176SOL    HW221165   4.587   3.444   9.561  2.0796 -1.6424 -0.5618
 3177SOL     OW21166   4.319   2.697   6.621 -0.0059  0.0167 -0.2921
 3177SOL    HW121167   4.360   2.613   6.599  1.3145  0.8054 -0.8229
 3177SOL    HW221168   4.287   2.669   6.707  1.2438 -0.9260 -0.1401
 3178SOL     OW21169   2.575   3.641   4.100 -0.2981 -0.0124 -0.5984
 3178SOL    HW121170   2.593   3.558   4.056  0.8973  0.1815 -0.4787
 3178SOL    HW221171   2.655   3.691   4.088 -0.9022  1.0794 -0.0933
 3179SOL     OW21172   1.884   3.236   5.867  0.5006  0.4479  0.2626
 3179SOL    HW121173   1.846   3.267   5.949 -1.2430 -1.0341  0.0251
 3179SOL    HW221174   1.807   3.225   5.812  0.2214 -0.1403  0.7711
 3180SOL     OW21175   4.574   3.529   3.050 -0.2622 -0.2433  0.0714
 3180SOL    HW121176   4.550   3.507   2.960 -0.5768  2.0956 -0.4053
 3180SOL    HW221177   4.630   3.605   3.035  0.1711  0.0355  3.0220
 3181SOL     OW21178   0.546   0.548   8.669  0.5286 -0.4087 -0.3766
 3181SOL    HW121179   0.514   0.582   8.586  1.3804  0.5842 -0.3008
 3181SOL    HW221180   0.528   0.622   8.727 -0.8375 -0.0552 -1.2500
 3182SOL     OW21181   0.631   3.061  13.195  0.4712  0.2013  0.0911
 3182SOL    HW121182   0.604   3.029  13.282 -0.0814  0.8548  0.1593
 3182SOL    HW221183   0.614   3.155  13.196  1.0810  0.3083  0.8886
 3183SOL     OW21184   3.370   2.699   8.807  0.3999 -0.1693 -0.0583
 3183SOL    HW121185   3.381   2.791   8.782  1.2665 -0.3746 -0.4590
 3183SOL    HW221186   3.415   2.705   8.891 -1.7493 -1.3466  1.1665
 3184SOL     OW21187   0.403   2.120   2.913  0.0690 -0.2090 -0.6432
 3184SOL    HW121188   0.384   2.206   2.877 -2.5320  0.4260  2.2312
 3184SOL    HW221189   0.311   2.097   2.918  0.0545  0.2530  1.3442
 3185SOL     OW21190   3.389   2.740  15.235 -0.2483  0.1363 -0.0075
 3185SOL    HW121191   3.346   2.825  15.232 -0.4714  0.0703  1.0741
 3185SOL    HW221192   3.372   2.704  15.148  1.9317  0.0033 -0.3874
 3186SOL     OW21193   3.675   4.571  16.933 -0.5459  0.0646  0.2728
 3186SOL    HW121194   3.651   4.511  17.003 -2.3730  0.0952 -0.3474
 3186SOL    HW221195   3.609   4.636  16.958 -0.1657  1.2175 -1.7594
 3187SOL     OW21196   4.232   1.129  14.220 -0.0620 -0.1812 -0.5084
 3187SOL    HW121197   4.174   1.197  14.254 -0.3226 -0.6122 -0.0931
 3187SOL    HW221198   4.240   1.065  14.291  0.5750 -0.6407 -0.9865
 3188SOL     OW21199   3.542   4.333   8.741 -0.2956 -0.4003 -0.2709
 3188SOL    HW121200   3.589   4.413   8.718  0.0131 -0.3029  0.6841
 3188SOL    HW221201   3.606   4.263   8.733  1.2445  0.9333  0.5260
 3189SOL     OW21202   2.581   4.284   6.241 -0.4286  0.4269 -0.1287
 3189SOL    HW121203   2.523   4.303   6.315 -0.6828  0.6991 -0.3980
 3189SOL    HW221204   2.645   4.228   6.286 -0.2864  0.1458 -0.6798
 3190SOL     OW21205   4.334   3.827   7.815  0.5130  0.1250 -0.4367
 3190SOL    HW121206   4.406   3.888   7.802  1.5920 -0.5341  2.3730
 3190SOL    HW221207   4.258   3.882   7.829 -0.7531 -1.6585 -0.2747
 3191SOL     OW21208   4.724   2.415   9.262 -0.3600 -0.0865 -0.4137
 3191SOL    HW121209   0.070   2.409   9.309  0.7463  0.5087 -2.2425
 3191SOL    HW221210   0.021   2.445   9.177  0.4854  0.9071  0.2582
 3192SOL     OW21211   2.037   1.233   3.146 -0.1447  0.5227 -0.7790
 3192SOL    HW121212   1.995   1.231   3.060 -1.7615 -0.0294  0.0119
 3192SOL    HW221213   2.044   1.325   3.168 -0.3431  0.3473  0.0267
 3193SOL     OW21214   2.228   1.103  15.248  0.2165 -0.1303 -0.6891
 3193SOL    HW121215   2.191   1.155  15.319  0.9885 -0.7213  0.1585
 3193SOL    HW221216   2.213   1.019  15.291  2.3701 -0.7107 -1.0498
 3194SOL     OW21217   1.541   1.774  11.242 -0.6318 -0.4945  0.6771
 3194SOL    HW121218   1.628   1.789  11.278 -0.5446  1.4520 -0.3079
 3194SOL    HW221219   1.494   1.818  11.313  1.7223  0.1351  1.8391
 3195SOL     OW21220   0.009   4.035  16.769 -0.7686 -0.4607 -0.0717
 3195SOL    HW121221   4.694   4.094  16.715  1.2547  0.5665 -0.8780
 3195SOL    HW221222   4.711   3.947  16.752  1.6988 -1.2918 -0.7533
 3196SOL     OW21223   0.749   1.674   5.113 -0.6866  0.0039 -0.0149
 3196SOL    HW121224   0.753   1.768   5.131 -1.2068 -0.2285  1.2927
 3196SOL    HW221225   0.761   1.626   5.195 -0.3904 -1.1841 -0.7564
 3197SOL     OW21226   1.832   4.099   9.063  0.5967 -0.0786 -0.0288
 3197SOL    HW121227   1.859   4.007   9.068 -0.1762 -0.3406 -0.7756
 3197SOL    HW221228   1.827   4.115   9.158  0.1494  0.4652 -0.1478
 3198SOL     OW21229   3.313   4.014   0.998 -0.8888  0.0417  0.3104
 3198SOL    HW121230   3.222   4.022   0.969 -1.0719 -1.1907  0.5324
 3198SOL    HW221231   3.306   3.949   1.069 -1.0286  0.2438  0.4814
 3199SOL     OW21232   2.478   2.590   5.196  0.5970 -0.9868  0.1864
 3199SOL    HW121233   2.548   2.605   5.260  0.1183  2.4578 -0.0730
 3199SOL    HW221234   2.400   2.619   5.242  1.2295  0.8411  0.1102
 3200SOL     OW21235   3.720   3.277   1.542 -0.2715  0.2160  0.6736
 3200SOL    HW121236   3.636   3.260   1.584 -0.2093 -2.7903 -0.4588
 3200SOL    HW221237   3.699   3.289   1.449 -1.7144  0.4956  1.0285
 3201SOL     OW21238   1.667   3.012   7.483  0.0631 -0.3989  0.2009
 3201SOL    HW121239   1.604   2.949   7.519  0.2664 -0.0670  1.1520
 3201SOL    HW221240   1.676   2.977   7.395 -0.6124 -1.7470  0.6506
 3202SOL     OW21241   2.748   0.281   7.556 -0.0913  0.3693 -0.3217
 3202SOL    HW121242   2.672   0.226   7.571  0.9960 -1.1553 -0.3312
 3202SOL    HW221243   2.824   0.240   7.597 -1.7074 -1.9765  0.2820
 3203SOL     OW21244   1.510   0.820   3.228  0.2103 -0.3297  0.2396
 3203SOL    HW121245   1.504   0.780   3.315  0.4047 -0.0696  0.3745
 3203SOL    HW221246   1.499   0.910   3.259 -0.3144 -0.1942 -0.3426
 3204SOL     OW21247   4.304   3.297   9.011 -0.0658 -0.0382  0.1255
 3204SOL    HW121248   4.353   3.312   9.092  1.5508  2.0192 -1.2349
 3204SOL    HW221249   4.331   3.212   8.976  1.0008 -0.0450  0.9775
 3205SOL     OW21250   1.804   1.740   2.254 -0.0310  0.7634 -0.4992
 3205SOL    HW121251   1.768   1.656   2.226  3.1678  0.1689 -2.8489
 3205SOL    HW221252   1.826   1.781   2.171 -0.4912  2.1311  0.0592
 3206SOL     OW21253   4.560   3.775   5.961  0.1380  0.0257 -0.2866
 3206SOL    HW121254   4.491   3.714   5.939 -1.7195  2.0509 -0.1130
 3206SOL    HW221255   4.635   3.717   5.949 -0.5602 -0.8389 -0.4795
 3207SOL     OW21256   4.423   2.614  12.895 -0.0770 -0.2650  0.0709
 3207SOL    HW121257   4.430   2.533  12.946 -0.2192 -1.0526 -1.1727
 3207SOL    HW221258   4.372   2.675  12.948 -2.8419 -1.3345 -1.3269
 3208SOL     OW21259   4.399   3.492  13.237  0.0962  0.1742  0.2770
 3208SOL    HW121260   4.450   3.413  13.250 -0.0088 -0.2322 -1.7882
 3208SOL    HW221261   4.327   3.482  13.299 -1.2149  2.1090 -0.9307
 3209SOL     OW21262   4.497   3.413   6.039  0.1034  0.0262  0.5922
 3209SOL    HW121263   4.461   3.325   6.045 -0.9074  0.2507 -2.0464
 3209SOL    HW221264   4.576   3.407   5.985 -1.8532  0.0323 -2.2421
 3210SOL     OW21265   1.656   2.146   3.105 -0.1138 -0.5035 -0.4124
 3210SOL    HW121266   1.561   2.153   3.092 -0.0338 -2.0112 -1.8709
 3210SOL    HW221267   1.662   2.155   3.200 -0.7575 -0.7665 -0.3459
 3211SOL     OW21268   3.946   2.396   8.018 -0.6026 -0.2057  0.6283
 3211SOL    HW121269   3.874   2.388   7.955 -0.0758  1.6193 -0.2132
 3211SOL    HW221270   3.898   2.387   8.100  1.0235 -0.8598  1.5029
 3212SOL     OW21271   4.270   0.887   8.906  0.0419 -0.0553  0.3239
 3212SOL    HW121272   4.253   0.797   8.932 -2.8281  0.1252 -0.8965
 3212SOL    HW221273   4.363   0.873   8.885 -0.2540  0.2114 -1.1966
 3213SOL     OW21274   2.144   3.443   2.987 -0.2191 -0.6036 -0.2710
 3213SOL    HW121275   2.140   3.519   3.044 -0.1855 -0.2638 -0.7145
 3213SOL    HW221276   2.139   3.372   3.050  2.9534 -1.1871 -0.6549
 3214SOL     OW21277   4.170   4.684   2.093 -0.3320 -0.0217  0.0524
 3214SOL    HW121278   4.238   4.620   2.072 -1.1661 -0.6606 -0.7102
 3214SOL    HW221279   4.225   0.026   2.091 -0.7457  0.2924  1.1377
 3215SOL     OW21280   1.127   1.768   9.432 -0.4655 -0.5053  0.5372
 3215SOL    HW121281   1.040   1.760   9.393  0.0625 -0.9839 -0.5225
 3215SOL    HW221282   1.147   1.677   9.455  2.7388  0.1422  0.3640
 3216SOL     OW21283   0.642   2.263   1.150  0.4578 -0.8141  0.3928
 3216SOL    HW121284   0.557   2.283   1.189 -0.2968 -1.6408 -0.8326
 3216SOL    HW221285   0.691   2.343   1.170 -0.6826  0.3157 -1.2991
 3217SOL     OW21286   2.657   3.511  15.393  0.0316  0.0076 -0.0515
 3217SOL    HW121287   2.660   3.563  15.473  0.1662 -0.4011  0.2070
 3217SOL    HW221288   2.637   3.571  15.321 -2.6377 -0.3272  0.3976
 3218SOL     OW21289   2.809   3.947  11.969  0.3071  0.6230  0.0572
 3218SOL    HW121290   2.766   4.010  11.910 -1.0307  0.0945  0.4704
 3218SOL    HW221291   2.732   3.909  12.012 -1.5719  2.6232 -1.5194
 3219SOL     OW21292   0.886   3.144   3.071 -0.3009 -0.0305  0.6194
 3219SOL    HW121293   0.924   3.230   3.089 -1.7142  0.5814  0.6951
 3219SOL    HW221294   0.940   3.109   3.000  0.5367 -0.0472  1.2770
 3220SOL     OW21295   4.106   4.727   8.630 -0.0211  0.5225 -0.5368
 3220SOL    HW121296   4.012   4.727   8.647 -0.1470 -0.2788 -1.2443
 3220SOL    HW221297   4.114   4.707   8.536 -1.3535 -0.9832 -0.3197
 3221SOL     OW21298   4.250   0.000   1.655 -0.6929  0.2747 -0.1692
 3221SOL    HW121299   4.186   0.039   1.715 -2.0692 -1.8620 -0.2637
 3221SOL    HW221300   4.196   4.683   1.598  0.6795 -1.2744  0.0152
 3222SOL     OW21301   2.339   4.444  12.223  0.5012 -0.3625 -0.3869
 3222SOL    HW121302   2.314   4.533  12.196 -0.5157 -1.1753 -2.0781
 3222SOL    HW221303   2.252   4.409  12.206 -0.7333  1.4519  2.1700
 3223SOL     OW21304   1.883   3.789   2.040  0.0729  0.0847  0.4156
 3223SOL    HW121305   1.921   3.843   1.971  0.3643 -1.1022 -0.3487
 3223SOL    HW221306   1.906   3.839   2.119  0.5967 -0.8352  0.8410
 3224SOL     OW21307   0.961   4.553   5.516  0.5026 -0.0944 -0.1077
 3224SOL    HW121308   0.959   4.642   5.480  0.4431 -0.4164 -0.9043
 3224SOL    HW221309   1.052   4.543   5.542  1.1984  1.0132 -2.1162
 3225SOL     OW21310   3.041   2.084  16.734 -0.4387  0.6808 -0.0583
 3225SOL    HW121311   3.053   2.153  16.800 -0.6050 -0.3624  1.0750
 3225SOL    HW221312   3.133   2.055  16.730 -1.3377 -2.1447 -0.0952
 3226SOL     OW21313   3.406   1.727   2.694  0.1064  0.2802  0.2910
 3226SOL    HW121314   3.422   1.657   2.630  0.7846  1.1378 -0.4869
 3226SOL    HW221315   3.422   1.677   2.773  0.8939 -2.6413 -1.7103
 3227SOL     OW21316   0.074   3.030   5.831 -0.4771 -0.8084  0.0424
 3227SOL    HW121317   0.008   3.070   5.889  0.2082 -0.0760  0.3113
 3227SOL    HW221318   0.110   2.962   5.888  0.3252 -1.1401 -0.8650
 3228SOL     OW21319   3.100   0.284   9.881  0.0523  0.6359 -0.1325
 3228SOL    HW121320   3.128   0.255   9.967 -1.7874 -0.4205  0.1245
 3228SOL    HW221321   3.184   0.268   9.838 -0.3599 -1.7596 -0.0365
 3229SOL     OW21322   1.546   3.594   3.788 -0.2619 -0.1572  0.0470
 3229SOL    HW121323   1.489   3.538   3.735 -0.6827  1.0857 -0.8044
 3229SOL    HW221324   1.495   3.675   3.794  2.6873  1.6347  0.8031
 3230SOL     OW21325   0.068   4.160   9.059  0.7746  0.0193 -0.0844
 3230SOL    HW121326   4.725   4.206   9.086 -1.1403 -2.6280 -1.1892
 3230SOL    HW221327   0.113   4.151   9.142 -2.1345  0.4096  1.5318
 3231SOL     OW21328   0.832   4.616  13.730 -0.3345  0.1315 -0.0248
 3231SOL    HW121329   0.798   4.659  13.808  0.6036 -0.9127  0.9587
 3231SOL    HW221330   0.813   4.524  13.751  0.8130 -0.4707 -1.6488
 3232SOL     OW21331   3.224   3.734  13.292 -0.3326 -0.3767 -0.2660
 3232SOL    HW121332   3.196   3.651  13.330 -1.6060  1.3006  2.4541
 3232SOL    HW221333   3.146   3.789  13.294 -0.0551 -0.0758  2.3000
 3233SOL     OW21334   2.271   2.888  10.475 -0.1126  0.4106  0.9470
 3233SOL    HW121335   2.263   2.982  10.488  1.1138  0.4469  1.4525
 3233SOL    HW221336   2.366   2.874  10.481 -0.4321 -2.2810 -0.0060
 3234SOL     OW21337   0.599   3.266   9.640  0.2370 -0.2720  0.3087
 3234SOL    HW121338   0.574   3.256   9.731 -2.1696 -0.0668 -0.3345
 3234SOL    HW221339   0.563   3.183   9.609  0.1642  0.0573 -0.5175
 3235SOL     OW21340   1.305   0.641   8.803 -0.6829 -0.1304  0.4597
 3235SOL    HW121341   1.214   0.653   8.829 -1.1142 -0.4336 -0.8926
 3235SOL    HW221342   1.339   0.710   8.860 -0.7101  1.0182 -0.9017
 3236SOL     OW21343   1.314   1.173  11.317  0.4253  0.3716  0.4268
 3236SOL    HW121344   1.261   1.253  11.320 -1.9828 -1.2384  0.9916
 3236SOL    HW221345   1.382   1.195  11.381  0.6419  0.2747  0.2276
 3237SOL     OW21346   4.235   1.897   5.776 -0.0651 -0.0242 -0.3543
 3237SOL    HW121347   4.269   1.886   5.865 -1.3489 -0.7472  0.0505
 3237SOL    HW221348   4.282   1.827   5.730  0.8277  0.8724 -0.8085
 3238SOL     OW21349   3.168   3.537  13.511 -0.6935 -0.0135  0.2411
 3238SOL    HW121350   3.181   3.562  13.602  2.4016  0.6308 -0.3769
 3238SOL    HW221351   3.073   3.526  13.511 -0.8996  1.7631  0.7552
 3239SOL     OW21352   2.097   2.182   8.555  0.6135  0.5372  0.0044
 3239SOL    HW121353   2.144   2.145   8.480  0.5155  2.2204 -0.8868
 3239SOL    HW221354   2.006   2.181   8.524 -0.0890 -1.2609  2.1274
 3240SOL     OW21355   0.090   0.923  13.014  0.0336 -0.3104  0.3950
 3240SOL    HW121356   0.106   0.894  12.924  1.9740  1.6040  0.1144
 3240SOL    HW221357   0.086   0.844  13.067  1.4486  0.3351  1.4710
 3241SOL     OW21358   1.845   1.346  17.066  0.4180 -0.1642  0.0782
 3241SOL    HW121359   1.844   1.376  17.157 -0.7989 -0.5518  0.1960
 3241SOL    HW221360   1.786   1.411  17.029  1.4008 -0.2521 -1.6204
 3242SOL     OW21361   0.512   3.964   3.892 -0.6981  0.3082 -0.0910
 3242SOL    HW121362   0.418   3.974   3.874 -0.8819 -0.3283  0.5431
 3242SOL    HW221363   0.509   3.897   3.961  1.4313 -1.6124 -1.8754
 3243SOL     OW21364   0.518   3.813   1.849  0.3676  0.1088  0.3700
 3243SOL    HW121365   0.573   3.869   1.903  2.1382 -1.1870 -0.0967
 3243SOL    HW221366   0.567   3.731   1.848 -1.8729 -1.2002 -1.5162
 3244SOL     OW21367   1.342   1.502   1.723  0.5106 -0.1362  0.5176
 3244SOL    HW121368   1.306   1.465   1.803 -0.7987 -1.6499 -0.7759
 3244SOL    HW221369   1.419   1.447   1.708  0.8676  0.4124  0.3261
 3245SOL     OW21370   1.172   1.005   6.913  0.4067  0.3614  0.2535
 3245SOL    HW121371   1.222   1.069   6.963  0.7061  0.0435  0.3645
 3245SOL    HW221372   1.236   0.955   6.863  1.2196  1.7817 -0.1154
 3246SOL     OW21373   4.630   3.131   5.285 -0.4021 -0.3513 -0.3057
 3246SOL    HW121374   4.573   3.101   5.356 -2.2046 -0.2302 -1.6933
 3246SOL    HW221375   4.703   3.162   5.338  1.0141  1.9270 -3.5818
 3247SOL     OW21376   1.685   3.594   3.201  0.0668 -0.5788  0.7148
 3247SOL    HW121377   1.617   3.527   3.203 -0.4404 -0.0983 -0.5213
 3247SOL    HW221378   1.749   3.548   3.147  2.5958  1.0386  2.3178
 3248SOL     OW21379   3.931   3.753   0.547 -0.0393  0.3903 -0.4014
 3248SOL    HW121380   3.944   3.713   0.633 -1.1154 -1.1659 -0.9746
 3248SOL    HW221381   4.021   3.764   0.515  0.3749 -1.4017  0.1266
 3249SOL     OW21382   2.722   0.898  16.221 -0.2149  0.0676  0.4451
 3249SOL    HW121383   2.707   0.835  16.292  0.7197 -0.5144  0.1196
 3249SOL    HW221384   2.639   0.885  16.175  1.4834 -1.3758 -2.1560
 3250SOL     OW21385   3.659   2.658   2.540  0.3207  0.2810 -0.0567
 3250SOL    HW121386   3.635   2.717   2.612 -2.2903  0.4783 -1.0584
 3250SOL    HW221387   3.593   2.588   2.548  2.4203 -1.5635  1.0812
 3251SOL     OW21388   3.067   2.481   1.612  0.1446 -0.3149  0.3697
 3251SOL    HW121389   3.013   2.536   1.670 -0.3390  0.0610 -0.4455
 3251SOL    HW221390   3.135   2.460   1.676  0.4265  0.1334  0.2094
 3252SOL     OW21391   4.685   2.751  13.994  0.0627 -0.4097 -0.4518
 3252SOL    HW121392   0.034   2.712  14.011 -1.1957 -3.1406 -0.4200
 3252SOL    HW221393   4.698   2.838  14.032 -0.9506  0.2034 -1.4898
 3253SOL     OW21394   3.396   3.676   3.214  0.2273  0.3606  0.6398
 3253SOL    HW121395   3.416   3.726   3.293  0.9703  1.8752 -0.5106
 3253SOL    HW221396   3.486   3.671   3.181 -0.0043  0.8271 -0.0654
 3254SOL     OW21397   0.882   1.809   8.482  0.4250  0.1204  0.1712
 3254SOL    HW121398   0.797   1.853   8.474  1.2270  1.3434 -1.6392
 3254SOL    HW221399   0.928   1.865   8.419  1.0624 -0.5840  0.0147
 3255SOL     OW21400   2.808   4.596   1.855  0.1083  0.2632  0.3033
 3255SOL    HW121401   2.716   4.568   1.860  0.9705 -2.7188 -0.1387
 3255SOL    HW221402   2.820   4.631   1.943 -3.0862 -0.6054  1.1033
 3256SOL     OW21403   0.965   4.014   5.395 -0.1335  0.1007 -0.9713
 3256SOL    HW121404   1.058   4.036   5.398 -0.2292  0.4108 -0.1606
 3256SOL    HW221405   0.953   4.068   5.317 -1.8222  1.4597  0.2319
 3257SOL     OW21406   3.413   2.579   8.476  0.2692  0.3907 -0.4976
 3257SOL    HW121407   3.397   2.664   8.434  0.5416  0.0456 -1.2956
 3257SOL    HW221408   3.365   2.595   8.557  2.5538 -1.2378  1.1535
 3258SOL     OW21409   0.591   1.856  11.703  0.5533 -0.3177  0.0464
 3258SOL    HW121410   0.500   1.853  11.673 -0.3059  1.1483  2.5127
 3258SOL    HW221411   0.638   1.901  11.632  1.3751 -0.0314  0.7673
 3259SOL     OW21412   1.350   0.488   2.455 -0.6993 -0.8960  0.3747
 3259SOL    HW121413   1.366   0.447   2.540 -1.8577 -0.0476  0.9946
 3259SOL    HW221414   1.344   0.578   2.486  0.2636 -1.2438  1.5685
 3260SOL     OW21415   2.852   3.006   5.940  0.2237  0.3986  0.1848
 3260SOL    HW121416   2.884   2.919   5.963 -1.7635 -1.0031 -2.4108
 3260SOL    HW221417   2.817   3.043   6.021  0.4276 -1.8276  1.2677
 3261SOL     OW21418   3.467   0.084  12.352 -0.4762  1.0326 -0.1645
 3261SOL    HW121419   3.504   0.039  12.275  0.1201  1.4679 -0.1324
 3261SOL    HW221420   3.486   0.177  12.341  2.7137  0.4382  0.3675
 3262SOL     OW21421   3.534   3.972   8.338 -0.3365  0.2028  0.5968
 3262SOL    HW121422   3.490   3.920   8.405 -0.5913  0.4167  0.5960
 3262SOL    HW221423   3.500   3.930   8.259  0.1321  2.6131 -0.9024
 3263SOL     OW21424   4.139   3.733  14.641 -0.0373 -0.5237 -0.0991
 3263SOL    HW121425   4.049   3.703  14.644 -0.1788 -0.4693 -3.2870
 3263SOL    HW221426   4.179   3.694  14.718 -1.2453 -1.5148  0.0103
 3264SOL     OW21427   0.104   2.401  15.108  0.0352 -0.0419  0.0687
 3264SOL    HW121428   0.142   2.316  15.130  0.2059  0.1774  0.6484
 3264SOL    HW221429   0.182   2.437  15.067  0.5951 -1.5666 -0.2063
 3265SOL     OW21430   3.023   3.330   2.306  0.2022 -0.1798  0.4916
 3265SOL    HW121431   3.049   3.264   2.242  0.9378  0.0049  0.5922
 3265SOL    HW221432   2.930   3.347   2.295  0.3039 -0.2919 -0.5958
 3266SOL     OW21433   3.882   3.084   8.480  0.6773  0.3001 -0.2943
 3266SOL    HW121434   3.790   3.068   8.462  0.9573 -1.2681 -0.3111
 3266SOL    HW221435   3.927   3.065   8.398  0.6200  0.1299 -0.2857
 3267SOL     OW21436   0.154   2.872   1.144 -0.5105 -0.0307  0.3098
 3267SOL    HW121437   0.182   2.900   1.057  0.6157 -0.1049  0.6396
 3267SOL    HW221438   0.224   2.904   1.203  1.2995  0.7360 -2.2572
 3268SOL     OW21439   2.249   0.457   3.497 -0.9120 -0.3595 -0.0113
 3268SOL    HW121440   2.202   0.427   3.419 -2.7869  0.9218  0.6327
 3268SOL    HW221441   2.301   0.383   3.529 -3.1960 -0.7274  2.8863
 3269SOL     OW21442   3.044   1.690  17.022  0.0181 -0.6651  0.0684
 3269SOL    HW121443   3.129   1.666  17.058  0.1593  0.7950  0.7293
 3269SOL    HW221444   2.992   1.610  17.021 -0.9045 -0.0555 -1.2496
 3270SOL     OW21445   3.939   0.731   7.997  0.2079  0.4974  0.5574
 3270SOL    HW121446   3.956   0.811   8.045  2.4948  2.1572 -3.0290
 3270SOL    HW221447   4.024   0.705   7.961 -0.4413  0.5905 -1.0337
 3271SOL     OW21448   3.165   3.510   2.092  0.1636 -0.2656  0.8605
 3271SOL    HW121449   3.071   3.515   2.114 -0.4971 -0.7181 -1.9273
 3271SOL    HW221450   3.182   3.419   2.116  3.8185  0.4227  0.8461
 3272SOL     OW21451   0.649   2.509   6.992  0.6919 -0.4264  0.3447
 3272SOL    HW121452   0.605   2.539   7.071 -0.1540 -2.0976  0.5035
 3272SOL    HW221453   0.623   2.572   6.925  0.5283 -1.6555 -0.7441
 3273SOL     OW21454   3.011   3.556   8.529 -0.3437  0.1962 -0.0771
 3273SOL    HW121455   3.104   3.575   8.534 -0.2491 -0.7553  1.6445
 3273SOL    HW221456   3.007   3.463   8.551 -0.0743  0.3827  0.7515
 3274SOL     OW21457   2.095   0.886   9.313 -0.3339  0.4145 -0.3460
 3274SOL    HW121458   2.162   0.890   9.381 -0.2274  1.3146 -0.5055
 3274SOL    HW221459   2.149   0.858   9.238  1.6318 -1.6138  1.8185
 3275SOL     OW21460   2.007   0.914  17.473  0.1445 -0.4303 -0.0739
 3275SOL    HW121461   2.035   0.827  17.500 -1.0208 -0.2389  1.7510
 3275SOL    HW221462   2.079   0.967  17.506 -1.4466  0.7187  1.6004
 3276SOL     OW21463   3.222   4.121  15.107 -0.1818 -0.8092  0.3954
 3276SOL    HW121464   3.269   4.038  15.106  2.5845  0.7239  2.8107
 3276SOL    HW221465   3.210   4.129  15.202 -0.3592  0.5211  0.2637
 3277SOL     OW21466   1.812   4.588   9.408 -0.4457 -0.3267 -0.0240
 3277SOL    HW121467   1.731   4.638   9.398  0.7187  1.2843 -1.4805
 3277SOL    HW221468   1.844   4.554   9.324 -0.7365 -1.5693  0.3608
 3278SOL     OW21469   2.333   2.756   3.340 -0.0227 -0.2574 -0.9524
 3278SOL    HW121470   2.356   2.664   3.354 -0.2225 -0.2613 -0.6433
 3278SOL    HW221471   2.244   2.756   3.304  0.6097 -0.0930 -2.5130
 3279SOL     OW21472   0.231   0.793  16.830  0.0979 -0.2149  0.0042
 3279SOL    HW121473   0.183   0.823  16.907  0.3823  0.1598  0.0333
 3279SOL    HW221474   0.220   0.865  16.769  1.2440  1.4521  1.7533
 3280SOL     OW21475   0.507   3.928  16.122  0.0309  0.1524  0.1394
 3280SOL    HW121476   0.423   3.881  16.120  0.9227 -1.5205  1.6509
 3280SOL    HW221477   0.482   4.019  16.112  0.1654  0.1196 -0.4756
 3281SOL     OW21478   3.861   0.646   8.716  0.2250 -0.2789  0.0398
 3281SOL    HW121479   3.853   0.741   8.718 -0.6349 -0.3609  0.2625
 3281SOL    HW221480   3.940   0.640   8.662 -0.2191 -1.7300 -0.4796
 3282SOL     OW21481   0.148   0.377  15.823  0.0699  0.1069  0.4190
 3282SOL    HW121482   0.230   0.346  15.784 -2.4452 -2.2144 -2.9432
 3282SOL    HW221483   0.104   0.293  15.821  1.0675 -0.4030 -0.0433
 3283SOL     OW21484   1.185   4.271  10.301  0.5254 -0.1764  0.1533
 3283SOL    HW121485   1.165   4.254  10.393  1.2730  1.2842  0.5714
 3283SOL    HW221486   1.101   4.292  10.260 -0.4435  1.6856  3.1183
 3284SOL     OW21487   3.667   3.602   3.067 -0.6055 -0.3315 -0.2128
 3284SOL    HW121488   3.675   3.507   3.068  0.1228 -0.2588  0.5515
 3284SOL    HW221489   3.664   3.619   2.972 -1.8688  0.5460 -0.0288
 3285SOL     OW21490   2.658   3.438   8.409  0.3582  0.4728 -0.0491
 3285SOL    HW121491   2.655   3.343   8.424  0.3789  0.9510  3.0193
 3285SOL    HW221492   2.657   3.469   8.500 -0.3526  1.0700 -0.2659
 3286SOL     OW21493   2.855   4.653   6.174 -0.2298 -0.7663  0.0107
 3286SOL    HW121494   2.801   4.700   6.237 -0.8053 -0.1252 -0.9529
 3286SOL    HW221495   2.883   4.581   6.230  0.7736  0.4052  1.0026
 3287SOL     OW21496   2.878   2.095   6.756 -0.2609 -0.0626 -0.5383
 3287SOL    HW121497   2.885   2.138   6.671  0.8331  0.3282 -0.2413
 3287SOL    HW221498   2.830   2.160   6.807 -3.7090 -1.1901 -2.3140
 3288SOL     OW21499   3.897   2.869   6.033 -0.2067 -0.1818  0.0440
 3288SOL    HW121500   3.814   2.868   6.080 -0.5548  0.1875 -0.5543
 3288SOL    HW221501   3.956   2.809   6.077 -0.1946 -0.1981  0.0054
 3289SOL     OW21502   2.831   1.829   8.542 -0.0490  0.0816  0.2024
 3289SOL    HW121503   2.782   1.747   8.532  0.2863 -0.1302  0.3158
 3289SOL    HW221504   2.759   1.885   8.514  1.2710  1.9920  0.6693
 3290SOL     OW21505   1.856   2.115   6.422 -0.0807 -0.7142  0.1609
 3290SOL    HW121506   1.877   2.075   6.337 -0.1921 -2.5005  0.9598
 3290SOL    HW221507   1.941   2.154   6.443 -1.0851  1.6535 -0.2089
 3291SOL     OW21508   0.679   3.034   7.618  0.1890  0.0265 -0.6452
 3291SOL    HW121509   0.751   3.078   7.663  2.6452 -0.1924 -4.3482
 3291SOL    HW221510   0.601   3.075   7.654  0.1186 -0.0920 -0.6632
 3292SOL     OW21511   3.664   1.796   5.172  0.2684 -0.4041  0.3248
 3292SOL    HW121512   3.605   1.720   5.177 -0.8617  0.3913 -0.9916
 3292SOL    HW221513   3.731   1.758   5.116  0.2257  1.2260 -0.8201
 3293SOL     OW21514   1.224   3.637   8.291  0.1516 -0.3802  0.5296
 3293SOL    HW121515   1.291   3.572   8.269  0.0642 -0.5439  0.7462
 3293SOL    HW221516   1.285   3.710   8.301 -1.2800  1.1235 -1.8272
 3294SOL     OW21517   0.591   2.220   5.101 -0.4337  0.1945  0.0074
 3294SOL    HW121518   0.541   2.265   5.169  2.3940  0.8497  1.6537
 3294SOL    HW221519   0.531   2.236   5.028  1.3579 -1.5375 -1.8214
 3295SOL     OW21520   2.244   0.996   5.848  0.9775  0.3669 -0.5364
 3295SOL    HW121521   2.337   1.019   5.841  1.1175 -0.0666 -0.0306
 3295SOL    HW221522   2.238   0.954   5.933 -1.7242  0.7842 -0.5381
 3296SOL     OW21523   2.215   1.429   5.709  0.2399 -0.6131  0.1565
 3296SOL    HW121524   2.304   1.457   5.729 -0.7763  2.2653  0.5596
 3296SOL    HW221525   2.170   1.495   5.761  0.7774  0.5053 -0.7839
 3297SOL     OW21526   0.302   2.509   1.581 -0.8693 -0.2924  0.4880
 3297SOL    HW121527   0.271   2.577   1.641 -2.0046  2.6068 -3.4061
 3297SOL    HW221528   0.324   2.572   1.513 -0.3594 -0.4885  0.4709
 3298SOL     OW21529   4.671   1.631   7.299  0.2915 -0.2492 -0.2671
 3298SOL    HW121530   4.723   1.569   7.350 -0.0384  1.0437  1.6584
 3298SOL    HW221531   4.726   1.710   7.307  1.4893 -0.9107 -1.8794
 3299SOL     OW21532   2.255   3.185   8.499  0.3601 -1.1556 -0.4785
 3299SOL    HW121533   2.207   3.253   8.452  0.0670 -0.5968  0.6219
 3299SOL    HW221534   2.181   3.164   8.555 -1.0425  4.3368 -0.3363
 3300SOL     OW21535   0.953   3.240   6.777  0.0123  0.4388 -0.8128
 3300SOL    HW121536   0.993   3.210   6.859  0.9182  1.4173 -0.8968
 3300SOL    HW221537   0.947   3.334   6.795 -0.4887  0.0163  1.2294
 3301SOL     OW21538   4.361   0.456   9.316 -0.0853  0.0934 -0.1675
 3301SOL    HW121539   4.445   0.430   9.277 -0.0596  0.9237 -0.6499
 3301SOL    HW221540   4.304   0.498   9.252  0.9029 -0.4203 -1.3941
 3302SOL     OW21541   2.686   3.852   8.784  0.1203 -0.1465 -0.2264
 3302SOL    HW121542   2.755   3.841   8.719 -0.7363  1.0682 -1.3354
 3302SOL    HW221543   2.702   3.779   8.844  2.9318  1.2387  0.7395
 3303SOL     OW21544   4.732   1.057   4.963  0.0924  0.3234  0.6818
 3303SOL    HW121545   4.662   1.121   4.958  1.2703  1.3444 -2.9378
 3303SOL    HW221546   4.682   0.979   4.986 -0.4490  0.3364 -0.4380
 3304SOL     OW21547   2.651   1.106   8.681 -0.5858  0.5302 -0.2709
 3304SOL    HW121548   2.632   1.014   8.698  1.2237  0.2832  0.4220
 3304SOL    HW221549   2.713   1.098   8.609 -0.9000 -0.0387 -0.4772
 3305SOL     OW21550   1.324   3.236   2.126 -0.0441 -0.1250  0.2648
 3305SOL    HW121551   1.288   3.174   2.063 -2.0317  0.0218  1.2394
 3305SOL    HW221552   1.388   3.180   2.170 -2.2541 -2.1258  0.9311
 3306SOL     OW21553   2.145   2.172   4.071 -0.3553 -0.1140  0.6874
 3306SOL    HW121554   2.159   2.187   4.165 -1.5608  1.1884  0.6577
 3306SOL    HW221555   2.062   2.219   4.072 -0.1242  0.3072  0.4621
 3307SOL     OW21556   3.714   4.107   7.930  0.1744 -0.3003 -0.5048
 3307SOL    HW121557   3.712   4.170   8.002  0.9373  1.3737 -1.9465
 3307SOL    HW221558   3.737   4.172   7.863  2.5219  0.1286  0.7120
 3308SOL     OW21559   4.523   3.575   1.339  0.3774  0.0624  0.7917
 3308SOL    HW121560   4.478   3.517   1.402  3.2621 -1.4239  1.4689
 3308SOL    HW221561   4.476   3.658   1.339  1.9422  0.9247 -0.4863
 3309SOL     OW21562   0.237   4.047  12.523 -0.0989 -0.0391 -0.1127
 3309SOL    HW121563   0.328   4.038  12.551 -0.0082  2.6751  0.4993
 3309SOL    HW221564   0.222   3.982  12.455 -0.2943 -0.3943  0.2651
 3310SOL     OW21565   2.685   4.268   8.464  0.2003 -0.5127  0.0581
 3310SOL    HW121566   2.634   4.225   8.533 -2.7046  0.2685 -1.5816
 3310SOL    HW221567   2.765   4.279   8.515 -0.1158 -1.3924  0.7463
 3311SOL     OW21568   1.865   1.119  14.828  0.0838  0.4478  0.1214
 3311SOL    HW121569   1.901   1.184  14.889  0.0985  0.0910  0.4862
 3311SOL    HW221570   1.808   1.068  14.885 -0.5751 -1.4487 -2.2764
 3312SOL     OW21571   4.076   0.221  17.328  0.0370  0.1610 -0.0277
 3312SOL    HW121572   4.133   0.152  17.294 -1.6209 -2.0355  1.6482
 3312SOL    HW221573   3.994   0.182  17.357  1.4564 -3.4523 -0.9702
 3313SOL     OW21574   2.251   3.240   3.525  0.0747  0.6260  0.2291
 3313SOL    HW121575   2.315   3.172   3.502  0.4177  1.4896 -1.4013
 3313SOL    HW221576   2.312   3.297   3.571  0.9023  0.4043 -0.5867
 3314SOL     OW21577   0.259   3.015   2.512  0.0026  0.3102  0.0027
 3314SOL    HW121578   0.209   3.032   2.592  0.7928  1.5804  0.2262
 3314SOL    HW221579   0.343   3.059   2.523  0.3927 -0.7908  1.3816
 3315SOL     OW21580   0.258   0.859   7.089 -0.6876  0.0098  0.4294
 3315SOL    HW121581   0.294   0.844   7.002 -0.0061 -1.4389  0.9537
 3315SOL    HW221582   0.334   0.882   7.142 -0.1272 -0.6359 -0.0941
 3316SOL     OW21583   1.047   0.924   2.365 -0.3896 -0.2297  0.2860
 3316SOL    HW121584   1.070   0.832   2.366  0.3194 -0.0901 -2.8824
 3316SOL    HW221585   1.035   0.942   2.458  0.9158 -0.7555  0.5548
 3317SOL     OW21586   2.477   0.117  13.483 -0.4717  0.1057  0.2948
 3317SOL    HW121587   2.432   0.047  13.530  0.4193 -0.3517  0.4599
 3317SOL    HW221588   2.561   0.072  13.479  0.1109  1.3312 -1.3989
 3318SOL     OW21589   0.659   0.325   6.468 -0.0246 -0.2009  0.0450
 3318SOL    HW121590   0.583   0.269   6.485  0.4234 -0.4831  1.0676
 3318SOL    HW221591   0.634   0.335   6.376  3.3402  2.0997 -0.6165
 3319SOL     OW21592   1.297   3.590  15.043 -0.0853  0.1985  0.0865
 3319SOL    HW121593   1.344   3.574  15.124 -0.0711  1.7346  0.3905
 3319SOL    HW221594   1.218   3.636  15.071  0.0187  0.0528  0.6196
 3320SOL     OW21595   0.920   3.883   1.812 -0.3972  1.0669 -0.1972
 3320SOL    HW121596   0.875   3.887   1.728  0.7770 -1.0880 -0.9317
 3320SOL    HW221597   0.973   3.962   1.806  1.1833  0.0786  0.7011
 3321SOL     OW21598   2.040   3.394   9.674  0.3276  0.2516  0.2886
 3321SOL    HW121599   2.109   3.402   9.740  1.4340 -0.3915 -0.7942
 3321SOL    HW221600   2.087   3.344   9.608  0.5619  1.9207 -0.8023
 3322SOL     OW21601   0.274   0.906   7.683 -0.2234 -0.5834 -0.2570
 3322SOL    HW121602   0.268   0.938   7.593  0.3690  1.5863  0.4661
 3322SOL    HW221603   0.362   0.868   7.678 -0.2253 -0.4576 -1.2595
 3323SOL     OW21604   1.175   4.705  14.981 -0.2846  0.1926  0.3348
 3323SOL    HW121605   1.207   0.053  15.011 -0.2708  0.3724 -0.1800
 3323SOL    HW221606   1.086   4.713  14.948 -0.8757  1.8437  2.3635
 3324SOL     OW21607   0.706   2.769  11.648 -0.3771 -0.0287 -0.6041
 3324SOL    HW121608   0.629   2.790  11.700  0.3407  1.1619 -0.0204
 3324SOL    HW221609   0.723   2.691  11.701 -0.5200  2.2152  2.7294
 3325SOL     OW21610   4.100   0.700  14.229 -0.1536 -0.4646 -0.1013
 3325SOL    HW121611   4.007   0.681  14.216  0.2013 -0.6914 -2.2682
 3325SOL    HW221612   4.141   0.616  14.210 -1.6196 -1.0782 -0.4731
 3326SOL     OW21613   2.533   4.155   8.689 -0.2787  0.2937  0.0375
 3326SOL    HW121614   2.460   4.201   8.733  0.4840 -0.3977  1.9967
 3326SOL    HW221615   2.603   4.140   8.752  0.5086  1.3142 -0.5982
 3327SOL     OW21616   3.081   2.734   6.347 -0.0309 -0.3595 -0.3863
 3327SOL    HW121617   3.121   2.751   6.433  1.0043  0.4729 -1.0341
 3327SOL    HW221618   3.031   2.813   6.326  0.4435 -0.1036 -0.5410
 3328SOL     OW21619   1.859   0.524   9.060  0.4536 -0.0415  0.2423
 3328SOL    HW121620   1.925   0.534   9.128 -0.0853  0.7298  0.6540
 3328SOL    HW221621   1.843   0.613   9.028  3.6107  1.4235  2.7737
 3329SOL     OW21622   0.091   0.361   9.513  0.2323 -1.0839  0.0306
 3329SOL    HW121623   0.105   0.452   9.539  0.1043 -0.8426 -0.7356
 3329SOL    HW221624   0.024   0.358   9.444 -1.3631 -0.0535  1.5580
 3330SOL     OW21625   2.131   0.304   1.827 -0.0475  0.0206  0.6129
 3330SOL    HW121626   2.067   0.246   1.868 -0.1268 -1.1536 -1.1812
 3330SOL    HW221627   2.099   0.389   1.859 -4.0981 -0.7516 -1.4649
 3331SOL     OW21628   0.682   3.723  13.443  0.0094  0.1801 -0.2298
 3331SOL    HW121629   0.688   3.701  13.535 -1.0247  0.3852 -0.1139
 3331SOL    HW221630   0.641   3.809  13.446 -0.4242 -0.1237  1.8831
 3332SOL     OW21631   4.238   0.863  10.839 -0.7656  0.3700  0.1733
 3332SOL    HW121632   4.232   0.891  10.747 -1.0008  1.0405  0.3923
 3332SOL    HW221633   4.145   0.854  10.860 -1.4000  2.2445 -1.8311
 3333SOL     OW21634   4.631   0.016   4.536  0.1719 -0.7714 -0.2944
 3333SOL    HW121635   4.558   0.025   4.597  0.2769  0.8440 -0.4196
 3333SOL    HW221636   4.580   0.012   4.455 -0.1980 -0.6014 -0.0697
 3334SOL     OW21637   2.881   0.792   3.722 -0.2170  0.0859  0.3116
 3334SOL    HW121638   2.894   0.698   3.733  2.5705  0.5800  1.3928
 3334SOL    HW221639   2.970   0.808   3.689 -0.4220 -0.6328 -0.6018
 3335SOL     OW21640   4.146   1.737   2.490 -0.6612  0.2058 -0.6409
 3335SOL    HW121641   4.133   1.773   2.402  1.8034 -1.4847 -1.6837
 3335SOL    HW221642   4.099   1.793   2.552  0.3551  0.2924  0.0476
 3336SOL     OW21643   4.687   0.883   6.840  0.6330 -0.0742 -0.0438
 3336SOL    HW121644   4.628   0.957   6.824 -0.1860 -0.5231  0.8845
 3336SOL    HW221645   4.663   0.832   6.763 -1.8960  0.3187  0.4704
 3337SOL     OW21646   4.611   0.592   3.684 -0.7232  0.1434 -0.5956
 3337SOL    HW121647   4.624   0.686   3.703  0.1492  0.2747 -1.8261
 3337SOL    HW221648   4.631   0.580   3.591 -2.2926 -0.1551 -0.8908
 3338SOL     OW21649   0.485   4.367   6.162  0.1617 -0.2552  0.6039
 3338SOL    HW121650   0.473   4.291   6.106  0.1737  0.6510 -0.6266
 3338SOL    HW221651   0.399   4.381   6.200  0.5985  0.6210  1.2773
 3339SOL     OW21652   1.187   2.157   3.263  0.2237 -0.0083  0.2856
 3339SOL    HW121653   1.108   2.205   3.242 -0.1161 -0.5067  0.4186
 3339SOL    HW221654   1.244   2.232   3.249 -0.7291  0.6356 -0.1535
 3340SOL     OW21655   1.358   4.347  14.699  0.4506  0.3926 -0.2411
 3340SOL    HW121656   1.269   4.360  14.667  0.2681  1.1512  0.5939
 3340SOL    HW221657   1.402   4.414  14.647 -2.0802  1.5002 -0.9424
 3341SOL     OW21658   0.957   1.495   6.297  0.5125  0.0766  0.3543
 3341SOL    HW121659   0.873   1.509   6.252  0.3525 -1.9009  0.0372
 3341SOL    HW221660   0.999   1.430   6.241 -2.1030 -3.2355  2.2512
 3342SOL     OW21661   2.463   1.162  15.104  0.9722  0.3007 -0.5359
 3342SOL    HW121662   2.419   1.246  15.119  3.2547  1.2903  0.6578
 3342SOL    HW221663   2.423   1.123  15.182 -0.1104  2.9347  0.2565
 3343SOL     OW21664   4.546   2.757   9.353 -0.0243  0.0065 -0.0757
 3343SOL    HW121665   4.455   2.774   9.327 -0.0768  0.5062  0.4460
 3343SOL    HW221666   4.543   2.719   9.440 -0.1128 -0.4671 -0.2886
 3344SOL     OW21667   1.846   4.606   4.486 -0.0238  0.4305  0.1268
 3344SOL    HW121668   1.924   4.569   4.527  1.7189  1.1163 -2.5921
 3344SOL    HW221669   1.785   4.541   4.521 -2.7307  2.4887 -0.7493
 3345SOL     OW21670   3.195   3.422  15.508 -0.5771 -0.1864  0.4940
 3345SOL    HW121671   3.253   3.356  15.470 -1.1789 -0.9129  0.8366
 3345SOL    HW221672   3.233   3.432  15.595 -1.7938  1.7454  0.7881
 3346SOL     OW21673   2.361   1.469   2.184  0.2204  0.2776  0.7791
 3346SOL    HW121674   2.287   1.430   2.230  1.6017 -0.9234  1.9642
 3346SOL    HW221675   2.394   1.531   2.250 -1.1454  1.3388  0.4727
 3347SOL     OW21676   2.021   4.644   8.287 -0.1558  0.0988  0.0700
 3347SOL    HW121677   2.083   4.706   8.325  0.8017 -1.2120  0.6514
 3347SOL    HW221678   1.946   4.652   8.345  0.0409 -0.6204  0.4255
 3348SOL     OW21679   1.822   4.070   7.639 -0.4400 -0.1484  0.2701
 3348SOL    HW121680   1.898   4.055   7.583 -2.5867 -0.0988 -2.6605
 3348SOL    HW221681   1.853   4.153   7.676  0.0866  0.0896 -0.6991
 3349SOL     OW21682   0.166   2.859   8.776  0.1474 -0.0108 -0.0703
 3349SOL    HW121683   0.133   2.878   8.689 -2.4438 -1.9206  0.4895
 3349SOL    HW221684   0.258   2.839   8.756  0.3850  0.9852  0.0419
 3350SOL     OW21685   3.625   0.900   9.258  0.1345  0.1781  0.4718
 3350SOL    HW121686   3.573   0.946   9.192 -0.4287  0.2381  0.9567
 3350SOL    HW221687   3.592   0.812   9.241  0.4904 -0.0140  0.7613
 3351SOL     OW21688   1.776   2.834   3.966 -0.1340  0.4029 -0.7538
 3351SOL    HW121689   1.716   2.806   4.035 -1.1017  1.4511 -1.1709
 3351SOL    HW221690   1.734   2.904   3.916 -1.4856  0.3221  0.2790
 3352SOL     OW21691   4.547   4.240   7.302  0.1394 -0.2607  0.2763
 3352SOL    HW121692   4.530   4.273   7.214  1.0567 -0.6610 -0.0492
 3352SOL    HW221693   4.636   4.205   7.295 -0.2940 -1.1987 -0.6300
 3353SOL     OW21694   3.507   4.654   1.941 -0.2560 -0.6044  0.3544
 3353SOL    HW121695   3.417   4.679   1.921 -0.3131 -0.6177  0.6004
 3353SOL    HW221696   3.495   4.559   1.940 -3.1833 -0.2198  0.6237
 3354SOL     OW21697   1.954   2.127   4.720 -0.5163  0.3574 -0.0562
 3354SOL    HW121698   1.941   2.067   4.647  1.4904 -1.2037  0.8623
 3354SOL    HW221699   1.964   2.207   4.669 -0.6647 -1.0665 -2.3134
 3355SOL     OW21700   3.506   3.943   1.555 -0.0478  0.1204 -0.0202
 3355SOL    HW121701   3.486   3.948   1.462  2.0241 -2.4150 -0.6188
 3355SOL    HW221702   3.551   3.858   1.561 -0.8877 -0.4227 -1.6390
 3356SOL     OW21703   4.259   0.701   4.313 -0.4394 -0.3053 -0.4188
 3356SOL    HW121704   4.221   0.613   4.301  1.6413 -1.0727 -1.3186
 3356SOL    HW221705   4.315   0.718   4.238 -1.1148  0.2473 -0.7908
 3357SOL     OW21706   0.326   4.101   0.291  0.5417  0.7392 -0.1793
 3357SOL    HW121707   0.333   4.100   0.195  0.8400 -1.3378 -0.1381
 3357SOL    HW221708   0.280   4.184   0.306  2.0994  1.2076  1.9456
 3358SOL     OW21709   1.854   0.332   8.059 -0.6527 -0.3799  0.1824
 3358SOL    HW121710   1.779   0.290   8.016 -0.8738  1.1042 -0.9034
 3358SOL    HW221711   1.844   0.305   8.150 -1.2197  0.0562  0.2520
 3359SOL     OW21712   0.425   0.127   3.525  0.1200  0.1497 -0.5927
 3359SOL    HW121713   0.491   0.182   3.483  0.1494 -0.2422 -1.0662
 3359SOL    HW221714   0.460   0.112   3.612  0.9824 -0.1595 -0.9979
 3360SOL     OW21715   0.657   3.977   2.540 -0.7948  0.0576 -0.2917
 3360SOL    HW121716   0.642   3.914   2.610  0.7036 -1.2032 -1.1224
 3360SOL    HW221717   0.744   4.007   2.564 -0.2688 -0.8226 -1.1479
 3361SOL     OW21718   3.848   4.469  13.583 -0.9387 -0.0149  0.9041
 3361SOL    HW121719   3.902   4.399  13.619  1.6768  2.1861  1.2151
 3361SOL    HW221720   3.909   4.542  13.586  1.0283 -1.5749 -1.7557
 3362SOL     OW21721   4.179   0.454  16.221  0.0157  0.1615 -0.4556
 3362SOL    HW121722   4.237   0.450  16.145 -0.3762  1.6646 -0.8448
 3362SOL    HW221723   4.245   0.464  16.290 -0.8396 -2.0905  0.6701
 3363SOL     OW21724   3.177   0.127   6.142 -0.0218  0.0257  0.0242
 3363SOL    HW121725   3.159   0.038   6.172 -2.2455  0.5096  0.1148
 3363SOL    HW221726   3.267   0.139   6.171  0.0519  1.8799 -1.0082
 3364SOL     OW21727   2.046   3.210   5.581 -0.2606 -0.7267 -0.6518
 3364SOL    HW121728   2.088   3.151   5.519 -0.9206 -1.5252 -0.3343
 3364SOL    HW221729   2.003   3.153   5.644 -0.6360 -0.5477 -0.7424
 3365SOL     OW21730   3.976   3.075   8.722 -0.6433 -0.1651  0.2203
 3365SOL    HW121731   3.918   3.095   8.649  0.6092 -1.6618 -1.1865
 3365SOL    HW221732   4.042   3.038   8.663 -0.0144  1.1600  0.0971
 3366SOL     OW21733   1.325   4.163   1.700 -0.2201  0.0262 -0.2077
 3366SOL    HW121734   1.383   4.238   1.719 -0.5182  0.1655  0.1498
 3366SOL    HW221735   1.387   4.091   1.708 -0.6380 -0.5211 -1.9427
 3367SOL     OW21736   0.854   3.868   1.556  0.3307 -0.1493  0.2956
 3367SOL    HW121737   0.918   3.860   1.486  0.9595  0.3182  0.8100
 3367SOL    HW221738   0.774   3.832   1.518 -0.7774  1.9405  0.6417
 3368SOL     OW21739   0.344   1.467   3.501  0.1419 -0.3047 -0.1073
 3368SOL    HW121740   0.339   1.460   3.596 -0.7170 -1.6084 -0.2299
 3368SOL    HW221741   0.259   1.501   3.471 -0.0424 -1.0980 -0.5077
 3369SOL     OW21742   4.225   2.159   8.897 -0.0311 -0.7075 -0.6143
 3369SOL    HW121743   4.240   2.244   8.938  0.1354 -0.1974 -1.7265
 3369SOL    HW221744   4.187   2.188   8.814 -2.8689  0.0838  0.9371
 3370SOL     OW21745   3.202   4.624   6.919  0.2439 -0.1317 -0.4797
 3370SOL    HW121746   3.157   4.541   6.929  0.4718 -0.1392  0.4831
 3370SOL    HW221747   3.258   4.637   6.996 -0.2338  3.2919 -0.6857
 3371SOL     OW21748   3.520   3.903   5.849  0.0460  0.0935 -0.4105
 3371SOL    HW121749   3.597   3.879   5.796 -1.0369 -0.7349 -1.5951
 3371SOL    HW221750   3.558   3.876   5.933  0.0576  0.2119 -0.3775
 3372SOL     OW21751   2.711   0.212  11.448 -0.1285 -0.3838 -0.6494
 3372SOL    HW121752   2.722   0.271  11.373  2.4577 -2.0884 -1.5846
 3372SOL    HW221753   2.618   0.222  11.471  0.6924  1.1940  1.9471
 3373SOL     OW21754   2.033   1.991   4.502  0.1492 -0.2981 -0.1181
 3373SOL    HW121755   1.976   1.999   4.426  0.0714 -1.8176 -0.2194
 3373SOL    HW221756   2.100   2.055   4.479  0.0490 -0.4497 -0.8293
 3374SOL     OW21757   3.531   0.930  17.125  0.0921 -0.6553  0.4291
 3374SOL    HW121758   3.612   0.977  17.146 -0.6870  1.2595 -0.8346
 3374SOL    HW221759   3.544   0.851  17.178  1.7787  1.0328  2.5616
 3375SOL     OW21760   3.435   2.186  13.751  0.0102  0.4514  0.9322
 3375SOL    HW121761   3.369   2.118  13.739  0.5892 -0.1310  1.0235
 3375SOL    HW221762   3.416   2.246  13.679 -1.5141  0.0700  1.0155
 3376SOL     OW21763   4.384   3.598   5.847 -0.1107 -0.2760  0.1778
 3376SOL    HW121764   4.399   3.518   5.899 -1.6466 -0.5877  0.1435
 3376SOL    HW221765   4.294   3.617   5.873  0.4392 -0.7319  2.3882
 3377SOL     OW21766   0.983   0.551   4.047 -0.0137  0.4099 -0.4245
 3377SOL    HW121767   1.075   0.568   4.065  0.0783 -1.0309  0.4612
 3377SOL    HW221768   0.987   0.456   4.049  3.0607  0.5355 -0.5897
 3378SOL     OW21769   4.255   2.484   4.073 -0.0016 -0.1640  0.2095
 3378SOL    HW121770   4.327   2.441   4.119  1.3916  0.6376 -1.2194
 3378SOL    HW221771   4.197   2.410   4.055 -1.7697  0.7181  2.1483
 3379SOL     OW21772   3.607   2.163   8.011 -0.7577  0.2664  0.2567
 3379SOL    HW121773   3.606   2.254   8.039 -0.1366  0.2816  0.2325
 3379SOL    HW221774   3.689   2.129   8.047 -0.7010  0.2458  0.1071
 3380SOL     OW21775   1.842   4.052  14.661 -0.0377 -0.2801  0.0073
 3380SOL    HW121776   1.788   3.990  14.710  0.7579  0.4756  1.8212
 3380SOL    HW221777   1.775   4.087  14.602 -0.0739  0.8186  0.7071
 3381SOL     OW21778   2.451   1.664   2.389  0.5098 -0.0230 -0.3425
 3381SOL    HW121779   2.439   1.756   2.367 -0.5353 -0.6324 -2.2760
 3381SOL    HW221780   2.531   1.672   2.442  0.0797 -2.9567  0.7950
 3382SOL     OW21781   1.923   0.080   7.806  0.1696 -0.6379 -0.6167
 3382SOL    HW121782   1.915   0.054   7.898  0.3250 -0.9280 -0.6829
 3382SOL    HW221783   1.834   0.113   7.794  0.8960  2.5909  3.2404
 3383SOL     OW21784   3.755   1.706   8.712 -0.2604 -0.1697  0.7130
 3383SOL    HW121785   3.767   1.798   8.737 -0.9720 -0.0399  0.5865
 3383SOL    HW221786   3.694   1.702   8.639 -0.0487  0.8104  0.4821
 3384SOL     OW21787   0.078   0.353  10.515  0.0100  0.3159  0.5675
 3384SOL    HW121788   0.074   0.448  10.518 -1.1627  0.3087 -0.6704
 3384SOL    HW221789   4.722   0.337  10.534  0.3262 -0.8758  1.1221
 3385SOL     OW21790   0.305   2.135  12.234  0.0513 -0.2091  0.1793
 3385SOL    HW121791   0.222   2.154  12.192 -1.5222 -1.5523  2.6975
 3385SOL    HW221792   0.339   2.070  12.173 -0.9480 -1.5874  1.0832
 3386SOL     OW21793   1.566   4.306   1.204  0.2595  0.6632  0.1049
 3386SOL    HW121794   1.553   4.305   1.299 -1.2236 -0.1321 -0.1077
 3386SOL    HW221795   1.608   4.221   1.193  1.9806  1.3985  0.9203
 3387SOL     OW21796   4.415   2.046   5.252  0.0315  0.3177 -0.2897
 3387SOL    HW121797   4.368   1.965   5.274 -0.1225  1.1288  2.4060
 3387SOL    HW221798   4.435   2.062   5.344  0.3139  1.7945 -0.6097
 3388SOL     OW21799   0.382   1.676   2.938  0.1622 -0.0094 -0.4040
 3388SOL    HW121800   0.377   1.592   2.892 -2.7945  0.1386 -0.3751
 3388SOL    HW221801   0.300   1.712   2.903 -0.6246  0.0244  1.5147
 3389SOL     OW21802   0.051   3.738   1.211  0.3479  0.7500 -0.0479
 3389SOL    HW121803   0.094   3.673   1.156 -0.6204 -0.4342  0.6036
 3389SOL    HW221804   0.021   3.689   1.287  0.5472  1.4859  0.5116
 3390SOL     OW21805   4.502   1.686   8.822  0.0388 -0.0919 -0.0542
 3390SOL    HW121806   4.578   1.640   8.786  0.3299  0.2933  0.0800
 3390SOL    HW221807   4.450   1.609   8.846  0.1776 -0.1528  0.0499
 3391SOL     OW21808   1.103   0.510  11.216  0.0961 -0.3921 -0.5997
 3391SOL    HW121809   1.125   0.423  11.182  3.1551 -0.0089  0.3581
 3391SOL    HW221810   1.114   0.572  11.144 -0.0538 -1.3938 -1.4714
 3392SOL     OW21811   2.173   1.314   4.528 -0.0194  0.6906  0.5652
 3392SOL    HW121812   2.140   1.292   4.441  0.5523 -1.3484  0.8767
 3392SOL    HW221813   2.242   1.249   4.541  1.2798  1.9777  0.2030
 3393SOL     OW21814   3.928   1.324   2.992  0.3512  0.0384 -0.3882
 3393SOL    HW121815   4.011   1.279   2.973  0.5434  0.7892 -1.3227
 3393SOL    HW221816   3.922   1.317   3.087  1.0883 -1.0350 -0.4203
 3394SOL     OW21817   1.692   2.353   4.697  0.3132  0.9648  0.0481
 3394SOL    HW121818   1.777   2.344   4.740 -0.3218 -1.4841  0.7913
 3394SOL    HW221819   1.632   2.321   4.764  1.5277 -0.8181  0.2966
 3395SOL     OW21820   2.334   0.920  13.321  0.2803  0.0084 -0.1801
 3395SOL    HW121821   2.423   0.925  13.285  0.2725 -0.6168 -0.2980
 3395SOL    HW221822   2.284   0.910  13.239 -0.2326 -0.3151  0.1741
 3396SOL     OW21823   0.913   0.501   5.162  0.2247  0.0662  0.0319
 3396SOL    HW121824   0.819   0.501   5.142 -0.2734  0.4355  2.3864
 3396SOL    HW221825   0.903   0.446   5.239  0.8168 -0.4996 -0.2940
 3397SOL     OW21826   4.000   1.785   5.464  0.4014  0.5882 -0.1986
 3397SOL    HW121827   3.927   1.830   5.420  2.1675  2.0980 -1.5678
 3397SOL    HW221828   3.979   1.697   5.434 -0.2059  0.7151 -0.1557
 3398SOL     OW21829   4.219   3.648   1.057  0.1722  0.5548 -0.1721
 3398SOL    HW121830   4.227   3.629   1.151  1.7445  1.0364 -0.2164
 3398SOL    HW221831   4.188   3.739   1.055  0.0712  0.5339  0.3153
 3399SOL     OW21832   1.220   0.204   2.700  0.4279  0.5563 -0.0066
 3399SOL    HW121833   1.298   0.257   2.683  0.5938 -0.5859 -2.7410
 3399SOL    HW221834   1.192   0.168   2.616  2.9038 -1.2025 -0.0602
 3400SOL     OW21835   4.360   0.384   3.452 -0.5776 -0.2803 -0.0196
 3400SOL    HW121836   4.309   0.416   3.526  0.5447  0.8590  0.2556
 3400SOL    HW221837   4.399   0.309   3.498  0.2567  0.0449 -0.1940
 3401SOL     OW21838   3.268   1.604   7.123  0.3008  0.2533  0.0070
 3401SOL    HW121839   3.194   1.596   7.063 -0.2130  1.8455  0.4227
 3401SOL    HW221840   3.233   1.557   7.198  1.8420  0.7321  1.0156
 3402SOL     OW21841   0.926   1.101  13.427  0.1794  1.0204  0.2327
 3402SOL    HW121842   0.959   1.021  13.387  1.8539  0.9002  1.8714
 3402SOL    HW221843   0.979   1.094  13.507  1.7231 -1.3190 -0.9883
 3403SOL     OW21844   3.264   3.438   8.993  0.2930  0.6097  0.1442
 3403SOL    HW121845   3.273   3.347   8.966  1.3162 -0.0015  2.6294
 3403SOL    HW221846   3.336   3.450   9.054  1.1377  0.2228 -0.7813
 3404SOL     OW21847   1.957   0.081  17.640 -0.2916 -0.9874  0.3221
 3404SOL    HW121848   2.013   0.023  17.692  1.2475 -1.1636 -1.5552
 3404SOL    HW221849   2.006   0.162  17.648 -0.4020 -0.9396  0.5198
 3405SOL     OW21850   4.218   0.850  12.938 -0.0132  0.1304  0.5981
 3405SOL    HW121851   4.167   0.770  12.928 -1.9654  1.3242  1.0110
 3405SOL    HW221852   4.158   0.910  12.894 -1.1930 -1.5461 -0.0534
 3406SOL     OW21853   4.536   2.622   0.327 -0.1843  0.6359 -0.0090
 3406SOL    HW121854   4.615   2.579   0.358 -0.6917 -2.0370 -2.4723
 3406SOL    HW221855   4.562   2.648   0.238  1.9077  0.1571  0.4476
 3407SOL     OW21856   3.877   0.074   5.196 -0.2187  0.4516  0.0103
 3407SOL    HW121857   3.890   0.162   5.162  0.1155 -0.2655 -1.7037
 3407SOL    HW221858   3.823   0.034   5.127 -0.1046 -1.1149  0.8219
 3408SOL     OW21859   4.378   2.116   3.391  0.1292  0.4977  0.2135
 3408SOL    HW121860   4.464   2.096   3.427  0.0486 -1.5838 -0.7394
 3408SOL    HW221861   4.385   2.118   3.295 -0.9471  1.2788  0.1453
 3409SOL     OW21862   3.075   1.968  17.054  0.2633 -0.1538 -0.4483
 3409SOL    HW121863   3.074   1.875  17.032  0.6993 -0.5086  1.0509
 3409SOL    HW221864   2.990   1.968  17.097  0.1186  0.6275 -0.7457
 3410SOL     OW21865   1.364   0.132   7.905 -0.3028  0.7216 -0.0930
 3410SOL    HW121866   1.433   0.147   7.970  1.8834 -2.0912 -1.7846
 3410SOL    HW221867   1.289   0.185   7.932  0.8301  0.6845  3.0883
 3411SOL     OW21868   1.208   3.564   5.056 -0.3560 -0.2638  0.4498
 3411SOL    HW121869   1.181   3.654   5.073  1.2252 -0.1932  2.7283
 3411SOL    HW221870   1.243   3.562   4.967  1.4006  0.0197  1.1276
 3412SOL     OW21871   3.058   3.139   6.639  0.0065  0.9030 -0.5453
 3412SOL    HW121872   3.005   3.079   6.586 -0.2333  0.5740  0.0642
 3412SOL    HW221873   3.090   3.085   6.712 -1.8760  2.0357  1.1199
 3413SOL     OW21874   0.263   2.632   4.639  0.1692  0.5720  0.1143
 3413SOL    HW121875   0.248   2.548   4.682  0.9087  0.7400  0.6957
 3413SOL    HW221876   0.175   2.665   4.657  0.2805  0.4523  0.8859
 3414SOL     OW21877   1.847   0.166   2.027 -0.7103 -0.6249  0.1738
 3414SOL    HW121878   1.851   0.248   2.076  0.2816 -1.6148  1.7586
 3414SOL    HW221879   1.829   0.094   2.089  1.1713 -0.6747  0.6701
 3415SOL     OW21880   2.706   1.308  10.028 -0.6140  0.8375 -0.3679
 3415SOL    HW121881   2.695   1.403  10.023 -1.1628  0.8443  1.0316
 3415SOL    HW221882   2.624   1.266  10.003  0.1433 -0.5590 -0.5246
 3416SOL     OW21883   4.519   0.996   1.081 -0.5740 -0.1136 -0.6682
 3416SOL    HW121884   4.479   1.079   1.056 -2.3946 -0.8572 -0.2432
 3416SOL    HW221885   4.607   1.011   1.048 -0.1532 -1.1052  0.0099
 3417SOL     OW21886   3.999   0.244   6.334  0.3432  0.6330 -0.3125
 3417SOL    HW121887   3.924   0.234   6.277 -0.3538 -2.1393  1.0917
 3417SOL    HW221888   4.070   0.216   6.276 -0.3269 -0.9196 -0.3761
 3418SOL     OW21889   3.580   4.368   0.566  0.2122 -0.2879 -0.1724
 3418SOL    HW121890   3.622   4.297   0.615  0.3715 -1.1956 -1.6166
 3418SOL    HW221891   3.559   4.328   0.482 -0.8782 -0.3995  0.1483
 3419SOL     OW21892   4.703   2.977  14.121 -0.0332 -0.2132 -0.5094
 3419SOL    HW121893   0.017   3.055  14.143  0.3825 -1.0009  1.2763
 3419SOL    HW221894   4.661   2.953  14.204 -0.4883  2.4621  0.0325
 3420SOL     OW21895   0.031   3.114   6.313 -0.3161 -0.4792 -0.0698
 3420SOL    HW121896   4.679   3.102   6.346  0.0226  0.1357  1.0602
 3420SOL    HW221897   0.074   3.052   6.372  1.3073 -1.6464 -2.4941
 3421SOL     OW21898   4.436   2.883  11.151 -0.1598 -0.0564 -0.2686
 3421SOL    HW121899   4.367   2.870  11.086  1.5564  0.2274 -2.1584
 3421SOL    HW221900   4.513   2.899  11.096  1.3767  2.6662  2.6262
 3422SOL     OW21901   4.498   4.667   1.769 -0.1756 -0.0534  0.4416
 3422SOL    HW121902   4.406   4.689   1.755  0.8108  2.7899 -1.8675
 3422SOL    HW221903   4.551   0.003   1.735 -1.0913  0.2644 -0.3191
 3423SOL     OW21904   4.137   3.746   0.065 -0.3619 -0.1447 -0.0430
 3423SOL    HW121905   4.042   3.738   0.059 -0.4461  1.5135 -1.0905
 3423SOL    HW221906   4.162   3.690  17.737 -0.6331  0.4125 -0.5680
 3424SOL     OW21907   3.676   4.491   4.967 -0.6091 -0.6682  0.5893
 3424SOL    HW121908   3.597   4.442   4.989 -1.6799  1.5855  1.6715
 3424SOL    HW221909   3.746   4.426   4.980  0.7581  0.7205  0.1389
 3425SOL     OW21910   1.966   1.207  13.867  0.2806  0.4237  0.2199
 3425SOL    HW121911   1.973   1.112  13.853 -0.2417  0.4524 -0.2057
 3425SOL    HW221912   1.906   1.227  13.796 -0.1692 -1.6663 -0.0101
 3426SOL     OW21913   0.627   4.362  12.041 -0.8139 -0.1156  0.0491
 3426SOL    HW121914   0.700   4.313  12.078  1.7792  2.6287 -1.4816
 3426SOL    HW221915   0.667   4.431  11.988  0.7382 -2.6089 -2.0059
 3427SOL     OW21916   2.660   4.315   6.958 -0.1823 -0.3292 -0.3703
 3427SOL    HW121917   2.668   4.386   7.021  0.8641  0.7047 -1.6843
 3427SOL    HW221918   2.752   4.304   6.934  0.5819 -0.3160  2.5549
 3428SOL     OW21919   3.559   1.172   9.081  0.7010 -0.0390  1.0718
 3428SOL    HW121920   3.556   1.192   8.987  0.8610  0.5187  1.1881
 3428SOL    HW221921   3.603   1.250   9.115 -1.4974  1.1574  1.1478
 3429SOL     OW21922   0.042   3.808  15.968  0.2413 -0.0260  0.8438
 3429SOL    HW121923   0.045   3.723  15.925  1.7231 -0.2789  1.4132
 3429SOL    HW221924   4.696   3.847  15.941 -0.5681 -1.7541  0.8378
 3430SOL     OW21925   1.587   3.312   8.172  0.2552 -0.3330 -0.1417
 3430SOL    HW121926   1.659   3.342   8.117  1.9238 -0.4022  1.9957
 3430SOL    HW221927   1.531   3.389   8.163  1.6994  1.1315  3.3135
 3431SOL     OW21928   0.513   1.725  11.189  0.0830  0.0269  0.1901
 3431SOL    HW121929   0.453   1.796  11.209 -0.5832  0.2778 -2.6492
 3431SOL    HW221930   0.516   1.666  11.264 -0.5667 -1.3603 -0.8751
 3432SOL     OW21931   4.173   3.053   2.053  0.0353  0.0452 -0.0892
 3432SOL    HW121932   4.084   3.073   2.025  0.2528  0.1414 -0.7044
 3432SOL    HW221933   4.172   3.080   2.145 -0.9015  2.0698 -0.6911
 3433SOL     OW21934   0.649   1.380   0.625 -0.6150 -0.4334  0.0531
 3433SOL    HW121935   0.673   1.290   0.648  2.0259 -0.3415 -2.4369
 3433SOL    HW221936   0.606   1.404   0.707 -1.2729 -1.2431 -0.0522
 3434SOL     OW21937   0.730   2.443   8.015 -0.0901 -0.3885  0.2898
 3434SOL    HW121938   0.728   2.395   7.932 -1.6022  1.6426 -0.8341
 3434SOL    HW221939   0.816   2.421   8.053 -1.0675 -4.3958  0.1357
 3435SOL     OW21940   4.398   2.559   2.881  1.0248  0.4409 -0.3463
 3435SOL    HW121941   4.483   2.551   2.924 -0.3597 -0.2104  2.2708
 3435SOL    HW221942   4.418   2.521   2.795 -2.3052 -1.6087 -0.2039
 3436SOL     OW21943   3.877   0.238   7.398 -0.1950  0.0135  0.0437
 3436SOL    HW121944   3.794   0.266   7.438 -0.5654  1.1120 -1.4963
 3436SOL    HW221945   3.846   0.227   7.308  3.5421 -0.7657 -1.1616
 3437SOL     OW21946   3.381   3.112   1.282 -0.3015  0.0184  0.3221
 3437SOL    HW121947   3.344   3.186   1.329 -0.7956  0.2552 -0.4410
 3437SOL    HW221948   3.351   3.047   1.345 -1.1231 -0.8671 -0.9917
 3438SOL     OW21949   0.040   0.837   4.585 -0.4031  0.9802  0.0964
 3438SOL    HW121950   0.035   0.924   4.625  1.3357  1.1579 -0.0539
 3438SOL    HW221951   4.705   0.836   4.522  0.8266 -2.1900 -1.2402
 3439SOL     OW21952   0.836   1.862   0.479  0.2308 -0.6448 -0.6804
 3439SOL    HW121953   0.830   1.895   0.569  0.7287 -1.3932 -0.3705
 3439SOL    HW221954   0.781   1.784   0.493 -1.2546  0.7284  1.1056
 3440SOL     OW21955   2.677   4.306   7.402  0.0172  0.0730 -0.6548
 3440SOL    HW121956   2.687   4.305   7.497 -2.0084  0.4533 -0.4301
 3440SOL    HW221957   2.754   4.356   7.374  0.3597  0.2103  0.5436
 3441SOL     OW21958   2.997   4.561   3.399  0.6373  0.0256 -0.1511
 3441SOL    HW121959   2.905   4.581   3.384  0.3411 -0.0097  1.6388
 3441SOL    HW221960   3.023   4.630   3.460  0.0556  0.4384 -0.3681
 3442SOL     OW21961   3.892   3.720  11.382 -0.0818  0.2037 -0.6133
 3442SOL    HW121962   3.889   3.814  11.362  1.6884  0.9524  2.5461
 3442SOL    HW221963   3.804   3.685  11.368 -0.3406 -0.1451  1.7693
 3443SOL     OW21964   1.262   1.383   5.447  0.1036 -0.2897 -0.5759
 3443SOL    HW121965   1.345   1.410   5.487  0.9624 -1.4508 -1.6158
 3443SOL    HW221966   1.263   1.288   5.450  0.8615 -0.3585 -3.0610
 3444SOL     OW21967   0.206   3.934   1.277 -0.2825  0.3245  0.1279
 3444SOL    HW121968   0.140   3.869   1.254 -0.6788 -0.0198  2.1976
 3444SOL    HW221969   0.160   4.012   1.248  0.1286  0.3777 -0.3936
 3445SOL     OW21970   1.165   4.599   2.479  0.1512 -0.7494  0.2308
 3445SOL    HW121971   1.231   4.567   2.418  2.9523 -1.2421  3.5074
 3445SOL    HW221972   1.089   4.559   2.436 -0.2359 -2.7281  2.7237
 3446SOL     OW21973   1.224   1.246   3.000  0.1818  0.1604 -0.2099
 3446SOL    HW121974   1.303   1.242   2.947 -0.8083  1.8878 -1.7966
 3446SOL    HW221975   1.258   1.250   3.090 -1.2858 -0.4725  0.3711
 3447SOL     OW21976   0.470   3.466   6.867  0.4232  0.3055  0.2114
 3447SOL    HW121977   0.536   3.430   6.809 -0.9712 -0.1429 -1.0877
 3447SOL    HW221978   0.396   3.423   6.825  0.0239  0.6612  0.5437
 3448SOL     OW21979   4.496   0.815   5.005 -0.6287 -0.2348  0.1659
 3448SOL    HW121980   4.467   0.877   4.937  0.6418  0.1506 -0.0384
 3448SOL    HW221981   4.552   0.747   4.966 -0.4374  0.7457 -1.2876
 3449SOL     OW21982   2.181   1.818   7.095 -0.2788 -0.0204  0.1430
 3449SOL    HW121983   2.243   1.816   7.168  0.8561  2.2890 -0.7463
 3449SOL    HW221984   2.232   1.872   7.034  0.0196 -0.1381  0.2890
 3450SOL     OW21985   2.911   3.843   6.511  0.3007  0.4192 -0.7107
 3450SOL    HW121986   2.877   3.768   6.559 -0.7644  1.8159  0.7083
 3450SOL    HW221987   2.848   3.835   6.439  0.1866  0.5337 -0.6237
 3451SOL     OW21988   4.209   2.591   1.619 -0.6272 -0.3900 -0.6773
 3451SOL    HW121989   4.198   2.496   1.605 -1.2499 -0.1322 -1.9518
 3451SOL    HW221990   4.178   2.598   1.709 -0.2290  0.1855 -0.5868
 3452SOL     OW21991   2.350   0.404   5.862 -0.5539 -0.4527 -0.8852
 3452SOL    HW121992   2.436   0.392   5.822  0.2122 -2.2387  1.3696
 3452SOL    HW221993   2.325   0.481   5.809  2.7920  0.3712 -1.2392
 3453SOL     OW21994   2.452   4.625   5.278  0.4886  0.3159 -0.0773
 3453SOL    HW121995   2.493   4.619   5.192  1.7524  0.6712  0.4941
 3453SOL    HW221996   2.519   4.663   5.335 -0.1623  0.8222  0.3581
 3454SOL     OW21997   1.825   0.999  16.802 -0.3808 -0.5133  0.4058
 3454SOL    HW121998   1.892   1.049  16.755  0.1035 -1.2378  0.3231
 3454SOL    HW221999   1.796   0.955  16.721  2.1759  0.8295 -1.2295
 3455SOL     OW22000   2.143   3.167   2.475  0.3932  0.1549 -0.1507
 3455SOL    HW122001   2.222   3.192   2.524  0.1844 -1.1958  0.8738
 3455SOL    HW222002   2.173   3.114   2.401 -1.8093 -1.9045  0.4402
 3456SOL     OW22003   1.420   1.543   7.184  0.0389  0.2537 -0.3680
 3456SOL    HW122004   1.454   1.526   7.096 -1.9709  2.6187 -1.5835
 3456SOL    HW222005   1.441   1.464   7.234  1.9792 -0.4483 -2.2803
 3457SOL     OW22006   1.541   2.826  13.816 -0.1665 -0.8874 -0.1969
 3457SOL    HW122007   1.580   2.856  13.899 -0.0227  2.4252 -1.4718
 3457SOL    HW222008   1.545   2.731  13.822 -0.3417 -0.9503 -1.1916
 3458SOL     OW22009   3.700   2.165   4.944  0.3325  0.1890 -0.4984
 3458SOL    HW122010   3.721   2.240   4.889  0.3386  1.4346  1.1870
 3458SOL    HW222011   3.790   2.134   4.956 -0.1046 -1.3043 -1.1752
 3459SOL     OW22012   2.837   3.298   4.917 -0.2111 -0.1796 -0.0148
 3459SOL    HW122013   2.783   3.227   4.953  0.1858  0.0823  1.1094
 3459SOL    HW222014   2.796   3.378   4.949  0.7694 -1.1391  3.6240
 3460SOL     OW22015   4.083   3.894   5.734  0.3631  1.1819 -0.4859
 3460SOL    HW122016   4.031   3.876   5.655 -0.3982  2.5136 -0.2760
 3460SOL    HW222017   4.127   3.976   5.712 -1.4553  2.0027 -1.0412
 3461SOL     OW22018   2.608   1.137  14.880 -0.0561  0.6446 -0.0575
 3461SOL    HW122019   2.533   1.196  14.867 -0.2268  0.9918  2.6428
 3461SOL    HW222020   2.606   1.121  14.974  0.4019  0.2487 -0.1159
 3462SOL     OW22021   3.395   2.423  13.205  0.4914 -0.3457  0.2016
 3462SOL    HW122022   3.335   2.439  13.132 -1.5834 -0.7888  1.8278
 3462SOL    HW222023   3.443   2.355  13.158 -0.9090 -0.8559 -0.5082
 3463SOL     OW22024   1.619   3.037   4.342 -0.0536 -0.0953 -0.1265
 3463SOL    HW122025   1.564   3.050   4.265 -0.3946 -0.0036  0.1309
 3463SOL    HW222026   1.559   2.993   4.403  0.4203 -0.4484  0.0786
 3464SOL     OW22027   4.077   0.199  17.045  0.1605  0.2714 -0.4017
 3464SOL    HW122028   4.136   0.193  17.121  1.6309 -1.0979 -1.6485
 3464SOL    HW222029   3.998   0.242  17.077 -0.4538 -2.1777  1.4494
 3465SOL     OW22030   0.787   1.494   4.121 -0.5464 -0.6915  0.3520
 3465SOL    HW122031   0.707   1.544   4.102 -0.9802 -0.6420  2.2767
 3465SOL    HW222032   0.778   1.414   4.069 -1.2990 -0.9483  0.8661
 3466SOL     OW22033   3.095   1.799  14.193 -0.9295 -0.0496  0.1307
 3466SOL    HW122034   3.126   1.774  14.106  3.7439 -0.5487  1.9290
 3466SOL    HW222035   3.168   1.852  14.225  0.2598 -0.4057 -2.0049
 3467SOL     OW22036   3.389   2.480   0.372  0.4000 -0.1798  0.4308
 3467SOL    HW122037   3.338   2.399   0.378  1.0435 -0.5985  0.1974
 3467SOL    HW222038   3.434   2.461   0.454 -2.4625 -0.6237  1.9143
 3468SOL     OW22039   3.737   2.343   6.448 -0.1719 -0.3051 -0.4209
 3468SOL    HW122040   3.762   2.360   6.538  1.2863  0.5900 -0.9916
 3468SOL    HW222041   3.693   2.259   6.451  1.4763 -1.1280  0.4758
 3469SOL     OW22042   2.682   3.831  16.710  0.3899 -0.1066  0.0624
 3469SOL    HW122043   2.673   3.926  16.718 -0.2787 -0.5031  3.9743
 3469SOL    HW222044   2.675   3.801  16.801 -0.0291 -0.4021 -0.0703
 3470SOL     OW22045   1.048   2.708   8.293 -0.1753  0.0336 -0.4269
 3470SOL    HW122046   1.016   2.660   8.216 -0.3824 -0.4048 -0.0737
 3470SOL    HW222047   1.140   2.712   8.269  0.3146 -0.4221  1.3962
 3471SOL     OW22048   3.835   4.148  13.363 -0.3826  0.6471  0.5718
 3471SOL    HW122049   3.786   4.112  13.290  1.0660  2.1457 -1.1617
 3471SOL    HW222050   3.804   4.110  13.445  1.4707  0.3885  1.1478
 3472SOL     OW22051   0.301   2.854   9.180  0.1585 -0.2544 -0.0456
 3472SOL    HW122052   0.297   2.934   9.128  0.8258 -0.0730  0.1869
 3472SOL    HW222053   0.241   2.876   9.251  0.3096  0.5147 -0.1646
 3473SOL     OW22054   4.017   4.308   3.039  0.0501 -0.6592  0.0722
 3473SOL    HW122055   4.084   4.328   3.105  0.0527 -0.2148 -0.0677
 3473SOL    HW222056   4.041   4.363   2.964  0.3097 -1.3981 -0.3856
 3474SOL     OW22057   0.274   0.415  16.322  0.3968 -0.5754 -0.0127
 3474SOL    HW122058   0.225   0.411  16.404 -0.8954  1.1528 -0.6808
 3474SOL    HW222059   0.199   0.415  16.262  0.6199 -2.4908 -0.2779
 3475SOL     OW22060   2.048   1.492   1.950  0.3651  0.4159  0.2204
 3475SOL    HW122061   2.126   1.488   1.895 -0.6462 -0.8595 -1.1179
 3475SOL    HW222062   2.056   1.416   2.006 -3.5048  0.9349  1.5027
 3476SOL     OW22063   1.223   1.459   5.189  0.1308 -0.0287 -0.5085
 3476SOL    HW122064   1.245   1.452   5.282 -0.1801  0.7899 -0.3695
 3476SOL    HW222065   1.170   1.379   5.188  0.1253  0.0028 -2.1448
 3477SOL     OW22066   2.693   2.985   2.727  0.3678  0.2703 -0.0051
 3477SOL    HW122067   2.742   2.906   2.704  0.4949  0.4832 -0.4667
 3477SOL    HW222068   2.606   2.947   2.736  1.5004 -1.9315  1.6992
 3478SOL     OW22069   3.946   4.670  16.892 -0.2434 -0.1556 -0.0374
 3478SOL    HW122070   3.862   4.651  16.931 -1.9979  4.4074 -1.5664
 3478SOL    HW222071   3.959   0.028  16.903  2.0773 -0.3834 -0.6251
 3479SOL     OW22072   0.828   2.204   0.913 -0.3963 -0.2299  0.5967
 3479SOL    HW122073   0.921   2.182   0.918 -0.5225 -0.6240  1.1979
 3479SOL    HW222074   0.801   2.161   0.994  0.8731  2.2521  2.3345
 3480SOL     OW22075   2.790   2.412   9.848  0.4569 -0.8711  0.1831
 3480SOL    HW122076   2.878   2.432   9.880 -0.1278  0.5935  0.8732
 3480SOL    HW222077   2.805   2.391   9.756 -0.3627  1.1149 -0.4057
 3481SOL     OW22078   1.570   0.438   3.774  0.0804  0.2044  0.1098
 3481SOL    HW122079   1.497   0.493   3.746 -0.8696 -0.2274  1.7055
 3481SOL    HW222080   1.638   0.471   3.716 -0.4315  1.7669  0.4148
 3482SOL     OW22081   4.594   0.771   6.621 -0.0744 -0.1853 -0.0771
 3482SOL    HW122082   4.502   0.776   6.594 -0.6840 -2.7855  1.4417
 3482SOL    HW222083   4.603   0.677   6.639 -1.6880 -0.2433  0.4290
 3483SOL     OW22084   3.298   1.998  16.740  0.1018 -0.2338  0.8002
 3483SOL    HW122085   3.374   2.030  16.788 -1.0317  0.9876  1.7927
 3483SOL    HW222086   3.328   1.982  16.650 -3.2986  0.9869 -0.5669
 3484SOL     OW22087   0.914   2.325   0.676 -0.8049 -0.2459 -0.0456
 3484SOL    HW122088   0.876   2.275   0.749 -1.8007 -0.3544 -0.6325
 3484SOL    HW222089   0.981   2.263   0.647 -1.2226 -1.0946  0.8065
 3485SOL     OW22090   3.310   3.745   5.947  0.3219  0.7012  0.1900
 3485SOL    HW122091   3.329   3.676   5.884 -1.2650  1.3692 -1.0177
 3485SOL    HW222092   3.358   3.815   5.904  0.1623  0.6727 -0.0352
 3486SOL     OW22093   3.403   4.333   1.987 -0.4509 -0.0918  1.0107
 3486SOL    HW122094   3.399   4.243   2.019 -0.0744  0.2615  2.0455
 3486SOL    HW222095   3.498   4.344   1.986 -0.5392  0.8305  1.7293
 3487SOL     OW22096   0.615   1.496  12.342  0.5424  0.1848  0.0469
 3487SOL    HW122097   0.694   1.491  12.395  1.6557 -0.4521 -1.6884
 3487SOL    HW222098   0.552   1.539  12.401 -0.1300  0.5656 -0.9487
 3488SOL     OW22099   0.236   0.201   6.398  0.6212  0.4445  0.0142
 3488SOL    HW122100   0.245   0.198   6.302 -0.8368 -3.0993  0.0001
 3488SOL    HW222101   0.169   0.267   6.413  1.1007  1.3484 -1.8096
 3489SOL     OW22102   3.214   3.857   2.771 -0.1708  0.4044 -0.5211
 3489SOL    HW122103   3.213   3.839   2.865  3.1286  0.3339 -0.5036
 3489SOL    HW222104   3.228   3.952   2.778 -1.1771  0.5723 -0.8487
 3490SOL     OW22105   4.240   0.846   8.073 -0.0376  0.7169  0.3109
 3490SOL    HW122106   4.163   0.899   8.054 -1.0954 -0.4200  1.4371
 3490SOL    HW222107   4.205   0.763   8.040 -0.8952  1.5087 -0.7761
 3491SOL     OW22108   3.183   1.272   2.069  0.2491 -0.9817 -0.2332
 3491SOL    HW122109   3.265   1.322   2.066  0.8562 -1.9889 -0.6225
 3491SOL    HW222110   3.128   1.338   2.111 -0.6600 -1.6328 -0.3955
 3492SOL     OW22111   3.242   3.792   2.519  0.1111 -0.3447  0.0189
 3492SOL    HW122112   3.217   3.825   2.605  1.0854 -0.5110  0.3572
 3492SOL    HW222113   3.197   3.708   2.530  1.2165 -0.6818  1.9087
 3493SOL     OW22114   2.367   2.253   2.053 -0.6295  0.1935  0.2698
 3493SOL    HW122115   2.319   2.194   1.996  0.6494  0.1335 -0.7498
 3493SOL    HW222116   2.351   2.201   2.131 -0.3087 -1.4596 -0.7577
 3494SOL     OW22117   4.250   4.073   4.720 -0.1733 -0.1614  0.3610
 3494SOL    HW122118   4.188   4.141   4.744  0.0370  0.2178 -0.1936
 3494SOL    HW222119   4.296   4.074   4.804  0.1573  1.8180  0.1374
 3495SOL     OW22120   1.367   2.829   2.111 -0.3047 -0.2605 -0.1837
 3495SOL    HW122121   1.330   2.900   2.163 -1.5926 -0.5511 -0.6894
 3495SOL    HW222122   1.447   2.875   2.089  0.5823 -1.3748  0.7274
 3496SOL     OW22123   0.418   4.367   8.617 -0.6317 -0.5590 -0.0335
 3496SOL    HW122124   0.382   4.286   8.653 -0.5766 -0.9386 -0.8370
 3496SOL    HW222125   0.512   4.348   8.620 -0.8035 -1.6753 -1.5982
 3497SOL     OW22126   4.281   1.195   8.298 -0.7349  0.2450  0.2261
 3497SOL    HW122127   4.187   1.187   8.316 -0.8290 -0.1550 -0.4128
 3497SOL    HW222128   4.277   1.258   8.227 -1.0149  1.9905  1.7919
 3498SOL     OW22129   2.947   1.342   6.445  0.2372  0.2776  0.6858
 3498SOL    HW122130   2.885   1.317   6.377 -0.1213  2.7737  0.1074
 3498SOL    HW222131   2.980   1.427   6.416 -0.4016  0.2204 -0.2082
 3499SOL     OW22132   0.197   0.290  14.277  0.3801 -0.2724 -0.4579
 3499SOL    HW122133   0.221   0.229  14.208  1.5458  0.4636 -0.6935
 3499SOL    HW222134   0.104   0.303  14.262 -0.2632 -0.6132  3.0591
 3500SOL     OW22135   4.595   4.616   9.414 -0.8884 -0.1348  0.0451
 3500SOL    HW122136   4.590   4.669   9.334 -2.0787 -0.5532 -0.1695
 3500SOL    HW222137   4.685   4.628   9.443 -0.6143  1.8908 -1.6379
 3501SOL     OW22138   0.014   3.626   8.717  0.4612 -0.1028 -0.3591
 3501SOL    HW122139   4.697   3.550   8.742  0.2963 -0.1020 -0.7111
 3501SOL    HW222140   0.072   3.633   8.792  1.6330 -2.0738 -1.0727
 3502SOL     OW22141   3.589   2.357   9.126  0.0536  0.0337 -0.1382
 3502SOL    HW122142   3.632   2.316   9.051  2.4833  0.7178  0.8892
 3502SOL    HW222143   3.514   2.298   9.134  1.4294 -1.4888  1.4651
 3503SOL     OW22144   1.521   1.342   3.469  0.7675  0.2492  0.4691
 3503SOL    HW122145   1.516   1.403   3.395 -0.2319 -0.0321  0.3055
 3503SOL    HW222146   1.461   1.377   3.535 -2.9668 -2.5072 -1.4873
 3504SOL     OW22147   0.395   1.688   2.501  0.0552 -0.0946 -0.1630
 3504SOL    HW122148   0.303   1.665   2.507 -0.2891  0.9142 -1.4835
 3504SOL    HW222149   0.375   1.773   2.539  1.6044 -1.4787  3.6846
 3505SOL     OW22150   2.662   3.687   0.396 -0.0779 -0.1672  0.0117
 3505SOL    HW122151   2.594   3.662   0.458  3.1801  0.4778  3.8449
 3505SOL    HW222152   2.740   3.653   0.439  1.4023  2.4155 -0.5928
 3506SOL     OW22153   1.223   1.555   6.812  0.3884  0.0714 -0.4769
 3506SOL    HW122154   1.225   1.462   6.789 -1.2243 -0.7327  2.6781
 3506SOL    HW222155   1.216   1.595   6.725 -0.2492  2.3760  0.6338
 3507SOL     OW22156   0.078   4.459  10.485 -0.3509 -0.2777 -0.0493
 3507SOL    HW122157   0.130   4.380  10.469 -0.4726 -0.4644  0.4714
 3507SOL    HW222158   0.016   4.467  10.412  1.5958  1.7523 -1.4777
 3508SOL     OW22159   2.864   2.880   5.099 -0.5734 -0.7264  0.2574
 3508SOL    HW122160   2.951   2.841   5.094  0.5875  1.5438  2.4899
 3508SOL    HW222161   2.809   2.812   5.059 -0.3618 -1.4117  1.1278
 3509SOL     OW22162   1.121   4.423  14.590  0.3348  0.5178 -0.6501
 3509SOL    HW122163   1.053   4.488  14.577 -0.9092 -0.3166  1.6305
 3509SOL    HW222164   1.182   4.458  14.525  1.1448  0.3292  0.0047
 3510SOL     OW22165   3.852   1.951   8.811 -0.3080 -0.3715  0.0495
 3510SOL    HW122166   3.892   1.918   8.891 -1.6194 -1.3118  0.3283
 3510SOL    HW222167   3.926   1.953   8.750 -0.5387  0.3305 -0.2067
 3511SOL     OW22168   1.668   1.312   6.725  0.2106  0.6283 -0.3583
 3511SOL    HW122169   1.620   1.309   6.642  0.0652  0.3620 -0.2642
 3511SOL    HW222170   1.710   1.398   6.726 -1.1882  1.2703  1.3295
 3512SOL     OW22171   1.016   0.965   3.856  0.8768  0.0294  0.4633
 3512SOL    HW122172   1.074   0.950   3.782  1.2496  1.9596  0.3692
 3512SOL    HW222173   0.933   0.982   3.811  1.6483  2.3379 -0.0622
 3513SOL     OW22174   1.315   0.751  11.640  0.0751 -0.2439 -0.2305
 3513SOL    HW122175   1.280   0.696  11.570  0.4467 -0.7398 -0.0276
 3513SOL    HW222176   1.299   0.839  11.607  2.3659 -0.2177 -1.2569
 3514SOL     OW22177   2.887   4.460   5.723 -0.2413  0.4018  0.1229
 3514SOL    HW122178   2.800   4.476   5.759  1.0960  2.4183  2.4325
 3514SOL    HW222179   2.938   4.513   5.784  1.8968 -0.3303 -1.0419
 3515SOL     OW22180   1.997   1.474   4.126  0.2378 -0.2759  0.6176
 3515SOL    HW122181   2.073   1.420   4.149  0.1647 -0.6230  0.0546
 3515SOL    HW222182   2.017   1.499   4.035 -0.5944 -1.3905  0.1306
 3516SOL     OW22183   0.601   0.625  13.479 -0.5103  0.6560 -0.4014
 3516SOL    HW122184   0.627   0.616  13.571 -1.9375 -0.2142 -0.0753
 3516SOL    HW222185   0.601   0.535  13.446 -1.4221  0.3268  0.5028
 3517SOL     OW22186   2.096   1.044  12.849 -0.4909  0.6267  0.7103
 3517SOL    HW122187   2.016   1.066  12.801 -0.1122  0.8422  0.1715
 3517SOL    HW222188   2.101   1.119  12.908 -2.1260  1.2377  0.0594
 3518SOL     OW22189   4.497   0.424   7.897  0.2834 -0.2909 -0.5173
 3518SOL    HW122190   4.477   0.495   7.836  0.4027  1.3408  1.3560
 3518SOL    HW222191   4.541   0.368   7.832  0.4285 -0.4763 -0.2593
 3519SOL     OW22192   0.298   1.485   9.151 -0.1622  0.2439 -0.2608
 3519SOL    HW122193   0.284   1.549   9.221 -1.1470 -1.4804  1.1092
 3519SOL    HW222194   0.269   1.408   9.200  0.8395  0.5081  0.7659
 3520SOL     OW22195   1.564   2.971  17.332  0.0851 -0.1379 -0.2291
 3520SOL    HW122196   1.532   3.017  17.255 -3.2302  0.4265  1.4743
 3520SOL    HW222197   1.482   2.933  17.364  0.8412 -2.2261 -0.7154
 3521SOL     OW22198   3.525   3.075   6.706 -0.4706 -0.2959  0.2198
 3521SOL    HW122199   3.565   3.142   6.650 -1.3676  0.3195  0.3167
 3521SOL    HW222200   3.474   3.022   6.646 -0.5209  1.4136 -1.2512
 3522SOL     OW22201   1.047   2.615  12.229  0.5509  0.0372  0.6110
 3522SOL    HW122202   0.995   2.637  12.306  0.1663 -0.4862  0.5014
 3522SOL    HW222203   1.060   2.706  12.200 -1.8925  0.3255  0.3857
 3523SOL     OW22204   3.488   4.242   4.660  0.1910  0.5713 -0.1404
 3523SOL    HW122205   3.526   4.174   4.605 -0.0664  1.0718 -0.9351
 3523SOL    HW222206   3.440   4.297   4.598 -1.7822 -1.1862 -0.1567
 3524SOL     OW22207   0.727   0.579   3.987  0.3459 -0.7672  0.0510
 3524SOL    HW122208   0.819   0.576   4.012  0.2957  1.2784  0.4759
 3524SOL    HW222209   0.698   0.504   4.039  0.2132 -2.2266 -2.1542
 3525SOL     OW22210   1.094   2.998  13.443  0.2734 -0.1588 -0.4106
 3525SOL    HW122211   0.998   3.002  13.450  0.1957  1.1483 -2.0875
 3525SOL    HW222212   1.123   3.074  13.493 -1.2298 -0.7824  1.3991
 3526SOL     OW22213   3.755   2.437   4.494 -0.9451 -0.5401 -0.0736
 3526SOL    HW122214   3.748   2.389   4.412 -0.1252  0.8565 -0.9570
 3526SOL    HW222215   3.665   2.445   4.525 -1.0210 -2.5592  0.2497
 3527SOL     OW22216   2.460   0.420   8.266 -0.1760 -0.1490  0.6377
 3527SOL    HW122217   2.387   0.360   8.278  0.0315 -0.4813  0.2399
 3527SOL    HW222218   2.500   0.422   8.354  0.1405  2.3460  0.4378
 3528SOL     OW22219   3.073   4.376   8.325  0.2654  0.1583  0.0337
 3528SOL    HW122220   3.043   4.301   8.376 -0.5429  0.2796 -0.2641
 3528SOL    HW222221   3.139   4.417   8.382 -1.2553  0.3874  1.6217
 3529SOL     OW22222   1.837   2.090   7.131 -0.4754 -0.0438  0.3942
 3529SOL    HW122223   1.762   2.132   7.173 -0.8057 -1.5528  1.3321
 3529SOL    HW222224   1.901   2.143   7.178 -0.8662 -0.1357  1.0376
 3530SOL     OW22225   1.186   2.773   2.985  0.0678 -0.9851  0.2766
 3530SOL    HW122226   1.206   2.763   2.892  2.9886 -2.4713  1.0619
 3530SOL    HW222227   1.175   2.681   3.011 -0.7739 -0.6822  0.9709
 3531SOL     OW22228   3.116   2.348   5.618 -0.6405  0.3849 -0.3000
 3531SOL    HW122229   3.190   2.347   5.679 -0.9807  0.4988  0.1152
 3531SOL    HW222230   3.133   2.408   5.546  1.4819 -0.3783 -0.4223
 3532SOL     OW22231   2.390   4.184   4.449 -0.0843 -0.2067 -0.3361
 3532SOL    HW122232   2.358   4.131   4.522  1.3419 -0.0122  0.4399
 3532SOL    HW222233   2.323   4.252   4.453  1.3711  1.3028 -1.7334
 3533SOL     OW22234   0.614   0.793   3.824 -0.0058 -0.2609  0.1341
 3533SOL    HW122235   0.673   0.776   3.750  2.4525  2.2041  1.5470
 3533SOL    HW222236   0.654   0.739   3.892  1.3688  2.3041  1.3428
 3534SOL     OW22237   2.727   1.758   4.193  0.4156 -0.5334 -0.2774
 3534SOL    HW122238   2.721   1.744   4.098  0.9961  0.0992 -0.4045
 3534SOL    HW222239   2.696   1.848   4.203 -0.6497 -0.8885 -0.3672
 3535SOL     OW22240   0.110   3.715  10.673  0.2125 -0.4315 -0.3456
 3535SOL    HW122241   0.046   3.672  10.730  1.1687 -2.1613 -0.5744
 3535SOL    HW222242   0.109   3.656  10.597  1.7871  0.9905 -1.4553
 3536SOL     OW22243   0.785   3.614   2.146 -1.1670 -0.5457 -0.0492
 3536SOL    HW122244   0.763   3.701   2.114  0.6792 -0.1150 -0.1577
 3536SOL    HW222245   0.758   3.560   2.072 -1.2660  1.6855 -1.6249
 3537SOL     OW22246   0.724   2.586   1.997  0.1611 -0.4643 -0.3974
 3537SOL    HW122247   0.685   2.665   1.959  0.5946  0.0809  0.2996
 3537SOL    HW222248   0.815   2.610   1.980 -0.4888  1.9247 -0.5225
 3538SOL     OW22249   1.991   2.212  12.167  0.2372  0.4207  0.8833
 3538SOL    HW122250   2.030   2.144  12.112 -0.5444  0.5776  0.1438
 3538SOL    HW222251   1.932   2.152  12.212 -0.8289  1.6468  1.1120
 3539SOL     OW22252   0.891   0.137   2.971  0.0014  0.1280 -0.6259
 3539SOL    HW122253   0.941   0.056   2.981  0.3758  0.4720  0.2609
 3539SOL    HW222254   0.854   0.137   2.883 -1.5519 -1.7861  0.0351
 3540SOL     OW22255   0.315   4.072   8.077 -0.4659  0.5256 -0.6153
 3540SOL    HW122256   0.383   4.113   8.025 -0.1698 -2.3948 -2.5265
 3540SOL    HW222257   0.320   3.990   8.028 -2.4594  0.1577 -0.2060
 3541SOL     OW22258   0.583   1.772   3.776 -0.4015 -0.4675 -0.1464
 3541SOL    HW122259   0.621   1.686   3.760  1.2041  0.2257 -0.0401
 3541SOL    HW222260   0.611   1.799   3.863  0.7172  0.2242 -0.7271
 3542SOL     OW22261   3.293   3.160   5.011  0.1171  0.1303 -0.1715
 3542SOL    HW122262   3.262   3.209   4.935  0.1437  1.8742  0.9274
 3542SOL    HW222263   3.239   3.188   5.086 -0.5029  0.1721 -0.6303
 3543SOL     OW22264   0.681   1.843   4.563 -0.2762  0.0595 -0.0308
 3543SOL    HW122265   0.769   1.816   4.591 -0.9006 -0.7743  1.1589
 3543SOL    HW222266   0.674   1.811   4.473 -1.5250 -1.0829  0.4743
 3544SOL     OW22267   3.189   4.084   7.322 -0.2130 -0.6717  0.1294
 3544SOL    HW122268   3.252   4.145   7.361  1.6794 -1.5007 -1.6380
 3544SOL    HW222269   3.185   4.019   7.392  0.5615 -0.6368  0.2095
 3545SOL     OW22270   2.832   2.405  16.411 -0.8617 -0.2115 -0.0100
 3545SOL    HW122271   2.776   2.341  16.454  0.0172 -1.6734 -1.0621
 3545SOL    HW222272   2.781   2.437  16.337 -0.0149  0.5207 -0.2864
 3546SOL     OW22273   0.795   1.345  16.390  0.3209 -0.2012 -0.0916
 3546SOL    HW122274   0.797   1.344  16.485 -1.2678  1.0031 -0.0500
 3546SOL    HW222275   0.890   1.341  16.377  0.1887  0.1872 -1.2285
 3547SOL     OW22276   3.940   0.527   5.294 -0.2037 -0.5797 -0.4659
 3547SOL    HW122277   4.016   0.537   5.351 -0.7168 -0.3393  0.1840
 3547SOL    HW222278   3.954   0.597   5.230  0.5295 -0.7498 -0.4837
 3548SOL     OW22279   2.194   0.351   8.650  1.1459 -0.4217 -0.4382
 3548SOL    HW122280   2.126   0.370   8.585 -0.6619 -3.8191  0.4446
 3548SOL    HW222281   2.160   0.400   8.725 -0.0615  0.7236 -1.7233
 3549SOL     OW22282   2.741   3.545   4.995  0.0251  0.2507  0.3729
 3549SOL    HW122283   2.647   3.539   4.981  0.3266 -1.2570 -0.9797
 3549SOL    HW222284   2.766   3.625   4.948 -1.4375  0.2223 -0.4630
 3550SOL     OW22285   0.535   1.353  14.201 -0.1361 -0.0168  0.2343
 3550SOL    HW122286   0.617   1.377  14.242  0.8181 -0.0558 -1.6381
 3550SOL    HW222287   0.492   1.434  14.173  0.1218  0.3893  1.0291
 3551SOL     OW22288   3.333   2.484  13.814 -0.4973  0.4910 -0.4653
 3551SOL    HW122289   3.329   2.527  13.899  1.8461 -2.5304  1.2001
 3551SOL    HW222290   3.272   2.411  13.826 -0.3876  0.6650  1.1343
 3552SOL     OW22291   3.716   2.908   9.432  0.4102  0.0423  0.1188
 3552SOL    HW122292   3.629   2.943   9.411  0.7504 -0.9768 -3.0550
 3552SOL    HW222293   3.770   2.986   9.417 -0.7582  0.6777 -0.7872
 3553SOL     OW22294   4.706   1.662   3.140 -0.2686  0.3714 -0.3125
 3553SOL    HW122295   4.632   1.694   3.192  1.0824 -0.1716  1.9291
 3553SOL    HW222296   0.023   1.741   3.144 -1.4734  1.1135  1.1398
 3554SOL     OW22297   0.911   2.691   3.209  0.7659  0.2286 -0.3910
 3554SOL    HW122298   0.872   2.635   3.276  1.0195  0.5599  0.0315
 3554SOL    HW222299   0.865   2.672   3.127 -1.4460  0.4898  0.7832
 3555SOL     OW22300   1.550   0.664  17.288  0.4824 -0.1033  0.0848
 3555SOL    HW122301   1.538   0.576  17.251 -0.1482 -0.2680  0.6882
 3555SOL    HW222302   1.461   0.697  17.278  0.2915 -1.1019 -1.5729
 3556SOL     OW22303   0.611   2.797   7.090 -0.0761  0.1875  0.1374
 3556SOL    HW122304   0.678   2.858   7.120 -0.1388 -0.5604  1.8009
 3556SOL    HW222305   0.615   2.723   7.150  2.1645  0.9556  0.9197
 3557SOL     OW22306   1.183   1.829  10.290 -0.1673 -0.0199  0.0066
 3557SOL    HW122307   1.193   1.787  10.375 -2.6978  1.8213  1.1987
 3557SOL    HW222308   1.092   1.806  10.273 -0.7484  2.5186 -0.3741
 3558SOL     OW22309   1.713   2.018   6.708  0.0538  0.4835 -0.2442
 3558SOL    HW122310   1.661   1.943   6.678  0.8634  1.0262 -2.9996
 3558SOL    HW222311   1.657   2.053   6.777 -0.1488  0.4715 -0.4034
 3559SOL     OW22312   2.821   0.481   6.385  0.7009 -0.0423  0.5571
 3559SOL    HW122313   2.772   0.496   6.304  0.7621 -1.1832  0.3091
 3559SOL    HW222314   2.874   0.404   6.365 -1.0160 -1.1683  0.2960
 3560SOL     OW22315   1.416   1.053   8.517 -0.1065 -0.4923 -0.1876
 3560SOL    HW122316   1.344   1.057   8.580 -0.4639  0.4307 -0.6516
 3560SOL    HW222317   1.382   1.113   8.451  0.9917  1.0880  0.6755
 3561SOL     OW22318   2.856   1.092   7.264 -0.2225  0.7167  0.2580
 3561SOL    HW122319   2.767   1.062   7.280 -0.1853  0.1931 -0.5400
 3561SOL    HW222320   2.839   1.176   7.308 -0.0439  0.4813  0.7740
 3562SOL     OW22321   4.375   0.860   1.437 -0.3992 -0.2511  0.4667
 3562SOL    HW122322   4.379   0.946   1.478  0.7544 -1.2989  2.6073
 3562SOL    HW222323   4.432   0.807   1.493  0.6748 -0.5389 -0.9104
 3563SOL     OW22324   2.594   4.182   1.223  0.0151 -0.0437  0.2896
 3563SOL    HW122325   2.545   4.213   1.147  1.8524 -0.6271 -1.1252
 3563SOL    HW222326   2.536   4.188   1.299  0.4527 -0.4778  0.6570
 3564SOL     OW22327   1.876   0.549  15.256 -0.1850 -0.5637  0.6337
 3564SOL    HW122328   1.782   0.533  15.269 -0.5311 -0.6238 -1.9619
 3564SOL    HW222329   1.890   0.476  15.195 -0.0597 -1.2182  1.4388
 3565SOL     OW22330   2.609   4.298   4.569 -0.1905 -0.1156 -0.0595
 3565SOL    HW122331   2.599   4.388   4.539  2.1733 -0.6375 -2.4342
 3565SOL    HW222332   2.540   4.255   4.517 -1.0377  1.0938  0.0546
 3566SOL     OW22333   0.558   1.912   2.991  0.3698  0.0132  0.5507
 3566SOL    HW122334   0.514   1.831   2.964  0.8052  0.5806 -1.8735
 3566SOL    HW222335   0.508   1.980   2.946  0.7351 -0.4843 -0.6156
 3567SOL     OW22336   3.379   2.639  14.964  0.0122  0.5720 -0.1087
 3567SOL    HW122337   3.406   2.670  14.878  1.1949 -2.8609 -0.9594
 3567SOL    HW222338   3.328   2.562  14.938 -0.0329  0.7955 -0.6770
 3568SOL     OW22339   4.503   4.020   2.948 -0.6421  0.2610 -0.4034
 3568SOL    HW122340   4.593   4.020   2.916  0.2003  0.2300  1.9280
 3568SOL    HW222341   4.487   4.099   2.999 -2.3526 -0.2495 -0.1399
 3569SOL     OW22342   0.843   3.178   6.521 -0.1783 -0.1001  0.1184
 3569SOL    HW122343   0.779   3.135   6.577 -0.4752  1.0477  0.6557
 3569SOL    HW222344   0.887   3.218   6.596  0.9793 -2.6348  0.7933
 3570SOL     OW22345   4.697   4.500   2.523  0.1129  0.1254 -0.4463
 3570SOL    HW122346   0.006   4.546   2.452 -0.9956 -1.1243 -1.9886
 3570SOL    HW222347   0.007   4.417   2.535  0.8042  0.5319 -0.3215
 3571SOL     OW22348   3.146   1.908   9.032  0.0854  0.0472  0.4482
 3571SOL    HW122349   3.210   1.844   9.002  0.0439  0.6959 -1.0512
 3571SOL    HW222350   3.068   1.883   8.983 -0.1008  0.3378  0.5963
 3572SOL     OW22351   1.085   0.779   2.713  0.2299 -0.0214  0.3585
 3572SOL    HW122352   1.164   0.790   2.659 -1.5026 -0.5601 -2.2736
 3572SOL    HW222353   1.079   0.866   2.752 -0.2598  1.4996 -3.1041
 3573SOL     OW22354   1.841   1.461  16.266  0.0699  0.5707  0.2473
 3573SOL    HW122355   1.876   1.442  16.353 -0.9002 -1.6586  0.1394
 3573SOL    HW222356   1.862   1.377  16.227 -0.8246 -0.7626  2.5735
 3574SOL     OW22357   1.752   2.551  12.209 -0.1376 -0.7876  0.0420
 3574SOL    HW122358   1.708   2.531  12.292  0.9606  0.0496  0.8390
 3574SOL    HW222359   1.737   2.646  12.207  4.3380 -0.0718  0.5108
 3575SOL     OW22360   2.541   3.528  13.193  0.5244 -0.7366 -0.1752
 3575SOL    HW122361   2.501   3.560  13.112  0.0867 -0.6203  0.0866
 3575SOL    HW222362   2.480   3.573  13.251  3.2009  1.4851  0.9221
 3576SOL     OW22363   3.978   3.260   2.747  0.4589 -0.0646  0.1334
 3576SOL    HW122364   4.034   3.322   2.700 -1.3500  1.4915  0.0352
 3576SOL    HW222365   4.040   3.240   2.817 -1.8507  0.4203  2.3186
 3577SOL     OW22366   1.265   2.148   1.928 -0.0783 -0.7103  0.3314
 3577SOL    HW122367   1.320   2.128   2.004 -1.4992 -1.0108  1.2793
 3577SOL    HW222368   1.202   2.076   1.927 -3.1571  1.9979 -0.5687
 3578SOL     OW22369   1.046   0.975  14.609 -0.3458 -0.5402 -0.3584
 3578SOL    HW122370   0.993   1.052  14.590 -0.5427 -0.5218  0.2648
 3578SOL    HW222371   1.032   0.926  14.528 -0.5520  1.7485 -1.7070
 3579SOL     OW22372   1.506   2.576  14.151  0.7795 -0.1576  0.4807
 3579SOL    HW122373   1.479   2.551  14.062  0.1659  1.9546  0.0623
 3579SOL    HW222374   1.594   2.540  14.159 -0.2210 -2.1481  2.3861
 3580SOL     OW22375   4.028   2.460   6.995 -0.0904 -0.1686  0.2414
 3580SOL    HW122376   3.939   2.489   6.977  0.0523 -1.4201 -2.4930
 3580SOL    HW222377   4.040   2.492   7.085 -2.1320  0.1482  0.4047
 3581SOL     OW22378   0.440   0.146   8.083  0.7774 -0.0641  0.5579
 3581SOL    HW122379   0.490   0.208   8.135 -1.8798  2.4983  0.0337
 3581SOL    HW222380   0.440   0.077   8.149  1.0313 -1.9525 -1.3890
 3582SOL     OW22381   2.655   0.444   1.093 -0.0253  0.8007  0.1077
 3582SOL    HW122382   2.670   0.368   1.150  1.0785  2.5564  2.1703
 3582SOL    HW222383   2.623   0.410   1.010 -0.3158 -0.3187  0.6846
 3583SOL     OW22384   2.104   2.876   7.831  0.3039  0.2725  0.1531
 3583SOL    HW122385   2.140   2.854   7.917  3.0363  0.5325 -0.8901
 3583SOL    HW222386   2.087   2.968   7.850  0.7305  0.1549  1.1083
 3584SOL     OW22387   1.769   3.503   7.378 -0.1450  0.9710 -0.0810
 3584SOL    HW122388   1.761   3.431   7.316 -0.4540  1.4230 -0.5663
 3584SOL    HW222389   1.858   3.481   7.404  0.0167  1.1852 -0.4561
 3585SOL     OW22390   4.616   4.213   4.449  0.2080 -0.1099  0.5668
 3585SOL    HW122391   4.597   4.159   4.373  0.7661  2.5896 -1.5055
 3585SOL    HW222392   4.690   4.169   4.490  1.3500 -0.4705 -1.8907
 3586SOL     OW22393   1.361   0.823   2.268  0.3465  0.7290 -0.3420
 3586SOL    HW122394   1.450   0.856   2.269  0.1110  1.3443  0.2228
 3586SOL    HW222395   1.377   0.756   2.201 -0.5966  0.4304 -0.2744
 3587SOL     OW22396   2.978   0.489   8.669 -0.7211  0.5297 -0.0532
 3587SOL    HW122397   3.049   0.436   8.633 -0.9051 -1.1831  2.1325
 3587SOL    HW222398   2.911   0.428   8.638 -0.3215  0.2581 -0.3943
 3588SOL     OW22399   1.913   1.072   2.894  0.2502 -0.3285  0.7830
 3588SOL    HW122400   1.979   1.113   2.838  0.9122 -1.5279  0.6931
 3588SOL    HW222401   1.966   0.995   2.915 -0.1071 -0.8595 -0.2755
 3589SOL     OW22402   4.704   2.743   1.312  0.7845  0.1217 -0.0966
 3589SOL    HW122403   4.608   2.747   1.316  0.7730 -1.8979  1.5887
 3589SOL    HW222404   4.732   2.801   1.242  0.5443 -1.4396 -1.4882
 3590SOL     OW22405   3.510   1.344   8.595 -0.0044  0.7623  0.2116
 3590SOL    HW122406   3.590   1.353   8.543  0.0267  1.2396  0.3435
 3590SOL    HW222407   3.537   1.281   8.662  1.2539  1.8490  0.7380
 3591SOL     OW22408   4.098   1.769  16.746  0.5675  0.3622 -0.3733
 3591SOL    HW122409   4.003   1.757  16.735  0.5067  1.0437 -0.5775
 3591SOL    HW222410   4.110   1.750  16.839  1.6953  1.2128 -0.3557
 3592SOL     OW22411   1.054   3.517   6.802 -0.4665  0.8548 -0.4623
 3592SOL    HW122412   1.123   3.464   6.763 -0.7628  0.9125 -1.0607
 3592SOL    HW222413   1.103   3.599   6.801 -0.6656  0.9423 -2.2369
 3593SOL     OW22414   1.693   0.596   0.003 -0.2782  0.0690  0.3752
 3593SOL    HW122415   1.765   0.544  17.712  0.2804  0.4516  0.9458
 3593SOL    HW222416   1.690   0.665  17.682 -0.1013  0.8708  1.2026
 3594SOL     OW22417   2.458   4.690   3.407 -0.0498 -0.0608 -0.5840
 3594SOL    HW122418   2.460   4.711   3.501  0.7265  0.6244 -0.7593
 3594SOL    HW222419   2.422   4.601   3.414 -1.4508  0.6478  1.3446
 3595SOL     OW22420   3.631   0.334   1.949 -0.5879  0.4093  0.2610
 3595SOL    HW122421   3.584   0.316   1.868 -0.5286 -2.1161  0.7946
 3595SOL    HW222422   3.598   0.267   2.010 -2.8072 -0.2993 -1.7428
 3596SOL     OW22423   3.630   1.963   3.199  0.1576 -0.7598  0.3226
 3596SOL    HW122424   3.647   2.020   3.123 -2.4111 -0.4463 -0.0038
 3596SOL    HW222425   3.711   1.959   3.250  0.2912 -0.7921  0.1099
 3597SOL     OW22426   2.692   4.234  11.357 -0.0469 -0.9754  0.0679
 3597SOL    HW122427   2.610   4.209  11.315  0.1346  0.6219 -1.2443
 3597SOL    HW222428   2.671   4.242  11.450  0.1275  0.7479 -0.0412
 3598SOL     OW22429   0.474   0.168   5.427  0.6119 -0.4270 -0.0744
 3598SOL    HW122430   0.436   0.255   5.438  2.7584  0.3559  1.1335
 3598SOL    HW222431   0.538   0.189   5.359  0.7379  1.4359  0.6035
 3599SOL     OW22432   4.251   1.545  11.928 -0.3408 -0.0084  0.0048
 3599SOL    HW122433   4.208   1.492  11.861  0.2021  1.3650 -1.4430
 3599SOL    HW222434   4.312   1.486  11.973  0.1961  0.2366 -0.3981
 3600SOL     OW22435   3.454   0.987   3.376  0.1570  0.0077 -0.5719
 3600SOL    HW122436   3.423   0.935   3.450  0.8407  0.4516  0.0315
 3600SOL    HW222437   3.401   1.066   3.386  0.5566  0.1592  0.4848
 3601SOL     OW22438   1.384   2.148   4.574  0.0100 -0.0388  0.1212
 3601SOL    HW122439   1.431   2.077   4.617  2.5970  0.0654 -2.6045
 3601SOL    HW222440   1.334   2.096   4.511  2.6732 -1.0346 -1.1500
 3602SOL     OW22441   3.422   2.656   3.415  0.3903  0.7686 -0.8407
 3602SOL    HW122442   3.414   2.579   3.472 -0.4826  0.2793 -1.6269
 3602SOL    HW222443   3.423   2.725   3.481  0.6495 -0.5122  0.4872
 3603SOL     OW22444   3.872   0.334   3.615 -0.4103 -0.2454 -0.0172
 3603SOL    HW122445   3.784   0.324   3.578  0.2411 -2.9290 -0.8474
 3603SOL    HW222446   3.875   0.238   3.619 -2.0490 -0.3111 -0.1671
 3604SOL     OW22447   1.076   1.214   0.137  0.1335  0.7673  0.5376
 3604SOL    HW122448   1.084   1.307   0.157  0.4003  1.5148 -3.0377
 3604SOL    HW222449   1.148   1.204   0.075  0.4050  0.7660  0.8527
 3605SOL     OW22450   4.284   1.531   9.536 -0.0941 -0.0439 -0.5766
 3605SOL    HW122451   4.189   1.529   9.524 -0.0754  1.5217 -0.9488
 3605SOL    HW222452   4.309   1.586   9.462  0.8639 -0.7755 -0.7966
 3606SOL     OW22453   2.492   4.730   4.147 -0.5820 -0.0852  0.7795
 3606SOL    HW122454   2.457   0.051   4.079 -3.2561 -2.8001 -0.1192
 3606SOL    HW222455   2.576   4.711   4.105  1.0176  0.8723  3.5095
 3607SOL     OW22456   2.519   3.669   3.586 -0.4778  0.6409  0.4775
 3607SOL    HW122457   2.612   3.648   3.592 -0.5117  0.7340  1.3674
 3607SOL    HW222458   2.509   3.686   3.680 -0.7033 -1.2102  0.7723
 3608SOL     OW22459   4.429   1.025   1.633  0.1676 -0.6342 -0.0643
 3608SOL    HW122460   4.488   1.098   1.652 -0.0413 -0.2467 -0.9462
 3608SOL    HW222461   4.355   1.049   1.689  0.8155 -2.8220  1.7421
 3609SOL     OW22462   1.644   1.186  10.337  0.2866 -0.0562  0.2654
 3609SOL    HW122463   1.588   1.237  10.395 -1.4858 -0.2506 -1.3051
 3609SOL    HW222464   1.715   1.248  10.318  0.7056 -1.0115 -1.2716
 3610SOL     OW22465   2.409   0.584   7.602  0.4544  0.3642  0.2212
 3610SOL    HW122466   2.404   0.550   7.692  2.5286 -0.3830  0.0706
 3610SOL    HW222467   2.501   0.588   7.575  0.2497  2.2204 -0.2175
 3611SOL     OW22468   0.689   0.951   4.106 -0.1205 -0.4570 -0.0839
 3611SOL    HW122469   0.637   0.887   4.155 -1.2529  0.8704  0.4434
 3611SOL    HW222470   0.777   0.940   4.143  0.1778 -0.4736 -0.8004
 3612SOL     OW22471   3.294   4.074   3.209 -0.2570  0.3462 -0.1537
 3612SOL    HW122472   3.298   4.144   3.143  0.4241 -0.2556 -0.7476
 3612SOL    HW222473   3.348   4.117   3.276 -0.0212 -0.0090 -0.1150
 3613SOL     OW22474   1.999   2.144  15.905  0.1735  0.1155  0.2539
 3613SOL    HW122475   1.928   2.206  15.921  0.4246  0.9486 -1.8807
 3613SOL    HW222476   2.026   2.166  15.815  0.1616  0.1690  0.2637
 3614SOL     OW22477   0.745   1.176   2.820  0.0398 -0.4786 -0.1412
 3614SOL    HW122478   0.770   1.267   2.804  2.1130 -1.1699 -0.7585
 3614SOL    HW222479   0.658   1.196   2.854  0.0459  0.5982 -0.7501
 3615SOL     OW22480   0.637   1.156   4.323 -0.0604 -0.0049 -0.5508
 3615SOL    HW122481   0.608   1.075   4.281 -0.0301 -0.0409 -0.5024
 3615SOL    HW222482   0.733   1.148   4.327  0.0668  1.2769 -1.1957
 3616SOL     OW22483   4.630   3.786   2.375 -0.3344  0.6901  0.4713
 3616SOL    HW122484   4.608   3.816   2.463  0.3746  0.0503  0.8785
 3616SOL    HW222485   4.563   3.831   2.324 -0.9786  0.4093  1.0703
 3617SOL     OW22486   0.926   1.571   1.862  0.2886 -0.0086  0.3772
 3617SOL    HW122487   0.879   1.514   1.923 -0.4582 -3.1274 -3.1550
 3617SOL    HW222488   1.013   1.533   1.867  0.8724  1.2277 -0.3516
 3618SOL     OW22489   4.129   2.174   0.807 -0.1337  0.7833 -0.6974
 3618SOL    HW122490   4.137   2.269   0.799  2.6588  0.7081  1.1892
 3618SOL    HW222491   4.118   2.161   0.901  0.5050 -3.1518 -1.1402
 3619SOL     OW22492   0.855   2.514   1.131  0.3335  0.4842 -0.0783
 3619SOL    HW122493   0.848   2.598   1.176 -0.6482  0.0471  0.5805
 3619SOL    HW222494   0.947   2.517   1.102  0.2100  1.2334 -0.4124
 3620SOL     OW22495   0.665   2.202  12.781 -0.2959 -0.3330  0.0900
 3620SOL    HW122496   0.573   2.191  12.759  0.1104 -0.8314 -1.3970
 3620SOL    HW222497   0.707   2.209  12.695  0.7995  2.2582  0.8545
 3621SOL     OW22498   2.066   2.137  12.735  0.5533  0.0183  0.6536
 3621SOL    HW122499   2.050   2.062  12.679 -0.7095 -0.4130  1.5669
 3621SOL    HW222500   2.118   2.197  12.682 -2.4818  0.8275 -1.3926
 3622SOL     OW22501   4.289   2.129   2.379  0.7370 -0.3112 -0.6167
 3622SOL    HW122502   4.324   2.053   2.334 -0.3333 -1.8782  1.2001
 3622SOL    HW222503   4.355   2.197   2.370  1.1206 -0.5204  0.5593
 3623SOL     OW22504   4.730   0.214   2.097 -0.5936 -0.8223 -0.1833
 3623SOL    HW122505   4.681   0.132   2.097 -2.2041  0.1380 -2.1196
 3623SOL    HW222506   4.694   0.265   2.024 -1.7603 -1.8212 -0.3153
 3624SOL     OW22507   2.377   0.298  17.618  0.1668 -0.2606  0.2344
 3624SOL    HW122508   2.424   0.259  17.545  1.9364  1.8982  0.2167
 3624SOL    HW222509   2.404   0.389  17.608  0.3443 -0.2658  0.6893
 3625SOL     OW22510   0.685   3.070   8.364 -0.0417 -0.4968  0.0982
 3625SOL    HW122511   0.705   3.164   8.359 -1.1292 -0.3456 -1.2752
 3625SOL    HW222512   0.772   3.037   8.385  0.8437  2.9464  1.9487
 3626SOL     OW22513   2.896   3.080   8.735 -0.5382  0.4968 -0.1059
 3626SOL    HW122514   2.856   3.067   8.821 -1.6708 -0.6458 -0.8120
 3626SOL    HW222515   2.984   3.091   8.772  0.3488 -0.3235 -1.9623
 3627SOL     OW22516   3.706   4.512  10.242  0.2011  0.2011 -0.3422
 3627SOL    HW122517   3.799   4.523  10.223  0.8141 -2.1837  1.2228
 3627SOL    HW222518   3.694   4.590  10.296  0.1558 -0.4085  0.5304
 3628SOL     OW22519   0.150   4.309   2.582  0.5306 -0.2598  0.3811
 3628SOL    HW122520   0.107   4.225   2.597  2.9628 -1.3699  1.0707
 3628SOL    HW222521   0.156   4.339   2.673  2.2677 -3.6418  1.3805
 3629SOL     OW22522   0.744   0.260  10.996 -0.5423  0.1909 -0.6926
 3629SOL    HW122523   0.781   0.205  10.927 -2.1991  0.2752 -1.6495
 3629SOL    HW222524   0.741   0.191  11.062 -2.6600  1.0487  0.0953
 3630SOL     OW22525   0.227   3.822   5.939  0.1886 -0.5897  0.1488
 3630SOL    HW122526   0.198   3.731   5.936 -1.0260 -0.2633  2.3129
 3630SOL    HW222527   0.162   3.868   5.886  1.1108  0.7565  0.1881
 3631SOL     OW22528   4.494   3.111   7.138  0.0214  0.4793 -0.2452
 3631SOL    HW122529   4.517   3.186   7.084 -0.6816  0.5507 -0.4433
 3631SOL    HW222530   4.490   3.043   7.071  3.0227  0.4098 -0.3505
 3632SOL     OW22531   0.878   4.270   3.445 -0.3570 -0.5904 -0.2678
 3632SOL    HW122532   0.896   4.273   3.539  1.9927 -1.4193 -0.6763
 3632SOL    HW222533   0.806   4.332   3.436 -1.0302 -1.3657 -0.1818
 3633SOL     OW22534   0.927   1.871   0.076 -0.3638  0.0407  0.5665
 3633SOL    HW122535   0.968   1.784   0.073 -0.3022  0.0848  0.0998
 3633SOL    HW222536   0.940   1.898  17.730  0.5839 -1.0901  0.3707
 3634SOL     OW22537   1.131   4.289  14.079  0.1927 -0.3553 -0.0359
 3634SOL    HW122538   1.108   4.372  14.121 -1.2558 -0.9413  0.3220
 3634SOL    HW222539   1.084   4.295  13.996 -1.1451 -0.0342  0.7471
 3635SOL     OW22540   4.106   4.005   7.759 -0.2187  0.5012  0.1986
 3635SOL    HW122541   4.096   4.059   7.837  0.9506  0.3321  0.4674
 3635SOL    HW222542   4.141   4.071   7.699 -2.5932  1.1254 -0.4961
 3636SOL     OW22543   1.599   0.063   6.432  0.0428 -0.1222  0.0480
 3636SOL    HW122544   1.663   0.016   6.378 -0.5458  0.9501 -1.6010
 3636SOL    HW222545   1.571   4.727   6.488  0.3796 -0.2184  0.0922
 3637SOL     OW22546   0.321   2.968   6.009  0.3698  0.7426 -0.2191
 3637SOL    HW122547   0.400   2.999   6.053 -0.6791  1.9503  0.8334
 3637SOL    HW222548   0.264   2.951   6.084 -1.5748 -0.8658 -2.0629
 3638SOL     OW22549   4.366   4.461   6.044  0.7994 -0.4790  0.0459
 3638SOL    HW122550   4.425   4.386   6.033  0.3365 -0.6779 -1.0070
 3638SOL    HW222551   4.289   4.417   6.008  0.7713  1.4511 -2.2624
 3639SOL     OW22552   4.686   4.094   2.273 -0.1288 -0.0579  0.3313
 3639SOL    HW122553   4.736   4.044   2.208 -1.4074 -0.4209 -0.3710
 3639SOL    HW222554   0.003   4.173   2.282 -0.7611  0.5447 -1.2139
 3640SOL     OW22555   3.309   3.181   8.069 -0.1814 -0.2178  0.1439
 3640SOL    HW122556   3.244   3.251   8.067  0.9539  0.8248 -0.4814
 3640SOL    HW222557   3.393   3.220   8.047 -0.0823 -0.3000  0.3733
 3641SOL     OW22558   0.236   4.557   5.314 -0.2383 -0.1363  0.3988
 3641SOL    HW122559   0.198   4.610   5.244  1.0322 -1.3743 -1.2529
 3641SOL    HW222560   0.217   4.622   5.381 -1.0147  1.1726 -1.1078
 3642SOL     OW22561   2.259   3.724   2.059 -0.1433  0.0794 -0.7115
 3642SOL    HW122562   2.297   3.651   2.109  1.2610  1.1080 -0.2822
 3642SOL    HW222563   2.267   3.794   2.124  0.6595 -2.0352  1.4844
 3643SOL     OW22564   0.220   1.560   2.237 -0.1606 -0.4065  0.9807
 3643SOL    HW122565   0.180   1.476   2.215  0.2727 -0.4678  0.4426
 3643SOL    HW222566   0.147   1.616   2.210  1.5421  1.1654 -0.3705
 3644SOL     OW22567   4.350   0.000   5.301  0.0677  0.1613 -0.1283
 3644SOL    HW122568   4.410   4.663   5.293 -0.8799 -0.8965  2.4169
 3644SOL    HW222569   4.263   4.702   5.282 -0.0527  0.0645  0.5852
 3645SOL     OW22570   1.583   2.048   4.253  0.1316  0.3741  0.1096
 3645SOL    HW122571   1.599   1.990   4.327  0.9553  0.8622  0.3093
 3645SOL    HW222572   1.628   2.130   4.273  1.4475 -0.1467 -0.6687
 3646SOL     OW22573   3.389   1.946   8.630 -0.1392  0.1508 -0.0617
 3646SOL    HW122574   3.453   2.016   8.644  3.0310 -2.2743 -2.3539
 3646SOL    HW222575   3.311   2.002   8.636 -0.9389 -0.6570 -2.9864
 3647SOL     OW22576   0.521   4.301   7.534 -0.0241  0.0560 -0.3031
 3647SOL    HW122577   0.532   4.373   7.473  0.0212 -0.6017 -1.0759
 3647SOL    HW222578   0.556   4.327   7.619 -0.2795 -1.0320  0.1403
 3648SOL     OW22579   4.305   1.293  14.778 -0.3170  0.4553 -0.0773
 3648SOL    HW122580   4.311   1.197  14.784 -0.3294  0.2719 -2.8617
 3648SOL    HW222581   4.210   1.305  14.766 -0.4422 -1.5557 -1.1589
 3649SOL     OW22582   1.411   2.082  15.690  0.2266  0.4495  0.7053
 3649SOL    HW122583   1.467   2.058  15.764  0.7111  0.8051  0.4585
 3649SOL    HW222584   1.460   2.159  15.659  0.2606  0.6900  1.3524
 3650SOL     OW22585   4.347   4.223   6.270  0.0580 -0.0362  0.1763
 3650SOL    HW122586   4.280   4.252   6.208 -2.0002  0.6446  2.6726
 3650SOL    HW222587   4.371   4.142   6.224 -2.3928 -0.0490 -1.1052
 3651SOL     OW22588   4.623   3.158  13.126  0.1057  0.1474  0.2469
 3651SOL    HW122589   4.699   3.149  13.068  0.6406  2.5947  0.5526
 3651SOL    HW222590   4.549   3.166  13.066 -0.3556  0.8168  0.9040
 3652SOL     OW22591   4.452   2.724   0.009 -0.3126  0.5145 -0.6173
 3652SOL    HW122592   4.405   2.803   0.036  0.8126  1.0812 -0.3174
 3652SOL    HW222593   4.391   2.658   0.044  1.3597 -0.1100  1.1112
 3653SOL     OW22594   1.480   1.080   3.315 -0.2113  0.1459  0.1545
 3653SOL    HW122595   1.422   1.118   3.249  0.4186  0.3040 -0.3002
 3653SOL    HW222596   1.513   1.158   3.360  1.8859 -0.0388 -1.0702
 3654SOL     OW22597   2.510   2.702  14.159 -0.6489  0.3128  0.2171
 3654SOL    HW122598   2.487   2.788  14.192 -1.1789  0.6490 -1.0221
 3654SOL    HW222599   2.574   2.731  14.094  0.1557 -1.3549  0.2477
 3655SOL     OW22600   3.232   3.620   8.795 -0.1306 -0.6267  0.0468
 3655SOL    HW122601   3.319   3.609   8.756 -0.7864  3.1414 -2.5171
 3655SOL    HW222602   3.233   3.561   8.870  0.9960 -0.2179  0.3564
 3656SOL     OW22603   2.202   4.287  15.505 -0.3427 -0.6845 -0.4414
 3656SOL    HW122604   2.216   4.219  15.439 -0.6540 -1.1215 -0.0593
 3656SOL    HW222605   2.288   4.304  15.543 -0.2761 -0.6270 -0.6184
 3657SOL     OW22606   2.604   4.564   3.118  0.1975  0.3451 -0.0202
 3657SOL    HW122607   2.582   4.648   3.157  0.6087  0.4301  0.0338
 3657SOL    HW222608   2.668   4.524   3.177 -0.1750  0.8298  0.7082
 3658SOL     OW22609   2.597   4.626   6.482  0.3911  0.1064  0.3449
 3658SOL    HW122610   2.667   4.691   6.469 -2.1537  2.3945 -1.7986
 3658SOL    HW222611   2.633   4.565   6.547 -0.0888  0.6226  1.1012
 3659SOL     OW22612   1.205   1.595   8.788  0.1749  0.2197 -0.1684
 3659SOL    HW122613   1.157   1.548   8.719  1.2835 -1.7312  0.3763
 3659SOL    HW222614   1.220   1.684   8.755  0.3735 -0.2727 -1.4214
 3660SOL     OW22615   0.824   2.964  13.465  0.0381 -0.2353  0.4059
 3660SOL    HW122616   0.794   2.888  13.516 -0.6192 -1.1184 -1.2821
 3660SOL    HW222617   0.758   3.033  13.469  0.2711  0.1403 -2.3539
 3661SOL     OW22618   0.421   3.900   4.361 -0.2419 -0.6388  0.3918
 3661SOL    HW122619   0.361   3.974   4.355 -1.1210 -1.4603 -1.0541
 3661SOL    HW222620   0.478   3.919   4.436  1.1407  0.6922 -1.0020
 3662SOL     OW22621   0.766   4.485   5.698  0.6040 -0.0599 -0.1480
 3662SOL    HW122622   0.779   4.391   5.688  1.4424  0.1219 -0.8032
 3662SOL    HW222623   0.837   4.523   5.647 -0.0172  1.9364  0.4553
 3663SOL     OW22624   4.359   1.266   5.496  0.3581  0.4007  0.2558
 3663SOL    HW122625   4.299   1.339   5.511  0.4753  0.4566  0.4485
 3663SOL    HW222626   4.331   1.252   5.405  0.4102 -2.4444  0.6763
 3664SOL     OW22627   3.219   0.981  16.677 -0.8119  0.1249 -0.0654
 3664SOL    HW122628   3.190   0.992  16.767 -0.9341  0.9609 -0.2091
 3664SOL    HW222629   3.306   0.948  16.698 -0.8774  0.3042  0.4711
 3665SOL     OW22630   0.527   3.042   9.541  0.5715  0.3561  0.3071
 3665SOL    HW122631   0.516   3.054   9.447 -0.3006 -1.2133  0.2144
 3665SOL    HW222632   0.591   2.971   9.537  2.1551  1.8694 -1.0494
 3666SOL     OW22633   4.403   2.813   8.487 -0.4600 -0.2914 -0.3562
 3666SOL    HW122634   4.487   2.770   8.471 -0.9389 -1.3849  0.0672
 3666SOL    HW222635   4.395   2.864   8.407  0.6124  1.8006  0.8743
 3667SOL     OW22636   4.065   1.661   7.368 -0.4661  0.3220  0.3197
 3667SOL    HW122637   4.046   1.594   7.302  1.6263 -0.4048  0.4592
 3667SOL    HW222638   4.015   1.735   7.333 -1.6809 -1.8381 -2.5165
 3668SOL     OW22639   4.298   2.193   5.864  0.0189  0.4531  0.2540
 3668SOL    HW122640   4.308   2.100   5.848  2.2806  1.1337 -2.2351
 3668SOL    HW222641   4.207   2.206   5.837  0.3901 -0.0124 -1.1882
 3669SOL     OW22642   4.377   4.518   4.569  0.4730 -0.2095  0.2064
 3669SOL    HW122643   4.370   4.462   4.491 -0.8011  0.7491 -0.3599
 3669SOL    HW222644   4.439   4.475   4.628 -1.4931 -1.0322  1.6644
 3670SOL     OW22645   3.342   3.848   6.577 -0.3021  0.3650 -0.6149
 3670SOL    HW122646   3.362   3.840   6.671  0.6563  4.1159 -0.4966
 3670SOL    HW222647   3.308   3.759   6.571 -0.3805  0.5338 -2.5747
 3671SOL     OW22648   0.272   2.498   1.977 -0.0206  0.2031  0.2616
 3671SOL    HW122649   0.266   2.568   1.912  1.8081  1.3440  1.3045
 3671SOL    HW222650   0.180   2.474   1.990 -0.8997  2.8792 -1.1886
 3672SOL     OW22651   4.356   0.371   5.646  0.2453 -0.0001  0.1950
 3672SOL    HW122652   4.304   0.299   5.611  1.2975 -0.8251  0.3440
 3672SOL    HW222653   4.404   0.325   5.715 -1.3023  0.7567  1.7870
 3673SOL     OW22654   0.261   0.009   3.262 -0.2950  0.4117  0.1054
 3673SOL    HW122655   0.283   4.732   3.354  2.2289  0.6163 -0.4737
 3673SOL    HW222656   0.222   4.663   3.233 -0.9582  0.8539 -0.2608
 3674SOL     OW22657   3.820   0.783   9.060 -0.5810  0.8016 -0.0671
 3674SOL    HW122658   3.767   0.782   9.140 -0.3056  3.0598  0.1288
 3674SOL    HW222659   3.749   0.787   8.996  0.0417 -1.3851 -0.8951
 3675SOL     OW22660   3.447   4.073   9.715  0.2577 -0.0593 -0.0789
 3675SOL    HW122661   3.361   4.038   9.739  1.6922 -2.3939  1.6860
 3675SOL    HW222662   3.502   3.995   9.717  0.0815 -0.1516  1.3400
 3676SOL     OW22663   0.468   1.652   2.250 -0.3568  0.1178  0.4879
 3676SOL    HW122664   0.382   1.614   2.231  0.5757 -1.9196  0.3392
 3676SOL    HW222665   0.454   1.695   2.335 -1.9228  0.9962 -0.2030
 3677SOL     OW22666   4.349   4.688   6.953 -0.0439 -0.1127  0.2686
 3677SOL    HW122667   4.436   4.704   6.990  1.6059 -0.7230 -3.3560
 3677SOL    HW222668   4.331   0.038   6.918 -1.7368 -1.1133 -1.3784
 3678SOL     OW22669   3.037   3.481  16.644  0.4011 -0.5962  0.1453
 3678SOL    HW122670   3.039   3.386  16.631  2.5812 -0.6674  1.1509
 3678SOL    HW222671   2.943   3.496  16.656  0.2742 -1.8470  0.7041
 3679SOL     OW22672   3.499   0.809   5.383 -0.5963 -0.0979 -1.1704
 3679SOL    HW122673   3.469   0.742   5.444  1.3177  1.5237  1.5466
 3679SOL    HW222674   3.586   0.779   5.357  0.5559  2.1728  0.0371
 3680SOL     OW22675   3.906   1.338   9.440 -0.4962 -0.0784  0.1249
 3680SOL    HW122676   3.823   1.383   9.453  0.1522  0.8391  1.0714
 3680SOL    HW222677   3.874   1.248   9.436 -1.4153  0.1924  1.3480
 3681SOL     OW22678   3.283   4.633  14.286  0.2125 -0.1214 -1.0594
 3681SOL    HW122679   3.345   4.689  14.241 -2.6273  2.0057 -2.3151
 3681SOL    HW222680   3.342   4.578  14.339 -1.6861  0.8365  2.0341
 3682SOL     OW22681   1.433   0.663   5.680  0.0316  0.6783 -0.0803
 3682SOL    HW122682   1.402   0.647   5.769 -1.8232  1.5781 -0.5691
 3682SOL    HW222683   1.515   0.614   5.674  0.1572  0.8191  0.4993
 3683SOL     OW22684   0.881   2.783   4.258 -0.0500 -0.2144 -0.1656
 3683SOL    HW122685   0.897   2.762   4.351 -1.8756 -2.0558 -0.2656
 3683SOL    HW222686   0.930   2.711   4.217  0.4805  0.6017 -0.9509
 3684SOL     OW22687   1.822   0.621  13.890 -0.1758 -0.4824  0.4309
 3684SOL    HW122688   1.891   0.613  13.956 -1.2699 -2.9050  1.2544
 3684SOL    HW222689   1.745   0.652  13.938 -0.9209 -1.6030 -0.0536
 3685SOL     OW22690   1.535   1.205  14.733 -0.0947  0.0356  0.4130
 3685SOL    HW122691   1.572   1.141  14.792 -0.1909 -0.2988  0.1111
 3685SOL    HW222692   1.526   1.270  14.803  1.0880 -1.1113  1.6155
 3686SOL     OW22693   1.875   2.887   2.861  0.6881  0.2561 -0.1262
 3686SOL    HW122694   1.825   2.937   2.926  1.3636  1.8802 -0.8622
 3686SOL    HW222695   1.807   2.822   2.845  2.4191 -1.1958 -1.5786
 3687SOL     OW22696   4.152   4.331  15.592 -0.2176  0.4878  0.2103
 3687SOL    HW122697   4.076   4.380  15.563 -1.1697 -1.6943 -0.9585
 3687SOL    HW222698   4.169   4.372  15.677  2.1549  0.5260 -0.2865
 3688SOL     OW22699   2.766   0.680   9.183  0.1211 -0.1584  0.1235
 3688SOL    HW122700   2.790   0.723   9.264 -3.6347  2.2707 -0.0403
 3688SOL    HW222701   2.845   0.697   9.132  0.1776  0.4583  0.4266
 3689SOL     OW22702   1.501   3.160  13.451  0.0198 -0.1967 -0.3176
 3689SOL    HW122703   1.484   3.111  13.532  0.1382 -3.2302 -2.1377
 3689SOL    HW222704   1.525   3.090  13.391 -2.7950 -1.0261 -0.5058
 3690SOL     OW22705   3.218   4.006   0.358  0.1269  0.0310  0.5370
 3690SOL    HW122706   3.270   3.940   0.404 -0.5144 -0.7534  0.1333
 3690SOL    HW222707   3.269   4.018   0.278 -0.4944 -0.7227  0.0335
 3691SOL     OW22708   0.443   0.576  12.665 -0.0678 -0.1497  0.2759
 3691SOL    HW122709   0.530   0.540  12.645 -0.1923  0.5497 -1.5473
 3691SOL    HW222710   0.404   0.496  12.699 -0.3016  0.2966  1.0413
 3692SOL     OW22711   3.785   2.279   7.423 -0.1248  0.0743 -0.2918
 3692SOL    HW122712   3.795   2.360   7.372  0.2181 -0.3936 -0.9715
 3692SOL    HW222713   3.738   2.223   7.361 -0.2862 -0.6988  0.5287
 3693SOL     OW22714   3.520   1.544   4.795 -0.4918  0.1716 -0.1393
 3693SOL    HW122715   3.492   1.617   4.741 -1.7366 -0.2667 -0.0968
 3693SOL    HW222716   3.444   1.533   4.852  0.1837  1.2050  0.9444
 3694SOL     OW22717   0.333   2.158  13.100 -0.3110  0.2988 -0.0806
 3694SOL    HW122718   0.249   2.148  13.054 -0.9452  0.9868  0.9385
 3694SOL    HW222719   0.298   2.195  13.181  0.5809 -0.3091  0.5821
 3695SOL     OW22720   0.499   3.994   8.283  0.2044 -0.3095 -0.4768
 3695SOL    HW122721   0.453   3.946   8.214  0.4340 -2.0684  0.5991
 3695SOL    HW222722   0.563   3.929   8.312 -0.7036 -0.9093  0.2076
 3696SOL     OW22723   4.044   2.239   9.464  0.8358  0.3186 -0.2622
 3696SOL    HW122724   4.029   2.250   9.558  0.5757 -3.3429  0.1250
 3696SOL    HW222725   4.139   2.233   9.467  0.7669 -1.3167 -1.0082
 3697SOL     OW22726   4.705   1.957   3.131  0.0324  0.0137  0.2975
 3697SOL    HW122727   4.645   1.975   3.203  1.9498  1.2763  1.5954
 3697SOL    HW222728   4.641   1.939   3.062 -2.2034  1.5289  1.9443
 3698SOL     OW22729   2.854   2.814   4.806  0.4610 -0.2267  0.4343
 3698SOL    HW122730   2.777   2.769   4.771  0.6057 -0.0004 -0.1873
 3698SOL    HW222731   2.823   2.903   4.790  0.3945 -0.6623 -1.9827
 3699SOL     OW22732   3.378   3.114   7.307  0.3960  0.1852 -0.6431
 3699SOL    HW122733   3.468   3.105   7.277  0.8708  0.1613  0.8251
 3699SOL    HW222734   3.381   3.209   7.318 -0.0804  0.1806 -0.4413
 3700SOL     OW22735   1.634   4.106  14.240 -0.6921  0.3216 -0.3835
 3700SOL    HW122736   1.723   4.141  14.235 -0.2882 -0.4666  1.2096
 3700SOL    HW222737   1.615   4.099  14.146  1.8447  3.3334 -1.1225
 3701SOL     OW22738   4.394   3.290  11.565 -0.7570  0.0135 -0.2861
 3701SOL    HW122739   4.383   3.302  11.659  1.3518  0.8838 -0.1575
 3701SOL    HW222740   4.367   3.198  11.563  0.2346 -0.2953  0.8607
 3702SOL     OW22741   0.588   3.190  13.917 -0.4278 -0.3791  0.2288
 3702SOL    HW122742   0.602   3.100  13.945  0.2024 -0.9531 -1.9227
 3702SOL    HW222743   0.534   3.182  13.838 -1.2199 -1.1598  0.8577
 3703SOL     OW22744   0.352   0.157   5.061  0.0641  0.1310 -0.1900
 3703SOL    HW122745   0.363   0.062   5.058  0.0383  0.0943  0.6891
 3703SOL    HW222746   0.425   0.186   5.117  2.4293 -1.1684 -2.5874
 3704SOL     OW22747   3.317   3.967  10.246  0.2715 -0.7824  0.2550
 3704SOL    HW122748   3.257   3.898  10.217 -0.7498  0.9098 -1.6637
 3704SOL    HW222749   3.278   3.988  10.331 -0.1373  1.2425 -0.4250
 3705SOL     OW22750   3.957   2.346   3.554  0.1695 -0.8299  0.7302
 3705SOL    HW122751   3.884   2.372   3.498  1.7706  1.4827 -0.2983
 3705SOL    HW222752   3.969   2.410   3.625 -2.4487  1.2170 -0.6412
 3706SOL     OW22753   4.690   3.781   7.291 -0.0375 -0.1475  0.1184
 3706SOL    HW122754   4.625   3.713   7.274 -2.2330  1.7272  1.1870
 3706SOL    HW222755   4.713   3.759   7.382 -3.4981 -0.1409  0.9769
 3707SOL     OW22756   3.261   2.935   7.981 -0.5675  0.0955 -0.2590
 3707SOL    HW122757   3.167   2.944   7.998 -0.0810  0.6136  2.2115
 3707SOL    HW222758   3.290   3.025   7.998 -0.6126 -0.2330  1.5679
 3708SOL     OW22759   1.380   3.925  10.005 -0.0437  0.3555  0.5943
 3708SOL    HW122760   1.376   3.953  10.096  2.0477 -1.3330  1.2079
 3708SOL    HW222761   1.475   3.936   9.998  0.0723 -1.6795 -0.8288
 3709SOL     OW22762   3.384   1.861  10.431 -0.5663  0.4082 -0.0404
 3709SOL    HW122763   3.306   1.916  10.441 -1.2360 -0.7404  1.0109
 3709SOL    HW222764   3.342   1.783  10.467 -1.3076  1.1610  0.7230
 3710SOL     OW22765   0.701   2.571  14.345  0.2182  0.4725  0.1720
 3710SOL    HW122766   0.764   2.612  14.287  0.5631  0.8398  0.8110
 3710SOL    HW222767   0.698   2.629  14.421  1.4312  0.2356  0.3974
 3711SOL     OW22768   3.786   3.450   7.077  0.1205  0.4789  0.4827
 3711SOL    HW122769   3.752   3.494   6.999  0.8127 -0.5135 -0.3779
 3711SOL    HW222770   3.833   3.526   7.113  1.4718  0.9549 -2.2475
 3712SOL     OW22771   1.424   2.588   4.586 -0.3201  0.0403  0.4374
 3712SOL    HW122772   1.493   2.635   4.634 -1.1470  1.5100  0.1866
 3712SOL    HW222773   1.414   2.509   4.640  1.1364 -0.3229  0.1664
 3713SOL     OW22774   2.613   2.586   2.789  0.2846  0.0316  0.3512
 3713SOL    HW122775   2.691   2.613   2.741 -0.6947  2.5525  0.1802
 3713SOL    HW222776   2.661   2.530   2.850 -1.4318 -0.8265  0.9259
 3714SOL     OW22777   3.274   4.316   3.025  0.4161  0.7828 -0.5528
 3714SOL    HW122778   3.199   4.328   3.084  1.8321 -0.1940  1.4647
 3714SOL    HW222779   3.232   4.307   2.940 -1.1761  0.5456  0.2600
 3715SOL     OW22780   3.646   4.097  13.679  0.0469  0.3656  0.4556
 3715SOL    HW122781   3.658   4.082  13.773  1.4722 -2.5036 -0.1793
 3715SOL    HW222782   3.716   4.037  13.653 -1.5946 -1.6369  0.6667
 3716SOL     OW22783   2.556   4.539   4.455  0.2673  0.0868 -0.4783
 3716SOL    HW122784   2.493   4.608   4.434 -1.2734 -0.3586  2.6563
 3716SOL    HW222785   2.638   4.583   4.432 -0.0044  2.1290  2.3188
 3717SOL     OW22786   2.454   1.644   0.809 -0.2767  0.1927  0.1586
 3717SOL    HW122787   2.511   1.692   0.868 -0.9910  2.2414 -0.8345
 3717SOL    HW222788   2.460   1.559   0.853 -1.4024 -0.1044 -0.2472
 3718SOL     OW22789   0.653   2.269   8.942  0.0903  0.8029  0.1301
 3718SOL    HW122790   0.676   2.334   8.876  2.6427 -0.1092  0.1186
 3718SOL    HW222791   0.558   2.281   8.953 -0.5118 -2.3789 -1.5382
 3719SOL     OW22792   2.572   2.177  16.881 -0.3220  0.8618  0.0993
 3719SOL    HW122793   2.630   2.218  16.946 -0.0864 -0.2243  0.5854
 3719SOL    HW222794   2.638   2.119  16.842 -2.5101 -1.0910 -0.6680
 3720SOL     OW22795   3.973   0.836  10.857 -0.5590 -0.3888 -0.3726
 3720SOL    HW122796   3.931   0.886  10.786  1.9678  0.6439 -1.1360
 3720SOL    HW222797   3.904   0.786  10.900 -1.1768  0.2368 -0.6344
 3721SOL     OW22798   1.110   4.666   1.815  0.2022  0.0672  0.2827
 3721SOL    HW122799   1.181   4.631   1.761 -0.2568 -0.0574 -0.2502
 3721SOL    HW222800   1.031   4.625   1.779  0.6579 -2.6920  2.4563
 3722SOL     OW22801   1.665   0.109   2.692  0.2816 -0.3560  0.5304
 3722SOL    HW122802   1.584   0.072   2.727  1.3497 -1.4889  1.7804
 3722SOL    HW222803   1.648   0.123   2.599  2.6499  1.8156  0.4367
 3723SOL     OW22804   3.201   0.228   7.640 -0.0260 -0.0479 -0.1797
 3723SOL    HW122805   3.248   0.148   7.663 -0.1776  0.4680  1.9618
 3723SOL    HW222806   3.116   0.198   7.607 -0.7800 -0.4425  2.0562
 3724SOL     OW22807   4.530   1.501   2.003 -0.0327 -0.0956  0.2233
 3724SOL    HW122808   4.514   1.408   1.990  1.2537 -0.6528  2.5356
 3724SOL    HW222809   4.556   1.534   1.917 -1.4264  2.8076  0.9103
 3725SOL     OW22810   3.325   3.926  11.862 -0.2449  0.5800 -0.3965
 3725SOL    HW122811   3.419   3.932  11.847  0.1615 -0.8213  1.6830
 3725SOL    HW222812   3.312   3.853  11.922  0.2382  0.9980  0.2232
 3726SOL     OW22813   1.679   0.829   2.012  0.2258 -0.4622  0.2867
 3726SOL    HW122814   1.594   0.787   2.021 -0.2152  0.2004 -0.8851
 3726SOL    HW222815   1.667   0.880   2.093 -1.3153 -0.2095 -0.0953
 3727SOL     OW22816   0.552   1.499   0.297 -0.3245 -0.3457 -0.3891
 3727SOL    HW122817   0.521   1.471   0.212 -2.2854 -1.1979  0.6157
 3727SOL    HW222818   0.585   1.418   0.335  2.1884  0.4185 -0.9062
 3728SOL     OW22819   2.834   1.296   7.689 -0.7904 -0.3027  0.2172
 3728SOL    HW122820   2.928   1.314   7.696 -0.7593 -0.3807  0.0013
 3728SOL    HW222821   2.821   1.229   7.757 -1.0314  1.2146  1.6747
 3729SOL     OW22822   3.585   2.163   0.580 -0.6125  0.1071 -0.0732
 3729SOL    HW122823   3.591   2.145   0.487  0.2223  1.2184 -0.2370
 3729SOL    HW222824   3.672   2.134   0.606 -1.6763 -2.0080  1.1246
 3730SOL     OW22825   0.676   2.140   6.271  0.3511 -0.4230 -0.0279
 3730SOL    HW122826   0.662   2.173   6.182 -3.0374 -1.1152  0.2509
 3730SOL    HW222827   0.768   2.153   6.294  0.5879 -1.0431 -0.6084
 3731SOL     OW22828   3.534   3.474   5.556  0.3200 -0.2202  0.0715
 3731SOL    HW122829   3.562   3.396   5.507  1.5287  0.4524 -0.3293
 3731SOL    HW222830   3.522   3.542   5.490 -1.3118  1.4045  2.0740
 3732SOL     OW22831   1.752   1.989   4.905 -0.0671 -0.3706  0.0811
 3732SOL    HW122832   1.717   1.931   4.838  0.2009 -1.8284  1.1957
 3732SOL    HW222833   1.840   2.003   4.870  0.1456  0.3881  0.9242
 3733SOL     OW22834   0.827   0.054  10.235  0.0347 -0.2084 -0.1450
 3733SOL    HW122835   0.896   0.120  10.248  0.2322 -0.4385 -0.0253
 3733SOL    HW222836   0.770   0.093  10.169  1.4110  2.7993  0.4569
 3734SOL     OW22837   3.255   1.799   1.733 -0.0390 -0.4147  0.0007
 3734SOL    HW122838   3.245   1.894   1.738 -2.1947 -0.7064  1.1415
 3734SOL    HW222839   3.194   1.785   1.661  1.6137 -1.3684 -1.2241
 3735SOL     OW22840   1.503   3.734   5.215 -0.5434  1.2040  0.3491
 3735SOL    HW122841   1.466   3.646   5.209 -1.3184  1.6491 -1.5280
 3735SOL    HW222842   1.540   3.736   5.127 -0.8054  1.1317  0.2374
 3736SOL     OW22843   2.282   0.866   7.624 -0.5554 -0.7357 -0.2338
 3736SOL    HW122844   2.330   0.784   7.632  0.6604 -0.0900 -0.9165
 3736SOL    HW222845   2.298   0.910   7.707  1.4630  2.0518 -2.0886
 3737SOL     OW22846   3.055   4.501  16.086 -0.2240  0.1487 -0.5744
 3737SOL    HW122847   3.070   4.469  15.997  2.2789  0.6593 -0.3173
 3737SOL    HW222848   3.073   4.417  16.129 -1.2726 -0.8706 -2.1327
 3738SOL     OW22849   4.135   4.306   3.291 -0.4913 -0.0523  0.2072
 3738SOL    HW122850   4.141   4.345   3.378  0.8600  2.4245 -1.0197
 3738SOL    HW222851   4.151   4.212   3.299 -0.7648 -0.0497  0.8423
 3739SOL     OW22852   3.207   3.978   7.570 -0.1983 -0.1584  0.4440
 3739SOL    HW122853   3.286   4.018   7.605  0.9559 -0.9754 -1.2332
 3739SOL    HW222854   3.220   3.884   7.558 -2.5090 -0.4048 -0.2364
 3740SOL     OW22855   3.210   1.556   3.050 -0.0315  0.0027 -0.0365
 3740SOL    HW122856   3.282   1.618   3.038 -1.5681  2.1922  2.2444
 3740SOL    HW222857   3.251   1.470   3.034 -1.0994 -0.4203 -0.4996
 3741SOL     OW22858   2.906   3.464   8.852 -0.2343  0.1225 -0.3433
 3741SOL    HW122859   2.953   3.429   8.777 -0.0156 -0.7673  0.2091
 3741SOL    HW222860   2.952   3.542   8.882  0.2694 -0.1486 -0.4049
 3742SOL     OW22861   3.827   4.162   3.662  0.1929  0.3112 -0.1631
 3742SOL    HW122862   3.817   4.170   3.757 -0.4017  1.7833 -0.3506
 3742SOL    HW222863   3.914   4.122   3.657  1.2221  2.0138  3.9892
 3743SOL     OW22864   3.920   2.068   9.081 -0.3149 -0.7145  0.0135
 3743SOL    HW122865   3.864   2.004   9.124  1.0584 -1.4725  0.6608
 3743SOL    HW222866   3.863   2.130   9.035 -0.2990  0.2910  1.3529
 3744SOL     OW22867   2.700   2.359  10.431  0.3399 -0.4101 -0.1668
 3744SOL    HW122868   2.644   2.402  10.367  0.7891 -0.2578 -0.4595
 3744SOL    HW222869   2.689   2.411  10.510  2.1402  1.8251 -1.3706
 3745SOL     OW22870   4.556   3.008   2.022  0.4233  0.0336 -0.2897
 3745SOL    HW122871   4.619   3.000   2.094 -0.0019  0.3180  0.1145
 3745SOL    HW222872   4.506   3.083   2.055  0.3388 -0.8793  1.6304
 3746SOL     OW22873   1.859   3.156   4.335 -0.3593  0.1831 -0.5210
 3746SOL    HW122874   1.772   3.118   4.330 -0.3979  0.1524  0.4450
 3746SOL    HW222875   1.903   3.080   4.297 -1.6071 -0.2819 -1.0453
 3747SOL     OW22876   0.097   0.852   8.192  0.3770  0.3293  0.4209
 3747SOL    HW122877   0.043   0.773   8.192  0.6780  0.1197  0.5895
 3747SOL    HW222878   0.132   0.866   8.104 -2.0762 -0.2131 -0.6318
 3748SOL     OW22879   2.469   2.851   2.793  0.3382 -0.4825  0.7434
 3748SOL    HW122880   2.406   2.861   2.721  0.8027 -0.4188  0.3451
 3748SOL    HW222881   2.499   2.760   2.786  1.2330 -0.1260 -0.0759
 3749SOL     OW22882   1.905   2.008   4.251  0.0220 -0.2130  0.0785
 3749SOL    HW122883   1.854   1.948   4.197 -1.0688  1.0435 -0.2853
 3749SOL    HW222884   1.877   2.095   4.223  1.4482 -0.0334 -0.8063
 3750SOL     OW22885   1.610   1.836   7.419  0.7231  0.0370 -0.2735
 3750SOL    HW122886   1.560   1.917   7.426 -0.2739 -0.3451 -2.8266
 3750SOL    HW222887   1.691   1.851   7.466 -1.0247  1.2237  2.3560
 3751SOL     OW22888   4.694   1.258   5.928 -0.2922  0.2207  0.4079
 3751SOL    HW122889   4.733   1.209   6.000  1.9847  1.7377  0.2117
 3751SOL    HW222890   0.023   1.328   5.924 -2.5436  2.2180 -1.9599
 3752SOL     OW22891   4.184   2.535   8.272 -0.1578  0.3863  0.1582
 3752SOL    HW122892   4.268   2.579   8.289 -0.0240 -0.1003  0.7883
 3752SOL    HW222893   4.125   2.602   8.238 -0.5762  1.2214  2.4892
 3753SOL     OW22894   2.362   1.763  16.472 -0.7044  0.1485 -0.0799
 3753SOL    HW122895   2.419   1.821  16.522 -0.7599 -0.1909  0.3785
 3753SOL    HW222896   2.382   1.780  16.379 -0.9009  1.2412  0.0815
 3754SOL     OW22897   3.170   1.974   6.093  0.4498  0.2239 -0.2959
 3754SOL    HW122898   3.196   2.054   6.139 -2.8234  0.4228  1.2085
 3754SOL    HW222899   3.132   2.014   6.015 -1.9475 -2.0397 -0.3138
 3755SOL     OW22900   1.020   0.305   4.819  0.2260 -0.1449  0.4241
 3755SOL    HW122901   0.976   0.332   4.739  0.9272  2.0607  0.7760
 3755SOL    HW222902   1.036   0.392   4.855 -0.1702 -0.0603  0.3938
 3756SOL     OW22903   1.574   4.275   3.019  0.9604  0.4108  0.8120
 3756SOL    HW122904   1.509   4.322   2.967 -1.2741 -0.6366  2.6478
 3756SOL    HW222905   1.553   4.301   3.109 -1.0228 -2.6552  1.2138
 3757SOL     OW22906   1.514   0.763   8.321 -0.0408  0.2323 -0.1140
 3757SOL    HW122907   1.481   0.717   8.398  1.1038  0.1926  0.3555
 3757SOL    HW222908   1.437   0.808   8.288 -0.1408  0.7133  0.7711
 3758SOL     OW22909   1.321   2.412   5.644 -0.5444  0.2262  0.0807
 3758SOL    HW122910   1.311   2.320   5.667 -1.0704  0.2634  0.0017
 3758SOL    HW222911   1.238   2.446   5.679 -0.0620  2.1278 -0.6403
 3759SOL     OW22912   0.737   1.365  15.626 -0.4936 -0.1664 -0.0651
 3759SOL    HW122913   0.753   1.455  15.654 -0.1865 -0.4941  0.8074
 3759SOL    HW222914   0.788   1.318  15.692 -3.5179 -3.5907 -0.1978
 3760SOL     OW22915   1.833   4.023   6.017 -0.4619 -0.8015 -0.1420
 3760SOL    HW122916   1.900   4.051   5.955  0.1846  1.5443  1.6225
 3760SOL    HW222917   1.874   3.950   6.063 -1.6688 -1.1968  0.2987
 3761SOL     OW22918   2.692   1.593  11.247  0.3509  0.1918  0.1862
 3761SOL    HW122919   2.765   1.551  11.202  0.4876  1.4750 -0.7871
 3761SOL    HW222920   2.678   1.552  11.333  0.1200 -1.4668 -0.6470
 3762SOL     OW22921   0.355   2.018   1.658  0.5003  0.1362  0.0330
 3762SOL    HW122922   0.394   1.974   1.733 -2.5342 -0.5291  1.2335
 3762SOL    HW222923   0.376   2.105   1.694  0.9725  0.3971 -0.8748
 3763SOL     OW22924   1.897   4.222   8.775  0.6476  0.3414  0.2334
 3763SOL    HW122925   1.885   4.152   8.839  0.0244  0.6335  0.4339
 3763SOL    HW222926   1.809   4.236   8.738 -0.9051  1.9269  4.5970
 3764SOL     OW22927   0.741   3.483   4.262 -0.4645  0.0792 -0.3148
 3764SOL    HW122928   0.777   3.515   4.179 -1.4136 -0.1191 -0.7956
 3764SOL    HW222929   0.696   3.565   4.283  0.1384  0.3612 -0.1128
 3765SOL     OW22930   4.664   2.965  12.028 -0.3822 -0.3814 -0.8146
 3765SOL    HW122931   4.570   2.957  12.044 -0.0776 -1.3144  0.4953
 3765SOL    HW222932   4.668   3.057  12.001  2.6527 -0.2105  0.2235
 3766SOL     OW22933   1.162   1.120  11.708 -0.2886 -0.6924  0.4531
 3766SOL    HW122934   1.124   1.205  11.728  1.1401 -0.1341  0.8359
 3766SOL    HW222935   1.207   1.103  11.791  2.3389  1.3521 -0.5619
 3767SOL     OW22936   1.849   1.238   2.569  0.4925 -0.0478 -0.7085
 3767SOL    HW122937   1.928   1.238   2.624 -0.8696 -0.5649  1.2673
 3767SOL    HW222938   1.846   1.333   2.552  1.4139  0.1304  0.1088
 3768SOL     OW22939   0.486   4.295   1.160 -0.0957  0.2110  0.1039
 3768SOL    HW122940   0.528   4.265   1.080  0.5008  1.5936 -0.1038
 3768SOL    HW222941   0.452   4.379   1.129 -0.9941 -0.8244 -1.7002
 3769SOL     OW22942   1.273   1.141  17.194  0.0483 -0.0902 -0.0515
 3769SOL    HW122943   1.334   1.203  17.154 -0.8735 -0.1952 -1.6056
 3769SOL    HW222944   1.332   1.090  17.249  0.4266 -3.0201 -3.1692
 3770SOL     OW22945   3.829   1.760   4.924 -0.3343 -0.4461  0.0085
 3770SOL    HW122946   3.768   1.811   4.870  1.7218 -0.5419 -2.4234
 3770SOL    HW222947   3.810   1.675   4.885 -0.2468 -0.2517 -0.4657
 3771SOL     OW22948   2.590   2.527   4.487  0.1682 -0.4647 -0.1938
 3771SOL    HW122949   2.512   2.552   4.437  0.8943  0.5900 -0.8013
 3771SOL    HW222950   2.557   2.439   4.503 -1.8695  0.2993 -0.1550
 3772SOL     OW22951   0.021   0.126   8.373 -0.6915 -0.1760  0.0456
 3772SOL    HW122952   0.007   0.136   8.279 -1.7424 -0.9921  0.1174
 3772SOL    HW222953   0.056   0.209   8.406  1.5175 -0.9580 -0.3081
 3773SOL     OW22954   4.240   0.217   0.680  0.0927  0.2573  0.1683
 3773SOL    HW122955   4.196   0.283   0.734 -2.4771 -1.3410  0.0232
 3773SOL    HW222956   4.243   0.146   0.744 -1.0960  0.6193  0.6085
 3774SOL     OW22957   1.969   1.883  15.816  0.0346  0.2813  0.2990
 3774SOL    HW122958   1.898   1.885  15.752  0.8743 -2.2180 -0.6835
 3774SOL    HW222959   1.990   1.976  15.829  0.6582  0.2581 -0.5762
 3775SOL     OW22960   1.209   1.727  10.561 -0.3057 -0.7275 -0.1945
 3775SOL    HW122961   1.223   1.638  10.595  0.6175  0.6164  2.9005
 3775SOL    HW222962   1.296   1.766  10.569 -0.6513  0.3841 -1.7146
 3776SOL     OW22963   3.854   0.466   4.964  0.3310  0.0886 -0.4207
 3776SOL    HW122964   3.844   0.520   5.043  1.0319 -0.1561 -0.1664
 3776SOL    HW222965   3.773   0.486   4.917  0.5960 -1.6483 -1.6146
 3777SOL     OW22966   4.150   2.446   5.145  0.0980 -0.4708  0.4134
 3777SOL    HW122967   4.179   2.363   5.108 -0.4483  0.1169 -1.3075
 3777SOL    HW222968   4.178   2.427   5.235 -1.7345 -3.3305  0.3649
 3778SOL     OW22969   1.149   2.765   1.940 -0.2649  0.3010 -0.2705
 3778SOL    HW122970   1.196   2.754   2.022 -0.3927 -1.5028 -0.4532
 3778SOL    HW222971   1.178   2.846   1.897 -0.0593  0.7315  0.6725
 3779SOL     OW22972   2.038   0.913  11.841  0.1875 -0.3743 -0.2476
 3779SOL    HW122973   2.072   1.000  11.858 -0.6670  0.4193 -2.6440
 3779SOL    HW222974   2.059   0.873  11.926  0.9452  0.4480 -0.0549
 3780SOL     OW22975   3.541   2.270  13.046 -0.4472  0.4450 -0.1980
 3780SOL    HW122976   3.579   2.260  12.959 -2.0265  1.6398 -1.0236
 3780SOL    HW222977   3.603   2.332  13.084  1.1871  1.3784 -4.3705
 3781SOL     OW22978   0.691   0.333  13.430 -0.2947  0.0378  0.2680
 3781SOL    HW122979   0.661   0.379  13.352  1.1752  1.3519  0.4709
 3781SOL    HW222980   0.758   0.272  13.401 -0.4728  0.0415 -0.1474
 3782SOL     OW22981   1.019   0.512   8.213  0.0309  0.1750 -0.0198
 3782SOL    HW122982   1.024   0.564   8.133  3.0391  1.2169  0.8373
 3782SOL    HW222983   1.055   0.577   8.274  1.0943 -0.5872  0.1777
 3783SOL     OW22984   3.187   4.347   2.777  0.0820 -0.3419 -0.3595
 3783SOL    HW122985   3.109   4.292   2.785  0.2742 -0.5437  0.1344
 3783SOL    HW222986   3.208   4.327   2.686  0.0666 -0.0834 -0.4221
 3784SOL     OW22987   2.340   1.021   1.762 -0.0861 -0.5430 -0.2872
 3784SOL    HW122988   2.322   0.937   1.803 -0.8865  0.2949  1.0711
 3784SOL    HW222989   2.264   1.027   1.703  2.0636  0.0776 -2.9937
 3785SOL     OW22990   0.233   3.444   7.365  0.2292  0.3804  0.3614
 3785SOL    HW122991   0.156   3.391   7.388  0.2509 -0.5421 -1.6799
 3785SOL    HW222992   0.246   3.435   7.270  0.3387  1.1535  0.3083
 3786SOL     OW22993   0.858   1.703   7.658 -0.7486 -0.5269 -0.2837
 3786SOL    HW122994   0.801   1.635   7.695 -0.8338  0.1237  0.7588
 3786SOL    HW222995   0.859   1.673   7.567 -0.4203 -1.5690  0.0595
 3787SOL     OW22996   3.494   3.577   8.744  0.3778 -0.3186  0.2570
 3787SOL    HW122997   3.544   3.500   8.717 -1.1781 -1.3004  0.1748
 3787SOL    HW222998   3.555   3.616   8.806 -0.8338 -0.7524  1.7113
 3788SOL     OW22999   0.976   1.643   3.145  0.2240 -0.0221 -0.1160
 3788SOL    HW123000   0.935   1.729   3.133  1.1553  0.5376  0.8034
 3788SOL    HW223001   0.908   1.578   3.124 -0.9972  1.1033  0.3847
 3789SOL     OW23002   0.232   1.448  11.243 -0.6448  0.2328 -0.3607
 3789SOL    HW123003   0.198   1.537  11.254 -0.4088  0.2637  0.1201
 3789SOL    HW223004   0.318   1.447  11.284 -0.7379 -2.2452 -0.1987
 3790SOL     OW23005   4.054   4.673   3.578 -0.1250  0.4158  0.2257
 3790SOL    HW123006   4.123   4.734   3.603  0.5084  0.4467 -1.6082
 3790SOL    HW223007   3.966   4.712   3.575  0.6825  2.2606  0.2022
 3791SOL     OW23008   1.000   1.564   4.298 -1.0100 -0.0550  0.0521
 3791SOL    HW123009   0.942   1.616   4.242 -0.9841  0.3817  0.4274
 3791SOL    HW223010   0.997   1.477   4.260 -0.2462 -0.7437  1.5920
 3792SOL     OW23011   2.877   2.225  17.411 -0.2026  0.0449 -0.8302
 3792SOL    HW123012   2.826   2.296  17.373 -1.5392 -0.1713  0.5411
 3792SOL    HW223013   2.859   2.154  17.350  0.0956 -0.5376 -0.2441
 3793SOL     OW23014   3.720   2.540   9.501 -0.4512  0.1960 -0.1711
 3793SOL    HW123015   3.761   2.515   9.419  0.1980  0.0881  0.1805
 3793SOL    HW223016   3.786   2.603   9.530  0.2921 -1.4005  1.6374
 3794SOL     OW23017   2.020   3.456   7.488 -0.4392 -0.3328 -0.4097
 3794SOL    HW123018   2.074   3.496   7.556 -1.1903 -0.7092  0.4139
 3794SOL    HW223019   2.086   3.440   7.421 -0.8408 -3.0000 -0.1885
 3795SOL     OW23020   2.847   0.993  17.204  0.0484 -0.3329  0.0723
 3795SOL    HW123021   2.799   1.011  17.285 -1.5061  2.0719 -1.4073
 3795SOL    HW223022   2.863   1.087  17.191  0.6164 -0.4831 -0.3315
 3796SOL     OW23023   3.685   2.002   2.200  0.1401 -0.5268 -0.4414
 3796SOL    HW123024   3.590   2.009   2.210  0.1711 -0.3517 -0.2767
 3796SOL    HW223025   3.707   1.918   2.239  0.8832  1.6111  3.6649
 3797SOL     OW23026   4.159   1.103  11.156 -0.2016  0.3159 -0.6690
 3797SOL    HW123027   4.144   1.044  11.230  1.8067  1.4917  0.6803
 3797SOL    HW223028   4.089   1.085  11.094 -1.2563  1.2331  0.2677
 3798SOL     OW23029   0.422   3.785  13.321  0.0356 -0.4168  0.4334
 3798SOL    HW123030   0.475   3.858  13.291 -1.1450 -0.3765 -1.5883
 3798SOL    HW223031   0.457   3.713  13.267 -2.4410 -0.1522 -1.5401
 3799SOL     OW23032   2.789   1.165   6.065  0.6678 -0.0063  0.0144
 3799SOL    HW123033   2.771   1.259   6.064 -0.8554 -0.3120 -0.8732
 3799SOL    HW223034   2.884   1.170   6.076  0.7276  0.3131 -0.6275
 3800SOL     OW23035   1.946   4.686  10.466 -0.3583  0.0587 -0.3486
 3800SOL    HW123036   1.957   0.041  10.489 -0.5818 -0.1780  0.7038
 3800SOL    HW223037   2.040   4.669  10.455  0.2727  2.3356  1.4674
 3801SOL     OW23038   4.084   2.955   5.546  0.6356 -1.1326  0.2059
 3801SOL    HW123039   4.151   2.902   5.503 -1.1294 -3.9765  0.9793
 3801SOL    HW223040   4.076   2.924   5.636 -1.9211  1.9918  1.0482
 3802SOL     OW23041   4.387   0.831   3.439 -0.2564 -0.8736  0.3290
 3802SOL    HW123042   4.476   0.861   3.421 -0.7879  0.6289  0.1853
 3802SOL    HW223043   4.376   0.757   3.379 -0.0851  0.0437 -0.8438
 3803SOL     OW23044   2.921   2.947   2.962  0.6730  0.1152  0.3911
 3803SOL    HW123045   2.980   3.006   2.915 -2.4021  1.2566 -2.0105
 3803SOL    HW223046   2.840   2.988   2.933  0.5828  0.4725  1.1321
 3804SOL     OW23047   0.693   1.187  17.359  0.0260 -0.4060 -0.2710
 3804SOL    HW123048   0.758   1.247  17.321 -0.0132  1.1951  2.2385
 3804SOL    HW223049   0.652   1.164  17.275  0.0287 -0.4859 -0.2502
 3805SOL     OW23050   1.632   4.228  10.303 -0.0578 -0.0861  0.4690
 3805SOL    HW123051   1.547   4.236  10.259  0.2171  1.2913  0.2103
 3805SOL    HW223052   1.602   4.213  10.393  0.6371  3.5014  1.2897
 3806SOL     OW23053   2.879   0.939   2.912 -0.4792  0.4907 -0.5465
 3806SOL    HW123054   2.932   1.016   2.931  1.3917 -1.5611  2.6202
 3806SOL    HW223055   2.835   0.925   2.996 -0.6530  0.0208 -0.7154
 3807SOL     OW23056   4.243   4.567   7.179  0.3846  0.1377 -0.4603
 3807SOL    HW123057   4.295   4.603   7.107 -0.6639  0.8055 -0.8861
 3807SOL    HW223058   4.189   4.644   7.198  1.7966  1.1124 -0.3544
 3808SOL     OW23059   0.628   3.635  13.208  0.2513 -0.1006  0.2025
 3808SOL    HW123060   0.661   3.669  13.291 -0.2838  1.4497 -0.2334
 3808SOL    HW223061   0.698   3.680  13.161 -0.0773 -0.3819 -0.5619
 3809SOL     OW23062   1.525   0.812   4.513 -0.0455  0.0881  0.5797
 3809SOL    HW123063   1.477   0.825   4.595  0.9689 -1.3309  1.4036
 3809SOL    HW223064   1.461   0.856   4.457  0.8795  0.8688  0.1276
 3810SOL     OW23065   1.204   3.304   2.962  0.3100  0.8340  0.5627
 3810SOL    HW123066   1.178   3.270   3.047 -1.2868 -0.0669 -0.2850
 3810SOL    HW223067   1.260   3.232   2.931  1.1153  1.6216  0.1836
 3811SOL     OW23068   1.347   4.554   7.976 -0.4147  0.4484  0.5373
 3811SOL    HW123069   1.337   4.594   8.062 -1.5614  2.7404 -0.6865
 3811SOL    HW223070   1.276   4.587   7.922  0.5608  0.9376 -0.4467
 3812SOL     OW23071   2.852   2.573   4.428 -0.4492 -0.2976 -0.1165
 3812SOL    HW123072   2.830   2.667   4.427  0.5732 -0.0713 -1.0754
 3812SOL    HW223073   2.762   2.542   4.431  0.0328 -1.6725 -0.3030
 3813SOL     OW23074   1.542   1.676  10.554  0.6731 -0.1098 -0.3609
 3813SOL    HW123075   1.530   1.763  10.594  0.2097 -0.1332 -0.4437
 3813SOL    HW223076   1.635   1.658  10.567  0.2527 -2.6859 -1.0100
 3814SOL     OW23077   0.798   3.363   9.121  0.0835 -0.1517  0.4040
 3814SOL    HW123078   0.776   3.451   9.089  1.0243 -0.2312 -0.4800
 3814SOL    HW223079   0.887   3.378   9.152  0.2766 -2.7056  1.0841
 3815SOL     OW23080   2.594   3.376   3.019 -0.3641 -0.4228 -0.1966
 3815SOL    HW123081   2.669   3.412   3.066 -0.8926 -0.2834  0.5363
 3815SOL    HW223082   2.542   3.356   3.096  0.2209 -0.9510  0.0690
 3816SOL     OW23083   2.151   4.041   8.940  0.0195 -0.2620 -0.6511
 3816SOL    HW123084   2.057   4.057   8.954  0.4101 -0.3155  2.1117
 3816SOL    HW223085   2.177   3.978   9.007  1.7987  0.5586 -0.5695
 3817SOL     OW23086   0.943   3.924   6.372  0.1065 -0.6652 -0.5696
 3817SOL    HW123087   0.945   3.829   6.363 -0.4921 -0.6642 -0.7476
 3817SOL    HW223088   0.872   3.944   6.310 -0.3990  1.9676  0.8360
 3818SOL     OW23089   0.052   2.252   1.400  0.3110 -0.4071 -0.5696
 3818SOL    HW123090   0.051   2.348   1.392  2.0908 -0.3547 -0.0532
 3818SOL    HW223091   0.095   2.242   1.484  0.1394  1.7886 -0.2163
 3819SOL     OW23092   0.315   3.852   7.666 -0.6557  0.3927  0.5937
 3819SOL    HW123093   0.317   3.777   7.608  0.8772  1.2559 -0.4615
 3819SOL    HW223094   0.350   3.922   7.611 -0.1289  0.6070  1.1957
 3820SOL     OW23095   1.879   0.391  16.936 -0.2669 -0.2125  0.0899
 3820SOL    HW123096   1.883   0.394  16.841  1.6109  0.0588  0.1726
 3820SOL    HW223097   1.858   0.484  16.944  1.7162  0.1989  0.7007
 3821SOL     OW23098   1.200   2.113  10.453 -0.2808 -0.3412  0.0761
 3821SOL    HW123099   1.278   2.139  10.404  0.1907  2.3487  2.2158
 3821SOL    HW223100   1.217   2.161  10.535  0.5865  0.0202 -0.3177
 3822SOL     OW23101   1.168   4.654   6.022 -0.1035 -0.1427  0.5133
 3822SOL    HW123102   1.099   4.607   5.976  0.5351 -1.3411  0.7672
 3822SOL    HW223103   1.239   4.590   6.013  0.5478  0.4804  1.2295
 3823SOL     OW23104   0.702   2.331   1.479 -0.0666 -0.7592  0.1086
 3823SOL    HW123105   0.734   2.245   1.451 -0.0401 -0.4473 -0.8400
 3823SOL    HW223106   0.736   2.353   1.565 -1.8460  0.1662  0.5824
 3824SOL     OW23107   2.191   2.158   3.190 -0.5464  0.5175 -0.4022
 3824SOL    HW123108   2.139   2.077   3.187  0.9963 -0.5337  1.4599
 3824SOL    HW223109   2.255   2.130   3.255  0.1807 -1.6190 -2.0814
 3825SOL     OW23110   0.453   4.298   5.750  0.2837  0.1251 -0.1511
 3825SOL    HW123111   0.366   4.336   5.738  0.0345 -1.0916 -2.3225
 3825SOL    HW223112   0.505   4.325   5.675 -0.9287  1.3947 -0.5373
 3826SOL     OW23113   2.309   2.755   9.374  0.1871  0.9197  0.0658
 3826SOL    HW123114   2.393   2.796   9.394  0.3602 -0.0125  1.2667
 3826SOL    HW223115   2.277   2.820   9.312  0.0571 -0.5583 -1.4140
 3827SOL     OW23116   1.292   1.696   7.936 -0.3151 -0.1719 -0.2224
 3827SOL    HW123117   1.201   1.670   7.924 -0.7246  0.7562  0.8312
 3827SOL    HW223118   1.299   1.783   7.896 -1.2360  0.1025  0.1979
 3828SOL     OW23119   2.575   3.936   7.645 -0.3310  0.0078 -0.1569
 3828SOL    HW123120   2.659   3.963   7.683 -0.2534 -1.1232  0.4894
 3828SOL    HW223121   2.596   3.945   7.552  1.8980 -0.0348  0.3513
 3829SOL     OW23122   4.247   4.034   8.986  0.7364  0.3306  0.2024
 3829SOL    HW123123   4.303   4.107   8.961 -0.1953  0.1979 -2.2477
 3829SOL    HW223124   4.254   3.984   8.905 -3.0854  0.3369 -0.1317
 3830SOL     OW23125   4.622   4.705   7.945 -0.1902 -0.5149 -0.3768
 3830SOL    HW123126   4.689   4.667   7.888 -0.0941 -1.6313  0.4917
 3830SOL    HW223127   4.546   4.650   7.926  0.6013 -1.8872  0.4865
 3831SOL     OW23128   0.040   3.235  17.419  0.3906 -0.0621  0.0247
 3831SOL    HW123129   0.063   3.323  17.450 -1.9565  1.2482 -1.9732
 3831SOL    HW223130   0.129   3.200  17.425  0.1195 -0.1681  3.4748
 3832SOL     OW23131   2.178   2.015   6.100 -0.0088  0.6557 -0.1788
 3832SOL    HW123132   2.264   1.974   6.107 -0.5065 -0.1638  1.1247
 3832SOL    HW223133   2.175   2.071   6.022 -1.7295 -0.1134 -0.6541
 3833SOL     OW23134   2.559   2.846   3.172  0.7029  0.2177 -0.3423
 3833SOL    HW123135   2.619   2.848   3.247 -1.0049  0.5078  1.0183
 3833SOL    HW223136   2.487   2.806   3.221  2.0736 -0.2166  1.3190
 3834SOL     OW23137   1.731   0.965  17.520  0.2108 -0.5085  0.9442
 3834SOL    HW123138   1.727   1.056  17.549  3.3352 -0.1573  0.2438
 3834SOL    HW223139   1.825   0.959  17.506  0.0313 -0.1263 -0.3874
 3835SOL     OW23140   1.287   1.223   7.062 -0.0931 -0.1958 -0.6529
 3835SOL    HW123141   1.218   1.272   7.106  0.1807 -0.6919  0.3317
 3835SOL    HW223142   1.359   1.217   7.125  0.0223 -0.6869 -0.8329
 3836SOL     OW23143   3.090   2.360  13.820  0.1711  0.1038  0.2736
 3836SOL    HW123144   3.080   2.455  13.816 -1.4954 -0.1655 -2.2243
 3836SOL    HW223145   2.998   2.335  13.831  1.1618 -3.3411  0.8051
 3837SOL     OW23146   4.451   2.200   7.620  0.1114 -0.1248 -0.0265
 3837SOL    HW123147   4.395   2.278   7.624  0.4806  0.1975 -1.2250
 3837SOL    HW223148   4.540   2.235   7.622  0.1050 -0.1476  0.6909
 3838SOL     OW23149   4.690   2.715  11.857 -0.1424  0.3712  0.5348
 3838SOL    HW123150   4.659   2.788  11.912 -0.5026 -1.0674  2.2444
 3838SOL    HW223151   4.678   2.648  11.924  2.3980 -0.2839  0.3300
 3839SOL     OW23152   1.861   0.567   7.624  0.2014  0.6530 -0.8618
 3839SOL    HW123153   1.788   0.511   7.652  0.9298  0.3948  0.4954
 3839SOL    HW223154   1.926   0.499   7.611  2.1492  1.8701  2.5309
 3840SOL     OW23155   3.681   4.291  17.358  0.5068 -0.2903 -0.2160
 3840SOL    HW123156   3.636   4.214  17.323  0.5018 -0.7508  0.8301
 3840SOL    HW223157   3.767   4.250  17.365  0.2799 -0.7200  0.0675
 3841SOL     OW23158   0.029   3.701   9.515  0.1581  0.0734 -0.4528
 3841SOL    HW123159   4.699   3.632   9.510  0.0302  0.2083 -0.6318
 3841SOL    HW223160   0.037   3.707   9.610 -3.3988 -0.7412 -0.0910
 3842SOL     OW23161   0.533   2.768  15.938 -0.0172 -0.3530 -0.0301
 3842SOL    HW123162   0.599   2.782  15.870  0.9171 -0.8096  0.7916
 3842SOL    HW223163   0.582   2.732  16.012 -0.9489  0.3118  0.9128
 3843SOL     OW23164   2.943   3.013  13.474 -0.0749 -0.2931 -0.1833
 3843SOL    HW123165   2.896   3.064  13.409 -1.6723  0.8695  1.8736
 3843SOL    HW223166   2.951   3.083  13.539  0.1075 -0.2635 -0.2359
 3844SOL     OW23167   2.484   3.818   1.798 -0.2635 -0.0481 -0.5178
 3844SOL    HW123168   2.463   3.840   1.707  1.1036  2.2457 -0.2844
 3844SOL    HW223169   2.446   3.731   1.811  0.7292 -0.4291 -0.1729
 3845SOL     OW23170   3.454   2.360   3.490 -0.7786  0.3585  0.3848
 3845SOL    HW123171   3.480   2.364   3.582  1.1544  1.8663 -0.2368
 3845SOL    HW223172   3.423   2.270   3.478 -0.0433  0.1405  0.1325
 3846SOL     OW23173   2.811   2.643   9.626 -0.3124 -0.1396  0.4828
 3846SOL    HW123174   2.817   2.674   9.536  1.6365  0.7258  0.9113
 3846SOL    HW223175   2.898   2.606   9.643  1.0367  3.2173  0.7684
 3847SOL     OW23176   0.089   0.260   8.685  0.0731 -0.4486  0.3626
 3847SOL    HW123177   0.115   0.186   8.741  0.5218 -0.4893  0.1011
 3847SOL    HW223178   0.118   0.331   8.742 -2.8917  0.6317  0.5539
 3848SOL     OW23179   3.086   3.966   3.338 -0.5348  0.1349  0.4372
 3848SOL    HW123180   3.078   4.014   3.420 -0.9923  0.1771  0.3651
 3848SOL    HW223181   3.160   4.008   3.294  0.3018 -0.7204  1.0175
 3849SOL     OW23182   2.215   1.362  15.101 -0.2955 -0.0183  0.4808
 3849SOL    HW123183   2.212   1.271  15.072  0.5916  0.4614 -1.1214
 3849SOL    HW223184   2.180   1.357  15.190 -0.3610 -1.9090  0.3446
 3850SOL     OW23185   0.541   0.944   2.045 -0.0106 -0.4522 -0.7458
 3850SOL    HW123186   0.460   0.969   2.091  2.1473  2.6628  1.3023
 3850SOL    HW223187   0.573   0.878   2.107  1.5416  0.6902 -0.3476
 3851SOL     OW23188   0.324   1.116   3.563  0.1301  0.5645  0.1644
 3851SOL    HW123189   0.301   1.027   3.592  1.5913  1.0815  2.8865
 3851SOL    HW223190   0.237   1.148   3.540  0.6998  0.9420 -1.4545
 3852SOL     OW23191   0.584   4.447   3.006  0.4679  0.4375  0.1363
 3852SOL    HW123192   0.625   4.384   2.947  0.1036 -1.1066  1.5467
 3852SOL    HW223193   0.641   4.517   2.972 -0.0967  0.9640  0.2815
 3853SOL     OW23194   0.952   1.037   6.273 -0.4327 -0.2227 -0.2129
 3853SOL    HW123195   0.898   0.970   6.315  1.8429 -2.0961 -0.2317
 3853SOL    HW223196   1.012   1.051   6.346 -1.0430  0.2541  0.1989
 3854SOL     OW23197   3.425   0.217   6.234 -0.0865  0.0595 -0.2986
 3854SOL    HW123198   3.483   0.226   6.159 -0.0784 -0.7129 -0.3843
 3854SOL    HW223199   3.438   0.126   6.261  1.8094  0.3734 -0.1492
 3855SOL     OW23200   4.618   4.326   5.071  0.1533 -0.3081  0.1411
 3855SOL    HW123201   4.694   4.269   5.059 -0.1141 -0.8592  1.1112
 3855SOL    HW223202   4.649   4.371   5.149  1.4970  2.0839 -1.7632
 3856SOL     OW23203   1.233   2.025   7.106 -0.0968  0.2776 -0.3971
 3856SOL    HW123204   1.183   2.000   7.029 -0.3187 -0.6738  0.0630
 3856SOL    HW223205   1.277   1.942   7.123 -1.5901 -0.4583 -0.1639
 3857SOL     OW23206   1.247   4.135  14.326 -0.6206 -0.4123 -0.3045
 3857SOL    HW123207   1.337   4.141  14.294 -0.6618 -0.8803 -0.5181
 3857SOL    HW223208   1.201   4.189  14.262 -0.1941  1.1643  0.7211
 3858SOL     OW23209   0.874   3.385  11.714  0.1762  0.1981  0.2487
 3858SOL    HW123210   0.835   3.366  11.629  0.3828  0.3140  0.1314
 3858SOL    HW223211   0.886   3.294  11.742  0.6331 -0.4701 -2.1759
 3859SOL     OW23212   3.669   0.892   3.229 -0.5346 -0.0192 -0.7321
 3859SOL    HW123213   3.600   0.907   3.294  1.4198  2.5004  0.7725
 3859SOL    HW223214   3.728   0.837   3.280 -0.2937  0.2881 -0.6787
 3860SOL     OW23215   0.779   1.049   9.079 -0.2526  0.3795  0.2512
 3860SOL    HW123216   0.840   1.058   9.152 -1.8336  0.1142  1.5993
 3860SOL    HW223217   0.713   0.994   9.121  0.0713 -0.0082  0.2530
 3861SOL     OW23218   1.984   3.324  13.035  0.0430 -0.0203 -0.2798
 3861SOL    HW123219   1.925   3.379  13.086 -0.8980 -0.2507 -1.1210
 3861SOL    HW223220   2.070   3.355  13.065  0.3896 -0.5824 -0.6728
 3862SOL     OW23221   2.272   1.193   1.335 -0.0732  1.0529 -0.4057
 3862SOL    HW123222   2.225   1.142   1.402 -2.3887  0.9922 -2.0572
 3862SOL    HW223223   2.313   1.261   1.389 -0.1417 -0.4659  1.5590
 3863SOL     OW23224   2.531   2.071   8.797  0.4669  0.4861  0.0987
 3863SOL    HW123225   2.460   2.036   8.850  0.1034  1.1915  0.0796
 3863SOL    HW223226   2.587   2.113   8.863  1.7515  0.1123 -0.7477
 3864SOL     OW23227   1.812   2.497   3.070 -0.1032  0.3257 -0.2213
 3864SOL    HW123228   1.894   2.447   3.073 -0.6053 -0.3723  1.9413
 3864SOL    HW223229   1.768   2.459   2.994 -1.9530  3.2601 -0.6072
 3865SOL     OW23230   3.593   3.576   2.108 -0.0555 -0.4803  0.4238
 3865SOL    HW123231   3.587   3.510   2.178 -0.6084 -0.2996  0.5450
 3865SOL    HW223232   3.580   3.653   2.162  0.2882 -1.2773  1.6557
 3866SOL     OW23233   2.520   1.975  16.627 -0.5470  0.1766 -0.5772
 3866SOL    HW123234   2.593   1.962  16.686 -3.0359  1.4355  2.7747
 3866SOL    HW223235   2.563   2.042  16.574 -0.2402  0.1745 -0.3330
 3867SOL     OW23236   0.075   4.681   4.905  0.4024  0.5399  0.1959
 3867SOL    HW123237   0.093   4.589   4.882  0.4723  0.6561 -0.2027
 3867SOL    HW223238   4.733   4.679   4.959 -0.0420 -0.7570 -0.4871
 3868SOL     OW23239   2.215   2.153  13.151  0.0163  0.0113 -0.4923
 3868SOL    HW123240   2.138   2.210  13.151  0.9304  1.2688 -3.6873
 3868SOL    HW223241   2.247   2.147  13.241  3.0683  0.1531 -1.5705
 3869SOL     OW23242   3.418   3.451   6.776 -0.0699 -0.1805 -0.2710
 3869SOL    HW123243   3.392   3.542   6.764 -2.0310 -0.5949  0.8267
 3869SOL    HW223244   3.336   3.408   6.750  1.5797 -3.0219 -0.7019
 3870SOL     OW23245   0.897   1.794   2.086  0.4951 -0.4277  0.1179
 3870SOL    HW123246   0.807   1.816   2.109 -0.1964 -1.4626 -1.5515
 3870SOL    HW223247   0.882   1.719   2.028 -0.4683 -0.0888 -0.0704
 3871SOL     OW23248   3.436   2.366   8.832 -0.5710  1.1393  0.3979
 3871SOL    HW123249   3.477   2.450   8.816 -0.9633  1.0930 -0.8894
 3871SOL    HW223250   3.342   2.385   8.831 -0.7964  0.0246 -0.8230
 3872SOL     OW23251   1.223   0.901  12.069  0.2091  0.9668  0.1294
 3872SOL    HW123252   1.270   0.980  12.041  3.8947 -1.2311  0.2236
 3872SOL    HW223253   1.242   0.833  12.004 -0.4563 -0.9852  2.0026
 3873SOL     OW23254   4.174   2.416   7.655 -0.4432 -0.3403  0.3373
 3873SOL    HW123255   4.194   2.450   7.568  2.8080 -0.5110  1.0253
 3873SOL    HW223256   4.228   2.463   7.718  0.1308  0.7407 -0.9685
 3874SOL     OW23257   2.220   2.666   4.799  0.0383 -0.0296 -0.1613
 3874SOL    HW123258   2.195   2.672   4.891  0.4914  0.2092 -0.0515
 3874SOL    HW223259   2.271   2.585   4.800  0.9389  0.5490  0.5229
 3875SOL     OW23260   0.375   4.027  16.440  0.3812 -0.2620 -0.3496
 3875SOL    HW123261   0.302   4.063  16.390 -0.8807 -2.4313 -0.1073
 3875SOL    HW223262   0.441   4.017  16.372  0.2351  1.0558 -0.6858
 3876SOL     OW23263   3.980   0.300   5.145  0.0609  0.7140  0.0835
 3876SOL    HW123264   3.974   0.372   5.207 -0.1330  0.6595  0.1277
 3876SOL    HW223265   3.945   0.345   5.068  0.6826 -0.0029 -0.6091
 3877SOL     OW23266   1.134   1.915  14.951 -0.5574 -0.9463  0.2529
 3877SOL    HW123267   1.111   1.893  14.861  2.8277 -0.3152 -0.7854
 3877SOL    HW223268   1.112   1.834  14.997  1.8864 -2.4445 -1.2357
 3878SOL     OW23269   2.266   1.162   7.581 -0.0544 -0.2363  0.0061
 3878SOL    HW123270   2.285   1.088   7.638 -0.3526 -0.8057 -0.6281
 3878SOL    HW223271   2.296   1.128   7.497 -1.5555 -0.3491 -0.4730
 3879SOL     OW23272   0.694   2.340   2.212  0.5568 -0.3203 -0.0478
 3879SOL    HW123273   0.744   2.271   2.168  2.7338  0.9465  0.4287
 3879SOL    HW223274   0.655   2.280   2.276 -0.4404  0.3363 -0.0628
 3880SOL     OW23275   3.846   4.147   2.142 -0.1066 -0.2079  0.1268
 3880SOL    HW123276   3.794   4.089   2.086 -1.9921  0.0551  1.6149
 3880SOL    HW223277   3.863   4.225   2.089  0.3331 -0.4745 -0.1233
 3881SOL     OW23278   3.024   2.161  13.033 -0.1221 -0.4765  0.4455
 3881SOL    HW123279   3.050   2.109  13.109 -1.5733  2.3846  2.8745
 3881SOL    HW223280   3.098   2.140  12.976 -0.3739  0.3405 -0.1884
 3882SOL     OW23281   0.786   2.074   1.717 -0.1370 -0.0202  0.2213
 3882SOL    HW123282   0.819   1.990   1.749  1.5518  1.7101  2.9624
 3882SOL    HW223283   0.694   2.069   1.745 -0.0425 -1.9671  0.1805
 3883SOL     OW23284   1.549   4.394   3.258  0.0112  0.5983  0.3317
 3883SOL    HW123285   1.464   4.420   3.294  0.2104  1.2921  0.3070
 3883SOL    HW223286   1.604   4.388   3.337  0.8985 -0.2425 -0.3548
 3884SOL     OW23287   4.367   0.031   4.629  0.0304  0.3917 -0.0706
 3884SOL    HW123288   4.281   0.047   4.667 -0.3129  0.0044 -0.6733
 3884SOL    HW223289   4.370   4.673   4.617 -0.1588  0.4183 -0.3365
 3885SOL     OW23290   2.179   0.697   0.331 -0.3238  0.4152  0.3897
 3885SOL    HW123291   2.105   0.636   0.328  2.0022 -2.3243 -1.2291
 3885SOL    HW223292   2.213   0.685   0.420 -0.0099  0.9178  0.3342
 3886SOL     OW23293   4.207   3.428   8.529  0.1293  0.1950  0.1058
 3886SOL    HW123294   4.190   3.515   8.492  1.6073  1.6547  2.8564
 3886SOL    HW223295   4.290   3.444   8.574 -1.4201  1.6958  2.4148
 3887SOL     OW23296   0.417   4.666  11.117  0.0079 -0.4152 -0.0490
 3887SOL    HW123297   0.448   4.582  11.083  3.1115  0.7256 -0.0091
 3887SOL    HW223298   0.408   4.719  11.038  0.1331 -0.9819 -0.4469
 3888SOL     OW23299   1.008   0.779  12.595 -0.1023 -0.1987 -0.2162
 3888SOL    HW123300   0.984   0.871  12.606 -3.1595 -0.8838 -1.1248
 3888SOL    HW223301   1.098   0.795  12.625 -0.3577  0.6132  0.1147
 3889SOL     OW23302   0.924   1.028   2.656 -0.6534  0.0684  0.1889
 3889SOL    HW123303   0.897   1.106   2.607 -1.9252 -1.2292 -1.1788
 3889SOL    HW223304   0.984   1.071   2.717 -1.3454 -0.0826  0.9696
 3890SOL     OW23305   2.748   3.149  13.371  0.4948 -0.1613 -0.3627
 3890SOL    HW123306   2.735   3.181  13.282  3.6723 -0.9274 -1.0861
 3890SOL    HW223307   2.663   3.171  13.408 -0.1390 -0.6787 -1.5293
 3891SOL     OW23308   4.403   2.702  17.203  0.3174 -0.9718  0.2712
 3891SOL    HW123309   4.420   2.716  17.296  0.1167  0.4513  0.1007
 3891SOL    HW223310   4.493   2.682  17.177 -0.1091 -0.4213 -1.6414
 3892SOL     OW23311   3.417   2.704   0.962  0.3383  0.3492  0.7192
 3892SOL    HW123312   3.494   2.751   0.993  2.4761 -1.3231 -2.0623
 3892SOL    HW223313   3.352   2.741   1.022 -2.7013 -2.3734 -0.9047
 3893SOL     OW23314   4.465   2.103  11.871 -0.1495  0.1526  0.4321
 3893SOL    HW123315   4.558   2.110  11.896 -0.5909 -0.8838  2.3690
 3893SOL    HW223316   4.471   2.087  11.777  1.0477  1.3516  0.3094
 3894SOL     OW23317   3.219   2.005   9.567  0.1582 -0.0938  0.1583
 3894SOL    HW123318   3.259   2.056   9.637 -1.7434  0.1492  1.0590
 3894SOL    HW223319   3.131   2.009   9.604 -0.0081 -0.2292 -0.2230
 3895SOL     OW23320   3.211   3.262  13.501 -0.2439 -0.4583 -0.0752
 3895SOL    HW123321   3.121   3.249  13.530 -0.5881 -1.9035 -1.8027
 3895SOL    HW223322   3.222   3.351  13.534 -1.9906  1.0080 -3.5012
 3896SOL     OW23323   1.305   1.321   8.435  0.2282 -0.5806  0.5126
 3896SOL    HW123324   1.336   1.395   8.487 -0.2378  0.0366 -0.0916
 3896SOL    HW223325   1.216   1.315   8.469 -0.0390  0.1576 -0.0608
 3897SOL     OW23326   3.745   2.338   1.843  0.1099  0.7061  0.3310
 3897SOL    HW123327   3.788   2.269   1.894 -3.5815 -1.4982  0.4638
 3897SOL    HW223328   3.741   2.407   1.909  0.8933  0.5975  0.4859
 3898SOL     OW23329   1.094   0.644  11.462 -0.1226  0.1379  0.1886
 3898SOL    HW123330   1.083   0.596  11.380  1.9872 -1.2339  0.7057
 3898SOL    HW223331   1.087   0.738  11.446 -1.3323  0.0264  0.1137
 3899SOL     OW23332   2.196   2.183   4.425  0.5331 -0.0057 -0.1656
 3899SOL    HW123333   2.154   2.268   4.407  0.2363  0.0465  0.7832
 3899SOL    HW223334   2.262   2.202   4.491 -1.3891  0.1832  1.7067
 3900SOL     OW23335   3.976   1.319  10.057  0.2107 -0.3954  0.1384
 3900SOL    HW123336   3.918   1.281  10.123  0.0965 -0.2994  0.0928
 3900SOL    HW223337   4.051   1.348  10.109 -0.2427  0.1896  0.4561
 3901SOL     OW23338   2.725   1.969   4.807  0.0338 -0.0677  0.2374
 3901SOL    HW123339   2.665   1.896   4.795 -1.2728  1.6258 -3.5468
 3901SOL    HW223340   2.803   1.934   4.764 -0.7393  0.7916 -1.8346
 3902SOL     OW23341   1.315   0.247   5.202  0.1832  0.3862 -0.3503
 3902SOL    HW123342   1.245   0.312   5.194 -1.3407 -1.1201  0.7692
 3902SOL    HW223343   1.293   0.196   5.280  1.0146  0.2070 -0.2365
 3903SOL     OW23344   4.482   0.876   7.245 -0.2367 -0.4248 -0.9498
 3903SOL    HW123345   4.553   0.854   7.185  1.5751  0.3137  0.9227
 3903SOL    HW223346   4.474   0.970   7.235  2.3674 -0.3611 -2.3846
 3904SOL     OW23347   2.156   1.283   5.940  0.0670 -0.0263 -0.4475
 3904SOL    HW123348   2.172   1.325   5.856  0.0461 -1.4231 -1.1492
 3904SOL    HW223349   2.088   1.219   5.917  0.5198 -0.1081 -1.5577
 3905SOL     OW23350   3.795   3.124   4.200  0.7554  0.2446 -0.0796
 3905SOL    HW123351   3.784   3.216   4.224 -1.0773 -0.6740  2.5061
 3905SOL    HW223352   3.757   3.129   4.112 -3.0462  0.5038  1.6013
 3906SOL     OW23353   0.576   3.928   4.604 -0.0547  0.4057  0.3333
 3906SOL    HW123354   0.545   3.993   4.668  0.3478 -0.4409  1.3744
 3906SOL    HW223355   0.653   3.966   4.562 -1.6387  1.0124 -2.0425
 3907SOL     OW23356   2.778   4.011   4.249  0.0199 -0.0484  0.8968
 3907SOL    HW123357   2.773   4.024   4.344  1.3184 -1.1316  1.1063
 3907SOL    HW223358   2.856   4.061   4.226  2.2274 -4.3113 -0.7222
 3908SOL     OW23359   3.702   1.793   2.373 -0.3362  0.0072 -0.1590
 3908SOL    HW123360   3.743   1.713   2.340  2.4795  0.7487  1.5204
 3908SOL    HW223361   3.743   1.792   2.460  0.2867 -0.1851 -0.4514
 3909SOL     OW23362   1.294   3.671   6.475  0.2440 -0.1257 -0.5403
 3909SOL    HW123363   1.221   3.631   6.428 -0.1521 -0.7315  0.5859
 3909SOL    HW223364   1.373   3.625   6.444  0.8178  0.1471  0.5120
 3910SOL     OW23365   3.253   0.408   0.149  0.5883 -0.2935 -0.2495
 3910SOL    HW123366   3.314   0.334   0.150 -0.8644 -1.4856 -0.2251
 3910SOL    HW223367   3.237   0.426   0.057 -0.5841 -1.3927 -0.2571
 3911SOL     OW23368   0.454   1.718  13.336  0.3237  0.3540  0.3635
 3911SOL    HW123369   0.442   1.742  13.245 -1.4137 -1.9323 -0.0207
 3911SOL    HW223370   0.549   1.716  13.345  0.1073  0.1084  2.5980
 3912SOL     OW23371   3.663   3.205   3.928  0.7765 -0.1987 -0.1190
 3912SOL    HW123372   3.587   3.165   3.887  1.3720 -0.2638 -1.1784
 3912SOL    HW223373   3.617   3.260   3.991 -0.4774 -1.8458  0.4012
 3913SOL     OW23374   4.534   1.113   6.754 -0.4451 -0.1435 -0.3700
 3913SOL    HW123375   4.614   1.165   6.746 -0.7066  0.3013 -0.0991
 3913SOL    HW223376   4.473   1.178   6.717 -2.4381 -1.1530  1.1604
 3914SOL     OW23377   1.253   4.624   5.646  0.2613 -0.2976 -0.4313
 3914SOL    HW123378   1.245   4.697   5.706  1.8080 -0.5677  0.1052
 3914SOL    HW223379   1.340   4.586   5.662 -0.0478 -0.0056  1.8805
 3915SOL     OW23380   1.967   3.502   4.821 -0.0841 -0.5121  0.2293
 3915SOL    HW123381   1.944   3.423   4.870 -0.7656  0.4572  1.4740
 3915SOL    HW223382   2.059   3.494   4.795 -0.3124  0.6657 -0.9677
 3916SOL     OW23383   2.459   0.198   4.352 -0.2402  0.2206 -0.4521
 3916SOL    HW123384   2.456   0.103   4.338  0.2528  0.5658 -2.8870
 3916SOL    HW223385   2.401   0.229   4.283  0.2117  0.5254 -0.6922
 3917SOL     OW23386   2.433   1.505   8.232 -0.2395  0.0543  0.1017
 3917SOL    HW123387   2.504   1.441   8.240 -0.2558 -0.4001 -3.3510
 3917SOL    HW223388   2.356   1.448   8.237 -0.2689  0.2240  1.5362
 3918SOL     OW23389   2.960   4.336   2.148 -0.9827  0.3819  0.2285
 3918SOL    HW123390   2.890   4.395   2.121 -0.7041  0.6630  0.1163
 3918SOL    HW223391   2.953   4.271   2.077 -0.1823  0.0870  0.4104
 3919SOL     OW23392   0.798   0.731   9.963 -0.0686 -0.3331 -0.1334
 3919SOL    HW123393   0.710   0.722   9.927 -0.3641  1.6391  0.1131
 3919SOL    HW223394   0.832   0.817   9.938 -1.3945 -0.1690 -1.3620
 3920SOL     OW23395   2.077   1.997  14.810 -0.0938  0.5815 -0.2426
 3920SOL    HW123396   2.139   2.053  14.857 -1.0085  2.8675 -1.7490
 3920SOL    HW223397   2.121   2.019  14.728  2.1437 -1.7774  0.3399
 3921SOL     OW23398   2.215   2.438   0.142 -0.1391  0.2467 -0.2340
 3921SOL    HW123399   2.134   2.487   0.155 -0.3979 -0.4106  0.6655
 3921SOL    HW223400   2.282   2.506   0.139  0.4982 -0.3962 -0.7121
 3922SOL     OW23401   2.107   4.041   4.528 -0.3123 -0.2547  0.0597
 3922SOL    HW123402   2.040   4.099   4.491  1.3989  1.1486 -0.8618
 3922SOL    HW223403   2.128   3.983   4.455 -0.3649  0.2215 -0.3361
 3923SOL     OW23404   3.383   4.360   7.105  0.1312 -0.1111  0.3937
 3923SOL    HW123405   3.374   4.435   7.164  0.7052 -0.6927  1.2038
 3923SOL    HW223406   3.428   4.301   7.165  1.3249 -0.3439 -0.7219
 3924SOL     OW23407   0.296   0.740   3.301  0.5613 -0.5923  0.1382
 3924SOL    HW123408   0.282   0.789   3.382  1.1023  0.0953 -0.1829
 3924SOL    HW223409   0.246   0.660   3.320  0.3378 -0.5970 -0.4453
 3925SOL     OW23410   3.175   2.089   6.633  0.5032  0.2045  0.1136
 3925SOL    HW123411   3.191   2.124   6.721  1.4380  0.4473 -0.1560
 3925SOL    HW223412   3.083   2.064   6.648  1.4402 -2.1524  1.8623
 3926SOL     OW23413   4.326   4.556   8.804  0.2512 -0.3397 -0.0333
 3926SOL    HW123414   4.262   4.626   8.818  0.1029 -0.6953  1.0677
 3926SOL    HW223415   4.364   4.541   8.891  0.6385  2.9823  0.3709
 3927SOL     OW23416   3.652   1.267   6.302  0.3025 -0.3391 -1.1413
 3927SOL    HW123417   3.706   1.343   6.325 -0.0243 -0.8545  1.3880
 3927SOL    HW223418   3.573   1.284   6.354 -0.5359 -1.9550 -1.9081
 3928SOL     OW23419   4.091   2.826  10.294 -0.0130  0.7733 -0.4621
 3928SOL    HW123420   4.075   2.917  10.269 -0.2337  0.3157 -1.9791
 3928SOL    HW223421   4.180   2.831  10.329 -0.5798 -1.1818  1.2356
 3929SOL     OW23422   3.872   2.013  15.884 -0.0799  0.6098 -0.3131
 3929SOL    HW123423   3.791   1.979  15.847  0.3964 -0.2005 -0.6227
 3929SOL    HW223424   3.876   2.090  15.827  0.1123  0.1095 -0.9821
 3930SOL     OW23425   0.327   4.080  15.120 -0.2104  0.1787  0.3635
 3930SOL    HW123426   0.333   4.046  15.209 -1.2991 -0.6754  0.0998
 3930SOL    HW223427   0.254   4.025  15.091 -0.5681  1.4244 -1.1125
 3931SOL     OW23428   4.313   1.748   1.624 -0.5549  0.0871  0.0669
 3931SOL    HW123429   4.375   1.802   1.574 -1.1302 -1.2200 -2.0294
 3931SOL    HW223430   4.245   1.733   1.559 -0.2499 -0.2600 -0.1724
 3932SOL     OW23431   0.762   2.849  14.267  0.2033  0.2052 -0.6180
 3932SOL    HW123432   0.750   2.853  14.362 -1.4991  0.2108 -0.8267
 3932SOL    HW223433   0.849   2.812  14.256  0.2284 -0.1227  0.7453
 3933SOL     OW23434   3.914   2.054  11.131 -0.2331 -0.7102  0.2014
 3933SOL    HW123435   4.007   2.065  11.113 -0.8711  0.0396 -2.6073
 3933SOL    HW223436   3.917   2.115  11.205  0.1214  1.5894 -1.7360
 3934SOL     OW23437   3.431   4.247   6.295 -0.5862 -0.1087 -0.5414
 3934SOL    HW123438   3.448   4.207   6.380  0.9220 -0.3463 -0.9654
 3934SOL    HW223439   3.380   4.172   6.264  1.7471 -1.3439 -1.3105
 3935SOL     OW23440   3.482   0.948   4.617  0.1203  0.1047  0.1193
 3935SOL    HW123441   3.461   0.928   4.525  1.5367 -0.5338 -0.0631
 3935SOL    HW223442   3.499   1.041   4.607  1.3415 -0.0961  0.3213
 3936SOL     OW23443   3.235   3.160   3.087 -0.4649  0.9814 -0.3299
 3936SOL    HW123444   3.200   3.119   3.008  0.8249  2.3347 -1.6041
 3936SOL    HW223445   3.328   3.171   3.068 -0.3622  0.1012 -0.3198
 3937SOL     OW23446   0.539   0.957   9.417  0.7215 -0.7111  0.0566
 3937SOL    HW123447   0.595   0.893   9.461  1.6369 -0.2315 -0.4074
 3937SOL    HW223448   0.477   0.984   9.485  0.8452 -0.0866 -0.0847
 3938SOL     OW23449   0.124   2.339  14.765  0.1850 -0.3396  0.3322
 3938SOL    HW123450   0.191   2.325  14.832 -0.8478  2.0034  1.8734
 3938SOL    HW223451   0.080   2.416  14.801  0.9673 -0.0684  0.7113
 3939SOL     OW23452   3.229   2.256   2.775  0.2051  0.3692  0.0296
 3939SOL    HW123453   3.136   2.238   2.761  0.9432 -2.6327 -0.9031
 3939SOL    HW223454   3.240   2.351   2.774  0.0119  0.3878 -0.7679
 3940SOL     OW23455   4.460   0.119   7.297 -0.1845  0.2504 -0.3108
 3940SOL    HW123456   4.528   0.110   7.364 -1.4120  3.0247  1.3275
 3940SOL    HW223457   4.512   0.165   7.231  0.6579 -1.9086 -1.1611
 3941SOL     OW23458   3.426   1.365   5.053 -0.3681 -0.9014 -0.2867
 3941SOL    HW123459   3.423   1.276   5.090  1.1179 -0.9152 -0.2034
 3941SOL    HW223460   3.362   1.367   4.982  0.0684 -1.5516 -0.6995
 3942SOL     OW23461   2.471   4.166  11.239  0.6271  0.2945  0.0175
 3942SOL    HW123462   2.449   4.152  11.331  0.8479  0.1623  0.0516
 3942SOL    HW223463   2.412   4.096  11.208  0.1656  0.1497  1.2402
 3943SOL     OW23464   3.205   2.032   7.922  0.0091 -0.0315  0.2248
 3943SOL    HW123465   3.295   2.060   7.905  0.1471 -1.5239 -1.4781
 3943SOL    HW223466   3.180   2.023   7.830 -1.1001  1.7360  0.3587
 3944SOL     OW23467   4.467   3.304   2.445 -0.4175  0.1315  0.4681
 3944SOL    HW123468   4.550   3.257   2.454 -1.1482 -0.9506  1.6082
 3944SOL    HW223469   4.498   3.383   2.401  0.5935  0.1334  1.1931
 3945SOL     OW23470   1.037   1.280   1.696 -0.4245 -0.0310  0.0463
 3945SOL    HW123471   1.071   1.364   1.727  1.0549 -0.6163 -0.0118
 3945SOL    HW223472   1.001   1.245   1.778 -0.0840  0.1225  0.2589
 3946SOL     OW23473   3.406   4.074   2.099 -0.6943 -0.2142 -0.3382
 3946SOL    HW123474   3.366   4.040   2.179  0.6742 -0.5287  0.2067
 3946SOL    HW223475   3.413   4.006   2.032  0.3236  0.7144 -1.1639
 3947SOL     OW23476   4.054   3.903   7.003 -0.6483 -0.6701 -0.0651
 3947SOL    HW123477   4.105   3.981   7.027  2.0898 -2.2312 -0.7744
 3947SOL    HW223478   4.036   3.923   6.911  3.1908  0.8647 -0.4880
 3948SOL     OW23479   0.413   2.631   9.042  0.0149 -0.2313  0.4179
 3948SOL    HW123480   0.451   2.568   9.103 -1.2364  0.5017  1.9609
 3948SOL    HW223481   0.398   2.703   9.103 -0.2304 -1.0873  1.3528
 3949SOL     OW23482   3.204   3.438   7.092  0.4071 -0.1261  0.1241
 3949SOL    HW123483   3.149   3.380   7.145 -3.1284  0.7911 -2.4793
 3949SOL    HW223484   3.261   3.375   7.049  1.5120  0.1237  1.2441
 3950SOL     OW23485   4.317   2.250   9.491 -0.5810 -0.1328 -0.1557
 3950SOL    HW123486   4.342   2.317   9.555  1.7635 -0.3772 -0.7874
 3950SOL    HW223487   4.380   2.272   9.421  0.3350 -0.7423  0.4797
 3951SOL     OW23488   0.944   2.850   3.570  0.2851  0.1626  0.1426
 3951SOL    HW123489   0.969   2.919   3.508  0.6965 -1.3723 -1.3884
 3951SOL    HW223490   1.014   2.788   3.550 -0.1805  0.2319 -1.6883
 3952SOL     OW23491   3.731   3.842   1.011  0.2571  0.1540 -0.2571
 3952SOL    HW123492   3.732   3.865   0.918 -0.7847 -0.3986 -0.4021
 3952SOL    HW223493   3.802   3.901   1.037 -0.6621  0.4298  1.5825
 3953SOL     OW23494   3.548   1.846  11.495 -0.0899  0.0579 -0.3088
 3953SOL    HW123495   3.554   1.871  11.587 -0.0068 -0.9551 -0.0376
 3953SOL    HW223496   3.595   1.762  11.495 -2.6599 -1.3909  1.3256
 3954SOL     OW23497   3.578   2.014   5.884 -0.3535 -0.2180 -0.5046
 3954SOL    HW123498   3.516   2.010   5.811  1.0861 -2.6710 -1.5983
 3954SOL    HW223499   3.618   2.096   5.856 -2.9075  1.3874  0.6595
 3955SOL     OW23500   0.144   1.636   8.111  0.0620 -0.2218  0.2514
 3955SOL    HW123501   0.180   1.556   8.149  0.0217 -0.1285  0.4848
 3955SOL    HW223502   0.116   1.668   8.196  4.1090  1.0640  1.1180
 3956SOL     OW23503   4.430   3.798  10.224  0.3240 -0.6556  0.5912
 3956SOL    HW123504   4.426   3.893  10.236  0.0389 -0.3834 -1.5852
 3956SOL    HW223505   4.345   3.757  10.240  0.7753 -1.6277  0.4777
 3957SOL     OW23506   0.807   0.232   1.783 -0.5183 -0.5481 -0.4623
 3957SOL    HW123507   0.714   0.241   1.763 -0.2330 -1.1304 -2.0887
 3957SOL    HW223508   0.843   0.261   1.698  0.2848 -2.5775 -0.8199
 3958SOL     OW23509   4.333   2.532  12.166  0.5567  0.3519  0.1892
 3958SOL    HW123510   4.271   2.462  12.144  0.2754 -0.2217  2.7682
 3958SOL    HW223511   4.389   2.473  12.217  0.5327  0.6274  0.5337
 3959SOL     OW23512   0.264   1.201  14.124 -0.1950  0.1873 -0.0406
 3959SOL    HW123513   0.200   1.148  14.076  1.0783  0.4477 -2.0353
 3959SOL    HW223514   0.302   1.244  14.047 -1.1954 -0.1016 -0.7013
 3960SOL     OW23515   4.216   2.846   7.080  0.2443 -0.1516 -0.5408
 3960SOL    HW123516   4.133   2.881   7.112  0.9602  0.2642  0.8905
 3960SOL    HW223517   4.256   2.810   7.159 -1.8246  0.4846  0.7865
 3961SOL     OW23518   2.447   3.469   7.373  0.0776 -0.2305 -0.7778
 3961SOL    HW123519   2.499   3.390   7.387 -1.7985 -1.2662  0.4111
 3961SOL    HW223520   2.524   3.525   7.362  0.7152 -0.9161  0.2233
 3962SOL     OW23521   3.293   3.230   8.681 -0.1912  0.0515  0.1114
 3962SOL    HW123522   3.354   3.224   8.755  0.9187 -0.6210 -0.8494
 3962SOL    HW223523   3.337   3.272   8.607 -0.7460 -1.4631 -1.0777
 3963SOL     OW23524   4.013   1.386   7.996 -0.0742  0.2106  0.7347
 3963SOL    HW123525   3.961   1.316   7.956  1.6601 -0.6137 -0.0397
 3963SOL    HW223526   4.093   1.338   8.016  0.4235 -1.1825 -4.8204
 3964SOL     OW23527   3.812   0.051   3.533  0.3000 -0.5346 -0.2956
 3964SOL    HW123528   3.724   0.014   3.520  0.1226 -0.1966 -0.0654
 3964SOL    HW223529   3.837   0.066   3.441 -3.0499 -1.7471 -1.4012
 3965SOL     OW23530   4.246   2.707  11.567 -1.0337 -0.0555  0.1649
 3965SOL    HW123531   4.238   2.612  11.572 -0.5005 -0.0244  1.5130
 3965SOL    HW223532   4.304   2.721  11.492 -1.6575 -0.0576 -0.3203
 3966SOL     OW23533   4.462   0.855  13.028 -0.6605  0.0137  0.1073
 3966SOL    HW123534   4.371   0.853  12.999 -0.3748  0.8748 -0.8578
 3966SOL    HW223535   4.488   0.946  13.011 -1.1853  0.2326  0.4818
 3967SOL     OW23536   4.629   1.400   9.229  0.0454 -0.9378 -0.4815
 3967SOL    HW123537   4.643   1.318   9.277  2.5307 -0.5062 -0.4618
 3967SOL    HW223538   4.643   1.455   9.306 -0.0835 -1.8696  0.2181
 3968SOL     OW23539   4.294   2.913   5.348  0.2992  0.0002  0.6905
 3968SOL    HW123540   4.363   2.848   5.367 -0.7495 -1.3895 -0.2288
 3968SOL    HW223541   4.239   2.874   5.280  0.6832 -0.5646  0.7011
 3969SOL     OW23542   2.428   1.926   4.054  0.3238 -0.5966  0.4856
 3969SOL    HW123543   2.431   1.985   3.979  1.1897 -0.7910  0.3593
 3969SOL    HW223544   2.347   1.885   4.026  0.5483 -0.2397 -0.6846
 3970SOL     OW23545   3.670   4.554   8.660 -0.5493 -0.0798 -0.5971
 3970SOL    HW123546   3.610   4.618   8.700 -2.2078 -1.5688 -0.6923
 3970SOL    HW223547   3.752   4.601   8.672 -1.5503  1.5791 -0.0848
 3971SOL     OW23548   3.421   0.002   4.388 -0.6364 -0.0240 -0.0156
 3971SOL    HW123549   3.414   4.655   4.433 -0.6777 -0.6331 -1.1520
 3971SOL    HW223550   3.331   0.007   4.354 -0.9152 -0.0382  0.7153
 3972SOL     OW23551   3.960   0.201   1.317 -0.2722  0.4807 -0.0307
 3972SOL    HW123552   3.970   0.167   1.406 -1.1805 -0.8413 -0.4314
 3972SOL    HW223553   3.876   0.159   1.296  0.3001  0.7128 -2.8355
 3973SOL     OW23554   2.455   2.713   2.168  0.1637  0.1570  0.2065
 3973SOL    HW123555   2.450   2.646   2.100  0.4440 -0.5628  0.8881
 3973SOL    HW223556   2.503   2.661   2.233 -0.9973 -1.7322 -0.4602
 3974SOL     OW23557   3.907   4.440   9.719 -0.1189 -1.1781  0.2743
 3974SOL    HW123558   3.989   4.393   9.734  0.6494 -0.4922 -1.7984
 3974SOL    HW223559   3.841   4.375   9.743 -2.2443  1.3187  1.2142
 3975SOL     OW23560   1.929   2.139  11.629  0.2418  0.0852  0.1163
 3975SOL    HW123561   1.939   2.089  11.710 -2.7289 -0.0285  0.4157
 3975SOL    HW223562   1.911   2.227  11.661 -1.7878  0.7088 -2.6568
 3976SOL     OW23563   1.335   2.444  15.828  0.2498  0.1493  0.3696
 3976SOL    HW123564   1.409   2.499  15.801 -0.9894  1.3119 -0.6778
 3976SOL    HW223565   1.337   2.467  15.921  2.3579 -0.0795  0.3961
 3977SOL     OW23566   3.223   3.672  11.114 -0.0646  0.6353 -0.3385
 3977SOL    HW123567   3.233   3.687  11.208  2.9593  0.0369 -0.5621
 3977SOL    HW223568   3.270   3.750  11.084  1.2841  0.0136  0.2069
 3978SOL     OW23569   2.138   4.500   9.371  0.1669 -0.1074  0.1068
 3978SOL    HW123570   2.203   4.447   9.325 -0.8460 -0.0988 -1.3594
 3978SOL    HW223571   2.063   4.501   9.310 -1.1314 -0.1379  1.6981
 3979SOL     OW23572   0.681   0.319   4.095  1.0587 -0.7510 -0.8196
 3979SOL    HW123573   0.609   0.315   4.158  1.7192  0.4858  0.0160
 3979SOL    HW223574   0.754   0.298   4.153  1.1078 -1.2453 -1.0582
 3980SOL     OW23575   0.624   3.280   5.970  0.0069 -0.2168 -0.1335
 3980SOL    HW123576   0.670   3.259   5.889  0.0170  1.9431 -0.6686
 3980SOL    HW223577   0.587   3.361   5.936 -0.7292  0.8844  3.2578
 3981SOL     OW23578   1.860   3.664   6.640  0.7807  0.2909  0.3175
 3981SOL    HW123579   1.804   3.595   6.676  0.7170  1.1421  1.8295
 3981SOL    HW223580   1.890   3.703   6.722 -0.4200 -0.3340  1.0553
 3982SOL     OW23581   2.632   0.690  17.744  0.6086  0.0117 -0.2573
 3982SOL    HW123582   2.689   0.689   0.076 -0.4774  3.3185  0.5922
 3982SOL    HW223583   2.590   0.775   0.008  1.0234  0.1983 -0.0675
 3983SOL     OW23584   1.074   2.389   5.439  0.0028 -0.4235  0.5179
 3983SOL    HW123585   1.105   2.451   5.372 -0.0698  0.5696  1.4074
 3983SOL    HW223586   1.146   2.327   5.448  1.0571  0.8093  0.6676
 3984SOL     OW23587   0.583   3.221   0.854 -0.4840  0.2569  0.1249
 3984SOL    HW123588   0.636   3.256   0.783  0.9205 -0.2122  0.9542
 3984SOL    HW223589   0.524   3.163   0.805 -1.4535  1.8369 -0.5611
 3985SOL     OW23590   3.102   3.269   4.822 -0.0534 -0.2817 -0.0823
 3985SOL    HW123591   3.027   3.291   4.877  0.8747 -3.1104  2.3078
 3985SOL    HW223592   3.125   3.350   4.776 -0.7333 -1.4595 -2.4491
 3986SOL     OW23593   0.634   3.560   1.856  0.4314 -0.0531 -0.3741
 3986SOL    HW123594   0.569   3.563   1.786  2.1451  2.6539 -1.8459
 3986SOL    HW223595   0.610   3.474   1.890 -0.9496  0.6310  0.3901
 3987SOL     OW23596   3.566   0.711   7.545 -0.2715 -0.4708  0.5411
 3987SOL    HW123597   3.609   0.791   7.573  1.3026 -1.7269  1.6855
 3987SOL    HW223598   3.575   0.712   7.449 -0.3929 -2.8185  0.4968
 3988SOL     OW23599   1.801   2.145  16.777  0.1911  0.2917  0.0945
 3988SOL    HW123600   1.786   2.236  16.803  0.9332  0.2560  0.6372
 3988SOL    HW223601   1.880   2.119  16.824  1.2767 -1.7092 -2.8053
 3989SOL     OW23602   3.471   1.750   3.141  0.5071 -0.2498  0.0515
 3989SOL    HW123603   3.492   1.713   3.056 -0.9307 -0.7929 -0.0723
 3989SOL    HW223604   3.530   1.825   3.150 -3.3682  2.6585  1.5676
 3990SOL     OW23605   4.616   1.943   0.662 -0.0418  0.1219 -0.0806
 3990SOL    HW123606   4.563   2.020   0.682  0.9022  0.1608  2.2742
 3990SOL    HW223607   4.703   1.984   0.657  0.2241 -0.5962 -1.4987
 3991SOL     OW23608   3.402   2.648   5.125 -0.2829 -0.0586 -0.7032
 3991SOL    HW123609   3.447   2.727   5.094 -1.5276  1.3450  1.0493
 3991SOL    HW223610   3.374   2.692   5.205 -2.9215 -1.5756 -0.7861
 3992SOL     OW23611   4.202   1.766   1.383  0.2894  0.5326  0.2432
 3992SOL    HW123612   4.166   1.707   1.317  0.5451  0.4085  0.2137
 3992SOL    HW223613   4.261   1.818   1.329 -0.8049  0.1644 -1.3150
 3993SOL     OW23614   2.399   3.570   5.753  0.7489 -0.7805  0.1283
 3993SOL    HW123615   2.379   3.544   5.843 -1.3722  0.1858 -0.0598
 3993SOL    HW223616   2.370   3.661   5.760  0.1279 -0.9737  0.0918
 3994SOL     OW23617   4.078   1.405   9.259  0.8230 -0.1269 -0.2934
 3994SOL    HW123618   4.003   1.374   9.310  0.8878  1.2845  0.6618
 3994SOL    HW223619   4.055   1.496   9.237 -0.7217 -0.9506 -2.1657
 3995SOL     OW23620   2.676   1.894   6.007 -0.4377  0.2969  0.2905
 3995SOL    HW123621   2.750   1.939   5.965 -0.6206 -0.1574 -0.5250
 3995SOL    HW223622   2.707   1.804   5.997  0.5671  0.5075  1.5230
 3996SOL     OW23623   1.650   0.813  15.101 -0.6112  0.6425 -0.3542
 3996SOL    HW123624   1.707   0.845  15.172  0.3342 -3.0541  0.5727
 3996SOL    HW223625   1.655   0.718  15.107 -1.7918  0.5230 -1.4080
 3997SOL     OW23626   4.503   2.158   3.759  0.1014  0.5049 -0.4656
 3997SOL    HW123627   4.563   2.157   3.684  2.9813 -0.7888  1.8699
 3997SOL    HW223628   4.565   2.182   3.828  2.6257  1.0596 -2.9081
 3998SOL     OW23629   0.886   1.566   2.490 -0.1928 -0.2817 -0.2832
 3998SOL    HW123630   0.962   1.622   2.507 -0.3851  0.0277 -0.4329
 3998SOL    HW223631   0.928   1.510   2.425  0.4211 -1.4512  1.1250
 3999SOL     OW23632   0.800   0.255   7.235  0.4533  0.2274 -0.1947
 3999SOL    HW123633   0.877   0.297   7.272  0.4930  0.2312 -0.2803
 3999SOL    HW223634   0.824   0.251   7.142 -0.2447 -1.0413 -0.3221
 4000SOL     OW23635   3.386   1.803  14.159  0.4424  0.2308 -0.1528
 4000SOL    HW123636   3.464   1.856  14.169 -0.8981  2.3011 -0.5831
 4000SOL    HW223637   3.385   1.734  14.225  0.4440  0.2959 -0.0851
 4001SOL     OW23638   1.646   4.561   3.508  0.0135 -0.0826 -0.4918
 4001SOL    HW123639   1.700   4.562   3.587 -1.1711  0.3641  0.3095
 4001SOL    HW223640   1.563   4.603   3.532  2.6155  3.5942  2.0402
 4002SOL     OW23641   4.635   4.037   0.935 -0.3172  0.3684  0.3126
 4002SOL    HW123642   4.708   4.043   0.873  0.8511 -3.0116  1.3369
 4002SOL    HW223643   4.574   3.984   0.884  1.8611 -0.2552 -1.6492
 4003SOL     OW23644   4.509   2.323   6.340 -0.3357  0.0968  0.2550
 4003SOL    HW123645   4.558   2.375   6.277 -0.2735 -0.5393 -0.2219
 4003SOL    HW223646   4.510   2.378   6.418 -0.8860  1.3576 -0.6295
 4004SOL     OW23647   3.304   4.348  10.176  0.8165  0.0426  0.4801
 4004SOL    HW123648   3.251   4.366  10.254 -1.7109  0.3989 -1.3571
 4004SOL    HW223649   3.242   4.306  10.117  0.5964 -0.5234  1.1040
 4005SOL     OW23650   1.311   0.791   2.556 -0.1353  0.3124 -0.1065
 4005SOL    HW123651   1.366   0.866   2.579 -1.5229  0.9788  0.9852
 4005SOL    HW223652   1.306   0.797   2.460  1.7511  0.9509 -0.1695
 4006SOL     OW23653   2.433   0.890   8.085  0.1145 -0.4086  0.1320
 4006SOL    HW123654   2.526   0.868   8.091  0.1859  0.1687  1.1493
 4006SOL    HW223655   2.384   0.813   8.114 -0.2913  0.0475  0.6552
 4007SOL     OW23656   4.697   0.579   5.285  0.5486 -0.8923 -0.0567
 4007SOL    HW123657   4.714   0.504   5.342  0.1312 -0.2948  0.8533
 4007SOL    HW223658   4.602   0.575   5.294  0.2909 -0.7256 -2.7354
 4008SOL     OW23659   4.044   3.880   0.819 -0.0156  0.2233 -0.4022
 4008SOL    HW123660   4.139   3.895   0.816 -0.2291  1.3452 -1.6047
 4008SOL    HW223661   4.045   3.786   0.803  0.2324  0.0322  0.6746
 4009SOL     OW23662   0.730   1.564   2.276 -0.5361  0.0659 -0.1334
 4009SOL    HW123663   0.643   1.602   2.265  1.1198  3.0813 -3.0803
 4009SOL    HW223664   0.748   1.586   2.367  1.1119 -2.1707  0.0791
 4010SOL     OW23665   0.608   0.441   2.584 -0.1669  0.0438 -0.3128
 4010SOL    HW123666   0.564   0.524   2.603  0.0316 -0.6110  3.0108
 4010SOL    HW223667   0.670   0.430   2.656  0.5931  1.0489 -0.8209
 4011SOL     OW23668   3.472   2.278   9.476 -0.0791 -0.0859 -0.5709
 4011SOL    HW123669   3.475   2.186   9.451 -1.6726  0.0757 -1.4068
 4011SOL    HW223670   3.547   2.285   9.535  0.3252  2.5799 -1.4227
 4012SOL     OW23671   0.890   3.577  16.915 -0.8763  0.3521 -0.0978
 4012SOL    HW123672   0.913   3.664  16.947 -0.1076 -0.3177  1.1883
 4012SOL    HW223673   0.978   3.542  16.927 -0.6463  0.5041 -1.3212
 4013SOL     OW23674   2.075   0.213  10.689 -0.2102  0.1099  0.1038
 4013SOL    HW123675   1.981   0.194  10.688  0.4074 -2.8637 -2.4436
 4013SOL    HW223676   2.104   0.130  10.727 -0.6313  0.3481  0.9391
 4014SOL     OW23677   0.391   2.672   5.624  0.3918 -0.0255 -0.5436
 4014SOL    HW123678   0.359   2.679   5.534 -0.2966  0.9275 -0.2198
 4014SOL    HW223679   0.419   2.762   5.637 -1.2974  0.1112  2.0787
 4015SOL     OW23680   1.621   0.650   9.388  0.1668 -0.0152 -0.5274
 4015SOL    HW123681   1.700   0.699   9.365 -1.3461  3.5964  2.0070
 4015SOL    HW223682   1.564   0.727   9.396 -0.5353 -0.6747  0.8516
 4016SOL     OW23683   3.018   2.042   3.398  0.4549  0.2020  0.1157
 4016SOL    HW123684   2.980   2.013   3.481 -0.1300  1.6978  0.3820
 4016SOL    HW223685   3.105   2.069   3.426 -0.2879  1.8879  0.8013
 4017SOL     OW23686   3.857   1.115  16.550  0.0241  0.5306  0.7899
 4017SOL    HW123687   3.843   1.056  16.476 -1.2260 -2.3577  3.3529
 4017SOL    HW223688   3.791   1.086  16.613  0.0731  1.0625  1.0907
 4018SOL     OW23689   0.093   4.576   4.461  0.1057  0.2510 -0.5453
 4018SOL    HW123690   0.054   4.543   4.381 -0.6461 -2.2621  0.8484
 4018SOL    HW223691   0.022   4.633   4.491 -0.1146 -0.2671 -0.0935
 4019SOL     OW23692   2.677   3.046  12.718 -0.5072 -0.0431 -0.7811
 4019SOL    HW123693   2.685   2.951  12.714  0.0977 -0.1652  3.3514
 4019SOL    HW223694   2.614   3.062  12.648  0.8864 -0.8181 -2.2076
 4020SOL     OW23695   4.453   3.150   9.506  0.2188  0.3343  0.1882
 4020SOL    HW123696   4.490   3.222   9.556 -1.1386  0.7530  0.5819
 4020SOL    HW223697   4.522   3.085   9.517 -0.3270 -0.4205 -0.8042
 4021SOL     OW23698   1.306   1.188   2.021  0.2458 -0.6257  0.2965
 4021SOL    HW123699   1.290   1.107   1.973 -1.7956 -0.8945  1.4062
 4021SOL    HW223700   1.313   1.160   2.112 -0.3573  1.5317  1.0214
 4022SOL     OW23701   2.878   0.901   5.422  0.1706 -0.6507 -0.2943
 4022SOL    HW123702   2.802   0.947   5.455 -1.2715 -1.3917 -2.5846
 4022SOL    HW223703   2.870   0.901   5.326 -2.7794 -0.1089 -0.0353
 4023SOL     OW23704   0.851   4.478   7.055  0.7025  0.2468 -0.3871
 4023SOL    HW123705   0.881   4.388   7.048  0.8243  0.2974 -0.5256
 4023SOL    HW223706   0.928   4.535   7.057 -0.1270  1.3768 -0.2617
 4024SOL     OW23707   0.990   1.210  17.418  0.2466 -0.2988  0.3891
 4024SOL    HW123708   0.984   1.302  17.443  0.6594 -0.3126  0.5440
 4024SOL    HW223709   1.067   1.177  17.465  0.0198 -3.3594 -1.3771
 4025SOL     OW23710   0.946   4.250   5.233  0.3708  0.4116  0.4786
 4025SOL    HW123711   0.881   4.300   5.281 -2.8732 -0.8297 -2.6063
 4025SOL    HW223712   0.915   4.261   5.143  0.3770  1.3412  0.5866
 4026SOL     OW23713   4.227   3.841   3.554  0.6596  0.1633 -0.0427
 4026SOL    HW123714   4.139   3.861   3.520  1.1866 -0.9905 -2.0868
 4026SOL    HW223715   4.260   3.928   3.576 -2.5958  1.0104  1.5109
 4027SOL     OW23716   3.884   1.164   7.147 -0.2850  0.3000 -0.5568
 4027SOL    HW123717   3.967   1.140   7.106 -0.0128  0.3120  0.0015
 4027SOL    HW223718   3.923   1.233   7.200 -0.8978  0.4544 -0.3052
 4028SOL     OW23719   3.314   1.539   2.307 -0.1581  0.0823  0.3147
 4028SOL    HW123720   3.240   1.499   2.352  0.9902 -0.9531  1.2583
 4028SOL    HW223721   3.281   1.627   2.287  4.0081  1.3247 -1.3009
 4029SOL     OW23722   2.470   4.497   1.176 -0.4878 -0.2420  0.2290
 4029SOL    HW123723   2.410   4.449   1.234 -2.0159  2.0191  0.5166
 4029SOL    HW223724   2.458   4.444   1.097 -0.6243 -2.1279  1.5141
 4030SOL     OW23725   1.997   2.452   4.806  0.0849 -0.0801  0.5604
 4030SOL    HW123726   2.061   2.389   4.839  1.0126  1.0038  0.7899
 4030SOL    HW223727   2.012   2.528   4.861 -2.0967  1.3406 -0.8191
 4031SOL     OW23728   4.615   3.888  10.917 -0.5896 -0.7714 -0.0339
 4031SOL    HW123729   4.601   3.801  10.880 -2.4058 -0.9014  0.9689
 4031SOL    HW223730   4.525   3.921  10.918  0.0739  1.1270 -1.7139
 4032SOL     OW23731   1.163   0.095   9.041  0.9662 -0.2713  0.2181
 4032SOL    HW123732   1.257   0.093   9.023  0.7323 -2.8764 -0.5780
 4032SOL    HW223733   1.147   0.029   9.108  0.0936  0.1756  0.4500
 4033SOL     OW23734   4.617   4.615   7.268  0.2818  0.0887  0.3541
 4033SOL    HW123735   4.693   4.576   7.226  2.4638  2.2827  2.2418
 4033SOL    HW223736   4.576   4.657   7.192  2.2393  3.0602  0.9434
 4034SOL     OW23737   2.298   0.055  17.421  0.3644 -0.5294 -0.5897
 4034SOL    HW123738   2.338   0.109  17.352  2.5491 -2.3013 -0.7406
 4034SOL    HW223739   2.211   0.078  17.389  0.1516  0.2301  0.5470
 4035SOL     OW23740   4.398   3.383   0.469 -0.5758 -0.1515  0.1581
 4035SOL    HW123741   4.391   3.470   0.508  0.0885  0.8310 -1.8961
 4035SOL    HW223742   4.337   3.389   0.396  0.5188 -0.1525 -0.7594
 4036SOL     OW23743   1.969   4.663   1.751 -0.2555  0.6156 -0.1673
 4036SOL    HW123744   1.931   0.014   1.742 -0.5242  0.6363  1.1368
 4036SOL    HW223745   2.013   4.672   1.835 -0.2745 -0.1325 -0.0799
 4037SOL     OW23746   2.412   4.712   5.629  0.1211 -0.0027 -0.1760
 4037SOL    HW123747   2.413   0.062   5.587 -1.3483 -0.7931 -1.8356
 4037SOL    HW223748   2.369   0.009   5.708 -0.9394 -1.3481 -0.1765
 4038SOL     OW23749   4.594   4.499  13.277 -0.1268  0.6148  0.1020
 4038SOL    HW123750   4.688   4.481  13.283 -0.7199 -2.2919  0.6480
 4038SOL    HW223751   4.589   4.549  13.359  1.1015  0.4089  0.3033
 4039SOL     OW23752   2.196   4.672   7.889 -0.0543 -0.2694  0.0774
 4039SOL    HW123753   2.109   4.710   7.905  1.4548  1.7063  3.5444
 4039SOL    HW223754   2.228   4.675   7.979  0.3879  1.3559 -0.1387
 4040SOL     OW23755   1.939   2.029  17.601 -0.3809 -0.2271 -0.2993
 4040SOL    HW123756   1.916   2.016  17.693 -0.5402 -0.8307 -0.4259
 4040SOL    HW223757   2.024   1.988  17.588  0.7810  2.4612 -1.2270
 4041SOL     OW23758   0.917   0.517   2.456 -0.0574 -0.5718 -0.2100
 4041SOL    HW123759   0.898   0.593   2.512  1.5141 -0.2235 -0.1293
 4041SOL    HW223760   0.991   0.557   2.409 -1.9568  2.4073 -0.7078
 4042SOL     OW23761   0.292   0.190   7.661 -0.1109 -0.7491 -0.4140
 4042SOL    HW123762   0.292   0.115   7.601  0.0900  0.8269 -2.3614
 4042SOL    HW223763   0.380   0.223   7.642 -1.2437  2.3459 -0.1511
 4043SOL     OW23764   4.433   4.631   6.640 -0.0107  0.2383  0.5344
 4043SOL    HW123765   4.429   4.702   6.576  0.0712 -0.7938 -0.6170
 4043SOL    HW223766   4.379   4.564   6.598 -1.0159  1.1737  0.3221
 4044SOL     OW23767   4.524   3.649  10.764  0.4207  0.2885 -0.3821
 4044SOL    HW123768   4.561   3.581  10.708 -1.2090 -0.7408 -0.2290
 4044SOL    HW223769   4.503   3.716  10.699 -1.6112 -0.3656 -0.4052
 4045SOL     OW23770   2.145   0.340   9.916  0.8183  0.1617  0.4096
 4045SOL    HW123771   2.051   0.323   9.913  0.5755  1.5477  0.1101
 4045SOL    HW223772   2.159   0.349   9.822  0.1659 -0.5115  0.2520
 4046SOL     OW23773   3.332   3.596   1.706  0.0826  0.5995 -0.0031
 4046SOL    HW123774   3.247   3.632   1.733 -0.3517  0.0160 -0.6020
 4046SOL    HW223775   3.355   3.569   1.795 -0.9397 -1.0817 -0.2495
 4047SOL     OW23776   3.475   0.528   2.481 -0.2780  0.0005 -0.5294
 4047SOL    HW123777   3.497   0.436   2.465 -0.3263 -0.4081  1.6549
 4047SOL    HW223778   3.555   0.566   2.445 -0.9092  1.2225 -0.6389
 4048SOL     OW23779   3.354   0.078   1.671 -0.1011 -0.2603  0.3913
 4048SOL    HW123780   3.365   0.002   1.728 -1.8633 -0.8851 -0.0898
 4048SOL    HW223781   3.418   0.140   1.706  0.1081 -0.6917  0.7671
 4049SOL     OW23782   4.557   3.495  17.667  0.7906  0.4503 -0.2820
 4049SOL    HW123783   4.638   3.516  17.622  1.4026 -0.4739  0.3803
 4049SOL    HW223784   4.516   3.430  17.609 -0.8555  1.8660 -0.7066
 4050SOL     OW23785   2.994   0.524  16.864  0.0671 -0.1336  0.2028
 4050SOL    HW123786   3.074   0.526  16.810 -0.6796 -1.3829 -0.9543
 4050SOL    HW223787   2.999   0.435  16.899 -2.5536  0.7526  2.7754
 4051SOL     OW23788   3.229   2.389   4.790  0.0871 -0.1506  0.3762
 4051SOL    HW123789   3.198   2.468   4.835  0.9240 -0.2751  1.1742
 4051SOL    HW223790   3.145   2.377   4.745  0.8062  1.9388 -1.5102
 4052SOL     OW23791   1.021   1.631   2.795  0.5317 -0.8970 -0.4896
 4052SOL    HW123792   1.093   1.664   2.849  0.6453 -0.5280 -0.8726
 4052SOL    HW223793   0.964   1.708   2.800  2.8672  0.8405 -0.6867
 4053SOL     OW23794   3.237   2.689   2.502  0.2729  0.1675 -1.1585
 4053SOL    HW123795   3.244   2.669   2.596  0.3300  0.4081 -1.1116
 4053SOL    HW223796   3.225   2.599   2.470 -0.0354  0.4099 -1.7156
 4054SOL     OW23797   0.562   4.176   5.979  0.4703 -0.8047  0.6402
 4054SOL    HW123798   0.656   4.161   5.969  0.2985 -1.3254 -0.2276
 4054SOL    HW223799   0.532   4.221   5.900  2.8970  0.2618  0.3143
 4055SOL     OW23800   0.417   3.384   7.132  0.3291 -0.3946  0.0448
 4055SOL    HW123801   0.487   3.407   7.193 -0.9914  1.2655  0.9026
 4055SOL    HW223802   0.433   3.439   7.055 -0.3437  1.6169  1.3629
 4056SOL     OW23803   0.497   3.566   2.470 -0.2626  0.2115 -0.0386
 4056SOL    HW123804   0.516   3.482   2.511 -0.8925 -0.9241 -2.0550
 4056SOL    HW223805   0.584   3.592   2.440 -0.1069 -0.0423  0.2016
 4057SOL     OW23806   2.940   2.452  10.286  0.3083 -0.6200 -0.3459
 4057SOL    HW123807   2.861   2.404  10.309  1.3772 -0.9449  2.6114
 4057SOL    HW223808   2.987   2.388  10.340  3.4300  1.7948 -0.1829
 4058SOL     OW23809   1.590   4.569   6.596  0.3709 -0.0385 -0.1946
 4058SOL    HW123810   1.618   4.479   6.577  1.2551  0.5465 -1.6105
 4058SOL    HW223811   1.549   4.556   6.682 -1.9336 -0.8966 -1.4408
 4059SOL     OW23812   3.118   2.884   3.556  0.2416 -0.0139  0.6197
 4059SOL    HW123813   3.118   2.790   3.576 -2.2495 -0.2739 -0.5345
 4059SOL    HW223814   3.079   2.890   3.469  0.6626 -1.4929  0.3239
 4060SOL     OW23815   1.799   0.576  12.356  0.1394  0.5328 -0.0666
 4060SOL    HW123816   1.772   0.619  12.275 -0.4052 -0.0921 -0.2129
 4060SOL    HW223817   1.859   0.646  12.384 -1.8395  1.7904  0.9913
 4061SOL     OW23818   1.789   4.095   2.357  0.0778  0.9912  0.4537
 4061SOL    HW123819   1.772   4.147   2.279 -0.8862 -1.6916 -1.1478
 4061SOL    HW223820   1.768   4.008   2.323 -0.9798  1.0443  0.9878
 4062SOL     OW23821   1.618   0.838   5.881  0.5836 -0.1161 -0.0043
 4062SOL    HW123822   1.683   0.780   5.844  0.5479  0.7276 -1.3746
 4062SOL    HW223823   1.549   0.837   5.814  2.1803 -0.6860 -1.6209
 4063SOL     OW23824   2.547   4.166   4.190 -0.2589 -0.4980  0.5553
 4063SOL    HW123825   2.624   4.110   4.201 -0.3418 -0.5052  1.0917
 4063SOL    HW223826   2.508   4.161   4.278  1.0916 -2.7440  1.0274
 4064SOL     OW23827   3.437   3.678  14.042 -0.0625 -0.1217 -0.6685
 4064SOL    HW123828   3.370   3.712  13.983  1.3007 -0.8797 -2.6865
 4064SOL    HW223829   3.505   3.658  13.978 -0.6152 -0.8132 -1.0304
 4065SOL     OW23830   3.608   0.444   5.654  0.5508 -0.0508 -0.1021
 4065SOL    HW123831   3.575   0.355   5.658  3.5727 -1.1691  0.4916
 4065SOL    HW223832   3.670   0.437   5.581  0.4150 -3.8783  0.1663
 4066SOL     OW23833   1.481   2.767   6.749 -0.6116  0.2928  0.2020
 4066SOL    HW123834   1.503   2.674   6.757  1.1002  0.4467 -2.8359
 4066SOL    HW223835   1.419   2.770   6.675  1.1170  1.1217 -1.2094
 4067SOL     OW23836   2.923   2.137   4.642  0.0295  0.5944  0.3415
 4067SOL    HW123837   2.853   2.106   4.700  1.7069 -1.0136  1.5063
 4067SOL    HW223838   2.909   2.232   4.648 -2.0950  0.2548  0.7007
 4068SOL     OW23839   2.656   0.297  11.977 -0.4948  0.3997 -0.5151
 4068SOL    HW123840   2.707   0.258  11.907  2.2420  2.7326  0.1604
 4068SOL    HW223841   2.690   0.386  11.986  1.7380 -0.4606 -0.5656
 4069SOL     OW23842   0.045   0.873   4.231  0.3750  0.5704 -0.5009
 4069SOL    HW123843   0.023   0.947   4.288  0.4092  1.3210 -1.4719
 4069SOL    HW223844   4.701   0.822   4.226  0.6930  0.0377 -0.1798
 4070SOL     OW23845   2.386   1.649   2.788 -0.0204 -0.1128 -0.0441
 4070SOL    HW123846   2.477   1.654   2.757  0.2219 -0.2636  0.6394
 4070SOL    HW223847   2.400   1.708   2.862 -0.1984 -1.5312  1.1148
 4071SOL     OW23848   2.481   0.974   6.192  0.4544  0.5492  0.6011
 4071SOL    HW123849   2.553   0.947   6.136 -0.8574 -0.0478 -0.7732
 4071SOL    HW223850   2.447   1.050   6.145 -0.0409 -0.2305 -0.2751
 4072SOL     OW23851   4.138   1.095  10.325 -0.5529  0.6423  0.1057
 4072SOL    HW123852   4.090   1.178  10.333  0.2231  0.8092  2.9908
 4072SOL    HW223853   4.071   1.033  10.353 -2.1111  2.0504 -0.4530
 4073SOL     OW23854   3.049   3.864  10.955  0.2142  0.8821 -0.6560
 4073SOL    HW123855   3.093   3.861  11.041  0.1195  2.1623 -0.5526
 4073SOL    HW223856   2.981   3.802  10.980 -0.7907  2.0249 -0.5624
 4074SOL     OW23857   1.395   4.146   2.474  0.3371 -0.2254  0.2805
 4074SOL    HW123858   1.471   4.128   2.528  1.3499  1.9610 -0.4139
 4074SOL    HW223859   1.340   4.080   2.515 -0.0530 -0.4961 -0.6604
 4075SOL     OW23860   2.562   4.656  15.208  0.3975  0.3560 -0.7402
 4075SOL    HW123861   2.481   4.667  15.159 -0.1832 -3.6929 -0.7150
 4075SOL    HW223862   2.632   4.645  15.145  2.0996  1.0467  1.0390
 4076SOL     OW23863   1.704   0.697  17.503  0.1688 -0.1943  0.0432
 4076SOL    HW123864   1.714   0.791  17.491  2.9041 -0.5584 -0.5280
 4076SOL    HW223865   1.650   0.683  17.426 -0.2982  1.7943  0.0098
 4077SOL     OW23866   0.820   1.474   3.001 -0.8499  0.2804 -0.4770
 4077SOL    HW123867   0.864   1.513   2.925 -0.5248  0.6687 -0.0869
 4077SOL    HW223868   0.734   1.471   2.960 -0.1740 -1.1588 -1.7625
 4078SOL     OW23869   3.159   2.882   2.010  0.3107  0.2257 -0.4984
 4078SOL    HW123870   3.232   2.824   1.991  0.1541  0.4245 -1.7315
 4078SOL    HW223871   3.175   2.876   2.104  1.6606 -0.9916 -0.8099
 4079SOL     OW23872   4.348   4.096  11.775  0.5394  0.0783 -0.0466
 4079SOL    HW123873   4.332   4.157  11.847  1.0403  1.0250 -0.7307
 4079SOL    HW223874   4.435   4.064  11.799  1.0491 -0.9595 -3.3452
 4080SOL     OW23875   1.895   1.795  14.796  0.4273  0.0201 -0.3234
 4080SOL    HW123876   1.875   1.884  14.826 -0.1109 -0.6411  1.2488
 4080SOL    HW223877   1.987   1.817  14.781 -0.1727  2.2648 -0.6916
 4081SOL     OW23878   4.632   2.746   5.865 -0.0457 -0.3949  0.1022
 4081SOL    HW123879   4.642   2.739   5.960  0.7941  1.9125  0.1847
 4081SOL    HW223880   4.554   2.802   5.863 -0.4257 -0.9139  0.2693
 4082SOL     OW23881   1.118   0.642   2.335  0.1159 -0.6104 -0.1141
 4082SOL    HW123882   1.100   0.596   2.253 -2.3097  0.1644 -0.0192
 4082SOL    HW223883   1.209   0.623   2.357 -0.0406  1.2338  2.1467
 4083SOL     OW23884   2.120   2.623   2.262  0.3560 -0.1670 -0.6415
 4083SOL    HW123885   2.135   2.528   2.263 -0.9458 -0.3633  0.0151
 4083SOL    HW223886   2.194   2.653   2.210  1.1131  2.0042  1.6825
 4084SOL     OW23887   2.195   4.418   8.551  0.0203  0.3264 -0.0696
 4084SOL    HW123888   2.224   4.501   8.512  0.0815 -0.7325 -2.2857
 4084SOL    HW223889   2.199   4.438   8.644  0.7783 -2.0094  0.3846
 4085SOL     OW23890   3.180   4.731   4.195 -0.5366  0.1260 -0.8120
 4085SOL    HW123891   3.263   4.688   4.177 -0.9071 -0.1798 -1.7974
 4085SOL    HW223892   3.127   4.652   4.196  2.3070 -1.7448  1.2057
 4086SOL     OW23893   2.021   2.577   9.380 -0.2360 -0.2212 -0.2588
 4086SOL    HW123894   1.972   2.496   9.394  0.0076 -0.4352 -0.6329
 4086SOL    HW223895   2.019   2.580   9.284  3.7733  0.2666 -0.3250
 4087SOL     OW23896   2.993   1.721   1.859  0.1430 -0.1716  0.2585
 4087SOL    HW123897   3.069   1.717   1.802 -0.3044 -0.4160 -0.3244
 4087SOL    HW223898   2.964   1.630   1.863 -0.3637 -0.0918 -1.4032
 4088SOL     OW23899   0.078   4.443   7.172  0.5360 -0.2786  0.5731
 4088SOL    HW123900   0.104   4.375   7.234 -1.9921 -2.2153 -0.4736
 4088SOL    HW223901   0.117   4.408   7.092  0.3114 -0.7527  0.6704
 4089SOL     OW23902   4.520   1.521   6.253 -0.2035 -0.1214  0.2489
 4089SOL    HW123903   4.439   1.545   6.299 -0.9656 -2.1318 -0.0139
 4089SOL    HW223904   4.479   1.458   6.194 -1.0281  0.1216  0.5589
 4090SOL     OW23905   2.055   3.052  13.103 -0.2520 -0.0691  0.5483
 4090SOL    HW123906   2.145   3.074  13.126 -0.1346 -0.2515  0.2732
 4090SOL    HW223907   2.030   3.141  13.079  1.9974  0.6459  0.9022
 4091SOL     OW23908   4.409   3.617  15.917 -0.0597  0.1299 -0.0631
 4091SOL    HW123909   4.378   3.625  15.827 -1.2649  1.6208  0.4931
 4091SOL    HW223910   4.474   3.687  15.917  2.7535 -2.4873 -1.3172
 4092SOL     OW23911   4.386   3.143  14.213  0.0611  0.0394 -0.7818
 4092SOL    HW123912   4.448   3.126  14.284  1.1168  0.2232 -1.6762
 4092SOL    HW223913   4.332   3.065  14.224 -0.2978  0.6451  1.9435
 4093SOL     OW23914   1.345   1.086   6.534  0.1062  0.2672  0.5402
 4093SOL    HW123915   1.347   1.039   6.450  2.6249  1.4473 -0.0480
 4093SOL    HW223916   1.428   1.058   6.572 -1.1040  0.8556  3.6197
 4094SOL     OW23917   2.311   4.418   2.366  0.1613 -0.2754 -0.4816
 4094SOL    HW123918   2.383   4.458   2.413  0.0737 -0.5594 -0.1046
 4094SOL    HW223919   2.232   4.453   2.407  1.9050 -0.5410  3.0847
 4095SOL     OW23920   2.024   0.630   8.500 -0.1475 -0.0468 -0.4550
 4095SOL    HW123921   1.962   0.693   8.538 -1.0385 -0.2004 -1.6143
 4095SOL    HW223922   2.109   0.648   8.539  0.3254  0.5763 -1.7486
 4096SOL     OW23923   2.813   3.173   3.951 -0.5272 -0.2072  0.0940
 4096SOL    HW123924   2.819   3.265   3.976 -0.5507 -0.0527 -0.4669
 4096SOL    HW223925   2.903   3.163   3.921 -0.2572 -0.7702  1.0843
 4097SOL     OW23926   0.372   0.580   2.740 -0.3578  0.4177  0.0665
 4097SOL    HW123927   0.320   0.657   2.762  0.1882  0.5418  0.9406
 4097SOL    HW223928   0.456   0.613   2.771 -0.5761  0.3516  0.7170
 4098SOL     OW23929   2.326   1.475  10.980  0.1037 -0.3305  0.1539
 4098SOL    HW123930   2.287   1.432  11.056  0.4551 -0.0861  0.4730
 4098SOL    HW223931   2.384   1.404  10.951  0.2744  0.0040 -0.3199
 4099SOL     OW23932   4.512   3.928   2.100  0.1367  0.5040  0.2491
 4099SOL    HW123933   4.546   4.006   2.144 -0.1220  0.2150  0.9736
 4099SOL    HW223934   4.585   3.915   2.040  0.4502 -1.1171  0.9806
 4100SOL     OW23935   2.747   3.895   2.885 -0.3546 -0.5773 -0.2468
 4100SOL    HW123936   2.716   3.865   2.971 -1.4851  1.4049  0.0413
 4100SOL    HW223937   2.789   3.977   2.911 -1.8736 -0.9098  3.2794
 4101SOL     OW23938   1.803   1.515  13.116  0.6187  0.0481 -0.2070
 4101SOL    HW123939   1.848   1.551  13.192 -0.7407 -0.6209  0.9108
 4101SOL    HW223940   1.870   1.459  13.078  0.3982 -1.0056  0.9968
 4102SOL     OW23941   1.332   3.716   2.372  0.1961 -0.1777  0.1720
 4102SOL    HW123942   1.271   3.765   2.427  1.4346 -0.9506  2.2471
 4102SOL    HW223943   1.289   3.632   2.357 -1.2640  0.4991  0.5884
 4103SOL     OW23944   2.051   0.167   2.402 -0.0761 -0.4139 -0.0865
 4103SOL    HW123945   2.091   0.176   2.488  1.5361  0.1880 -0.9006
 4103SOL    HW223946   1.984   0.235   2.398 -0.2799 -0.5851  0.4350
 4104SOL     OW23947   4.284   2.129  15.257  0.2776  0.0191 -0.2510
 4104SOL    HW123948   4.379   2.124  15.250  0.3708  0.4736  0.8074
 4104SOL    HW223949   4.263   2.126  15.350  1.4470 -0.5785 -0.0094
 4105SOL     OW23950   1.792   3.383   5.023 -0.4490 -0.0369 -0.4946
 4105SOL    HW123951   1.772   3.290   5.024 -1.1430  0.0910 -2.5179
 4105SOL    HW223952   1.872   3.378   5.075 -1.4710 -1.5862  0.9245
 4106SOL     OW23953   2.036   4.520   2.733  0.4003  0.2649 -0.3012
 4106SOL    HW123954   1.999   4.453   2.790  0.4745 -0.4732 -1.1383
 4106SOL    HW223955   2.130   4.505   2.726  0.1266 -0.2337 -2.7165
 4107SOL     OW23956   0.901   2.502  11.214  0.1669  0.2112 -0.5246
 4107SOL    HW123957   0.839   2.527  11.282 -0.7063  0.4464 -1.4146
 4107SOL    HW223958   0.836   2.462  11.156  0.6057 -0.3518 -0.6366
 4108SOL     OW23959   2.977   0.835  15.863  0.0232 -0.1434 -0.2049
 4108SOL    HW123960   3.027   0.814  15.784 -0.2217  0.5055 -0.5294
 4108SOL    HW223961   2.964   0.930  15.860  0.9060 -0.0883 -2.1727
 4109SOL     OW23962   3.281   2.889  10.492  0.1886  0.2967  0.1375
 4109SOL    HW123963   3.295   2.801  10.455  1.7607  0.8852 -0.6468
 4109SOL    HW223964   3.233   2.936  10.424 -1.7643  0.1279  1.3785
 4110SOL     OW23965   1.266   4.361   1.980 -0.6552  0.2886 -0.8341
 4110SOL    HW123966   1.339   4.398   2.028 -0.3671  1.2506 -1.9932
 4110SOL    HW223967   1.307   4.368   1.893  0.6572  2.4492 -0.0426
 4111SOL     OW23968   2.308   1.185   7.039 -0.0773  0.9822 -0.2648
 4111SOL    HW123969   2.336   1.140   6.959  0.0364 -1.1370  0.9430
 4111SOL    HW223970   2.239   1.245   7.010  1.2870  2.8251  0.3660
 4112SOL     OW23971   1.518   2.677   7.853  0.1769 -0.1579  0.6816
 4112SOL    HW123972   1.482   2.620   7.785  1.4840  0.1232 -0.2446
 4112SOL    HW223973   1.435   2.721   7.875 -0.5095 -1.0709 -0.0819
 4113SOL     OW23974   4.523   4.288   3.603 -0.1119  0.2224  0.8148
 4113SOL    HW123975   4.499   4.378   3.625 -1.2314  0.0262  0.3902
 4113SOL    HW223976   4.594   4.309   3.542 -0.5170  0.0102  0.2665
 4114SOL     OW23977   4.695   0.483   1.545  0.5638 -0.2842 -0.2717
 4114SOL    HW123978   4.654   0.448   1.467  3.2433 -0.1064 -1.7505
 4114SOL    HW223979   4.723   0.571   1.520  0.5880 -0.8522 -2.2389
 4115SOL     OW23980   4.548   3.146  13.596  0.3191 -0.6481 -0.2806
 4115SOL    HW123981   4.479   3.188  13.649 -0.0914 -2.0411  0.2729
 4115SOL    HW223982   4.494   3.084  13.548 -2.8896  1.4500  0.5892
 4116SOL     OW23983   1.463   3.247  11.530  0.4535 -0.2181  0.0289
 4116SOL    HW123984   1.470   3.153  11.518  0.5969 -0.2585  0.4067
 4116SOL    HW223985   1.377   3.265  11.494  1.1018 -1.5343 -2.1366
 4117SOL     OW23986   0.870   2.016  11.127  0.2092 -0.0749 -0.4100
 4117SOL    HW123987   0.791   2.002  11.179  0.1848 -0.2801 -0.5035
 4117SOL    HW223988   0.930   2.037  11.199  1.3319 -0.0379 -1.3485
 4118SOL     OW23989   4.601   1.205   7.559 -0.1769  0.0304 -0.1560
 4118SOL    HW123990   4.634   1.294   7.551 -0.1009 -0.3879 -4.5560
 4118SOL    HW223991   4.571   1.194   7.469  3.8714  2.0785 -1.7342
 4119SOL     OW23992   2.440   0.657   2.713 -0.1253  0.0499 -0.6919
 4119SOL    HW123993   2.352   0.621   2.702 -0.6036  0.7750  0.6525
 4119SOL    HW223994   2.418   0.746   2.687 -0.2085 -0.3352 -1.9366
 4120SOL     OW23995   1.184   1.684   4.731 -0.1804 -0.0295 -0.0399
 4120SOL    HW123996   1.165   1.610   4.788 -0.0936 -0.6411 -0.8099
 4120SOL    HW223997   1.278   1.671   4.718 -0.0517  3.0470 -2.2160
 4121SOL     OW23998   3.096   3.662   7.889 -0.2084 -0.5793 -0.1285
 4121SOL    HW123999   3.074   3.720   7.816 -0.6124 -1.4772 -0.7179
 4121SOL    HW224000   3.027   3.596   7.882  0.9124 -1.7084 -0.5515
 4122SOL     OW24001   3.657   0.568   4.762 -0.6930  0.2140  0.1091
 4122SOL    HW124002   3.570   0.609   4.765 -0.8965 -0.3137  1.2198
 4122SOL    HW224003   3.647   0.507   4.689 -0.9650 -0.2915  0.5714
 4123SOL     OW24004   0.697   1.071   7.899 -0.0375 -0.6178  0.1814
 4123SOL    HW124005   0.629   1.102   7.839  1.3522  0.6955 -0.7283
 4123SOL    HW224006   0.656   1.015   7.965 -0.8094 -0.1251  0.1241
 4124SOL     OW24007   2.488   1.461  15.016  0.1075 -0.6887 -0.7176
 4124SOL    HW124008   2.464   1.409  14.939  0.4538  0.8098 -1.8343
 4124SOL    HW224009   2.401   1.444  15.052  0.1775  2.1230  0.7297
 4125SOL     OW24010   1.013   1.578  13.287  0.2132 -0.1160  0.0126
 4125SOL    HW124011   0.962   1.500  13.309  1.1122 -0.9055 -0.6820
 4125SOL    HW224012   1.023   1.616  13.374 -0.3473 -1.8585  0.8501
 4126SOL     OW24013   4.347   1.801   4.150 -0.5079  0.3348  0.0835
 4126SOL    HW124014   4.438   1.785   4.175 -0.7091  0.6363  1.0004
 4126SOL    HW224015   4.335   1.862   4.222  0.2697 -2.0214  2.2401
 4127SOL     OW24016   0.727   1.484   1.576  0.2528  0.0624  0.2778
 4127SOL    HW124017   0.786   1.553   1.605  0.3418  0.6571 -1.3529
 4127SOL    HW224018   0.797   1.427   1.543 -0.2872 -0.2994 -0.2456
 4128SOL     OW24019   0.245   2.207   8.229 -0.2471  0.0715  0.6779
 4128SOL    HW124020   0.289   2.141   8.284  0.3779 -0.3822 -0.3638
 4128SOL    HW224021   0.239   2.281   8.289 -0.7573  1.5821 -1.2640
 4129SOL     OW24022   1.682   4.214   4.894 -0.1835 -0.2956  0.5290
 4129SOL    HW124023   1.695   4.185   4.804  0.5083 -2.5351  1.3366
 4129SOL    HW224024   1.649   4.304   4.889  1.1318  0.1912  0.7777
 4130SOL     OW24025   4.010   2.463   0.803  0.1444 -0.4214 -0.0739
 4130SOL    HW124026   4.007   2.499   0.891  1.3967 -1.4235  0.3859
 4130SOL    HW224027   4.091   2.503   0.770  0.3486  0.9621  2.1150
 4131SOL     OW24028   1.429   3.943  10.588  0.0631  0.0241 -0.2047
 4131SOL    HW124029   1.437   3.946  10.683 -1.1313 -0.2699 -0.0905
 4131SOL    HW224030   1.338   3.918  10.571  1.1108 -3.2724 -0.8711
 4132SOL     OW24031   4.140   3.231   5.482 -0.2760  0.4138  0.1973
 4132SOL    HW124032   4.189   3.280   5.548  1.9130 -0.8995 -0.4316
 4132SOL    HW224033   4.132   3.152   5.534 -0.7164 -0.5507 -1.3481
 4133SOL     OW24034   0.459   4.109  11.144  0.6410  0.0119  0.0407
 4133SOL    HW124035   0.440   4.202  11.138 -0.3483 -0.0656  2.1621
 4133SOL    HW224036   0.408   4.080  11.068  2.1977 -0.8713 -0.6754
 4134SOL     OW24037   3.098   3.752  14.880  0.1774 -0.0756  0.1191
 4134SOL    HW124038   3.067   3.771  14.791  0.1917 -1.5474 -0.1929
 4134SOL    HW224039   3.024   3.717  14.929 -0.9049  0.6517 -0.9841
 4135SOL     OW24040   3.919   2.791   2.879  0.8952 -0.0462 -0.0531
 4135SOL    HW124041   3.984   2.734   2.918 -0.7231 -1.8412  0.0355
 4135SOL    HW224042   3.970   2.826   2.807  0.3535  0.6588 -0.1031
 4136SOL     OW24043   0.739   3.868   5.441  0.4964 -0.3075 -0.6574
 4136SOL    HW124044   0.681   3.944   5.437  1.7096  0.6037 -0.9142
 4136SOL    HW224045   0.825   3.910   5.438 -0.2019  1.0453 -1.4961
 4137SOL     OW24046   4.475   1.517   0.633  0.1915 -0.1909  0.3990
 4137SOL    HW124047   4.471   1.588   0.570  0.0338 -1.1147 -0.6238
 4137SOL    HW224048   4.384   1.488   0.638  0.5397 -1.1200  1.5364
 4138SOL     OW24049   0.905   0.774   1.421  0.2535  0.1109  0.2802
 4138SOL    HW124050   0.983   0.719   1.415  0.4750  0.2694  1.6925
 4138SOL    HW224051   0.904   0.818   1.336  0.0154 -0.9352 -0.2592
 4139SOL     OW24052   0.046   2.484   3.552  0.4847 -0.2028 -0.6989
 4139SOL    HW124053   0.031   2.572   3.587 -1.2995 -0.3938 -0.9758
 4139SOL    HW224054   0.134   2.488   3.516  0.7217  0.5484 -0.0276
 4140SOL     OW24055   4.389   3.086  14.754 -0.4024  0.1446 -0.0205
 4140SOL    HW124056   4.332   3.009  14.754 -0.8365  0.4672  0.2845
 4140SOL    HW224057   4.366   3.105  14.662  1.4374 -5.0138 -1.5376
 4141SOL     OW24058   1.787   2.627   7.866 -0.3370 -0.1615 -0.1358
 4141SOL    HW124059   1.805   2.719   7.882 -1.6902 -0.0949  0.9777
 4141SOL    HW224060   1.693   2.631   7.851 -0.3928  0.0888  0.2928
 4142SOL     OW24061   2.801   1.624   2.880 -0.6260 -0.0446 -0.0125
 4142SOL    HW124062   2.740   1.624   2.953  1.0733  0.6500  1.4069
 4142SOL    HW224063   2.885   1.631   2.925 -2.0026 -1.8439  2.7973
 4143SOL     OW24064   2.767   1.147   4.632  0.1041 -0.3317 -0.1310
 4143SOL    HW124065   2.742   1.062   4.597 -1.9533  0.5203 -0.7729
 4143SOL    HW224066   2.771   1.190   4.547  2.7714  1.1377  0.7251
 4144SOL     OW24067   4.181   0.746   9.173 -0.2178 -0.0058 -0.0660
 4144SOL    HW124068   4.146   0.708   9.092 -0.5072 -3.1612  1.5371
 4144SOL    HW224069   4.106   0.760   9.231 -2.6614  2.0420 -3.7039
 4145SOL     OW24070   1.892   1.781   6.015  0.0331  0.3515 -0.6896
 4145SOL    HW124071   1.857   1.853   6.068  2.7793 -0.4582  2.2300
 4145SOL    HW224072   1.816   1.761   5.961 -0.5269  0.2773  0.1365
 4146SOL     OW24073   1.964   2.567   8.111 -0.5359 -0.6383  0.2078
 4146SOL    HW124074   1.899   2.611   8.056  1.2929  0.0893 -1.3638
 4146SOL    HW224075   2.045   2.575   8.060  0.7612 -1.1306  2.1776
 4147SOL     OW24076   4.666   2.786   3.948 -0.1287  0.0638 -0.4947
 4147SOL    HW124077   4.692   2.872   3.917  2.6428 -0.5419  0.1841
 4147SOL    HW224078   4.703   2.781   4.036 -0.7464  1.0892 -0.1738
 4148SOL     OW24079   0.782   2.513  11.688  0.1750 -0.3865  0.3822
 4148SOL    HW124080   0.795   2.462  11.768  2.2670 -1.0873 -0.4171
 4148SOL    HW224081   0.872   2.523  11.659  0.7907 -1.4615  1.8954
 4149SOL     OW24082   1.265   0.861   8.250 -0.0417 -0.5051  0.0534
 4149SOL    HW124083   1.223   0.881   8.167 -0.5356  0.7998  0.6157
 4149SOL    HW224084   1.202   0.890   8.316  1.5063 -1.0461  1.7564
 4150SOL     OW24085   1.179   1.384   6.167 -0.1353 -0.5976  0.4191
 4150SOL    HW124086   1.198   1.414   6.256  1.8712  1.7554 -0.8001
 4150SOL    HW224087   1.267   1.355   6.145 -0.7458 -2.6916  0.7624
 4151SOL     OW24088   3.768   2.340  10.066  0.4932 -0.4312  0.0127
 4151SOL    HW124089   3.775   2.336  10.161  0.3497 -0.7420  0.0131
 4151SOL    HW224090   3.857   2.359  10.037 -0.3045  0.4697 -1.8321
 4152SOL     OW24091   0.728   2.930   6.217  0.1726 -0.4495  0.7545
 4152SOL    HW124092   0.653   2.989   6.206 -1.1186 -2.2501 -0.3287
 4152SOL    HW224093   0.730   2.885   6.132 -2.8614 -1.1262  1.0172
 4153SOL     OW24094   3.292   1.188   3.362  0.2334 -0.3643  0.1678
 4153SOL    HW124095   3.286   1.260   3.426 -1.2532 -1.1142  0.8851
 4153SOL    HW224096   3.224   1.212   3.299 -1.3998 -0.3822  1.9166
 4154SOL     OW24097   0.574   3.221   2.254 -0.5954  0.6090 -0.3954
 4154SOL    HW124098   0.658   3.266   2.248 -1.3366  2.1291  0.9258
 4154SOL    HW224099   0.591   3.148   2.314  0.8277  0.8224 -0.5353
 4155SOL     OW24100   1.140   1.433   7.178 -0.1511 -0.2465  0.3390
 4155SOL    HW124101   1.216   1.469   7.132 -0.9399 -2.0698 -2.4301
 4155SOL    HW224102   1.167   1.450   7.268 -0.2484  1.7395 -0.0091
 4156SOL     OW24103   3.895   3.863   4.733  0.1416 -0.6862  0.1643
 4156SOL    HW124104   3.949   3.880   4.810 -1.5902 -1.8499  1.6310
 4156SOL    HW224105   3.847   3.786   4.763 -1.4683  0.3464  0.2738
 4157SOL     OW24106   1.981   1.006   3.602 -0.1621 -0.2360 -0.0206
 4157SOL    HW124107   2.020   1.068   3.541  0.4483 -1.7209 -1.1525
 4157SOL    HW224108   2.025   1.032   3.683 -1.2498  1.8789 -0.1130
 4158SOL     OW24109   3.496   4.695   9.856  0.3532 -0.4322  0.4415
 4158SOL    HW124110   3.579   4.667   9.817 -0.1086 -0.8336 -0.2482
 4158SOL    HW224111   3.491   4.633   9.929  2.3900 -1.0051  0.0834
 4159SOL     OW24112   1.512   3.096   8.021  0.1767 -0.2814 -0.8535
 4159SOL    HW124113   1.524   3.174   8.076  0.7755 -0.9712 -0.0106
 4159SOL    HW224114   1.543   3.024   8.077 -1.4177  0.8980  1.5796
 4160SOL     OW24115   3.944   1.272  11.350  0.5934 -0.3077 -0.7962
 4160SOL    HW124116   3.939   1.366  11.333 -1.6965 -0.2123  0.2797
 4160SOL    HW224117   4.033   1.251  11.322  1.4740  0.1340  1.6469
 4161SOL     OW24118   2.978   0.201   6.356 -0.6860  0.1316 -0.5700
 4161SOL    HW124119   3.042   0.181   6.424 -0.5439 -0.9272 -1.0078
 4161SOL    HW224120   3.029   0.184   6.278  0.2191  0.0063  0.0535
 4162SOL     OW24121   2.443   0.103   6.564 -0.9652 -0.4905  0.0041
 4162SOL    HW124122   2.400   0.063   6.640 -1.0304  2.8309  1.7011
 4162SOL    HW224123   2.501   0.030   6.541 -0.2464 -0.0929  0.5550
 4163SOL     OW24124   0.479   0.767   4.978 -0.3134  0.5118  0.3504
 4163SOL    HW124125   0.468   0.715   5.058  3.8609 -0.1420  0.5049
 4163SOL    HW224126   0.390   0.787   4.952 -0.3492 -2.1304 -1.5053
 4164SOL     OW24127   3.324   1.870   6.816  0.2775 -0.2874  0.6254
 4164SOL    HW124128   3.338   1.866   6.722  0.9172  1.1318  0.6647
 4164SOL    HW224129   3.228   1.876   6.814  0.2857 -0.3341  0.1857
 4165SOL     OW24130   4.693   2.213  12.241 -0.0497  0.1750 -0.3089
 4165SOL    HW124131   0.012   2.196  12.166  1.7521  0.6870  0.9137
 4165SOL    HW224132   0.003   2.283  12.287 -0.9567  1.7466 -1.8216
 4166SOL     OW24133   3.286   4.305   2.510  0.4417  0.3199 -0.6878
 4166SOL    HW124134   3.200   4.293   2.469 -0.3533  0.0086  1.0475
 4166SOL    HW224135   3.340   4.261   2.444  1.9004 -0.0019  0.7425
 4167SOL     OW24136   3.112   1.927  10.497 -0.3582  0.1631  0.5064
 4167SOL    HW124137   3.055   2.003  10.484  1.0914  1.4957  1.9914
 4167SOL    HW224138   3.056   1.871  10.550 -1.3638  1.2463  0.5795
 4168SOL     OW24139   2.663   0.540  13.397  0.0930 -0.0525  0.0173
 4168SOL    HW124140   2.588   0.490  13.366  0.0627  0.2477 -0.3928
 4168SOL    HW224141   2.690   0.479  13.466  2.8484 -0.5750 -1.5207
 4169SOL     OW24142   1.923   2.622  16.749  0.0381 -0.5682 -0.3474
 4169SOL    HW124143   1.987   2.551  16.745  0.8070  0.0095  2.0936
 4169SOL    HW224144   1.959   2.678  16.817 -1.1191  0.6956 -0.7574
 4170SOL     OW24145   0.054   1.704   7.854 -0.1072 -0.1314  0.0109
 4170SOL    HW124146   0.087   1.714   7.943 -1.4372 -1.3834  0.6466
 4170SOL    HW224147   4.736   1.628   7.875  0.1499 -0.6688 -1.2158
 4171SOL     OW24148   3.862   3.952   1.516  0.4883  0.1272  0.0625
 4171SOL    HW124149   3.897   3.876   1.470  0.1319  0.9569 -1.5756
 4171SOL    HW224150   3.853   3.916   1.604  1.2205  1.4158  0.6655
 4172SOL     OW24151   1.885   2.110   3.254 -0.0229  0.3963 -0.1546
 4172SOL    HW124152   1.858   2.155   3.175  0.0806  3.6499  1.6518
 4172SOL    HW224153   1.869   2.174   3.323 -0.5697  0.2123 -0.1148
 4173SOL     OW24154   0.519   3.893   8.708  0.0694 -0.5064 -0.2211
 4173SOL    HW124155   0.553   3.878   8.796 -0.9983  0.3618  0.3305
 4173SOL    HW224156   0.485   3.804   8.695 -0.5899 -0.1591 -0.9002
 4174SOL     OW24157   0.076   1.648   4.365  0.0207  0.0299  0.2481
 4174SOL    HW124158   0.110   1.559   4.354  1.3425  0.4988  0.5184
 4174SOL    HW224159   0.147   1.687   4.417 -0.0532  1.7108 -0.9020
 4175SOL     OW24160   4.175   2.452  17.473  0.2854  0.8921 -0.4954
 4175SOL    HW124161   4.209   2.484  17.556 -1.5653  0.2185  0.5333
 4175SOL    HW224162   4.086   2.488  17.475  0.1339  0.3291  3.0855
 4176SOL     OW24163   4.690   0.570   2.087 -0.5551 -0.0340 -0.3653
 4176SOL    HW124164   0.009   0.584   2.011 -0.5501 -1.1280 -0.5688
 4176SOL    HW224165   4.705   0.479   2.111  0.4659 -0.2642 -1.8366
 4177SOL     OW24166   1.693   2.613  12.468  0.1842 -0.3145  0.0157
 4177SOL    HW124167   1.708   2.675  12.539  0.2558 -1.1968  0.7727
 4177SOL    HW224168   1.643   2.550  12.520  1.8903 -1.1239  0.6681
 4178SOL     OW24169   0.191   3.303   3.507  0.4012  0.3648 -0.8028
 4178SOL    HW124170   0.095   3.295   3.504  0.4811 -1.8056  2.1575
 4178SOL    HW224171   0.202   3.340   3.594  0.2114 -0.5998 -0.3655
 4179SOL     OW24172   0.726   2.534   2.713  0.3214  0.5939 -0.3068
 4179SOL    HW124173   0.729   2.445   2.679 -0.0787  0.2945  0.4578
 4179SOL    HW224174   0.647   2.560   2.666  0.3512 -0.5177 -0.9684
 4180SOL     OW24175   2.290   4.170  14.165 -0.5433 -0.2001  0.7317
 4180SOL    HW124176   2.321   4.225  14.237 -1.4613 -0.1166  1.0595
 4180SOL    HW224177   2.266   4.093  14.217 -0.9009 -1.5130 -1.3898
 4181SOL     OW24178   3.293   0.078   7.360 -0.1193  0.7282 -0.0300
 4181SOL    HW124179   3.358   0.140   7.394  2.2570 -1.4271 -0.7136
 4181SOL    HW224180   3.225   0.144   7.343  1.0978  1.7943 -0.7512
 4182SOL     OW24181   0.116   0.199   4.544  0.1976 -0.0097  0.1876
 4182SOL    HW124182   0.042   0.144   4.517 -0.3184  1.5772 -1.6324
 4182SOL    HW224183   0.075   0.284   4.527 -0.4826 -0.7016 -1.6578
 4183SOL     OW24184   4.488   2.557   2.083 -0.2797  0.1598 -0.8320
 4183SOL    HW124185   4.401   2.544   2.045 -0.7361 -0.3881  0.3917
 4183SOL    HW224186   4.464   2.613   2.158  2.9131 -1.5747  1.4998
 4184SOL     OW24187   0.152   1.718   8.652 -0.1718 -0.1670  0.1450
 4184SOL    HW124188   0.184   1.808   8.639  0.0173 -0.6396 -2.6385
 4184SOL    HW224189   0.183   1.703   8.741  0.7452  0.3224 -0.0907
 4185SOL     OW24190   2.504   4.443   2.905  0.0742  0.3295  0.1649
 4185SOL    HW124191   2.539   4.354   2.912  0.0217  0.2489 -0.5436
 4185SOL    HW224192   2.544   4.485   2.981 -0.4274 -2.5738  2.0278
 4186SOL     OW24193   1.013   1.930  10.559 -0.0623 -0.0003 -0.1112
 4186SOL    HW124194   1.066   1.851  10.558 -0.0229  0.0437 -1.3174
 4186SOL    HW224195   1.069   1.999  10.524 -0.2792  0.3407  0.2172
 4187SOL     OW24196   0.759   1.352   8.017  0.3366 -0.1208  0.3503
 4187SOL    HW124197   0.707   1.333   8.095  0.2276  0.2724  0.3754
 4187SOL    HW224198   0.759   1.264   7.980 -3.5656 -1.2749  3.1033
 4188SOL     OW24199   2.372   2.198  12.887 -0.2881  0.1399  0.6894
 4188SOL    HW124200   2.386   2.105  12.869 -1.2123  0.1804 -0.2311
 4188SOL    HW224201   2.354   2.195  12.981  0.0588 -2.3616  0.6802
 4189SOL     OW24202   1.878   2.570  15.885 -0.0215  0.6383 -0.2556
 4189SOL    HW124203   1.968   2.539  15.897 -0.5609  0.0374  2.1780
 4189SOL    HW224204   1.853   2.589  15.975  1.1199  0.7522  0.0401
 4190SOL     OW24205   0.191   2.182  11.253 -0.0322 -0.3440 -0.1524
 4190SOL    HW124206   0.103   2.192  11.291  1.3215 -0.9605  3.1290
 4190SOL    HW224207   0.227   2.268  11.273  2.1998 -1.3151  0.0264
 4191SOL     OW24208   2.612   1.525   3.314 -0.0331 -0.1181 -0.3670
 4191SOL    HW124209   2.535   1.538   3.368  0.2990  0.6832 -0.0906
 4191SOL    HW224210   2.675   1.489   3.376 -0.4428 -0.6379 -0.2508
 4192SOL     OW24211   1.203   1.405  14.075  0.3441  0.2255  0.2269
 4192SOL    HW124212   1.204   1.344  14.149  0.2268 -0.2175 -0.1304
 4192SOL    HW224213   1.109   1.399  14.055  0.5096 -0.8639 -0.2371
 4193SOL     OW24214   2.742   1.505  11.516  0.1189 -0.3116  0.5731
 4193SOL    HW124215   2.686   1.509  11.593  0.1332 -3.5725  0.7241
 4193SOL    HW224216   2.796   1.583  11.527 -1.2066  1.0089 -2.0364
 4194SOL     OW24217   3.827   1.179   5.127  0.5897 -0.6665  0.3843
 4194SOL    HW124218   3.774   1.154   5.051  0.6705 -0.8718  0.3964
 4194SOL    HW224219   3.903   1.219   5.084  0.6130 -0.1765  0.8823
 4195SOL     OW24220   0.976   0.992   9.530  0.0589 -0.4459  0.7242
 4195SOL    HW124221   1.012   0.932   9.595  2.3068 -0.0299 -0.1320
 4195SOL    HW224222   0.931   1.050   9.591 -1.6157 -1.5895  0.5708
 4196SOL     OW24223   0.032   2.520  14.530  0.4193 -0.1897  0.1122
 4196SOL    HW124224   4.696   2.526  14.592 -1.7441  0.5495 -2.4770
 4196SOL    HW224225   0.071   2.444  14.573 -0.7099  0.6833  2.6573
 4197SOL     OW24226   2.040   3.778  11.291 -0.0053  0.1844 -0.2378
 4197SOL    HW124227   1.991   3.805  11.213 -0.7054  1.8660  0.7858
 4197SOL    HW224228   2.037   3.858  11.342 -0.3654 -0.0990  0.1899
 4198SOL     OW24229   0.025   1.255   6.852  0.5403  0.0726 -0.1194
 4198SOL    HW124230   0.042   1.345   6.825  0.4436  0.7375  2.0831
 4198SOL    HW224231   0.104   1.211   6.822 -0.6086 -1.3504 -1.0858
 4199SOL     OW24232   1.593   3.255   3.971 -0.2213 -0.5265 -0.2658
 4199SOL    HW124233   1.623   3.287   4.056 -1.8981 -2.3687  1.0228
 4199SOL    HW224234   1.501   3.282   3.982 -0.9432 -2.1669 -2.3731
 4200SOL     OW24235   2.244   4.283   3.780  0.1659 -0.0713  0.2826
 4200SOL    HW124236   2.252   4.241   3.865  0.3203  1.6919  1.1377
 4200SOL    HW224237   2.160   4.246   3.754 -1.7870  2.0373  3.6184
 4201SOL     OW24238   0.779   2.363   3.547  0.3579 -0.4908 -0.7949
 4201SOL    HW124239   0.865   2.328   3.524  1.6540  1.3776  1.2223
 4201SOL    HW224240   0.795   2.413   3.627  0.5115 -0.4420 -0.8558
 4202SOL     OW24241   0.077   3.360   2.848 -0.2238 -0.0441  0.5344
 4202SOL    HW124242   0.127   3.397   2.775  1.1557  0.8344  1.9517
 4202SOL    HW224243   0.010   3.426   2.865  1.7756  2.3220 -0.8178
 4203SOL     OW24244   4.536   2.761   5.478  0.4701  0.0197  0.6426
 4203SOL    HW124245   4.535   2.667   5.498 -0.7293 -0.5747 -2.1931
 4203SOL    HW224246   4.599   2.759   5.406  1.4339 -3.0900  1.5558
 4204SOL     OW24247   2.520   3.807   3.821  0.0474  0.4577  0.0130
 4204SOL    HW124248   2.438   3.776   3.860 -0.3449  2.0729  0.4617
 4204SOL    HW224249   2.587   3.786   3.886 -1.2429  1.6543  1.6974
 4205SOL     OW24250   3.778   1.648  15.328  0.8566 -0.3004  0.2105
 4205SOL    HW124251   3.800   1.729  15.374 -0.7172  0.4912 -0.4202
 4205SOL    HW224252   3.853   1.643  15.268  1.2627  0.8604  0.6137
 4206SOL     OW24253   4.457   2.189  10.450  0.6600  0.3825  0.0701
 4206SOL    HW124254   4.377   2.241  10.462 -0.2944 -1.4255  1.6096
 4206SOL    HW224255   4.490   2.192  10.540  0.5469 -1.4322  0.1650
 4207SOL     OW24256   1.520   2.787  12.793  0.7295 -0.3120 -0.7236
 4207SOL    HW124257   1.476   2.811  12.875  0.8468 -2.6539  0.0175
 4207SOL    HW224258   1.533   2.870  12.747 -2.4630  1.8382  2.2655
 4208SOL     OW24259   2.533   4.269  10.386  0.1677 -0.5524  0.2244
 4208SOL    HW124260   2.565   4.200  10.444 -2.0329 -1.5098  0.2774
 4208SOL    HW224261   2.531   4.219  10.304  0.5461 -0.7263  0.3185
 4209SOL     OW24262   0.885   2.514  15.052 -0.1918  0.0983 -0.0697
 4209SOL    HW124263   0.849   2.425  15.056 -1.2940  0.5034 -0.8060
 4209SOL    HW224264   0.974   2.497  15.021 -1.0035 -1.0326 -1.7995
 4210SOL     OW24265   3.983   1.521   8.680 -0.0487  0.1257  0.4317
 4210SOL    HW124266   3.917   1.590   8.683  0.6839  0.7946  1.3707
 4210SOL    HW224267   3.975   1.513   8.775  1.6914  0.2770  0.5950
 4211SOL     OW24268   2.357   0.152   5.354 -0.3527  0.2709  0.3573
 4211SOL    HW124269   2.270   0.166   5.392 -1.2702  0.2501 -1.7471
 4211SOL    HW224270   2.343   0.077   5.297  2.1542  0.9385 -1.1234
 4212SOL     OW24271   1.160   3.327  10.367  0.5830  0.7180  0.0520
 4212SOL    HW124272   1.174   3.355  10.458 -0.2626 -2.7259  1.2293
 4212SOL    HW224273   1.151   3.409  10.319 -1.4507  1.0774  1.0682
 4213SOL     OW24274   1.800   3.357   2.913 -0.1401  0.1891  0.2439
 4213SOL    HW124275   1.851   3.295   2.862 -0.3902 -0.7590  1.1349
 4213SOL    HW224276   1.830   3.335   3.001  0.8478 -2.7771 -0.8437
 4214SOL     OW24277   2.927   2.354   0.623  0.2035 -0.0516  0.8101
 4214SOL    HW124278   3.018   2.380   0.633  1.0187 -2.6837  0.2535
 4214SOL    HW224279   2.937   2.272   0.575  1.4147  2.1350 -2.7183
 4215SOL     OW24280   2.442   4.601   3.856 -0.3018 -0.4493  0.3737
 4215SOL    HW124281   2.369   4.555   3.897  0.5381 -0.9115  1.3278
 4215SOL    HW224282   2.510   4.538   3.878  1.1789  1.5393  1.4999
 4216SOL     OW24283   1.540   0.414   0.161 -0.1044 -0.0579 -0.4100
 4216SOL    HW124284   1.584   0.443   0.081  1.0192  0.7916  0.5061
 4216SOL    HW224285   1.515   0.494   0.207  1.2692  0.4421 -0.5375
 4217SOL     OW24286   2.115   1.711  16.577  0.0327 -0.6625 -0.2563
 4217SOL    HW124287   2.092   1.692  16.486  1.2537 -4.0516  0.1611
 4217SOL    HW224288   2.201   1.740  16.544  0.0564 -1.2033 -0.6681
 4218SOL     OW24289   0.646   3.308  15.950 -0.2188 -0.1085  0.0266
 4218SOL    HW124290   0.612   3.308  15.861  1.8780 -0.9725 -0.7844
 4218SOL    HW224291   0.602   3.230  15.984  0.1630 -1.0357 -1.6155
 4219SOL     OW24292   4.431   1.398   2.596 -0.0488  0.4052  0.4027
 4219SOL    HW124293   4.345   1.436   2.578  1.1984  3.3444  0.7768
 4219SOL    HW224294   4.407   1.306   2.606  1.0880 -0.0926 -1.4172
 4220SOL     OW24295   4.180   3.789   0.462  0.7969  0.0291 -0.1224
 4220SOL    HW124296   4.226   3.764   0.383  2.3817 -0.9426  1.1099
 4220SOL    HW224297   4.143   3.874   0.435 -0.3347 -0.1301  0.9129
 4221SOL     OW24298   2.474   0.744  12.720 -0.1733 -0.0999 -0.6486
 4221SOL    HW124299   2.398   0.790  12.685 -0.6483 -0.9149 -0.7103
 4221SOL    HW224300   2.445   0.721  12.809 -0.6717 -0.5793 -0.9339
 4222SOL     OW24301   1.870   1.536   3.487  0.4334  0.3102  0.1927
 4222SOL    HW124302   1.928   1.592   3.435 -1.4158  2.0141 -0.0398
 4222SOL    HW224303   1.921   1.456   3.472  0.1367  0.1655 -0.0474
 4223SOL     OW24304   1.979   0.237  12.319 -0.6196  0.1474 -0.0594
 4223SOL    HW124305   1.947   0.313  12.270 -0.0744  0.3009 -0.1788
 4223SOL    HW224306   2.037   0.277  12.384 -0.5687  0.7178 -0.4531
 4224SOL     OW24307   1.161   1.932  11.973 -0.2441 -0.0743 -0.2682
 4224SOL    HW124308   1.253   1.955  11.985 -0.6359  0.7827  1.0455
 4224SOL    HW224309   1.116   2.010  11.941 -1.9362 -0.0720  2.1215
 4225SOL     OW24310   0.067   2.281   2.621 -0.1790  0.4729  0.3327
 4225SOL    HW124311   0.069   2.187   2.640  0.5765  0.6288  1.0219
 4225SOL    HW224312   4.713   2.280   2.590 -0.3898 -0.8415  0.9768
 4226SOL     OW24313   2.784   2.005   9.518  0.5015 -0.5438  0.4097
 4226SOL    HW124314   2.866   1.985   9.564  0.3489 -0.3897  0.7524
 4226SOL    HW224315   2.725   1.943   9.560 -0.2910  0.7304  1.1929
 4227SOL     OW24316   0.727   3.583   6.244 -0.4616 -0.0807  0.2467
 4227SOL    HW124317   0.633   3.578   6.233 -0.1271  1.1114 -3.0325
 4227SOL    HW224318   0.752   3.491   6.247 -0.2179 -0.0070  0.5162
 4228SOL     OW24319   3.661   4.513   7.539  0.2705  0.3979 -1.0368
 4228SOL    HW124320   3.633   4.601   7.563 -3.7093 -0.9813 -0.5038
 4228SOL    HW224321   3.754   4.524   7.520  0.3078  1.3647 -0.2794
 4229SOL     OW24322   4.080   4.584   9.484 -0.7634 -0.0197  0.0590
 4229SOL    HW124323   4.026   4.588   9.562  0.6204 -1.2967  1.0875
 4229SOL    HW224324   4.172   4.594   9.507 -0.3974 -1.2521 -0.8388
 4230SOL     OW24325   2.519   1.746  11.061 -0.2693  0.1554  0.8195
 4230SOL    HW124326   2.550   1.719  10.975  3.1017  3.5884  0.9670
 4230SOL    HW224327   2.589   1.714  11.117 -1.1541 -1.7640  0.8181
 4231SOL     OW24328   2.216   0.848   6.067 -0.2009  0.9963  0.2108
 4231SOL    HW124329   2.245   0.758   6.081  1.6865  1.1954 -2.3729
 4231SOL    HW224330   2.269   0.887   6.137  0.2104 -0.5703  0.7676
 4232SOL     OW24331   2.937   4.121  11.220 -0.0623  0.3757  0.4226
 4232SOL    HW124332   2.903   4.050  11.166  1.0234  0.4522 -0.3822
 4232SOL    HW224333   2.854   4.163  11.243 -0.3710 -0.2483  0.4344
 4233SOL     OW24334   1.442   3.268  13.808  0.2069  0.3913 -0.2319
 4233SOL    HW124335   1.401   3.188  13.839  1.0791 -0.4376 -1.2300
 4233SOL    HW224336   1.528   3.234  13.783  0.0983 -1.5454  2.0407
 4234SOL     OW24337   4.023   3.157   7.353  0.5775  0.0205 -0.4546
 4234SOL    HW124338   4.116   3.146   7.374  0.6985  1.7090 -0.0505
 4234SOL    HW224339   3.989   3.166   7.442 -1.6564  0.3981 -1.3704
 4235SOL     OW24340   4.409   3.222  16.933  0.0085 -0.3800  0.2458
 4235SOL    HW124341   4.352   3.151  16.964 -0.2423 -0.4966 -0.4906
 4235SOL    HW224342   4.495   3.192  16.962  0.0687 -0.4752 -0.0332
 4236SOL     OW24343   1.985   3.830   3.620  0.0059 -0.0695 -0.1264
 4236SOL    HW124344   1.908   3.806   3.569  0.5365 -0.0790 -0.9189
 4236SOL    HW224345   2.014   3.906   3.570  1.4374 -1.0688 -0.8234
 4237SOL     OW24346   1.801   2.391   9.363  0.3956  0.1406 -0.6396
 4237SOL    HW124347   1.755   2.325   9.416  0.6699  0.5860  0.1482
 4237SOL    HW224348   1.877   2.338   9.340 -0.5456 -1.2941 -0.4810
 4238SOL     OW24349   2.550   4.070   0.590  0.1992  0.3777  0.4008
 4238SOL    HW124350   2.613   4.053   0.520 -0.4816  2.5490 -0.7421
 4238SOL    HW224351   2.529   4.160   0.566 -0.7312  0.6530  2.2063
 4239SOL     OW24352   1.505   4.268  13.431 -0.5033 -0.1281  0.5150
 4239SOL    HW124353   1.547   4.188  13.399 -0.3643  1.2436 -2.7076
 4239SOL    HW224354   1.575   4.319  13.472  0.7615 -1.9141  0.5862
 4240SOL     OW24355   1.627   4.448   3.875  0.5403 -0.1888  0.1624
 4240SOL    HW124356   1.672   4.514   3.823  1.5659 -0.3814  0.8126
 4240SOL    HW224357   1.684   4.375   3.852 -0.0109 -1.2597  2.2002
 4241SOL     OW24358   0.651   2.840   9.262 -0.5544  0.5706 -0.1059
 4241SOL    HW124359   0.694   2.784   9.198  0.0560  0.5731  0.3031
 4241SOL    HW224360   0.688   2.925   9.242 -0.9306  0.6671 -0.3916
 4242SOL     OW24361   0.158   0.171   2.958 -0.2493  0.4955  0.3094
 4242SOL    HW124362   0.148   0.124   2.876  0.5047  1.2018 -0.1959
 4242SOL    HW224363   0.145   0.260   2.925 -0.3380  0.6588  0.7820
 4243SOL     OW24364   2.956   0.612   2.092  0.1118  0.8357 -0.7357
 4243SOL    HW124365   2.915   0.633   2.176 -1.0538  1.2131 -1.3935
 4243SOL    HW224366   3.030   0.556   2.115 -1.1383 -0.3680  0.3664
 4244SOL     OW24367   3.278   0.667  13.671  0.4654 -0.2565  0.2805
 4244SOL    HW124368   3.317   0.645  13.587  1.8574 -0.6301  1.0259
 4244SOL    HW224369   3.352   0.676  13.731 -0.7633  0.3079  1.7358
 4245SOL     OW24370   2.713   0.824   2.723 -0.4499 -0.3146  0.0637
 4245SOL    HW124371   2.758   0.871   2.793  1.1689  1.4730 -2.1992
 4245SOL    HW224372   2.753   0.739   2.736  0.1646 -0.0137  0.1469
 4246SOL     OW24373   1.631   1.910   5.154 -0.1593  0.6437 -0.5195
 4246SOL    HW124374   1.664   1.823   5.177  2.3787  1.6516 -0.3616
 4246SOL    HW224375   1.677   1.936   5.074  0.6340  3.0099  0.7141
 4247SOL     OW24376   1.512   3.063   2.239 -0.0244 -0.4413  0.1178
 4247SOL    HW124377   1.532   3.092   2.328  1.9249  0.4515 -0.6144
 4247SOL    HW224378   1.578   2.994   2.233  0.6002  0.4068 -2.3696
 4248SOL     OW24379   3.603   3.559   6.546  0.3369  0.5833  0.0890
 4248SOL    HW124380   3.555   3.531   6.624 -1.1391 -0.5133 -1.2198
 4248SOL    HW224381   3.685   3.509   6.549  0.2011  0.4045  0.7544
 4249SOL     OW24382   1.738   4.513   9.824 -0.1467 -0.6071  0.6681
 4249SOL    HW124383   1.677   4.493   9.752 -0.4238 -0.8350  0.9690
 4249SOL    HW224384   1.697   4.476   9.902  0.9448 -2.1659  0.4789
 4250SOL     OW24385   1.763   3.521   1.991  0.5297 -0.3830 -0.1485
 4250SOL    HW124386   1.773   3.551   2.082  1.5035  0.3863 -0.5078
 4250SOL    HW224387   1.808   3.587   1.938 -1.2918  0.4783 -0.6082
 4251SOL     OW24388   4.665   2.970   2.278  0.4315  0.4849 -0.0619
 4251SOL    HW124389   4.683   3.020   2.357 -1.7346  0.3854  0.5089
 4251SOL    HW224390   0.007   2.915   2.279  0.9433  1.2004 -1.4218
 4252SOL     OW24391   2.928   4.422   7.397  0.0479  0.1806 -0.3142
 4252SOL    HW124392   3.013   4.427   7.442  0.5950 -0.3646 -1.2714
 4252SOL    HW224393   2.933   4.339   7.350  0.1065  0.5478 -0.9552
 4253SOL     OW24394   3.591   1.639   6.257 -0.1391 -0.5276 -0.5354
 4253SOL    HW124395   3.524   1.696   6.219 -0.0328  0.0550  0.1373
 4253SOL    HW224396   3.557   1.552   6.236 -1.1334 -0.6425  1.5630
 4254SOL     OW24397   4.207   1.537   3.559 -0.4240  0.3048 -0.1563
 4254SOL    HW124398   4.277   1.578   3.609  2.1899 -1.2374 -2.5167
 4254SOL    HW224399   4.245   1.457   3.523 -1.5398  0.1361 -0.9502
 4255SOL     OW24400   3.858   3.051   5.409 -0.4849 -0.1242  0.3945
 4255SOL    HW124401   3.931   3.042   5.471  0.5362 -0.4670 -0.8619
 4255SOL    HW224402   3.857   2.960   5.378 -0.1842 -0.5887  1.7336
 4256SOL     OW24403   0.111   1.250   6.531  0.1891 -0.1059  0.3816
 4256SOL    HW124404   0.150   1.273   6.615  1.2302  0.7876 -0.3481
 4256SOL    HW224405   0.056   1.327   6.515  0.8065  0.6658  1.9884
 4257SOL     OW24406   1.863   1.530   7.836 -0.3399  0.2115  0.0058
 4257SOL    HW124407   1.826   1.470   7.772  1.4414  1.4671 -2.1966
 4257SOL    HW224408   1.795   1.597   7.843 -0.8625 -0.2930 -0.3438
 4258SOL     OW24409   0.034   1.036   3.659  0.0343 -0.6141  0.4617
 4258SOL    HW124410   0.032   1.098   3.586  1.6236  1.5523  2.2580
 4258SOL    HW224411   0.036   1.090   3.738 -0.0897  1.5981 -1.0635
 4259SOL     OW24412   2.438   2.508   2.006  0.2094  0.3090 -0.2239
 4259SOL    HW124413   2.432   2.415   2.030 -1.5738  0.0744 -1.5716
 4259SOL    HW224414   2.377   2.511   1.932  0.0988 -0.0166 -0.1480
 4260SOL     OW24415   1.800   0.150  10.680 -0.6571 -0.3624  0.1033
 4260SOL    HW124416   1.705   0.160  10.692 -0.7228 -0.0893 -0.6694
 4260SOL    HW224417   1.805   0.183  10.591 -1.5641 -0.7245 -0.0787
 4261SOL     OW24418   1.026   0.297   7.398 -0.4516 -0.8253 -0.0544
 4261SOL    HW124419   1.011   0.344   7.480  1.3496 -1.6299  0.7392
 4261SOL    HW224420   1.108   0.336   7.369 -0.9300  0.9219  0.9592
 4262SOL     OW24421   0.467   4.128   6.644  0.4792 -0.1181 -0.3285
 4262SOL    HW124422   0.532   4.085   6.699  2.0158 -0.3512 -2.3351
 4262SOL    HW224423   0.527   4.173   6.584 -0.3964 -1.0495 -1.9078
 4263SOL     OW24424   1.757   0.734   1.743  0.2939 -0.1063 -0.5905
 4263SOL    HW124425   1.690   0.767   1.683 -1.2615 -0.8498  0.7407
 4263SOL    HW224426   1.743   0.795   1.816 -0.9329  0.1041 -1.0020
 4264SOL     OW24427   0.860   1.564   0.109  0.3046  0.2310 -0.2214
 4264SOL    HW124428   0.827   1.476   0.092  0.1256 -0.3930  3.4166
 4264SOL    HW224429   0.860   1.608   0.024  1.6103  0.7954  0.0784
 4265SOL     OW24430   2.625   4.167   2.859 -0.4363  0.0300  0.0851
 4265SOL    HW124431   2.632   4.132   2.770  1.9992  2.3954 -0.6136
 4265SOL    HW224432   2.540   4.129   2.883  1.0311 -1.4059  2.9484
 4266SOL     OW24433   3.264   0.774   8.307 -0.2742 -0.1505  0.3270
 4266SOL    HW124434   3.215   0.692   8.311  1.0199 -0.9403  0.2087
 4266SOL    HW224435   3.279   0.788   8.400 -0.2848 -1.4986  0.5248
 4267SOL     OW24436   2.553   3.307   2.280 -0.1754 -0.4513  0.3608
 4267SOL    HW124437   2.524   3.225   2.320 -1.3489  0.0150  0.4460
 4267SOL    HW224438   2.577   3.355   2.359  0.4847  1.1454 -0.8159
 4268SOL     OW24439   2.232   4.037  11.184 -0.2898 -0.4194 -0.0049
 4268SOL    HW124440   2.175   4.007  11.255 -0.2947  0.7855  0.5103
 4268SOL    HW224441   2.192   4.124  11.178  0.4784 -0.0145  0.7051
 4269SOL     OW24442   2.416   1.675   4.558 -0.6297  0.3428  0.0728
 4269SOL    HW124443   2.417   1.712   4.470 -1.9483  0.3371  0.0565
 4269SOL    HW224444   2.322   1.675   4.573 -0.4349 -1.1355  1.2595
 4270SOL     OW24445   1.322   3.073  15.110  0.0090  0.0425  0.2203
 4270SOL    HW124446   1.349   3.119  15.190  0.4686  0.2888 -0.0781
 4270SOL    HW224447   1.353   3.132  15.041 -1.7224 -0.6841 -1.1721
 4271SOL     OW24448   3.958   1.746   3.194 -0.1591 -0.1727  0.2454
 4271SOL    HW124449   3.977   1.751   3.288  3.4678 -1.2093 -0.4686
 4271SOL    HW224450   3.865   1.724   3.204  0.0234 -0.0721  2.1741
 4272SOL     OW24451   1.367   2.935   3.440  0.0470  0.1007 -0.2157
 4272SOL    HW124452   1.426   2.976   3.505  0.0785 -0.8081  0.3234
 4272SOL    HW224453   1.417   2.957   3.362 -2.2250 -1.8285 -2.1992
 4273SOL     OW24454   2.372   3.077   4.249 -0.2242 -0.0215 -0.3444
 4273SOL    HW124455   2.327   3.152   4.210  0.0435 -0.2709 -1.1312
 4273SOL    HW224456   2.300   3.013   4.246 -0.6373  0.3729  1.2178
 4274SOL     OW24457   3.131   3.731   5.350 -0.1364  0.2321 -0.0680
 4274SOL    HW124458   3.161   3.718   5.440  0.7857  0.1054 -0.3858
 4274SOL    HW224459   3.072   3.658   5.333 -2.0298  2.4981 -3.1107
 4275SOL     OW24460   1.533   4.264   6.476 -0.1617  0.6501 -0.2404
 4275SOL    HW124461   1.442   4.287   6.458 -0.9262 -1.2898  1.1580
 4275SOL    HW224462   1.536   4.171   6.452 -2.4508  0.3728  0.5479
 4276SOL     OW24463   1.510   3.490   0.525 -0.1882 -0.4642 -0.5551
 4276SOL    HW124464   1.552   3.441   0.595 -0.2377  0.3340  0.0333
 4276SOL    HW224465   1.537   3.419   0.466 -0.6370 -0.9466 -0.1849
 4277SOL     OW24466   4.701   4.708   3.414  0.0337 -0.6505 -0.1880
 4277SOL    HW124467   4.654   4.665   3.342  0.8036 -0.6011 -0.7238
 4277SOL    HW224468   4.679   0.062   3.393  1.6526  0.2034  1.8396
 4278SOL     OW24469   0.572   0.746   2.486 -0.2401 -0.0354 -0.1760
 4278SOL    HW124470   0.588   0.823   2.541 -1.0173 -0.7802  1.1030
 4278SOL    HW224471   0.663   0.717   2.498 -0.0393  0.2485 -1.0532
 4279SOL     OW24472   0.602   3.691   7.854 -0.2547 -0.0305 -0.1858
 4279SOL    HW124473   0.598   3.714   7.761  0.5889  3.0914  0.5396
 4279SOL    HW224474   0.696   3.675   7.853 -0.3106 -0.4434  1.5972
 4280SOL     OW24475   4.152   1.576   4.313  0.2863 -0.3681  0.1399
 4280SOL    HW124476   4.159   1.648   4.376  0.1228 -0.8179  0.6727
 4280SOL    HW224477   4.243   1.545   4.302  0.6535  0.9362 -0.4991
 4281SOL     OW24478   4.679   2.381  10.319  0.5715  0.2330 -0.3502
 4281SOL    HW124479   0.021   2.332  10.340 -0.1811 -1.2741 -1.0598
 4281SOL    HW224480   4.637   2.329  10.250  0.0435 -0.0346  0.1794
 4282SOL     OW24481   2.733   4.354   9.885  0.0577 -0.1976  0.4013
 4282SOL    HW124482   2.725   4.413   9.959  0.2089  1.5435 -0.9757
 4282SOL    HW224483   2.651   4.367   9.836 -0.8566 -0.5571  1.8171
 4283SOL     OW24484   1.967   0.063   5.081  0.0475  0.5018 -0.5277
 4283SOL    HW124485   1.995   0.003   5.151 -3.4691 -1.9759 -1.2184
 4283SOL    HW224486   1.875   0.074   5.106  0.3483 -1.3357  1.4306
 4284SOL     OW24487   2.716   3.255   0.602 -0.0637  0.0607  0.5551
 4284SOL    HW124488   2.649   3.319   0.578 -0.4044 -0.6548 -0.4277
 4284SOL    HW224489   2.748   3.226   0.516 -0.5641 -1.4087  0.8678
 4285SOL     OW24490   1.382   3.006   6.484  0.5263  0.2427 -0.1181
 4285SOL    HW124491   1.351   3.027   6.396 -0.2120  0.4361  0.1905
 4285SOL    HW224492   1.391   2.911   6.477  0.1454  0.0661  1.7556
 4286SOL     OW24493   0.347   0.670   2.053  0.3047 -0.4949 -0.6460
 4286SOL    HW124494   0.326   0.577   2.062 -0.3032 -0.5879 -2.8865
 4286SOL    HW224495   0.276   0.698   1.996  0.2416 -0.4504 -0.5457
 4287SOL     OW24496   1.374   0.414   3.377  0.1576  0.0716  0.2083
 4287SOL    HW124497   1.333   0.330   3.399 -0.8438  0.5912  0.3361
 4287SOL    HW224498   1.468   0.397   3.386 -0.1572 -1.0350  1.4727
 4288SOL     OW24499   3.565   3.028   0.893 -0.0268 -0.0390 -0.4659
 4288SOL    HW124500   3.476   2.992   0.890 -0.6034  1.1588  2.2921
 4288SOL    HW224501   3.619   2.977   0.833  0.3200  0.7100 -0.7852
 4289SOL     OW24502   1.113   1.029   4.778  0.4220  0.1968  0.0681
 4289SOL    HW124503   1.041   1.079   4.739 -1.3381 -3.8501 -1.8854
 4289SOL    HW224504   1.143   0.983   4.700 -0.2058 -0.5190  0.2464
 4290SOL     OW24505   3.434   2.359   3.838 -0.3490 -0.3820 -0.8854
 4290SOL    HW124506   3.389   2.294   3.783 -1.6068 -0.4693  0.2313
 4290SOL    HW224507   3.361   2.364   3.901 -0.5144  0.0551 -1.1169
 4291SOL     OW24508   1.143   2.336   6.238 -0.6121 -0.9168  0.3500
 4291SOL    HW124509   1.182   2.318   6.324  0.5316 -1.3333 -0.2455
 4291SOL    HW224510   1.193   2.412   6.207 -1.8617  1.1039  3.2882
 4292SOL     OW24511   3.999   0.245   4.475 -0.1928  0.1607  0.3114
 4292SOL    HW124512   4.015   0.258   4.569 -0.8183  0.0000  0.4396
 4292SOL    HW224513   4.014   0.151   4.460 -1.3940 -0.0434  0.3614
 4293SOL     OW24514   4.192   3.235   5.180 -0.8393  0.2825  0.0140
 4293SOL    HW124515   4.155   3.196   5.259 -1.4834  0.9883  0.0593
 4293SOL    HW224516   4.278   3.262   5.213  0.4554 -1.3734 -2.0053
 4294SOL     OW24517   0.952   0.116   7.797 -0.1661 -0.3749  0.2924
 4294SOL    HW124518   0.873   0.118   7.745 -0.8858 -1.0475  1.3433
 4294SOL    HW224519   0.933   0.050   7.864 -1.4138  1.8768  2.1306
 4295SOL     OW24520   1.294   3.034   3.898 -0.1213  0.4886  0.8849
 4295SOL    HW124521   1.316   3.097   3.967 -0.0747 -0.1766  1.4768
 4295SOL    HW224522   1.316   2.947   3.931 -0.0062  0.5462  0.9602
 4296SOL     OW24523   4.087   4.242  17.687  0.0069  0.5541  0.7349
 4296SOL    HW124524   4.095   4.328  17.729 -1.4844  1.7984 -1.5402
 4296SOL    HW224525   4.004   4.216  17.728 -0.6790  0.5587 -0.6603
 4297SOL     OW24526   2.551   2.180  14.758  0.5884  0.2002  0.1634
 4297SOL    HW124527   2.531   2.102  14.705 -0.8251  0.1706  0.7505
 4297SOL    HW224528   2.538   2.139  14.843 -4.9197 -1.2447 -1.3536
 4298SOL     OW24529   2.294   3.775   3.971  0.0338  0.4217 -0.2048
 4298SOL    HW124530   2.213   3.725   3.978 -0.5571  1.2007 -1.5688
 4298SOL    HW224531   2.344   3.735   4.042  0.3836  1.2793  0.0262
 4299SOL     OW24532   1.308   3.416   4.344  0.5208 -0.9542  0.0530
 4299SOL    HW124533   1.287   3.493   4.396  0.1924  0.1666 -1.7391
 4299SOL    HW224534   1.222   3.390   4.311  0.3965  0.5153 -0.8015
 4300SOL     OW24535   4.550   0.310   4.738  0.5316  0.4048 -1.0153
 4300SOL    HW124536   4.485   0.265   4.793 -0.0348  1.0967 -1.1161
 4300SOL    HW224537   4.585   0.366   4.808  0.3588  0.1722 -0.7431
 4301SOL     OW24538   1.736   2.484  14.234 -0.2852  0.5252 -0.3433
 4301SOL    HW124539   1.751   2.526  14.319  1.1577 -0.4318 -0.1299
 4301SOL    HW224540   1.802   2.415  14.233  1.5735  2.2732  1.3237
 4302SOL     OW24541   3.237   3.068   4.472  0.4921 -0.3090  0.3145
 4302SOL    HW124542   3.220   3.161   4.453  0.3100  0.2428  3.2088
 4302SOL    HW224543   3.200   3.060   4.560 -0.0910 -0.1033  0.0846
 4303SOL     OW24544   4.547   0.623   2.689  0.2658 -0.0827 -0.1259
 4303SOL    HW124545   4.561   0.528   2.696 -1.9516 -0.3934  0.0779
 4303SOL    HW224546   4.498   0.621   2.607 -1.4627  1.2026  0.8816
 4304SOL     OW24547   0.420   0.163   9.132  0.0864 -0.4691 -0.4569
 4304SOL    HW124548   0.487   0.133   9.071 -0.7665 -0.9352 -1.1683
 4304SOL    HW224549   0.457   0.247   9.158  0.9175 -0.6412 -1.0892
 4305SOL     OW24550   1.452   0.876   7.947 -0.5549  0.2815 -0.5422
 4305SOL    HW124551   1.365   0.843   7.926  0.3699 -2.2107 -0.5281
 4305SOL    HW224552   1.447   0.968   7.921 -4.2384  0.2360  0.0777
 4306SOL     OW24553   2.746   4.154   5.142 -0.3953  0.2799  0.2686
 4306SOL    HW124554   2.702   4.086   5.193  0.8436 -0.4423  0.3460
 4306SOL    HW224555   2.727   4.231   5.196 -1.7141 -1.0799  1.7305
 4307SOL     OW24556   4.305   3.118   7.315 -0.5071  0.2591 -0.0451
 4307SOL    HW124557   4.271   3.029   7.303  1.3823 -0.4420 -0.0916
 4307SOL    HW224558   4.364   3.126   7.241  1.6481  1.0129  1.7731
 4308SOL     OW24559   1.781   3.882   4.819 -0.4233  0.3990  0.1491
 4308SOL    HW124560   1.874   3.906   4.818 -0.2677 -0.1735  0.8803
 4308SOL    HW224561   1.770   3.839   4.734 -0.7929 -0.2588  0.5344
 4309SOL     OW24562   3.009   0.030   1.784 -0.9082 -0.4173 -0.4569
 4309SOL    HW124563   2.929   4.733   1.826  0.9409 -2.1382  1.6906
 4309SOL    HW224564   3.029   4.692   1.727 -1.1753  0.4627 -1.7079
 4310SOL     OW24565   0.052   0.125   5.208 -0.2536 -0.1428  0.1482
 4310SOL    HW124566   0.051   0.042   5.256  0.4076  0.5583  1.3730
 4310SOL    HW224567   0.055   0.186   5.281  1.8651  2.1803 -1.8795
 4311SOL     OW24568   4.567   0.879   2.720  0.0549 -0.0270 -0.3406
 4311SOL    HW124569   4.599   0.863   2.631 -2.8586 -2.3894 -0.9659
 4311SOL    HW224570   4.572   0.788   2.749  0.4108  0.5293  1.3600
 4312SOL     OW24571   3.934   2.622   3.271  0.3216 -0.1525  0.0907
 4312SOL    HW124572   3.909   2.530   3.258  0.7820 -0.2292 -0.2714
 4312SOL    HW224573   3.852   2.666   3.290  0.8918  0.3180  1.4546
 4313SOL     OW24574   4.387   0.657   1.983 -0.0099 -0.0777  0.1729
 4313SOL    HW124575   4.410   0.696   2.068  3.2116 -3.4281  0.8364
 4313SOL    HW224576   4.449   0.704   1.928 -0.5073 -1.5018 -1.5993
 4314SOL     OW24577   0.877   0.486   6.498 -0.4039 -0.0202  0.3236
 4314SOL    HW124578   0.904   0.510   6.409 -0.0782  1.3430  0.7880
 4314SOL    HW224579   0.800   0.432   6.481 -0.1989  0.1475 -1.1306
 4315SOL     OW24580   1.587   0.035  17.138 -0.3382  0.2721 -0.0652
 4315SOL    HW124581   1.598   4.711  17.211  1.3896  1.0367  0.3152
 4315SOL    HW224582   1.627   0.106  17.189 -1.9017  1.5447 -0.6254
 4316SOL     OW24583   2.368   3.342   1.830 -0.6621 -0.4096  0.7271
 4316SOL    HW124584   2.408   3.296   1.756 -0.7191 -0.1856  0.5531
 4316SOL    HW224585   2.354   3.429   1.791 -1.1031 -0.5699  0.5296
 4317SOL     OW24586   3.764   4.444   6.153 -0.0857  0.4949 -0.2040
 4317SOL    HW124587   3.838   4.400   6.195 -0.7733 -1.9414 -1.5839
 4317SOL    HW224588   3.713   4.464   6.232  2.1569  1.9942  0.8899
 4318SOL     OW24589   4.716   1.390   0.697  0.2316 -0.4437  0.6123
 4318SOL    HW124590   4.631   1.421   0.667  0.5688  1.8358  2.0770
 4318SOL    HW224591   0.035   1.464   0.672 -1.4254  0.1929 -1.2190
 4319SOL     OW24592   4.091   2.145   3.381 -0.0207  0.4470 -0.3626
 4319SOL    HW124593   4.074   2.222   3.434  1.0556 -0.7773  1.7829
 4319SOL    HW224594   4.187   2.154   3.387 -0.4247  3.0167  1.8779
 4320SOL     OW24595   0.557   1.891   0.846  0.5600  0.2397  0.1137
 4320SOL    HW124596   0.568   1.970   0.791 -0.0960 -2.3045 -3.6731
 4320SOL    HW224597   0.473   1.911   0.888  0.1699  0.7732 -0.9053
 4321SOL     OW24598   4.229   2.322   0.506 -0.1432  0.0643  0.1939
 4321SOL    HW124599   4.266   2.236   0.526 -3.7039 -0.6345  3.7461
 4321SOL    HW224600   4.263   2.348   0.420 -2.6513  2.4302 -0.0988
 4322SOL     OW24601   0.686   3.212   6.928 -0.1482  0.0741 -0.3453
 4322SOL    HW124602   0.609   3.169   6.965  0.5452  0.6039  1.7050
 4322SOL    HW224603   0.706   3.278   6.995 -0.4587 -1.4846  1.2733
 4323SOL     OW24604   1.650   3.319   3.695  0.3562  0.0023  0.0299
 4323SOL    HW124605   1.594   3.381   3.741 -0.4668 -1.5366  1.0946
 4323SOL    HW224606   1.587   3.253   3.666  0.1850 -0.8253  2.2705
 4324SOL     OW24607   1.410   1.824  16.881  0.0775  0.5284 -0.0997
 4324SOL    HW124608   1.414   1.787  16.793 -0.9578  1.7037 -0.6393
 4324SOL    HW224609   1.471   1.898  16.885  0.0569  0.5273  0.2882
 4325SOL     OW24610   3.476   3.879  14.631 -0.1919  0.0016 -0.4635
 4325SOL    HW124611   3.547   3.942  14.637 -2.8086  2.6367  3.0271
 4325SOL    HW224612   3.426   3.907  14.708 -0.0756  2.3607 -1.2196
 4326SOL     OW24613   1.480   1.556  12.363  0.2382 -0.5913  0.2501
 4326SOL    HW124614   1.513   1.625  12.305  0.2563  1.2361  2.4103
 4326SOL    HW224615   1.395   1.541  12.322  1.1562 -0.7410 -1.5567
 4327SOL     OW24616   4.337   4.646   7.468 -0.3202  0.0161  0.1183
 4327SOL    HW124617   4.397   4.571   7.470  0.2787  0.5410  1.7502
 4327SOL    HW224618   4.344   4.681   7.380 -1.8693 -1.1415 -0.4555
 4328SOL     OW24619   0.192   4.401   6.914 -0.1097  0.4418 -0.3347
 4328SOL    HW124620   0.180   4.334   6.847  0.8033  1.2346 -1.2935
 4328SOL    HW224621   0.111   4.449   6.892 -0.6576 -0.4094 -0.1714
 4329SOL     OW24622   1.119   1.426   2.656 -0.9654 -0.1946 -0.1159
 4329SOL    HW124623   1.197   1.481   2.662 -1.0622 -0.0091 -0.5647
 4329SOL    HW224624   1.058   1.480   2.706 -0.0437  0.3798  0.3818
 4330SOL     OW24625   0.332   4.389   9.089  0.0698 -0.4394  0.3451
 4330SOL    HW124626   0.247   4.432   9.101  0.1741 -0.3059  0.5992
 4330SOL    HW224627   0.327   4.304   9.133  0.2679 -0.9572 -0.6420
 4331SOL     OW24628   3.256   1.940   0.520 -0.0769  0.2190  0.4832
 4331SOL    HW124629   3.206   1.966   0.442 -2.7475  0.8287  2.4157
 4331SOL    HW224630   3.239   1.846   0.523 -0.6351  0.2912 -0.2588
 4332SOL     OW24631   3.839   0.281  10.732  0.2398  0.1720  0.2608
 4332SOL    HW124632   3.932   0.298  10.741  0.3838 -0.5598  0.1361
 4332SOL    HW224633   3.807   0.366  10.701 -2.2306 -0.1674  1.8600
 4333SOL     OW24634   1.233   2.109   8.531  0.5404  0.4507  0.3056
 4333SOL    HW124635   1.307   2.066   8.489  0.5393  0.6408  0.1121
 4333SOL    HW224636   1.246   2.196   8.493 -1.9252  1.4596  1.7856
 4334SOL     OW24637   0.382   1.070   9.596  0.2072  0.1056  0.0504
 4334SOL    HW124638   0.444   1.070   9.669  1.2081 -2.3307 -0.7806
 4334SOL    HW224639   0.310   1.119   9.635 -1.0100 -0.5603 -1.3310
 4335SOL     OW24640   0.194   0.921   6.641 -0.2795 -0.1488  0.2119
 4335SOL    HW124641   0.206   0.889   6.731 -1.6062 -1.4136 -0.0543
 4335SOL    HW224642   0.201   1.016   6.641 -0.9697 -0.0962 -0.5971
 4336SOL     OW24643   3.634   4.235   7.511 -0.1481 -0.4523 -0.2683
 4336SOL    HW124644   3.729   4.221   7.512 -0.1841 -0.5920  0.9543
 4336SOL    HW224645   3.633   4.330   7.521  1.8993 -0.4043 -0.5126
 4337SOL     OW24646   0.000   3.770   4.062  0.1504 -0.2383  0.3890
 4337SOL    HW124647   4.698   3.723   3.988  0.5873 -1.7022  1.0859
 4337SOL    HW224648   4.718   3.705   4.130  0.8527  0.1782  0.9704
 4338SOL     OW24649   0.313   0.123   4.327  0.0843 -0.8492  0.0002
 4338SOL    HW124650   0.372   0.047   4.333 -0.4856 -1.2547  0.3964
 4338SOL    HW224651   0.262   0.118   4.407 -0.0736  0.4301 -0.0280
 4339SOL     OW24652   1.097   2.509   4.662  0.2824 -0.3994  0.1532
 4339SOL    HW124653   1.148   2.583   4.694 -0.3627  0.9140 -1.8915
 4339SOL    HW224654   1.145   2.429   4.684 -2.9731 -2.6799 -0.9468
 4340SOL     OW24655   2.251   4.127   9.358  0.2719 -0.0112  0.0058
 4340SOL    HW124656   2.277   4.213   9.390  0.1388  0.0750 -0.1209
 4340SOL    HW224657   2.280   4.073   9.432  1.4415  1.6895  0.7658
 4341SOL     OW24658   3.752   0.379   5.428 -0.3457  0.2974  0.2186
 4341SOL    HW124659   3.677   0.412   5.378  0.5498  3.2683  0.8256
 4341SOL    HW224660   3.818   0.442   5.400 -0.9179  0.9834  0.3993
 4342SOL     OW24661   4.206   3.989   2.988  0.4264  0.7209  0.1169
 4342SOL    HW124662   4.166   4.069   3.025 -3.4412 -1.0456 -0.2474
 4342SOL    HW224663   4.295   4.018   2.971  1.8229 -2.1336  2.5364
 4343SOL     OW24664   0.762   3.782   3.854 -0.3162 -0.2192 -0.4236
 4343SOL    HW124665   0.730   3.763   3.942  1.2073  0.3757  0.2573
 4343SOL    HW224666   0.801   3.869   3.864  1.1542 -0.7598 -1.3624
 4344SOL     OW24667   1.312   2.448   2.110 -0.0755 -0.1159  0.3210
 4344SOL    HW124668   1.394   2.446   2.160 -0.6907 -1.4289  1.2710
 4344SOL    HW224669   1.264   2.374   2.148 -2.7827  0.1124 -2.6647
 4345SOL     OW24670   2.905   3.301   7.036  0.1469  0.0064  0.0274
 4345SOL    HW124671   2.849   3.324   7.111  0.3728 -1.0492  0.5210
 4345SOL    HW224672   2.967   3.238   7.074  0.5955  0.4079 -0.0476
 4346SOL     OW24673   1.652   3.886  14.780 -0.1916 -0.3215  0.1854
 4346SOL    HW124674   1.591   3.956  14.757 -0.1924 -0.0093  1.1326
 4346SOL    HW224675   1.586   3.835  14.827 -2.5038  0.8795 -1.7685
 4347SOL     OW24676   0.677   3.879   8.493 -0.3478 -0.1470  0.3985
 4347SOL    HW124677   0.730   3.959   8.499 -0.0162 -0.4432  1.4680
 4347SOL    HW224678   0.613   3.892   8.564 -1.3861  0.5860 -0.6721
 4348SOL     OW24679   2.338   3.888  10.989 -0.0434  0.5198  0.3044
 4348SOL    HW124680   2.278   3.945  10.940 -0.3203 -1.6728 -1.8838
 4348SOL    HW224681   2.319   3.924  11.076 -1.3035 -0.6167  0.4908
 4349SOL     OW24682   2.668   2.623   7.716 -0.3932 -0.0221 -0.4187
 4349SOL    HW124683   2.749   2.586   7.750  0.1019  2.8528  1.5028
 4349SOL    HW224684   2.654   2.691   7.781  1.0075 -1.1703  1.0690
 4350SOL     OW24685   0.302   2.257  13.378 -0.0069 -0.5311 -0.2173
 4350SOL    HW124686   0.365   2.197  13.415  0.1857 -0.2409 -0.0793
 4350SOL    HW224687   0.270   2.299  13.458  3.8565 -2.0460  2.1041
 4351SOL     OW24688   2.688   1.703   7.410  0.2143  0.3899 -0.3346
 4351SOL    HW124689   2.669   1.796   7.420  2.8071  1.0442 -1.4486
 4351SOL    HW224690   2.679   1.675   7.501 -0.1918  0.0656 -0.4717
 4352SOL     OW24691   0.162   3.071   4.777 -0.0787  0.8968  0.0223
 4352SOL    HW124692   0.116   3.050   4.695  0.9318  2.4113 -0.9244
 4352SOL    HW224693   0.247   3.037   4.748 -2.2301 -2.5168 -2.3474
 4353SOL     OW24694   2.598   3.141   6.455 -0.2191 -0.4626 -0.1313
 4353SOL    HW124695   2.553   3.094   6.526  2.9864 -0.8861  1.6355
 4353SOL    HW224696   2.672   3.080   6.445 -0.4939 -0.7539 -0.3684
 4354SOL     OW24697   0.536   2.873  12.756 -0.3998  0.0335  0.1922
 4354SOL    HW124698   0.538   2.781  12.783 -1.9071 -0.6665 -2.0754
 4354SOL    HW224699   0.528   2.910  12.844 -4.0889 -1.0024  0.3047
 4355SOL     OW24700   3.237   1.034   2.276 -0.3187  0.2695 -0.2430
 4355SOL    HW124701   3.217   1.074   2.191 -1.2916  0.8932  0.2805
 4355SOL    HW224702   3.236   0.942   2.248  0.4065  0.2823 -0.3004
 4356SOL     OW24703   0.836   3.723   2.832 -0.4855 -0.0364  0.0956
 4356SOL    HW124704   0.813   3.646   2.884  0.2827 -0.7444 -0.6117
 4356SOL    HW224705   0.746   3.746   2.809 -0.1121 -1.4439 -2.6567
 4357SOL     OW24706   4.264   1.106   3.115  0.1754 -0.9988 -0.3205
 4357SOL    HW124707   4.258   1.170   3.044  2.6569 -0.4191 -0.0150
 4357SOL    HW224708   4.331   1.045   3.082  0.8748 -1.2866  1.6440
 4358SOL     OW24709   4.304   2.147   7.371 -0.3069 -0.1322 -0.2186
 4358SOL    HW124710   4.293   2.053   7.356  2.3844 -0.3476 -0.7879
 4358SOL    HW224711   4.389   2.139   7.416  1.1941 -0.6131 -3.1598
 4359SOL     OW24712   2.136   1.087  17.262  0.1031 -0.3939 -0.2919
 4359SOL    HW124713   2.110   1.122  17.176  1.6909  2.2787  0.3121
 4359SOL    HW224714   2.062   1.038  17.297 -1.6877  0.5906 -2.6666
 4360SOL     OW24715   1.015   4.156  14.601 -0.3989  0.4926 -0.7453
 4360SOL    HW124716   1.086   4.104  14.639 -1.1191 -0.9557 -1.4186
 4360SOL    HW224717   1.053   4.244  14.604 -0.4160  0.4699  0.2814
 4361SOL     OW24718   1.287   2.259  11.542  0.4216  0.0424  0.4822
 4361SOL    HW124719   1.193   2.262  11.562  0.4810  0.4685  0.7043
 4361SOL    HW224720   1.288   2.164  11.533 -3.3825  0.1332 -1.1761
 4362SOL     OW24721   3.043   3.541  13.789  0.0066 -0.0427  0.1523
 4362SOL    HW124722   2.967   3.569  13.839 -0.0850 -1.6798  0.9271
 4362SOL    HW224723   3.096   3.620  13.791 -1.2784  0.8740 -1.9158
 4363SOL     OW24724   2.485   4.660   1.591  0.0087  0.5698  0.1124
 4363SOL    HW124725   2.478   4.725   1.520 -1.5128 -1.1513 -1.3068
 4363SOL    HW224726   2.432   4.699   1.661  0.4710  0.5704  0.4566
 4364SOL     OW24727   1.438   0.640   6.637 -0.3367  0.9857 -0.8825
 4364SOL    HW124728   1.491   0.670   6.563 -0.4890  3.6729  0.0785
 4364SOL    HW224729   1.363   0.623   6.580  1.6266 -1.4586 -2.6716
 4365SOL     OW24730   1.453   1.166   2.877  0.2325  0.4183 -0.6974
 4365SOL    HW124731   1.502   1.193   2.799  2.1591 -1.8775 -0.3099
 4365SOL    HW224732   1.511   1.106   2.924 -1.6674  0.7856  2.1443
 4366SOL     OW24733   4.280   2.365   4.814  0.4538  0.0107 -0.7876
 4366SOL    HW124734   4.353   2.387   4.871  0.7287  1.0295 -1.5400
 4366SOL    HW224735   4.244   2.452   4.799 -2.6544 -1.0919  0.1846
 4367SOL     OW24736   1.939   2.171  13.074 -0.2514 -0.3922  0.4250
 4367SOL    HW124737   1.970   2.241  13.017 -1.3865  0.4514  0.8365
 4367SOL    HW224738   1.901   2.123  13.001 -0.5295 -1.4469  1.2498
 4368SOL     OW24739   1.594   0.778  11.694  0.1812 -0.4952  0.0681
 4368SOL    HW124740   1.510   0.760  11.735 -0.6687  3.5241  0.0504
 4368SOL    HW224741   1.605   0.713  11.624 -1.3884 -0.2096 -0.4475
 4369SOL     OW24742   1.844   1.190   7.813 -0.0887  0.2282  0.0801
 4369SOL    HW124743   1.859   1.248   7.739  0.1999 -1.5716 -1.2559
 4369SOL    HW224744   1.884   1.110   7.778  0.8643 -0.4620  2.6777
 4370SOL     OW24745   2.899   2.251  13.308 -0.1005  0.9234 -0.1017
 4370SOL    HW124746   2.944   2.168  13.325  0.8483  1.6219  0.7540
 4370SOL    HW224747   2.968   2.317  13.309  0.9946 -0.1510 -2.7501
 4371SOL     OW24748   3.428   1.076   7.567 -0.3044 -0.0459 -0.0455
 4371SOL    HW124749   3.394   1.015   7.632  0.8596  0.5814  1.1596
 4371SOL    HW224750   3.521   1.055   7.581 -0.4458 -0.9897 -0.5202
 4372SOL     OW24751   2.583   0.226   8.509 -0.2323  0.5952 -0.6478
 4372SOL    HW124752   2.516   0.284   8.545 -0.1351  0.2598  0.0673
 4372SOL    HW224753   2.577   0.162   8.580 -0.7596  0.1452 -1.0999
 4373SOL     OW24754   0.589   0.346   3.304 -0.3447 -0.0388 -0.1062
 4373SOL    HW124755   0.565   0.434   3.333  0.5280  0.1330  0.0843
 4373SOL    HW224756   0.614   0.357   3.213  2.1504  0.2188  0.6113
 4374SOL     OW24757   0.898   0.054   6.747 -0.6376  0.3014  0.7280
 4374SOL    HW124758   0.930   4.734   6.677 -0.0727  2.2288 -0.5654
 4374SOL    HW224759   0.957   0.049   6.823  1.7016  0.7755 -1.0836
 4375SOL     OW24760   0.650   0.144   8.980 -0.3693 -0.1464  0.4690
 4375SOL    HW124761   0.652   0.237   8.959  1.6565  0.0271  1.4284
 4375SOL    HW224762   0.742   0.130   9.003 -0.1021 -0.8471 -1.0317
 4376SOL     OW24763   3.280   4.057   6.226 -0.3202  0.2688  0.1121
 4376SOL    HW124764   3.239   4.034   6.142 -2.4172  1.7875  0.7429
 4376SOL    HW224765   3.204   4.050   6.284 -1.8471 -0.4425 -1.9471
 4377SOL     OW24766   2.494   3.658   4.918 -0.2071  0.0984 -0.2553
 4377SOL    HW124767   2.454   3.655   5.005 -0.7693  0.5219 -0.5027
 4377SOL    HW224768   2.435   3.719   4.874 -0.1035 -0.2317 -0.8470
 4378SOL     OW24769   0.380   0.796   6.852 -0.7800  0.0263 -0.0376
 4378SOL    HW124770   0.418   0.788   6.764  0.6810  2.0099  0.4263
 4378SOL    HW224771   0.409   0.716   6.895  0.5001  0.9025  0.7027
 4379SOL     OW24772   1.273   3.581   4.554 -0.4909  0.4510 -0.1103
 4379SOL    HW124773   1.184   3.616   4.563  0.2281  2.2620 -0.1087
 4379SOL    HW224774   1.284   3.536   4.638  2.1955 -0.1011 -0.7546
 4380SOL     OW24775   1.705   1.621  14.902 -0.1998 -0.9181  0.4809
 4380SOL    HW124776   1.775   1.679  14.870  0.7521 -1.5555  1.4143
 4380SOL    HW224777   1.675   1.657  14.985  1.0672  0.4678  0.3263
 4381SOL     OW24778   2.146   3.518   8.042 -1.1338 -0.3501  0.0215
 4381SOL    HW124779   2.136   3.609   8.071 -0.1589 -0.1298 -0.3333
 4381SOL    HW224780   2.239   3.505   8.022 -0.6896 -2.6339  3.5343
 4382SOL     OW24781   3.568   4.613   3.860 -0.2687 -0.1240 -0.2645
 4382SOL    HW124782   3.544   4.583   3.773  0.3582  0.9923 -0.8186
 4382SOL    HW224783   3.621   4.691   3.842 -0.9389  0.3158 -0.2890
 4383SOL     OW24784   1.572   4.497   9.602  0.1524  0.5985 -0.0304
 4383SOL    HW124785   1.540   4.412   9.570 -3.3213  0.5026  3.7948
 4383SOL    HW224786   1.576   4.566   9.536  3.5226  0.2179 -0.2507
 4384SOL     OW24787   0.091   3.152   2.090 -0.0134 -0.0868 -0.2454
 4384SOL    HW124788   4.734   3.170   2.096  0.0882  0.5609 -0.6298
 4384SOL    HW224789   0.097   3.178   1.998 -2.4184 -1.1370 -0.6971
 4385SOL     OW24790   2.441   1.467   0.139 -0.1050  0.0779 -0.1034
 4385SOL    HW124791   2.446   1.560   0.118 -1.5016 -0.0310 -0.8855
 4385SOL    HW224792   2.514   1.453   0.079  0.3174 -1.6955  0.8237
 4386SOL     OW24793   0.570   3.782   2.771 -0.1792  0.2011  0.1036
 4386SOL    HW124794   0.511   3.762   2.699 -0.1091  1.2929 -0.2523
 4386SOL    HW224795   0.518   3.748   2.844  0.9591 -0.2620  0.7090
 4387SOL     OW24796   3.495   4.512  10.071 -0.0393  0.3527  0.6043
 4387SOL    HW124797   3.564   4.518  10.137  0.9255  1.3459 -0.5008
 4387SOL    HW224798   3.429   4.462  10.120 -0.5060 -1.3632 -1.7890
 4388SOL     OW24799   1.370   0.120   8.406 -0.0187  0.1343 -0.5394
 4388SOL    HW124800   1.459   0.144   8.378 -0.3701  1.1359 -0.7803
 4388SOL    HW224801   1.332   0.207   8.419  2.7888  0.9932  2.0375
 4389SOL     OW24802   3.695   0.190   8.915 -0.6716  0.4483 -0.1738
 4389SOL    HW124803   3.694   0.285   8.907  0.7688  0.6953  2.7524
 4389SOL    HW224804   3.682   0.175   9.009 -0.8497  2.3341  0.1058
 4390SOL     OW24805   1.622   4.112   6.147  0.4443  0.2503 -0.3181
 4390SOL    HW124806   1.699   4.084   6.097 -0.7191  0.0839 -2.0095
 4390SOL    HW224807   1.557   4.086   6.082  0.5107 -0.2637 -0.1761
 4391SOL     OW24808   0.431   3.462   6.228 -0.2352 -0.0514  0.0725
 4391SOL    HW124809   0.460   3.510   6.150  1.2739  0.5820  1.0310
 4391SOL    HW224810   0.343   3.423   6.223 -1.6258  3.0627  0.0486
 4392SOL     OW24811   4.337   2.768   3.073 -0.3769 -0.3552  0.7014
 4392SOL    HW124812   4.378   2.759   3.159  3.7910  0.8321 -1.1577
 4392SOL    HW224813   4.377   2.694   3.028 -0.4213 -0.8138  1.4303
 4393SOL     OW24814   1.273   3.171   7.903 -0.2458  0.0393  0.2610
 4393SOL    HW124815   1.313   3.228   7.837  0.1078 -0.8714 -0.3034
 4393SOL    HW224816   1.346   3.122   7.941  0.1369  2.2826  2.4110
 4394SOL     OW24817   2.658   2.645   9.910  0.6010 -0.7943  0.1233
 4394SOL    HW124818   2.678   2.564   9.862  0.0215 -1.0171  0.2542
 4394SOL    HW224819   2.713   2.633   9.988 -0.0949 -0.4768  0.6609
 4395SOL     OW24820   0.035   3.639   5.875  0.2435  0.6850 -0.1301
 4395SOL    HW124821   0.013   3.546   5.872 -1.0542  0.9962 -0.1267
 4395SOL    HW224822   0.057   3.656   5.783 -0.5235 -0.2925 -0.4957
 4396SOL     OW24823   0.446   3.872   7.176  0.6803 -0.2807  0.5310
 4396SOL    HW124824   0.389   3.837   7.107 -0.6813 -0.5731  1.8018
 4396SOL    HW224825   0.420   3.964   7.170 -0.0825 -0.5634 -0.4796
 4397SOL     OW24826   3.215   3.857   3.048  0.0236  0.4235 -0.4212
 4397SOL    HW124827   3.240   3.924   3.111  0.1969 -0.5819  0.5716
 4397SOL    HW224828   3.273   3.789   3.083 -1.1452  0.8818  2.3918
 4398SOL     OW24829   1.922   2.786   2.302  0.2884 -0.2994 -0.3568
 4398SOL    HW124830   1.995   2.727   2.284  0.7055  0.6058 -1.6495
 4398SOL    HW224831   1.915   2.780   2.397 -0.2069 -1.4183 -0.4635
 4399SOL     OW24832   1.113   2.711   7.070 -0.1456 -0.2735  0.0029
 4399SOL    HW124833   1.105   2.800   7.104  0.1259  0.5021 -1.9360
 4399SOL    HW224834   1.047   2.658   7.116  0.7720 -0.4595  1.0937
 4400SOL     OW24835   3.099   4.636  14.066  0.2039  0.0443 -0.0273
 4400SOL    HW124836   3.169   4.645  14.132 -0.6599  1.5632  0.6686
 4400SOL    HW224837   3.134   4.561  14.018 -0.8164  1.8965 -3.6747
 4401SOL     OW24838   0.798   2.944  11.107 -0.3425 -0.0925  1.0498
 4401SOL    HW124839   0.848   3.023  11.087 -0.2667 -0.4783 -0.2995
 4401SOL    HW224840   0.869   2.886  11.131 -0.3860 -0.8428 -0.6672
 4402SOL     OW24841   3.174   1.044  15.330 -0.4966  0.3638 -0.1128
 4402SOL    HW124842   3.216   1.129  15.318 -1.7366  0.8603 -1.0497
 4402SOL    HW224843   3.226   0.983  15.277  0.7228  2.1083 -0.8906
 4403SOL     OW24844   0.741   2.981   5.057 -0.1471  0.1244 -0.4462
 4403SOL    HW124845   0.687   2.903   5.050 -2.5164  1.6155  1.4499
 4403SOL    HW224846   0.695   3.022   4.983  1.6608  1.6041 -0.7679
 4404SOL     OW24847   2.163   0.925  13.125  0.0590 -0.3061  0.2250
 4404SOL    HW124848   2.120   0.852  13.080 -1.8836  1.0807 -0.1320
 4404SOL    HW224849   2.122   1.002  13.086 -0.2734 -0.0253  1.1237
 4405SOL     OW24850   0.693   0.645   7.647 -0.0614 -0.0323 -0.2551
 4405SOL    HW124851   0.671   0.672   7.557  1.4770  1.0915 -0.3035
 4405SOL    HW224852   0.629   0.696   7.696  1.6974  1.6007  0.3568
 4406SOL     OW24853   0.877   2.203   2.784  0.6228 -0.0011  0.1070
 4406SOL    HW124854   0.959   2.250   2.800  1.1743 -1.3165  1.1104
 4406SOL    HW224855   0.822   2.257   2.841 -1.9716 -2.6832  0.1321
 4407SOL     OW24856   1.385   1.943   5.935  0.2320 -0.2225 -0.6656
 4407SOL    HW124857   1.296   1.953   5.902 -0.2859  0.3014  0.8873
 4407SOL    HW224858   1.427   1.876   5.881  3.0785  1.2264 -0.2537
 4408SOL     OW24859   1.997   4.010   2.694  0.2701 -0.0346  0.2712
 4408SOL    HW124860   1.988   3.958   2.614  1.1879  2.4645 -1.4681
 4408SOL    HW224861   1.910   4.003   2.731 -0.6756 -2.4711 -2.4511
 4409SOL     OW24862   0.732   1.432   2.730 -0.3791  0.2202 -0.0363
 4409SOL    HW124863   0.781   1.453   2.650  2.5688 -0.7444  1.5063
 4409SOL    HW224864   0.640   1.446   2.708 -0.5148 -1.1816 -0.3576
 4410SOL     OW24865   1.451   4.084  14.707  0.2591  0.4616 -0.6627
 4410SOL    HW124866   1.497   4.077  14.623  3.1202  0.6148  0.8580
 4410SOL    HW224867   1.438   4.178  14.713 -1.2169  0.1876  0.2434
 4411SOL     OW24868   1.035   3.235  10.757  0.2761 -0.0745  0.0700
 4411SOL    HW124869   0.963   3.279  10.712  0.9013  1.5865  0.6633
 4411SOL    HW224870   1.107   3.286  10.718 -0.6180  0.4398 -0.9107
 4412SOL     OW24871   2.479   0.771   4.014 -0.0051 -0.0979 -0.0954
 4412SOL    HW124872   2.485   0.676   4.016  2.5594  0.0720  0.2262
 4412SOL    HW224873   2.431   0.796   4.093  2.7395 -1.0779  1.8587
 4413SOL     OW24874   2.743   3.866   6.319 -0.2318  0.2019 -0.4323
 4413SOL    HW124875   2.758   3.959   6.301  0.1895 -0.3365 -2.9446
 4413SOL    HW224876   2.672   3.846   6.259 -0.4307 -3.0750  0.9023
 4414SOL     OW24877   0.078   2.622  10.254 -0.2421 -0.1734  0.3294
 4414SOL    HW124878   0.149   2.608  10.192 -0.9485 -0.3596 -0.4349
 4414SOL    HW224879   0.013   2.554  10.239  0.4496 -1.0201  1.1771
 4415SOL     OW24880   4.383   2.414  13.093 -0.1059  0.2070 -0.5929
 4415SOL    HW124881   4.392   2.461  13.175  0.1071 -2.0986  0.7101
 4415SOL    HW224882   4.399   2.327  13.128 -0.3773 -0.0873 -1.1914
 4416SOL     OW24883   0.129   4.305   2.267  0.8245 -0.0205  0.0135
 4416SOL    HW124884   0.169   4.355   2.195  0.9019 -0.3995 -0.2057
 4416SOL    HW224885   0.204   4.309   2.327 -0.0453 -0.6148  1.1287
 4417SOL     OW24886   2.144   1.906   2.866 -0.1779  0.3030  0.1525
 4417SOL    HW124887   2.072   1.861   2.911  0.3967 -1.7588 -0.9833
 4417SOL    HW224888   2.180   1.845   2.802 -0.3130  0.9410 -0.5204
 4418SOL     OW24889   4.602   3.950   6.926 -0.0546 -0.3951 -0.4459
 4418SOL    HW124890   4.651   3.980   6.849  2.5911  0.3836  1.5606
 4418SOL    HW224891   4.520   3.999   6.912  0.6415  0.7883 -0.4298
 4419SOL     OW24892   4.699   1.150   6.215  0.1224 -0.3192 -0.1340
 4419SOL    HW124893   4.617   1.171   6.260  0.6670 -0.5855  0.9926
 4419SOL    HW224894   4.679   1.068   6.170 -0.3607 -0.1422 -0.2386
 4420SOL     OW24895   4.204   2.815  15.809 -0.4749 -0.4146 -0.6330
 4420SOL    HW124896   4.148   2.760  15.754 -0.8065  0.3700 -1.0736
 4420SOL    HW224897   4.139   2.835  15.877 -1.6664 -1.9798 -1.2980
 4421SOL     OW24898   2.786   4.125  13.951  0.5515  0.2260  0.0931
 4421SOL    HW124899   2.797   4.178  13.872 -1.5730 -0.6132 -0.7880
 4421SOL    HW224900   2.694   4.102  13.934 -0.2336  3.3561  0.1520
 4422SOL     OW24901   1.642   3.666   8.780  0.5084 -0.5576  0.2079
 4422SOL    HW124902   1.576   3.702   8.720  0.6453  0.1429  0.4787
 4422SOL    HW224903   1.720   3.687   8.729  0.1544 -0.3582 -0.2568
 4423SOL     OW24904   2.433   1.545  16.175  0.2198 -0.2438  0.1126
 4423SOL    HW124905   2.465   1.629  16.208  3.2201 -1.3772  0.0469
 4423SOL    HW224906   2.346   1.548  16.216  0.4919  1.8321  0.5209
 4424SOL     OW24907   2.012   4.705   6.189 -0.1523  0.0472  0.2295
 4424SOL    HW124908   1.935   4.657   6.221 -0.4628 -0.5688 -1.4826
 4424SOL    HW224909   2.025   0.016   6.271  5.2071 -1.4179  0.2124
 4425SOL     OW24910   1.622   0.762   7.311 -0.0018 -0.0063  0.1203
 4425SOL    HW124911   1.547   0.722   7.356  0.0223 -0.7392 -0.4964
 4425SOL    HW224912   1.679   0.686   7.302  0.4986  0.4523 -0.5991
 4426SOL     OW24913   4.005   3.373   0.494 -0.3691 -0.8876  0.0424
 4426SOL    HW124914   4.053   3.343   0.416  0.4722 -1.9436  0.9632
 4426SOL    HW224915   4.057   3.450   0.516 -0.2819 -0.5524 -1.3109
 4427SOL     OW24916   2.024   3.765  14.635 -0.0379 -0.2766  0.6768
 4427SOL    HW124917   1.956   3.716  14.682 -1.8570  0.2780 -1.3679
 4427SOL    HW224918   2.056   3.810  14.713  1.7636 -0.3065 -0.0460
 4428SOL     OW24919   1.889   1.481  15.178  0.4641  0.1776 -0.0439
 4428SOL    HW124920   1.946   1.556  15.162  0.7401 -0.1297 -0.5234
 4428SOL    HW224921   1.893   1.457  15.085  2.4828 -2.5742  0.7145
 4429SOL     OW24922   2.393   3.037   7.958  0.0428  0.0679  0.3815
 4429SOL    HW124923   2.378   3.075   7.872  4.3463 -2.1377 -1.3219
 4429SOL    HW224924   2.370   3.116   8.008  0.6588  0.2852  0.3190
 4430SOL     OW24925   3.105   2.354  17.326 -0.3355 -0.1716 -0.1516
 4430SOL    HW124926   3.041   2.288  17.352  1.6048 -2.0417 -0.0766
 4430SOL    HW224927   3.161   2.305  17.265 -0.4793 -0.8717  0.2791
 4431SOL     OW24928   1.343   1.102  13.967  0.3882  0.4112  0.0842
 4431SOL    HW124929   1.363   1.041  13.896 -0.3031  0.9510 -0.5752
 4431SOL    HW224930   1.405   1.080  14.036  0.6847  0.9390 -0.0183
 4432SOL     OW24931   3.956   0.228   2.461 -0.0833  0.2576  0.2419
 4432SOL    HW124932   3.924   0.145   2.498 -1.5125  0.7611  0.1410
 4432SOL    HW224933   3.910   0.227   2.377  0.7398 -0.1691 -0.2078
 4433SOL     OW24934   3.095   1.738   5.069 -0.4270  0.1731  0.3026
 4433SOL    HW124935   3.045   1.731   5.150  0.6311 -1.9541  0.7673
 4433SOL    HW224936   3.148   1.817   5.081 -2.0633  1.4148 -0.6437
 4434SOL     OW24937   2.314   0.189   3.547 -0.1471 -0.2083 -0.0731
 4434SOL    HW124938   2.261   0.127   3.497 -0.6598 -0.3624  0.6569
 4434SOL    HW224939   2.396   0.144   3.569  0.0519  0.4497  0.5419
 4435SOL     OW24940   3.272   2.518   2.777 -0.1916 -0.1161 -0.1190
 4435SOL    HW124941   3.201   2.579   2.797  0.0912  0.6527 -1.4442
 4435SOL    HW224942   3.343   2.558   2.828  0.2405 -2.2911  0.9781
 4436SOL     OW24943   0.213   1.116   5.160  0.5254 -0.5405 -0.0220
 4436SOL    HW124944   0.148   1.158   5.216  0.8430 -2.6356  1.8980
 4436SOL    HW224945   0.157   1.103   5.084 -1.7266  0.8882  1.3938
 4437SOL     OW24946   2.832   3.800   2.468 -0.2454  0.2845  0.9019
 4437SOL    HW124947   2.850   3.859   2.396  0.8219  1.9266  2.5020
 4437SOL    HW224948   2.913   3.749   2.470 -0.0299  0.5478 -2.8261
 4438SOL     OW24949   1.815   3.060   6.754  0.4200 -0.2543 -0.3619
 4438SOL    HW124950   1.817   3.091   6.845  0.8623 -0.2745 -0.3656
 4438SOL    HW224951   1.736   3.094   6.712 -0.9640 -1.9493  0.8659
 4439SOL     OW24952   3.849   1.954   4.171 -0.7845  0.2905  0.4802
 4439SOL    HW124953   3.828   2.003   4.092  2.3712 -0.1856 -0.6616
 4439SOL    HW224954   3.909   1.889   4.135 -2.6907 -1.8745  1.2172
 4440SOL     OW24955   4.551   0.143   6.524 -0.4032 -0.5490  0.5193
 4440SOL    HW124956   4.489   0.081   6.484 -0.2159 -0.7766  0.5819
 4440SOL    HW224957   4.492   0.192   6.581  0.9559  1.4628  0.1581
 4441SOL     OW24958   4.080   3.089   9.240  0.4625  1.0431 -0.2075
 4441SOL    HW124959   4.175   3.081   9.228  0.0877 -0.0700 -2.3595
 4441SOL    HW224960   4.093   3.132   9.325 -1.3901  1.5345 -0.1846
 4442SOL     OW24961   4.585   0.043   9.196  0.0040 -0.2757  0.0729
 4442SOL    HW124962   4.651   0.111   9.182  1.0695 -1.2976  0.1894
 4442SOL    HW224963   4.510   0.092   9.163  0.4122  0.5772  0.4001
 4443SOL     OW24964   4.470   2.234  15.872  0.0870 -0.0368 -0.0100
 4443SOL    HW124965   4.456   2.163  15.934  2.2102 -0.0479  0.4447
 4443SOL    HW224966   4.460   2.183  15.791  0.5051 -0.2873  0.1002
 4444SOL     OW24967   0.975   0.726   7.213  0.0872 -0.0474 -0.3429
 4444SOL    HW124968   0.911   0.656   7.208  2.4706 -2.1438 -1.5494
 4444SOL    HW224969   1.027   0.698   7.288 -1.6190  0.6738  1.0882
 4445SOL     OW24970   2.650   1.995  12.018 -0.1707 -0.1410 -0.6219
 4445SOL    HW124971   2.618   2.033  12.101  1.2994  0.7796 -0.4825
 4445SOL    HW224972   2.616   1.906  12.013  0.0953 -0.3224  0.6822
 4446SOL     OW24973   2.005   2.325  15.042  0.5223 -0.1228  0.0978
 4446SOL    HW124974   1.997   2.361  14.954 -1.9668 -0.6249  0.1194
 4446SOL    HW224975   1.940   2.379  15.088  0.1873  0.1423 -0.6896
 4447SOL     OW24976   1.838   0.816   8.270  0.2728  0.1699  0.1195
 4447SOL    HW124977   1.792   0.823   8.186 -1.8603 -0.5354  1.2241
 4447SOL    HW224978   1.866   0.907   8.282  1.8043 -0.3593  0.5094
 4448SOL     OW24979   1.494   2.705  16.530  0.0208 -0.6266 -0.0181
 4448SOL    HW124980   1.546   2.766  16.478  1.5797 -2.8720 -1.0705
 4448SOL    HW224981   1.554   2.697  16.604 -1.9228  3.0424  1.9805
 4449SOL     OW24982   1.194   3.585   7.375  0.1765  0.1520 -0.1925
 4449SOL    HW124983   1.114   3.635   7.387 -0.5837 -0.9259 -0.7841
 4449SOL    HW224984   1.157   3.507   7.333  0.3957  0.0248 -0.1520
 4450SOL     OW24985   3.542   3.681  13.091 -0.9351  0.2566  0.0841
 4450SOL    HW124986   3.495   3.765  13.090 -1.4422 -0.0238 -0.0681
 4450SOL    HW224987   3.473   3.616  13.078 -0.3373 -0.2115 -0.7735
 4451SOL     OW24988   2.278   3.988   4.314  0.1379 -0.2382 -0.2482
 4451SOL    HW124989   2.351   3.926   4.310 -2.1938 -2.9437 -1.0842
 4451SOL    HW224990   2.323   4.056   4.364  0.8261 -2.4842  2.2067
 4452SOL     OW24991   4.629   1.186   0.107 -0.0949  0.0453 -0.1843
 4452SOL    HW124992   4.663   1.272   0.130 -0.2744 -0.1678  0.8884
 4452SOL    HW224993   4.596   1.159   0.193 -0.0287  0.3970 -0.0489
 4453SOL     OW24994   3.567   0.171   3.343 -0.5454  0.1920 -0.2330
 4453SOL    HW124995   3.479   0.146   3.316 -0.8436 -1.9656  2.7385
 4453SOL    HW224996   3.598   0.080   3.342 -1.6833 -0.1846 -1.7300
 4454SOL     OW24997   2.273   3.658   7.091  0.4649 -0.7343 -0.0890
 4454SOL    HW124998   2.289   3.652   6.997  0.9720 -1.3027  0.0387
 4454SOL    HW224999   2.177   3.660   7.088  0.5811  2.1101 -0.9431
 4455SOL     OW25000   2.038   2.239   7.267  0.3652 -0.3006  0.1773
 4455SOL    HW125001   2.077   2.156   7.293  0.4932  0.6008  2.8889
 4455SOL    HW225002   2.104   2.279   7.211 -0.3436 -0.0142 -0.4616
 4456SOL     OW25003   3.764   2.545   8.962  0.7647 -0.5822 -0.0813
 4456SOL    HW125004   3.689   2.524   9.017  1.4334 -2.7903  0.0056
 4456SOL    HW225005   3.827   2.482   8.998  2.3136  0.8619 -0.2644
 4457SOL     OW25006   2.469   4.246   1.444 -0.8775  0.1867  0.4340
 4457SOL    HW125007   2.533   4.316   1.460 -0.4542 -0.2699  0.7220
 4457SOL    HW225008   2.399   4.296   1.402 -0.1983  1.6053  0.9706
 4458SOL     OW25009   2.286   3.662   4.644  0.1865 -0.1674 -0.2340
 4458SOL    HW125010   2.274   3.574   4.680 -1.0797 -0.4300 -1.2861
 4458SOL    HW225011   2.213   3.660   4.582 -0.4217  2.0438  0.4099
 4459SOL     OW25012   3.286   4.594   2.858 -0.0282 -0.2301 -0.2087
 4459SOL    HW125013   3.265   4.501   2.852  1.0284 -0.2022 -4.1420
 4459SOL    HW225014   3.251   4.616   2.944 -1.1619  2.0653 -1.2477
 4460SOL     OW25015   3.902   3.737   6.256  0.5296  0.0789 -0.7870
 4460SOL    HW125016   3.885   3.645   6.276  2.5590 -0.6173 -2.2939
 4460SOL    HW225017   3.995   3.727   6.277  0.4490 -0.6720 -0.7883
 4461SOL     OW25018   1.458   2.609  17.307 -0.1374  0.2048  0.0405
 4461SOL    HW125019   1.398   2.665  17.258  0.7644 -0.3450 -1.6933
 4461SOL    HW225020   1.546   2.627  17.272  0.2642 -1.9888 -0.0563
 4462SOL     OW25021   3.273   3.248   5.435 -0.2317 -0.1836  0.3920
 4462SOL    HW125022   3.345   3.185   5.444 -1.6347 -2.0459 -1.4530
 4462SOL    HW225023   3.253   3.243   5.342  0.8324 -0.1097  0.1571
 4463SOL     OW25024   2.268   2.644   5.584  0.2561 -0.3115  0.3506
 4463SOL    HW125025   2.284   2.731   5.621  0.2800 -0.4340  0.6311
 4463SOL    HW225026   2.355   2.606   5.591 -0.3200 -1.2920  2.0434
 4464SOL     OW25027   3.431   3.134   3.848  0.0244 -0.3088 -0.3546
 4464SOL    HW125028   3.352   3.135   3.794 -1.7013  0.1500  2.1545
 4464SOL    HW225029   3.409   3.050   3.888  1.7353 -1.0849 -1.0538
 4465SOL     OW25030   4.132   4.220   8.262 -0.1405  0.0998  0.0648
 4465SOL    HW125031   4.091   4.292   8.310 -1.1367  0.3870 -1.2169
 4465SOL    HW225032   4.207   4.263   8.222  0.8105 -1.0001  0.6841
 4466SOL     OW25033   2.786   3.964   1.283  0.9889 -0.3066 -0.1817
 4466SOL    HW125034   2.860   3.991   1.229  2.1816 -0.8376  1.2121
 4466SOL    HW225035   2.726   4.037   1.266 -0.7833 -1.9559 -0.9654
 4467SOL     OW25036   0.720   3.798  16.250 -0.3325 -0.0769  0.2674
 4467SOL    HW125037   0.643   3.821  16.198  3.2845  1.6336 -4.3854
 4467SOL    HW225038   0.684   3.815  16.338  1.0635  0.3357  0.7523
 4468SOL     OW25039   2.724   4.418   0.790 -0.1510  0.1531  0.2686
 4468SOL    HW125040   2.715   4.349   0.856  3.1507  1.3696  2.0336
 4468SOL    HW225041   2.747   4.368   0.712  0.3915  2.8489 -1.3249
 4469SOL     OW25042   3.669   3.639   8.174  0.0029  0.1609 -0.0914
 4469SOL    HW125043   3.642   3.644   8.083  0.3424  0.0997 -0.1937
 4469SOL    HW225044   3.705   3.728   8.180  1.3221 -0.2944 -1.3540
 4470SOL     OW25045   0.416   2.953   1.221  0.0870  0.0447 -0.0509
 4470SOL    HW125046   0.473   3.007   1.166  1.1453 -1.5722 -0.5326
 4470SOL    HW225047   0.471   2.935   1.297 -0.5075 -0.7599  0.1839
 4471SOL     OW25048   3.773   2.426   8.228 -0.2746 -0.1417 -0.1064
 4471SOL    HW125049   3.731   2.511   8.210 -0.9388 -0.8323 -1.8154
 4471SOL    HW225050   3.753   2.427   8.322  0.0034 -0.5615 -0.0481
 4472SOL     OW25051   4.389   4.173  17.143 -0.1072  0.1396  0.2013
 4472SOL    HW125052   4.339   4.197  17.066 -1.0381  0.0958  0.7925
 4472SOL    HW225053   4.477   4.175  17.105 -0.1497 -1.1006  0.0529
 4473SOL     OW25054   4.059   4.399   0.555  0.5949 -0.3058 -0.0733
 4473SOL    HW125055   4.032   4.329   0.615  4.2699 -1.5389  0.1319
 4473SOL    HW225056   3.996   4.395   0.483 -1.1689 -1.0429  1.5161
 4474SOL     OW25057   3.065   1.818   8.006  0.3300 -0.4561  0.1364
 4474SOL    HW125058   3.133   1.752   8.020 -0.6921 -1.4505  0.3381
 4474SOL    HW225059   3.117   1.892   7.974  0.6512 -0.5870  0.3495
 4475SOL     OW25060   2.859   1.121   1.587 -0.4064 -0.4042 -1.0571
 4475SOL    HW125061   2.868   1.216   1.578  2.0912 -0.3762  1.7709
 4475SOL    HW225062   2.765   1.112   1.604 -0.3127  0.5126 -0.0588
 4476SOL     OW25063   2.675   0.848  15.083 -1.0849 -0.2166  0.2714
 4476SOL    HW125064   2.597   0.862  15.030 -1.1245 -0.1870  0.3371
 4476SOL    HW225065   2.641   0.823  15.169 -0.1843  0.6698  0.8890
 4477SOL     OW25066   1.764   2.883   7.954  0.5728  0.3800  0.0680
 4477SOL    HW125067   1.709   2.933   7.893 -0.6029  1.1206  1.7531
 4477SOL    HW225068   1.708   2.859   8.027  1.1036  0.3044  0.4507
 4478SOL     OW25069   4.321   3.172   3.813 -0.1755  0.0530  0.1962
 4478SOL    HW125070   4.344   3.116   3.739 -2.9943  0.6111 -1.1190
 4478SOL    HW225071   4.273   3.245   3.774  2.1112  1.2376 -0.3776
 4479SOL     OW25072   2.489   0.201  10.951  0.0393 -0.0739 -0.3063
 4479SOL    HW125073   2.444   0.182  10.869  2.2102 -1.2540 -1.2332
 4479SOL    HW225074   2.450   0.134  11.008  2.7255  0.3467  2.0305
 4480SOL     OW25075   2.100   1.734   2.051  0.0483 -0.0205 -0.0081
 4480SOL    HW125076   2.094   1.649   2.008 -0.2277 -0.4870  0.9630
 4480SOL    HW225077   2.014   1.766   2.023  0.7483  0.6220 -1.3890
 4481SOL     OW25078   4.465   3.873   4.606  0.5996 -0.1600 -0.1217
 4481SOL    HW125079   4.408   3.949   4.614  2.5940  1.3781 -0.7614
 4481SOL    HW225080   4.399   3.805   4.589 -0.5754  0.9433  0.0282
 4482SOL     OW25081   3.445   2.443   4.590  0.3943 -0.4661  0.1969
 4482SOL    HW125082   3.389   2.406   4.659  0.7472  0.6102  1.0611
 4482SOL    HW225083   3.427   2.389   4.513  0.8505  0.6740 -0.7122
 4483SOL     OW25084   0.728   0.992   7.042 -0.0653  0.1434 -0.4958
 4483SOL    HW125085   0.792   0.930   7.006 -2.1661 -1.9682 -0.5888
 4483SOL    HW225086   0.782   1.068   7.063 -2.0515  1.6355 -0.7850
 4484SOL     OW25087   1.037   4.634   4.244  0.3133 -1.0946  0.2520
 4484SOL    HW125088   1.069   4.546   4.260 -0.8464 -1.7362 -0.9250
 4484SOL    HW225089   0.982   4.664   4.317 -1.1311 -1.2821 -0.7420
 4485SOL     OW25090   0.687   0.648   6.871  0.9152  0.5058  0.5868
 4485SOL    HW125091   0.776   0.641   6.904  1.3579 -2.2304 -1.1204
 4485SOL    HW225092   0.693   0.589   6.795  1.4141 -0.2081  1.1770
 4486SOL     OW25093   2.236   3.418   4.750  0.1201  0.9440  0.0861
 4486SOL    HW125094   2.196   3.368   4.822  1.8768  0.2994  0.6244
 4486SOL    HW225095   2.306   3.356   4.726 -0.4187  0.0028  0.9252
 4487SOL     OW25096   1.911   4.533   3.976  0.3463  0.1436  0.5346
 4487SOL    HW125097   1.906   4.454   4.030 -0.3542 -0.7248 -0.7892
 4487SOL    HW225098   1.879   4.604   4.032  1.3499  1.5081 -0.6180
 4488SOL     OW25099   0.981   2.431   8.647  0.7291 -0.4321 -0.1766
 4488SOL    HW125100   0.964   2.340   8.622  1.0710 -0.1350 -1.5098
 4488SOL    HW225101   0.893   2.467   8.653  0.2983 -1.5514  0.3775
 4489SOL     OW25102   1.511   1.434   6.942 -0.0912  0.3927  0.4033
 4489SOL    HW125103   1.589   1.393   6.906 -0.9948 -1.9409  1.1201
 4489SOL    HW225104   1.445   1.407   6.877  0.0766 -1.5463  1.0441
 4490SOL     OW25105   2.693   1.119   6.310 -0.0302 -0.2995  0.1000
 4490SOL    HW125106   2.620   1.066   6.277 -1.1147 -0.6385  3.0109
 4490SOL    HW225107   2.728   1.156   6.230  2.7287 -1.6763  0.6588
 4491SOL     OW25108   2.955   2.258   2.558  0.4155 -0.2989  0.6016
 4491SOL    HW125109   2.942   2.171   2.520 -3.6395  0.0315  1.2046
 4491SOL    HW225110   2.926   2.240   2.647  1.5337  1.5647  1.3499
 4492SOL     OW25111   0.753   2.549   5.837  0.2669  0.5843  0.2709
 4492SOL    HW125112   0.733   2.559   5.744 -0.7119  2.3999  0.6842
 4492SOL    HW225113   0.666   2.563   5.875  0.2113 -1.2165  0.7964
 4493SOL     OW25114   2.122   1.204   4.292 -0.1632 -0.6788  0.3345
 4493SOL    HW125115   2.201   1.152   4.305  0.1215 -0.4999 -0.6700
 4493SOL    HW225116   2.155   1.259   4.221  0.6997 -2.4854 -0.6657
 4494SOL     OW25117   0.443   1.350  17.083 -0.2833  0.4026  0.0715
 4494SOL    HW125118   0.526   1.361  17.129 -0.4804  0.0294  0.5248
 4494SOL    HW225119   0.433   1.255  17.082 -1.5704  0.5780 -3.2475
 4495SOL     OW25120   3.240   2.839   3.090  0.1230  0.0119 -0.1067
 4495SOL    HW125121   3.326   2.798   3.075 -0.4972 -1.5099  0.4989
 4495SOL    HW225122   3.254   2.931   3.067  2.1446  0.0039  1.0264
 4496SOL     OW25123   4.599   1.524   3.836 -0.1345  0.1581  0.0311
 4496SOL    HW125124   4.611   1.546   3.743 -0.9668 -2.0028 -0.5727
 4496SOL    HW225125   4.508   1.494   3.834 -0.0575 -0.1623  1.7348
 4497SOL     OW25126   3.006   3.207  16.575 -0.3234 -0.0670 -0.1602
 4497SOL    HW125127   3.086   3.155  16.573 -1.0205 -1.2101  1.0725
 4497SOL    HW225128   2.963   3.138  16.626  1.4673 -0.5213  0.7478
 4498SOL     OW25129   4.070   1.164  11.863 -0.2117  0.2656  0.1119
 4498SOL    HW125130   4.017   1.108  11.806  0.3224 -0.4527  0.3300
 4498SOL    HW225131   4.140   1.105  11.890 -1.0889  0.9699  3.9134
 4499SOL     OW25132   1.531   0.381  15.484 -0.8726  0.0137 -0.5650
 4499SOL    HW125133   1.517   0.471  15.455 -0.0143  1.2312  2.7702
 4499SOL    HW225134   1.550   0.392  15.577  0.4250 -2.4081 -0.5598
 4500SOL     OW25135   1.825   2.598  11.564 -0.0123  0.0415  0.2789
 4500SOL    HW125136   1.803   2.519  11.614 -1.4505 -0.3044 -0.9189
 4500SOL    HW225137   1.901   2.566  11.516 -1.8160 -1.0090 -1.8980
 4501SOL     OW25138   4.177   3.881   1.189 -0.3573  0.6106  0.5814
 4501SOL    HW125139   4.193   3.969   1.154  0.5026  0.7250  1.2500
 4501SOL    HW225140   4.111   3.903   1.254  0.3082  1.2140  1.0651
 4502SOL     OW25141   2.822   0.736   4.081 -0.2082  0.6279  0.3360
 4502SOL    HW125142   2.742   0.785   4.060  0.9015  1.1450 -2.6747
 4502SOL    HW225143   2.784   0.667   4.136  0.3051 -0.0637 -0.1806
 4503SOL     OW25144   3.281   0.574  16.726  0.5433  0.0508 -0.1432
 4503SOL    HW125145   3.328   0.572  16.642  1.2667  1.7813  0.2167
 4503SOL    HW225146   3.358   0.587  16.782 -0.6758  1.1018  1.3020
 4504SOL     OW25147   2.695   1.481  16.002 -0.2076  0.8222  0.3400
 4504SOL    HW125148   2.773   1.425  15.990  1.1823  2.8843 -0.2788
 4504SOL    HW225149   2.726   1.559  16.048  0.0013 -0.1354  1.8263
 4505SOL     OW25150   2.504   1.107   2.506 -0.0966  0.1598 -0.1812
 4505SOL    HW125151   2.520   1.160   2.584  1.0742 -1.2937  0.5704
 4505SOL    HW225152   2.530   1.174   2.443 -1.8749  0.7769 -0.2560
 4506SOL     OW25153   0.821   3.979   7.978 -0.0396  0.2654 -0.0755
 4506SOL    HW125154   0.746   4.002   7.923 -1.1911 -2.7029  0.2665
 4506SOL    HW225155   0.776   3.904   8.016 -0.3864  0.5018 -0.0186
 4507SOL     OW25156   3.920   2.838   1.008 -0.0587  0.0035 -0.2433
 4507SOL    HW125157   3.926   2.930   1.032 -0.4987  0.4375 -1.8172
 4507SOL    HW225158   3.892   2.851   0.918 -1.9175  1.3215  0.5368
 4508SOL     OW25159   3.836   4.284   5.543 -0.1601  0.3023 -0.2539
 4508SOL    HW125160   3.822   4.378   5.540  0.4077  0.3585 -1.3033
 4508SOL    HW225161   3.748   4.252   5.526 -2.0308  3.6203  3.3234
 4509SOL     OW25162   2.755   0.145  11.771 -0.3786  0.4247 -0.1972
 4509SOL    HW125163   2.817   0.087  11.727 -0.4525 -0.0148  0.2729
 4509SOL    HW225164   2.697   0.175  11.701  0.7942  0.5401 -1.1231
 4510SOL     OW25165   3.481   0.679   2.838 -0.4108 -0.6859  0.4386
 4510SOL    HW125166   3.564   0.671   2.790 -1.3348 -0.1430 -1.2762
 4510SOL    HW225167   3.429   0.601   2.821  1.0487 -1.6208  0.2371
 4511SOL     OW25168   0.909   1.726   4.652  0.5675  0.2753  0.1248
 4511SOL    HW125169   0.898   1.633   4.631  2.0817 -0.1495  1.2035
 4511SOL    HW225170   1.003   1.729   4.667  1.1888  1.2863 -4.0800
 4512SOL     OW25171   3.413   1.604   8.651 -0.0687 -0.2625 -0.8605
 4512SOL    HW125172   3.438   1.514   8.628  0.2782  0.8596 -4.9179
 4512SOL    HW225173   3.477   1.634   8.586 -0.6191 -1.2195 -1.8482
 4513SOL     OW25174   0.588   1.206   7.430  0.3427  0.0782 -0.4100
 4513SOL    HW125175   0.624   1.294   7.423  0.3357  0.1339  0.2296
 4513SOL    HW225176   0.493   1.215   7.425  0.2214 -1.0740 -0.3054
 4514SOL     OW25177   0.112   2.074  16.571 -0.4993  0.2137 -0.2183
 4514SOL    HW125178   0.077   2.122  16.496 -2.3233  1.0284  1.1368
 4514SOL    HW225179   0.130   2.141  16.638  1.2930 -0.5494  0.0514
 4515SOL     OW25180   1.999   3.129   8.671  0.2160  0.7020 -0.2597
 4515SOL    HW125181   1.964   3.105   8.585 -2.8365  1.6690  0.6968
 4515SOL    HW225182   1.931   3.084   8.721 -0.9868  2.4366 -0.3027
 4516SOL     OW25183   0.889   1.880   3.926  0.6753 -0.8517  0.0133
 4516SOL    HW125184   0.936   1.799   3.948  2.7808 -0.5121 -3.2969
 4516SOL    HW225185   0.829   1.887   4.000 -0.3864 -4.2910 -0.5065
 4517SOL     OW25186   2.193   3.192   4.024  0.3613  0.2520 -0.2256
 4517SOL    HW125187   2.204   3.256   4.094  0.0555  0.4834 -0.3924
 4517SOL    HW225188   2.284   3.171   4.001  0.0634 -2.0795  0.6330
 4518SOL     OW25189   3.520   0.491   9.556 -0.5092 -0.7364 -0.3979
 4518SOL    HW125190   3.560   0.577   9.573  0.4874 -0.9176 -1.7676
 4518SOL    HW225191   3.451   0.512   9.493 -1.1892  0.5069  0.7662
 4519SOL     OW25192   2.363   1.202  10.787  0.6328  0.0006  0.0638
 4519SOL    HW125193   2.412   1.132  10.744 -0.3760 -0.6800  0.0044
 4519SOL    HW225194   2.392   1.178  10.875  2.5858 -0.0415 -0.6002
 4520SOL     OW25195   2.234   4.154   8.441  0.1634  0.0548  0.2500
 4520SOL    HW125196   2.237   4.231   8.499  0.0095 -1.1052  1.7988
 4520SOL    HW225197   2.234   4.083   8.505 -2.0656 -0.0737  0.1061
 4521SOL     OW25198   0.723   0.150   3.408 -0.2987  0.0062  0.3078
 4521SOL    HW125199   0.682   0.223   3.363  0.2044  0.6018  0.8248
 4521SOL    HW225200   0.735   0.100   3.327 -0.2460 -1.9721  1.5212
 4522SOL     OW25201   0.215   1.812   1.529  0.0103  0.2404  0.2003
 4522SOL    HW125202   0.250   1.764   1.604  1.9033  0.8241 -0.3166
 4522SOL    HW225203   0.207   1.897   1.571 -1.1792 -0.5574  1.5736
 4523SOL     OW25204   0.784   1.825  10.448 -0.0346  0.0194 -0.0853
 4523SOL    HW125205   0.858   1.863  10.494  1.5293 -2.4136 -0.5993
 4523SOL    HW225206   0.712   1.815  10.511 -1.9358 -1.2328 -2.4423
 4524SOL     OW25207   2.210   2.610   8.431  0.1964  0.6571 -0.4857
 4524SOL    HW125208   2.201   2.538   8.370  2.7897 -0.6032  0.5971
 4524SOL    HW225209   2.301   2.638   8.420  0.2079  0.6859 -0.3279
 4525SOL     OW25210   3.801   3.377  14.215 -0.0446  0.6687 -0.1848
 4525SOL    HW125211   3.733   3.346  14.274  0.5212 -1.9286 -0.9077
 4525SOL    HW225212   3.872   3.400  14.275 -0.3318  0.8486  0.0765
 4526SOL     OW25213   1.102   3.430  17.304 -0.8424 -0.5641  0.7555
 4526SOL    HW125214   1.093   3.433  17.399  2.3273  0.3606  1.0195
 4526SOL    HW225215   1.080   3.522  17.292 -2.7942 -0.9948  1.1125
 4527SOL     OW25216   3.081   1.652   6.705 -0.2620 -0.5687  0.2109
 4527SOL    HW125217   3.014   1.709   6.743 -0.7364 -0.6105 -0.5564
 4527SOL    HW225218   3.101   1.601   6.783 -1.0730 -1.2258 -0.0151
 4528SOL     OW25219   3.134   0.564   6.290 -0.3467  0.5909 -0.4036
 4528SOL    HW125220   3.100   0.602   6.372 -2.9738 -1.3299 -0.6019
 4528SOL    HW225221   3.227   0.586   6.288  0.0021 -0.8819  0.0793
 4529SOL     OW25222   0.661   0.618   6.264  0.2003  0.6986 -0.1688
 4529SOL    HW125223   0.607   0.541   6.277 -0.6717  1.1629 -1.0738
 4529SOL    HW225224   0.590   0.673   6.232 -0.1474 -0.3381 -1.1739
 4530SOL     OW25225   1.241   2.770   4.172  0.2152 -0.0022 -0.5470
 4530SOL    HW125226   1.158   2.726   4.154  0.0570  0.4482 -0.9347
 4530SOL    HW225227   1.293   2.693   4.195 -1.2487 -1.5598 -2.4586
 4531SOL     OW25228   0.756   0.450   4.818 -0.0905 -0.6542 -0.3593
 4531SOL    HW125229   0.833   0.457   4.761  2.3686  0.4042  3.0823
 4531SOL    HW225230   0.782   0.374   4.870  0.3358 -1.0937 -1.2054
 4532SOL     OW25231   2.101   2.181   7.797  0.0517  0.1383 -0.1503
 4532SOL    HW125232   2.148   2.262   7.774 -2.2968  2.0413  1.7384
 4532SOL    HW225233   2.174   2.121   7.780  1.2734  1.7880 -0.7759
 4533SOL     OW25234   0.778   0.439  10.019 -0.0863 -0.0020 -0.3121
 4533SOL    HW125235   0.812   0.444  10.108 -0.5974 -1.8641 -0.0116
 4533SOL    HW225236   0.780   0.533  10.001  1.9752  0.1641  0.7210
 4534SOL     OW25237   3.622   3.728   8.929 -0.6817  0.2827 -0.1641
 4534SOL    HW125238   3.562   3.792   8.967  0.3127  0.3769  1.2483
 4534SOL    HW225239   3.643   3.662   8.994 -1.7666  0.8345  0.7336
 4535SOL     OW25240   1.647   1.461  11.356  0.0441  0.5259 -0.2688
 4535SOL    HW125241   1.660   1.513  11.436 -0.5860 -0.9321  0.7934
 4535SOL    HW225242   1.573   1.404  11.380  1.7324 -1.0731  1.2377
 4536SOL     OW25243   4.364   2.050  17.617 -0.3746  0.4115  0.3190
 4536SOL    HW125244   4.390   2.142  17.629  3.3952 -0.7606  1.1400
 4536SOL    HW225245   4.453   2.015  17.619 -0.1823  0.8397 -0.5055
 4537SOL     OW25246   3.832   0.973   2.421 -0.1341  0.4489 -0.5436
 4537SOL    HW125247   3.789   1.055   2.396  2.6940  2.3988  0.9417
 4537SOL    HW225248   3.890   0.998   2.493 -0.2267 -0.2444 -0.2337
 4538SOL     OW25249   0.920   0.381   7.975 -0.5338 -0.0370  0.2944
 4538SOL    HW125250   0.876   0.317   8.031  0.4580 -2.4720 -1.7052
 4538SOL    HW225251   0.936   0.453   8.036 -1.3883 -0.1925  0.7060
 4539SOL     OW25252   0.359   2.535   0.618  0.0291 -0.5726  0.2294
 4539SOL    HW125253   0.345   2.440   0.623 -2.0948 -0.2745 -0.1604
 4539SOL    HW225254   0.427   2.535   0.551  1.3243 -0.1909  1.5414
 4540SOL     OW25255   0.587   2.951  14.030 -0.0951 -0.0597 -0.0374
 4540SOL    HW125256   0.510   2.897  14.010  0.8664 -1.8350  1.0623
 4540SOL    HW225257   0.644   2.903  14.089 -0.1588  1.4937  1.2689
 4541SOL     OW25258   2.093   1.102  16.725 -0.2778 -0.4705 -0.4662
 4541SOL    HW125259   2.093   1.198  16.723  0.7423 -0.4276  1.6978
 4541SOL    HW225260   2.040   1.072  16.651 -0.5057 -1.5180  0.1230
 4542SOL     OW25261   1.550   1.804   6.506 -0.3037 -0.5146 -0.0860
 4542SOL    HW125262   1.622   1.767   6.456  0.8898  0.2085  1.0785
 4542SOL    HW225263   1.534   1.735   6.571  2.6410  0.0053  1.2016
 4543SOL     OW25264   4.564   3.334   9.728  0.4201 -0.2071 -0.5725
 4543SOL    HW125265   4.518   3.266   9.778  0.4743 -1.0505 -1.6769
 4543SOL    HW225266   4.643   3.345   9.780 -0.2162  0.0841  0.3254
 4544SOL     OW25267   2.500   4.347   3.961 -0.6020  0.1882  0.2393
 4544SOL    HW125268   2.511   4.301   4.044  0.7157 -0.3767 -0.2498
 4544SOL    HW225269   2.409   4.367   3.981  0.2586  5.3990 -0.9006
 4545SOL     OW25270   1.379   3.213  10.784 -0.6682  1.0849  0.0630
 4545SOL    HW125271   1.356   3.215  10.877  4.6302  1.1030  1.3702
 4545SOL    HW225272   1.371   3.119  10.768 -0.6653  1.3319 -1.3968
 4546SOL     OW25273   4.631   3.742   0.445  0.0506 -0.8562 -0.3068
 4546SOL    HW125274   4.687   3.720   0.370 -0.4858 -0.8914 -0.6953
 4546SOL    HW225275   4.556   3.683   0.435  1.4264 -2.6725  0.0957
 4547SOL     OW25276   2.106   0.171   8.078 -0.0879  0.1177 -0.2933
 4547SOL    HW125277   2.147   0.237   8.022  1.3687 -1.8548 -1.5465
 4547SOL    HW225278   2.028   0.156   8.026 -1.4676  0.2613  1.7245
 4548SOL     OW25279   4.398   3.195  15.130 -0.0773  0.2534 -0.4098
 4548SOL    HW125280   4.447   3.122  15.093  0.7536  0.4391  0.2986
 4548SOL    HW225281   4.330   3.148  15.178  1.3607 -0.4961  0.9190
 4549SOL     OW25282   0.501   0.819   4.287 -0.6577 -0.4577 -0.1588
 4549SOL    HW125283   0.436   0.808   4.356  1.7490 -1.2072  2.0142
 4549SOL    HW225284   0.452   0.786   4.212 -0.1007  0.7658 -1.0603
 4550SOL     OW25285   1.789   0.028  12.373 -0.0366  0.1992 -0.1452
 4550SOL    HW125286   1.712   0.080  12.395  0.7119  0.8819  0.8547
 4550SOL    HW225287   1.849   0.089  12.329 -0.2101  0.2850 -0.2630
 4551SOL     OW25288   4.550   3.557   2.255  0.3123 -0.4334  0.7037
 4551SOL    HW125289   4.553   3.641   2.301 -0.4637 -0.9686  1.7179
 4551SOL    HW225290   4.490   3.575   2.183  1.9263 -0.2494 -0.6098
 4552SOL     OW25291   0.496   3.813   3.450  0.2464  0.1732 -0.0898
 4552SOL    HW125292   0.499   3.897   3.496  0.5962 -1.0104  2.0546
 4552SOL    HW225293   0.418   3.771   3.488 -0.1068  2.4782  1.7569
 4553SOL     OW25294   1.493   4.617   5.757 -0.3941  0.5011  0.0324
 4553SOL    HW125295   1.515   4.689   5.815 -2.1669  0.4149  0.8026
 4553SOL    HW225296   1.497   4.544   5.819 -0.3555  0.0949 -0.4482
 4554SOL     OW25297   2.509   2.835   9.789 -0.4043 -0.1028 -0.2560
 4554SOL    HW125298   2.425   2.796   9.769 -0.1156  0.1284 -1.9346
 4554SOL    HW225299   2.566   2.770   9.830 -0.0251 -0.7936 -1.8775
 4555SOL     OW25300   3.573   4.124   9.045  1.0050  0.3914  0.5638
 4555SOL    HW125301   3.562   4.174   9.125  0.5471  0.8814  0.2009
 4555SOL    HW225302   3.658   4.150   9.011  1.0962  0.7055  1.0330
 4556SOL     OW25303   1.275   0.078   4.694 -0.3411  0.3025 -0.2812
 4556SOL    HW125304   1.281   0.103   4.786  1.3016  1.4033 -0.7041
 4556SOL    HW225305   1.290   0.161   4.650  1.3428  0.0843 -0.1183
 4557SOL     OW25306   1.789   4.288   2.766 -0.3575  0.1977 -0.0756
 4557SOL    HW125307   1.722   4.282   2.834 -0.7904  2.1749 -0.3459
 4557SOL    HW225308   1.803   4.195   2.746  0.2779  0.1521  0.5913
 4558SOL     OW25309   1.489   3.764   4.594  0.2264  0.3806  0.9136
 4558SOL    HW125310   1.430   3.712   4.649  1.8165 -0.9065  1.4061
 4558SOL    HW225311   1.473   3.719   4.512  2.9339  0.3768  0.3748
 4559SOL     OW25312   1.777   3.445   9.525 -0.6076  0.5997  0.4103
 4559SOL    HW125313   1.728   3.386   9.582  1.9071 -2.7719 -0.9036
 4559SOL    HW225314   1.866   3.453   9.559  0.3276  0.0820 -1.8856
 4560SOL     OW25315   4.619   3.158   8.943 -0.1004 -0.0325 -0.0031
 4560SOL    HW125316   4.603   3.180   9.034  0.4118  0.9306 -0.1498
 4560SOL    HW225317   4.685   3.088   8.947  3.0955  2.9790 -0.4865
 4561SOL     OW25318   1.868   0.142  16.995  0.6580  0.0439 -0.0218
 4561SOL    HW125319   1.854   0.237  17.002 -1.9306 -0.5456  3.0722
 4561SOL    HW225320   1.941   0.130  17.055  0.8685  0.4127 -0.2039
 4562SOL     OW25321   1.194   2.633   2.585 -0.5157  0.9541 -0.5966
 4562SOL    HW125322   1.260   2.568   2.559 -2.0845 -0.2183 -1.6722
 4562SOL    HW225323   1.149   2.652   2.503 -2.0900 -1.1823 -0.2267
 4563SOL     OW25324   3.372   4.647  11.548 -0.1737  0.0070  0.3740
 4563SOL    HW125325   3.444   4.607  11.597 -0.4216  0.3021  0.9757
 4563SOL    HW225326   3.356   4.716  11.612  2.5951  1.6031 -0.6673
 4564SOL     OW25327   4.558   2.482   5.518  0.0040  0.9037 -0.6938
 4564SOL    HW125328   4.645   2.510   5.546  1.0849 -1.2384 -1.9631
 4564SOL    HW225329   4.542   2.410   5.579  0.0631  1.5936  0.1464
 4565SOL     OW25330   3.767   1.224   2.222 -0.0649 -0.0682  0.5523
 4565SOL    HW125331   3.813   1.153   2.176 -0.8845 -0.1076 -0.2004
 4565SOL    HW225332   3.675   1.214   2.198  0.4043 -0.7530 -0.9755
 4566SOL     OW25333   1.412   0.494  10.958 -0.1186  0.2874  0.4445
 4566SOL    HW125334   1.485   0.432  10.955  0.2565  0.8055 -0.9647
 4566SOL    HW225335   1.437   0.550  11.032  1.9970  1.8898 -1.4901
 4567SOL     OW25336   0.350   1.938   5.446  0.8545  0.5228 -0.6130
 4567SOL    HW125337   0.320   1.930   5.355 -0.0745 -1.6515 -0.1205
 4567SOL    HW225338   0.338   2.033   5.449 -0.6285  0.4097 -2.5195
 4568SOL     OW25339   0.580   1.855   1.464 -0.4522 -0.2875 -0.2574
 4568SOL    HW125340   0.550   1.945   1.460 -1.1571 -0.4693  0.9553
 4568SOL    HW225341   0.515   1.807   1.516  0.5416 -0.4057  0.8732
 4569SOL     OW25342   1.207   2.076   7.398  0.4594  0.4115  0.2986
 4569SOL    HW125343   1.302   2.070   7.412  0.4507 -0.6331 -0.1071
 4569SOL    HW225344   1.213   2.085   7.303 -0.1515  0.8287  0.3001
 4570SOL     OW25345   4.004   3.638  17.571 -0.1833 -0.0706 -0.4758
 4570SOL    HW125346   4.022   3.724  17.533 -2.3917  0.1745 -0.9858
 4570SOL    HW225347   4.087   3.599  17.547  0.1659 -0.6868  1.7308
 4571SOL     OW25348   0.716   3.366   2.895  0.2757 -0.5062  0.5861
 4571SOL    HW125349   0.786   3.319   2.941  1.4197 -0.1462 -0.7598
 4571SOL    HW225350   0.642   3.305   2.895  0.8119 -1.1606  0.9082
 4572SOL     OW25351   3.374   1.461   2.057 -0.3566 -0.0599 -0.1741
 4572SOL    HW125352   3.352   1.537   2.004 -1.3435 -0.1847  0.0518
 4572SOL    HW225353   3.343   1.481   2.145 -2.2825  1.7312 -1.2773
 4573SOL     OW25354   0.014   4.515   4.177 -0.3153 -0.2509 -0.1203
 4573SOL    HW125355   4.715   4.481   4.095  0.7048  0.4337 -0.8391
 4573SOL    HW225356   0.088   4.455   4.186 -0.5848 -0.5578  0.0843
 4574SOL     OW25357   0.646   0.980   2.607 -0.0112 -0.1512  0.2443
 4574SOL    HW125358   0.697   0.982   2.526  0.5792  0.5883  0.6368
 4574SOL    HW225359   0.705   1.012   2.675 -1.3375 -0.5548  1.5745
 4575SOL     OW25360   3.318   1.371   5.615  0.0547  0.6681  0.6167
 4575SOL    HW125361   3.307   1.280   5.640  2.4395 -0.2826 -1.8090
 4575SOL    HW225362   3.258   1.422   5.669 -1.5945  0.2164 -0.7671
 4576SOL     OW25363   4.425   1.885  14.817  0.2005 -0.1991 -0.3620
 4576SOL    HW125364   4.441   1.921  14.904 -0.6816 -0.1192 -0.2325
 4576SOL    HW225365   4.349   1.831  14.840  1.2657 -1.0763  1.1472
 4577SOL     OW25366   0.522   3.865   5.902 -0.3144 -0.0917 -0.1445
 4577SOL    HW125367   0.532   3.897   5.992 -0.4475  0.6479 -0.3967
 4577SOL    HW225368   0.428   3.869   5.883 -0.4593  0.1959  0.6096
 4578SOL     OW25369   0.246   3.256  12.706  0.0682 -0.1083  0.0893
 4578SOL    HW125370   0.174   3.314  12.731 -1.2189 -1.3455 -0.7205
 4578SOL    HW225371   0.306   3.285  12.774 -1.0181  1.2308  0.4753
 4579SOL     OW25372   4.226   0.812   7.459  0.2567  0.6740 -0.1709
 4579SOL    HW125373   4.207   0.905   7.471 -1.3966  0.0768  1.7465
 4579SOL    HW225374   4.281   0.810   7.380  2.7007  0.9295  1.5308
 4580SOL     OW25375   3.882   3.050   9.657  0.8756  0.5231 -0.5764
 4580SOL    HW125376   3.829   3.109   9.604  0.3752 -1.8237 -2.6363
 4580SOL    HW225377   3.819   3.033   9.728  1.5176 -0.4104 -0.2248
 4581SOL     OW25378   4.427   3.355  16.703  0.1361 -0.0125 -0.4840
 4581SOL    HW125379   4.398   3.318  16.786 -1.1120  1.3733 -0.3003
 4581SOL    HW225380   4.468   3.281  16.658  0.9144  0.0122  0.1991
 4582SOL     OW25381   2.726   2.718   5.962  0.4032 -0.0737  0.4775
 4582SOL    HW125382   2.760   2.670   6.037  0.4720 -1.3651 -0.3822
 4582SOL    HW225383   2.693   2.798   6.003  0.7095 -0.9385  2.3970
 4583SOL     OW25384   4.604   2.495  10.602 -0.8636 -0.2840  0.0619
 4583SOL    HW125385   4.574   2.432  10.668  0.2170  0.6830  1.4917
 4583SOL    HW225386   4.615   2.451  10.517  0.1334 -0.1900  0.1361
 4584SOL     OW25387   0.250   1.302   9.357  0.3908  0.3442 -0.4885
 4584SOL    HW125388   0.172   1.252   9.332  0.8798 -0.3859 -0.5267
 4584SOL    HW225389   0.322   1.244   9.333  2.1332  2.8089 -1.1983
 4585SOL     OW25390   2.773   1.943   7.874 -0.2628 -0.2910  0.3617
 4585SOL    HW125391   2.799   2.032   7.848 -0.6979 -0.3986 -0.4591
 4585SOL    HW225392   2.716   1.907   7.806  2.1514  0.4182 -2.0256
 4586SOL     OW25393   4.628   1.198   5.533 -0.0961  0.0016 -0.0379
 4586SOL    HW125394   4.536   1.219   5.519 -0.6134 -2.2600 -0.0529
 4586SOL    HW225395   4.616   1.106   5.555  0.3886  0.2244  1.1978
 4587SOL     OW25396   0.233   1.518   7.302  0.0446  0.6277  0.8255
 4587SOL    HW125397   0.225   1.509   7.207 -1.1529  1.8497  0.8008
 4587SOL    HW225398   0.296   1.451   7.328  0.4655  1.6287  2.3447
 4588SOL     OW25399   2.422   2.313   5.785 -0.3070  0.1511 -0.0578
 4588SOL    HW125400   2.470   2.245   5.832 -0.1747  1.0445  1.1074
 4588SOL    HW225401   2.418   2.378   5.855  2.1561  0.2643 -0.0106
 4589SOL     OW25402   0.846   0.738   2.594 -0.4101 -0.1622  0.2610
 4589SOL    HW125403   0.820   0.821   2.633 -0.8742 -0.9963  1.7407
 4589SOL    HW225404   0.934   0.734   2.632  0.0358  1.1331 -0.6182
 4590SOL     OW25405   1.416   3.266  16.684  0.0838 -0.1166 -0.2757
 4590SOL    HW125406   1.448   3.204  16.619 -1.0442 -0.6648 -0.3109
 4590SOL    HW225407   1.481   3.336  16.689 -0.6715  0.5769 -0.1681
 4591SOL     OW25408   2.122   4.695  16.775  0.0733  0.0072  0.0855
 4591SOL    HW125409   2.132   0.048  16.741 -0.5671 -0.3669 -1.1038
 4591SOL    HW225410   2.177   4.702  16.853  1.3628 -1.5932 -0.6750
 4592SOL     OW25411   1.297   1.124  17.740  0.1169 -0.3569 -0.4010
 4592SOL    HW125412   1.295   1.032   0.022  0.4392 -0.4808 -0.7874
 4592SOL    HW225413   1.385   1.152   0.020 -0.1728 -1.2974  1.6262
 4593SOL     OW25414   3.486   2.047  10.951  0.0464 -0.2649  0.1022
 4593SOL    HW125415   3.414   2.093  10.995 -1.2825 -0.0649 -2.2918
 4593SOL    HW225416   3.444   2.014  10.872 -2.4792  0.3718  1.1809
 4594SOL     OW25417   0.822   0.799  13.485  0.2254  0.7533  0.0515
 4594SOL    HW125418   0.735   0.771  13.455  0.8107  0.5953 -1.5142
 4594SOL    HW225419   0.789   0.863  13.548  0.5904  1.9698 -0.9987
 4595SOL     OW25420   4.291   3.605  17.628  0.2267  0.0893  0.5179
 4595SOL    HW125421   4.320   3.529  17.577  0.6777  0.5777  0.0459
 4595SOL    HW225422   4.375   3.652  17.635  1.1824 -1.5629  0.2719
 4596SOL     OW25423   0.442   3.848   5.611 -0.1165  0.1686 -0.3845
 4596SOL    HW125424   0.490   3.921   5.571  0.5468  0.8132  1.5551
 4596SOL    HW225425   0.360   3.886   5.641 -0.5579  0.0806 -1.4737
 4597SOL     OW25426   3.035   4.560   2.599 -0.2120 -0.3872 -0.0293
 4597SOL    HW125427   3.095   4.517   2.659  1.2268  1.2543 -0.2786
 4597SOL    HW225428   3.036   4.502   2.522  1.5254 -1.6733  0.9669
 4598SOL     OW25429   1.984   4.388   1.949  0.1799 -0.0696 -0.2647
 4598SOL    HW125430   2.028   4.376   2.033  0.1872 -1.9784 -0.5447
 4598SOL    HW225431   2.014   4.478   1.938 -0.5936  0.1751 -0.3731
 4599SOL     OW25432   3.278   3.842  13.552 -0.2287 -0.6832  0.5088
 4599SOL    HW125433   3.264   3.795  13.470  1.6703 -0.4370  0.0385
 4599SOL    HW225434   3.359   3.890  13.538  0.3445 -1.6534  0.5199
 4600SOL     OW25435   0.397   3.819  10.399  0.1776 -0.2247 -0.3700
 4600SOL    HW125436   0.421   3.748  10.339  0.9349 -1.2063  1.0723
 4600SOL    HW225437   0.310   3.786  10.420  0.5558 -0.1175  1.3236
 4601SOL     OW25438   0.005   0.370   5.789  0.6859  0.0762  0.5009
 4601SOL    HW125439   4.649   0.348   5.791  0.9681 -1.1774  0.0846
 4601SOL    HW225440   0.023   0.390   5.881  3.2044  0.6075 -0.0858
 4602SOL     OW25441   1.025   4.360   8.469 -0.0562  0.6654  0.1292
 4602SOL    HW125442   0.951   4.414   8.499  0.3553 -0.1597  2.5975
 4602SOL    HW225443   0.979   4.323   8.393 -0.8002 -0.1587  0.9876
 4603SOL     OW25444   4.551   1.455   9.581  0.1479 -0.0411 -0.2164
 4603SOL    HW125445   4.530   1.362   9.576  2.0934 -0.4138 -1.4918
 4603SOL    HW225446   4.464   1.493   9.569  0.2656  0.5291  0.7624
 4604SOL     OW25447   2.921   0.053  11.129  0.2401 -0.4002 -0.6639
 4604SOL    HW125448   2.956   4.703  11.148  0.9444  0.2659  1.1165
 4604SOL    HW225449   2.844   0.049  11.186  1.9958 -0.1265  1.7422
 4605SOL     OW25450   2.796   4.364   9.177  0.1827 -0.1863  0.3367
 4605SOL    HW125451   2.765   4.302   9.243 -1.3024  1.6460  1.3566
 4605SOL    HW225452   2.841   4.306   9.115 -3.1015 -2.3713 -0.0038
 4606SOL     OW25453   3.513   1.416   7.174  0.2725 -0.2409 -0.2476
 4606SOL    HW125454   3.478   1.327   7.183 -0.3640  0.0974  0.6458
 4606SOL    HW225455   3.584   1.399   7.113  1.0593  1.7618  0.1233
 4607SOL     OW25456   3.300   3.848   2.242 -0.1357  0.0075 -0.1882
 4607SOL    HW125457   3.392   3.827   2.257 -0.5571 -1.5089  0.2974
 4607SOL    HW225458   3.270   3.852   2.333 -1.0155  2.8723 -0.6141
 4608SOL     OW25459   3.972   2.159   4.337 -0.6164  0.0640  0.5999
 4608SOL    HW125460   3.895   2.215   4.333 -1.3189 -1.1421 -2.4803
 4608SOL    HW225461   3.957   2.098   4.265  1.1588 -1.6013  1.6319
 4609SOL     OW25462   1.716   4.003   5.066 -0.0200  0.0614  0.5524
 4609SOL    HW125463   1.738   3.944   4.994  1.4624  0.2168  0.8788
 4609SOL    HW225464   1.678   4.076   5.016 -0.0837  0.0707  0.6144
 4610SOL     OW25465   1.088   4.538   2.737 -0.7714 -0.5587  0.5616
 4610SOL    HW125466   1.069   4.447   2.714  0.3826 -0.7195  0.2384
 4610SOL    HW225467   1.136   4.561   2.658 -1.4700 -2.3436 -0.4014
 4611SOL     OW25468   3.147   3.289   5.196  0.0281 -0.5972 -0.2444
 4611SOL    HW125469   3.112   3.376   5.179  1.3153 -0.2250 -0.9177
 4611SOL    HW225470   3.073   3.239   5.233 -0.4911 -0.3129 -0.8903
 4612SOL     OW25471   0.062   0.986   8.690 -0.7827 -0.3069  0.7711
 4612SOL    HW125472   0.149   0.948   8.679  0.2278  2.9403 -2.7022
 4612SOL    HW225473   0.023   0.947   8.612 -0.1846  0.1452  0.2486
 4613SOL     OW25474   4.186   1.290   2.090  0.4489  0.2316  0.0124
 4613SOL    HW125475   4.144   1.209   2.117  0.4341 -0.1312 -1.1304
 4613SOL    HW225476   4.135   1.317   2.014 -0.2002  1.2371  0.7980
 4614SOL     OW25477   4.174   4.202   4.492  0.3173  0.3289  0.4915
 4614SOL    HW125478   4.216   4.152   4.562  0.4778 -0.8307 -0.4316
 4614SOL    HW225479   4.231   4.176   4.420 -0.9977 -1.8113  0.2309
 4615SOL     OW25480   1.402   1.528  15.313  0.9617 -0.2871  0.2061
 4615SOL    HW125481   1.362   1.590  15.375 -0.0955  0.2379 -1.0092
 4615SOL    HW225482   1.330   1.488  15.264  1.0053  0.4329 -0.4473
 4616SOL     OW25483   1.321   3.185  11.107 -0.0447  0.3802 -0.4452
 4616SOL    HW125484   1.405   3.232  11.114 -0.3653  0.6674  1.3922
 4616SOL    HW225485   1.278   3.199  11.191 -0.0830  0.2165 -0.4384
 4617SOL     OW25486   3.218   3.181   7.763  0.0373  0.1631  0.2092
 4617SOL    HW125487   3.169   3.169   7.682  1.3011  1.0146 -0.6844
 4617SOL    HW225488   3.178   3.258   7.803  0.2731  0.8168 -0.8176
 4618SOL     OW25489   3.983   0.288   6.605  0.3584 -0.2068  0.8944
 4618SOL    HW125490   3.961   0.272   6.514 -0.9155 -0.8481  1.3183
 4618SOL    HW225491   4.069   0.248   6.617  1.5747  2.4745  1.1997
 4619SOL     OW25492   2.836   3.685   2.746  0.0003 -0.3122  0.5250
 4619SOL    HW125493   2.834   3.729   2.661 -1.2373  1.5872  1.5318
 4619SOL    HW225494   2.803   3.752   2.806  2.0104  0.1522  1.1132
 4620SOL     OW25495   1.843   1.487   8.775  0.1164  0.7117 -0.1395
 4620SOL    HW125496   1.784   1.561   8.764 -0.7999 -0.0614 -0.4194
 4620SOL    HW225497   1.856   1.462   8.684  0.8890 -0.2884  0.2441
 4621SOL     OW25498   4.114   4.276   9.849 -0.0068 -0.5569 -0.0194
 4621SOL    HW125499   4.129   4.366   9.880  0.4257 -0.6845  0.1442
 4621SOL    HW225500   4.076   4.246   9.932 -1.6173 -2.1969 -1.3387
 4622SOL     OW25501   4.673   0.224   3.330 -0.4895 -0.0231  0.2724
 4622SOL    HW125502   4.638   0.200   3.244 -0.2336  1.1798 -0.1630
 4622SOL    HW225503   4.645   0.315   3.340  0.6358  0.4917 -1.1296
 4623SOL     OW25504   3.481   2.893  11.709 -0.6088  0.3926 -0.1338
 4623SOL    HW125505   3.406   2.879  11.767  0.3466 -2.0672  0.4987
 4623SOL    HW225506   3.513   2.976  11.743  1.6050 -1.1228  1.5116
 4624SOL     OW25507   0.983   2.020   2.429  0.4465  0.3149 -0.0818
 4624SOL    HW125508   1.015   1.987   2.346 -0.1614  0.9270 -0.5602
 4624SOL    HW225509   0.890   2.042   2.419  0.1957 -0.8234 -0.2089
 4625SOL     OW25510   4.685   4.328   6.783  0.2860  0.0166  0.2782
 4625SOL    HW125511   4.590   4.320   6.789  0.2995 -0.2454  0.1006
 4625SOL    HW225512   4.709   4.236   6.771 -2.1225 -0.5493 -0.1682
 4626SOL     OW25513   3.910   0.506  15.080  0.0177 -0.0488  0.0022
 4626SOL    HW125514   4.001   0.493  15.105 -0.5583  2.0745  3.2012
 4626SOL    HW225515   3.877   0.417  15.065  3.4589 -1.5385  1.2682
 4627SOL     OW25516   3.977   1.125   4.606  0.0076 -0.5799  0.1249
 4627SOL    HW125517   3.942   1.064   4.541  2.0744 -0.5655 -0.9885
 4627SOL    HW225518   3.976   1.205   4.553 -0.5626  0.6089  1.9370
 4628SOL     OW25519   4.049   1.839   5.048  0.5145  0.6469 -0.1222
 4628SOL    HW125520   4.050   1.934   5.043  0.8354  0.6058 -0.8313
 4628SOL    HW225521   3.967   1.819   5.003  1.8669 -0.3701 -2.1117
 4629SOL     OW25522   0.334   0.808  12.266  0.1270  0.2187 -0.6031
 4629SOL    HW125523   0.342   0.713  12.257  0.2124  0.1288  0.4303
 4629SOL    HW225524   0.330   0.812  12.361  0.8862  0.5735 -0.5932
 4630SOL     OW25525   3.347   2.198   6.181  0.2406  0.4849  0.2154
 4630SOL    HW125526   3.332   2.248   6.262 -2.2948 -1.0054  0.6376
 4630SOL    HW225527   3.432   2.160   6.204  0.2571  0.0325 -0.5925
 4631SOL     OW25528   2.542   3.698   6.679 -0.1597  0.0805 -0.3158
 4631SOL    HW125529   2.559   3.732   6.767 -2.1024 -1.8887  0.8008
 4631SOL    HW225530   2.449   3.717   6.670 -0.5648 -1.4849  0.5612
 4632SOL     OW25531   0.900   0.197  16.249  0.4566 -0.2721  0.4236
 4632SOL    HW125532   0.945   0.119  16.214  0.1193 -1.3162  2.3034
 4632SOL    HW225533   0.816   0.201  16.202  1.6513  1.5966 -1.5821
 4633SOL     OW25534   2.957   2.042   4.266 -0.3825  0.3299  0.2324
 4633SOL    HW125535   2.990   2.067   4.352  0.5419 -3.3718  0.9636
 4633SOL    HW225536   2.890   1.975   4.284 -1.0985  1.0808  0.3483
 4634SOL     OW25537   1.622   4.592  12.571  0.5627  0.0331 -0.9101
 4634SOL    HW125538   1.597   4.517  12.624  4.0634 -0.4953 -0.0557
 4634SOL    HW225539   1.568   4.583  12.492 -0.0825 -0.6975 -0.3859
 4635SOL     OW25540   1.838   0.933  12.028 -0.7335  0.2302 -0.6542
 4635SOL    HW125541   1.821   1.005  12.088 -1.7513  0.9620 -1.8073
 4635SOL    HW225542   1.870   0.861  12.083 -0.8367  0.5941 -0.1233
 4636SOL     OW25543   2.289   0.827   9.500 -0.3654 -0.3310  0.4958
 4636SOL    HW125544   2.300   0.872   9.584  1.3413 -1.6284  0.9770
 4636SOL    HW225545   2.380   0.801   9.483 -0.7653 -2.8554  2.1525
 4637SOL     OW25546   2.526   2.685  15.427 -0.7004  0.4941  0.2015
 4637SOL    HW125547   2.562   2.761  15.472 -0.6842  1.5455 -1.5876
 4637SOL    HW225548   2.535   2.718  15.338  0.7221  0.3769  0.3092
 4638SOL     OW25549   2.431   2.436   3.979 -0.0352  0.0938 -0.8900
 4638SOL    HW125550   2.480   2.404   4.054 -1.0433  0.9168  0.1095
 4638SOL    HW225551   2.378   2.367   3.939 -0.0049 -1.3060  1.4994
 4639SOL     OW25552   3.758   3.408  15.706  0.5693 -0.1890  0.0042
 4639SOL    HW125553   3.780   3.356  15.783  0.1428 -2.0531 -1.1267
 4639SOL    HW225554   3.804   3.370  15.631 -1.4205 -2.7430  0.0665
 4640SOL     OW25555   3.056   3.250  11.216  0.2057 -0.0817 -0.2813
 4640SOL    HW125556   3.141   3.206  11.207  0.0191 -0.2431 -1.2206
 4640SOL    HW225557   3.069   3.270  11.309  0.7945 -1.6200 -0.0317
 4641SOL     OW25558   0.803   3.151   5.310 -0.6857  0.2748 -0.1295
 4641SOL    HW125559   0.738   3.220   5.302 -1.7603 -0.6969  0.3148
 4641SOL    HW225560   0.785   3.096   5.234 -1.6188  1.4407 -0.7343
 4642SOL     OW25561   1.672   2.134  14.463 -0.0271 -0.0196  0.0834
 4642SOL    HW125562   1.735   2.205  14.452  1.6139 -1.6759 -1.1142
 4642SOL    HW225563   1.588   2.178  14.449  0.3223  1.1224  1.5625
 4643SOL     OW25564   0.206   1.667   0.051 -0.0374  0.0963  0.3509
 4643SOL    HW125565   0.235   1.633  17.712 -0.7242  0.4712 -0.0438
 4643SOL    HW225566   0.260   1.746   0.059  0.0342  0.2679 -1.8238
 4644SOL     OW25567   1.810   3.843   5.688 -0.0055 -0.0095 -0.0008
 4644SOL    HW125568   1.770   3.841   5.601  0.1160  0.6942 -0.0739
 4644SOL    HW225569   1.756   3.782   5.739  1.1964 -0.4133  0.7902
 4645SOL     OW25570   2.404   0.187   3.966 -0.6254  0.9918 -0.3437
 4645SOL    HW125571   2.466   0.211   3.897  0.4335 -1.8354 -0.4021
 4645SOL    HW225572   2.324   0.228   3.934 -0.9792 -0.5865 -1.5296
 4646SOL     OW25573   1.096   0.573   2.899 -0.1953  0.4048 -0.2499
 4646SOL    HW125574   1.151   0.621   2.962  2.1293 -1.4571 -0.8656
 4646SOL    HW225575   1.093   0.635   2.826  2.2489  0.1130 -0.5824
 4647SOL     OW25576   1.102   4.193   2.475  0.0537  0.3737 -0.2197
 4647SOL    HW125577   1.187   4.227   2.448 -0.6866  0.8560 -1.9336
 4647SOL    HW225578   1.049   4.202   2.397 -0.2364  0.5126 -0.0060
 4648SOL     OW25579   2.682   4.652   7.319  0.3387 -0.4842 -0.0243
 4648SOL    HW125580   2.690   4.670   7.412  0.7275  0.8573 -0.3106
 4648SOL    HW225581   2.613   4.715   7.298  0.1731 -1.2675 -1.8778
 4649SOL     OW25582   0.082   2.513   2.390  0.0032 -0.4571  0.0453
 4649SOL    HW125583   0.101   2.438   2.447  1.0447  0.0491  0.3732
 4649SOL    HW225584   0.038   2.463   2.321  1.3471 -2.3728  0.5670
 4650SOL     OW25585   0.135   3.141   8.056 -0.1166 -0.2869  0.2850
 4650SOL    HW125586   0.172   3.225   8.027  1.0329 -0.9434 -0.1551
 4650SOL    HW225587   0.161   3.157   8.147 -0.9067  1.8041  0.1495
 4651SOL     OW25588   2.409   4.202  14.406 -0.4184  0.5418 -0.0173
 4651SOL    HW125589   2.502   4.222  14.405 -0.2828 -0.1068  0.0673
 4651SOL    HW225590   2.395   4.204  14.501  1.0715  2.1779  0.1738
 4652SOL     OW25591   1.408   3.830   1.437 -0.4243 -0.0794 -0.4698
 4652SOL    HW125592   1.399   3.825   1.532 -1.2742 -1.2824 -0.6179
 4652SOL    HW225593   1.504   3.837   1.435 -0.3577 -0.9380 -0.6662
 4653SOL     OW25594   3.700   2.927   4.410 -0.1315 -0.9155  0.7491
 4653SOL    HW125595   3.700   2.982   4.488 -0.2963 -1.5146  1.1646
 4653SOL    HW225596   3.729   2.993   4.347 -1.5980 -0.6095  0.4096
 4654SOL     OW25597   2.384   2.354   8.170 -0.1950  0.1434 -1.3727
 4654SOL    HW125598   2.410   2.280   8.225  1.0375  0.6576 -1.2566
 4654SOL    HW225599   2.291   2.372   8.183  0.5103  2.7150 -0.0041
 4655SOL     OW25600   0.162   1.415   6.178  0.1022  0.1853  0.1614
 4655SOL    HW125601   0.252   1.436   6.202  0.9380 -0.6935 -2.2071
 4655SOL    HW225602   0.124   1.405   6.266 -0.6573 -1.0792 -0.3036
 4656SOL     OW25603   3.251   2.573   3.222  0.4597 -0.7669 -0.4202
 4656SOL    HW125604   3.249   2.656   3.176  0.0546  0.2906  1.4989
 4656SOL    HW225605   3.269   2.604   3.311  1.3537  0.8898 -1.1933
 4657SOL     OW25606   2.144   3.381   2.256 -0.0757 -0.1154 -0.4117
 4657SOL    HW125607   2.153   3.326   2.333  1.8756  2.5108  1.2569
 4657SOL    HW225608   2.200   3.458   2.271  0.0091  0.2865 -2.6377
 4658SOL     OW25609   0.955   4.339  11.882  0.0912  0.1497 -0.4733
 4658SOL    HW125610   0.900   4.416  11.868  0.9975  0.8358 -0.2911
 4658SOL    HW225611   1.030   4.363  11.827  0.9701 -1.1841  0.1389
 4659SOL     OW25612   3.612   1.911   1.536  0.5706 -0.0161 -0.1738
 4659SOL    HW125613   3.573   1.823   1.542  1.1243 -0.1473  1.5561
 4659SOL    HW225614   3.589   1.952   1.620  0.2973  1.6358 -1.0576
 4660SOL     OW25615   3.106   2.560  10.023  0.0065 -0.0448  0.7929
 4660SOL    HW125616   3.175   2.623  10.042  0.1858  0.0611 -0.1977
 4660SOL    HW225617   3.159   2.481  10.016 -1.3269 -0.7649 -1.1773
 4661SOL     OW25618   1.773   1.979   4.013  0.0520  0.5072  0.4194
 4661SOL    HW125619   1.785   1.886   4.031 -2.5106  0.1039 -0.0620
 4661SOL    HW225620   1.682   1.987   4.039  0.8783  2.5429  2.6960
 4662SOL     OW25621   0.196   1.969   3.270  0.3363  0.1395  0.0584
 4662SOL    HW125622   0.183   2.042   3.330  1.4250  1.0539 -0.8182
 4662SOL    HW225623   0.116   1.960   3.218 -0.6397  0.1244  1.5876
 4663SOL     OW25624   3.458   1.072  16.026 -0.5959  0.0576 -0.0038
 4663SOL    HW125625   3.437   1.166  16.028 -0.0481  0.1689  0.4386
 4663SOL    HW225626   3.368   1.039  16.016 -0.2337 -0.1742 -2.3634
 4664SOL     OW25627   4.197   4.689  13.384  0.2213  0.0622 -0.3802
 4664SOL    HW125628   4.239   4.617  13.337 -0.3809  0.2652 -1.2306
 4664SOL    HW225629   4.157   4.658  13.466 -0.9812 -1.2784 -1.4761
 4665SOL     OW25630   3.467   1.329   3.998  0.9274 -0.3200 -0.2060
 4665SOL    HW125631   3.461   1.239   4.028  0.6639 -1.2574 -3.0078
 4665SOL    HW225632   3.559   1.340   4.025  0.6214 -0.3522  0.8456
 4666SOL     OW25633   0.294   2.377   3.208  0.4843  0.4161  0.5658
 4666SOL    HW125634   0.247   2.364   3.127 -2.8270 -1.0100  2.7237
 4666SOL    HW225635   0.289   2.473   3.217 -3.4040  0.0321  2.4194
 4667SOL     OW25636   2.197   3.043   2.232 -0.3378 -0.0493  0.0348
 4667SOL    HW125637   2.244   3.078   2.156 -2.3019  0.0047 -1.1659
 4667SOL    HW225638   2.109   3.048   2.193 -0.4831 -0.2747  0.3346
 4668SOL     OW25639   2.620   4.431  15.380 -0.2590 -0.4795 -0.2699
 4668SOL    HW125640   2.658   4.354  15.338  1.4343  1.3314 -2.1356
 4668SOL    HW225641   2.637   4.502  15.318 -1.2867  0.3929  0.4504
 4669SOL     OW25642   0.165   3.607   7.961  0.9540  0.2085 -0.3368
 4669SOL    HW125643   0.115   3.689   7.963 -0.2691 -0.4893 -1.7993
 4669SOL    HW225644   0.151   3.581   7.870  0.9886 -1.3163  0.1022
 4670SOL     OW25645   3.228   4.062   8.502  0.1134 -0.4912  0.0606
 4670SOL    HW125646   3.224   4.048   8.597  1.1589  1.4852  0.4032
 4670SOL    HW225647   3.295   4.131   8.504  0.4219 -0.8349  1.6762
 4671SOL     OW25648   0.948   1.077   9.291  0.3102  0.2065 -0.3688
 4671SOL    HW125649   0.950   1.044   9.381 -0.4071 -0.0028 -0.4329
 4671SOL    HW225650   1.021   1.139   9.287  0.0451  0.5237 -0.1892
 4672SOL     OW25651   3.232   3.282  16.355  0.0160  0.1044 -0.4777
 4672SOL    HW125652   3.265   3.217  16.418  0.1920  0.7731  0.1231
 4672SOL    HW225653   3.264   3.233  16.279 -1.6934 -0.0691 -1.0870
 4673SOL     OW25654   0.293   0.734  15.884  0.3043  0.1390  0.7308
 4673SOL    HW125655   0.239   0.663  15.919 -0.1479  0.0362 -0.1941
 4673SOL    HW225656   0.383   0.705  15.895  0.6385  0.9807  0.1693
 4674SOL     OW25657   1.703   4.586  17.740 -0.2172  0.0900 -0.2661
 4674SOL    HW125658   1.724   4.672   0.031  2.1433 -0.7916  0.4814
 4674SOL    HW225659   1.760   4.590  17.663  0.8675  0.7330  0.5629
 4675SOL     OW25660   2.544   0.297   4.623  0.1877  0.2741  0.1375
 4675SOL    HW125661   2.544   0.210   4.662 -0.2118  0.3089  0.2122
 4675SOL    HW225662   2.478   0.270   4.559  0.3480 -0.3133  0.2245
 4676SOL     OW25663   3.880   2.992   3.497 -0.5917  0.2891 -0.2179
 4676SOL    HW125664   3.826   3.020   3.571 -2.2911  0.8723 -1.6684
 4676SOL    HW225665   3.851   2.901   3.492 -2.3718  0.7411  2.1737
 4677SOL     OW25666   2.725   0.483   5.776 -0.1287 -0.0964  0.0325
 4677SOL    HW125667   2.747   0.395   5.804 -0.1007 -0.8255 -2.3116
 4677SOL    HW225668   2.808   0.520   5.746  0.5872 -2.5560 -0.9593
 4678SOL     OW25669   3.150   0.135   8.210  0.4580  0.2310 -0.3671
 4678SOL    HW125670   3.090   0.181   8.151  0.0552 -0.9936 -0.9061
 4678SOL    HW225671   3.232   0.176   8.184  0.7005 -0.9541 -1.4903
 4679SOL     OW25672   0.190   3.517   8.532 -0.0428  0.2703  0.1059
 4679SOL    HW125673   0.127   3.566   8.584 -0.5728  1.7030 -1.9138
 4679SOL    HW225674   0.138   3.495   8.455  0.4196  0.1831 -0.1865
 4680SOL     OW25675   2.030   4.165   7.963  0.2473  0.2718  0.2780
 4680SOL    HW125676   2.124   4.146   7.961 -0.2951 -2.0436 -3.1555
 4680SOL    HW225677   2.037   4.251   8.005  0.9141  0.8316 -0.9638
 4681SOL     OW25678   4.657   1.413   3.354 -0.3559  0.5896 -0.1712
 4681SOL    HW125679   4.617   1.413   3.267  0.3793 -1.8115 -0.4879
 4681SOL    HW225680   4.580   1.426   3.409 -0.5432  1.3708 -0.6093
 4682SOL     OW25681   4.354   0.097  14.910 -0.2442 -0.0839 -0.1173
 4682SOL    HW125682   4.434   0.081  14.860  0.7046  2.9727  0.4684
 4682SOL    HW225683   4.371   0.058  14.997  0.6538 -0.5258 -0.4870
 4683SOL     OW25684   4.270   0.178   6.154 -0.8175 -0.1280 -0.0193
 4683SOL    HW125685   4.225   0.218   6.080  0.7812  0.0458 -0.8995
 4683SOL    HW225686   4.315   0.109   6.104 -1.2503 -0.5015  0.1068
 4684SOL     OW25687   3.767   2.540  15.458  0.1796 -0.2587  0.3034
 4684SOL    HW125688   3.674   2.565  15.453  0.5066  0.6809 -1.0329
 4684SOL    HW225689   3.772   2.521  15.552  1.4880 -2.2627 -0.1702
 4685SOL     OW25690   4.064   3.845   2.803 -0.0877  0.0423  0.5095
 4685SOL    HW125691   4.052   3.870   2.894  0.7641  0.3817  0.5272
 4685SOL    HW225692   4.005   3.907   2.758 -0.9151 -0.6955  0.5702
 4686SOL     OW25693   3.005   2.890   3.257 -0.3280  0.2814  0.0974
 4686SOL    HW125694   2.967   2.915   3.173  1.8204  1.6732 -0.4690
 4686SOL    HW225695   3.079   2.838   3.226 -2.0558 -1.5602 -0.9174
 4687SOL     OW25696   4.517   3.472   4.609  0.3752  0.4366  0.1287
 4687SOL    HW125697   4.535   3.455   4.702  0.5875  0.4086  0.0830
 4687SOL    HW225698   4.560   3.557   4.598  1.1764  0.3023  2.2368
 4688SOL     OW25699   1.251   3.098   6.261  0.3818 -0.1110  0.6671
 4688SOL    HW125700   1.160   3.083   6.286  0.0808  0.5027 -0.0324
 4688SOL    HW225701   1.273   3.052   6.180  1.2612 -0.7692  1.2854
 4689SOL     OW25702   2.550   0.217   5.632  0.0075  0.0623  0.0341
 4689SOL    HW125703   2.634   0.179   5.607 -1.1124 -1.4579 -1.3946
 4689SOL    HW225704   2.534   0.293   5.575 -1.7462  0.0565  0.5167
 4690SOL     OW25705   3.038   1.775   1.261 -0.0599 -0.4237  0.2593
 4690SOL    HW125706   3.119   1.825   1.264  0.3237 -1.0010 -0.4159
 4690SOL    HW225707   3.033   1.718   1.339 -0.3110  1.0959  1.3589
 4691SOL     OW25708   2.479   0.099  16.686 -0.0663  0.3114  0.4329
 4691SOL    HW125709   2.425   0.055  16.620 -1.8266 -0.6379  2.4907
 4691SOL    HW225710   2.421   0.119  16.759  1.1175  0.0296  1.4412
 4692SOL     OW25711   2.051   0.753   1.742  0.3734  0.2661 -0.2197
 4692SOL    HW125712   1.957   0.749   1.755  0.7263 -3.1953  1.2886
 4692SOL    HW225713   2.060   0.846   1.764  0.0902  0.5427 -1.2754
 4693SOL     OW25714   0.325   2.947   3.300 -0.0610 -0.3604  0.0632
 4693SOL    HW125715   0.329   3.027   3.352 -1.8896  0.3315 -0.8546
 4693SOL    HW225716   0.306   2.991   3.217 -0.8068  0.2138  0.5443
 4694SOL     OW25717   1.805   1.993  15.631  0.0130 -0.3010  0.5852
 4694SOL    HW125718   1.762   1.928  15.576 -0.8731 -0.3191  1.3062
 4694SOL    HW225719   1.818   2.058  15.562 -1.6782 -0.8087 -0.2100
 4695SOL     OW25720   0.026   3.778   7.563 -0.0461 -0.2947  0.5025
 4695SOL    HW125721   0.105   3.822   7.593  1.1823 -1.7531 -0.5552
 4695SOL    HW225722   0.029   3.700   7.619  1.1021 -3.0107 -3.3028
 4696SOL     OW25723   2.845   2.874   4.469  0.1931  0.1965  0.3087
 4696SOL    HW125724   2.758   2.914   4.462 -0.1662 -0.0078  3.8225
 4696SOL    HW225725   2.881   2.909   4.387 -0.9132 -2.2219 -1.2203
 4697SOL     OW25726   0.911   1.822  10.210  0.3009 -0.3516  0.6646
 4697SOL    HW125727   0.888   1.735  10.176  0.8005 -0.2396  0.0307
 4697SOL    HW225728   0.871   1.825  10.296 -3.4960 -3.1559 -1.0028
 4698SOL     OW25729   2.510   1.471  13.713 -0.0087 -0.3119 -0.0159
 4698SOL    HW125730   2.519   1.500  13.804  0.0443  0.6681 -0.3319
 4698SOL    HW225731   2.458   1.390  13.715 -1.3925  0.5398 -1.4291
 4699SOL     OW25732   0.287   2.978  12.729 -0.3853 -0.3212 -0.6462
 4699SOL    HW125733   0.379   2.964  12.706 -0.1631 -0.4504  0.3061
 4699SOL    HW225734   0.273   3.072  12.724  1.3095 -0.0528 -0.3490
 4700SOL     OW25735   2.959   2.509   8.913 -0.1135 -0.7129 -0.0609
 4700SOL    HW125736   3.039   2.525   8.964 -0.1022  1.5503 -0.7666
 4700SOL    HW225737   2.938   2.424   8.950  0.7783  0.1498  2.4696
 4701SOL     OW25738   3.600   0.138   3.772  0.5019  0.0103  0.1258
 4701SOL    HW125739   3.617   0.216   3.719 -0.2369  1.5271  2.1260
 4701SOL    HW225740   3.505   0.127   3.766  0.8064 -1.5883 -1.6482
 4702SOL     OW25741   4.341   0.157   2.114  0.1593  0.2115  0.0207
 4702SOL    HW125742   4.338   0.221   2.043  0.3299  1.9717  1.5727
 4702SOL    HW225743   4.360   0.215   2.188  0.2159  1.0036 -0.6108
 4703SOL     OW25744   0.757   3.327   7.940  0.2762 -0.4662  0.4722
 4703SOL    HW125745   0.847   3.357   7.956  0.2880 -0.6105  0.6901
 4703SOL    HW225746   0.775   3.248   7.889 -0.8312 -0.6978  0.4554
 4704SOL     OW25747   0.412   4.600   3.461 -0.0825  0.0909 -0.2014
 4704SOL    HW125748   0.478   4.602   3.392 -0.3444 -0.3960 -0.4658
 4704SOL    HW225749   0.417   4.691   3.490 -2.0676  0.8676 -2.2799
 4705SOL     OW25750   3.577   2.090   5.499  0.9852 -0.3220 -0.1155
 4705SOL    HW125751   3.506   2.034   5.532  0.3138  0.0566 -0.9101
 4705SOL    HW225752   3.535   2.149   5.436  1.6949 -1.9527 -2.1341
 4706SOL     OW25753   1.034   4.581   9.582 -0.1197  0.5916 -0.6061
 4706SOL    HW125754   1.090   4.503   9.576  0.3399  1.0031 -1.7809
 4706SOL    HW225755   0.949   4.539   9.587  0.6516 -0.8719  0.3422
 4707SOL     OW25756   3.233   3.995   5.314 -0.7058  0.1755  0.0361
 4707SOL    HW125757   3.205   3.909   5.346 -4.2714  0.7529 -1.6261
 4707SOL    HW225758   3.210   4.049   5.389  0.5898  0.2924  0.3571
 4708SOL     OW25759   0.746   3.844   2.025  0.1569  0.2877 -0.1127
 4708SOL    HW125760   0.790   3.874   1.946 -1.4749  0.8407 -0.8103
 4708SOL    HW225761   0.769   3.923   2.075  0.3108 -0.6857  1.3574
 4709SOL     OW25762   0.842   1.952   0.759 -0.1530 -0.1660 -0.2891
 4709SOL    HW125763   0.798   2.000   0.830  1.1163  0.5987 -0.0166
 4709SOL    HW225764   0.866   1.869   0.800 -0.0421 -0.5102 -1.0636
 4710SOL     OW25765   3.213   3.941  12.876 -0.4392  0.2358  0.9457
 4710SOL    HW125766   3.284   3.988  12.833 -0.7484 -0.7516 -0.6709
 4710SOL    HW225767   3.258   3.911  12.955  1.2969  0.1553 -0.0801
 4711SOL     OW25768   4.175   0.350   7.242 -0.1607  0.0473 -0.2321
 4711SOL    HW125769   4.129   0.387   7.166  1.1152  0.0058 -1.0318
 4711SOL    HW225770   4.135   0.384   7.322 -0.4271 -3.1190  0.9504
 4712SOL     OW25771   1.928   1.131   7.302  0.1142 -0.1154 -0.3144
 4712SOL    HW125772   1.853   1.162   7.251  0.0842  1.1578  0.5141
 4712SOL    HW225773   1.989   1.202   7.283  0.2793 -0.4758 -1.1152
 4713SOL     OW25774   4.344   2.043   2.636 -0.0004 -0.2623  0.0496
 4713SOL    HW125775   4.292   1.986   2.693 -0.5273  0.7065  0.5417
 4713SOL    HW225776   4.297   2.040   2.553  0.1203  1.5633 -0.0833
 4714SOL     OW25777   3.421   4.345   9.870 -0.0406 -0.4313  0.1414
 4714SOL    HW125778   3.387   4.275   9.926 -0.5644  1.4145  2.1385
 4714SOL    HW225779   3.447   4.412   9.933  0.3234  0.2459 -0.7187
 4715SOL     OW25780   3.646   4.189   3.903  0.3850 -0.0281 -0.6443
 4715SOL    HW125781   3.553   4.208   3.893  0.6881  0.3202 -2.6767
 4715SOL    HW225782   3.634   4.128   3.977  1.0403 -0.2755 -0.7447
 4716SOL     OW25783   2.632   0.272   7.275 -0.1432 -0.2924 -0.5728
 4716SOL    HW125784   2.659   0.324   7.350  0.4425 -1.8174  0.2793
 4716SOL    HW225785   2.710   0.218   7.262 -0.3204 -0.8970  0.8726
 4717SOL     OW25786   0.245   4.039   3.916 -0.8561  0.1416 -0.2819
 4717SOL    HW125787   0.199   3.984   3.853 -1.5766 -1.2780  1.5249
 4717SOL    HW225788   0.213   4.125   3.887 -0.4576 -0.2491 -1.8646
 4718SOL     OW25789   1.219   2.403   3.537  0.7342  0.4612 -0.1128
 4718SOL    HW125790   1.155   2.340   3.571  1.6149  0.0677  0.8162
 4718SOL    HW225791   1.234   2.388   3.443  1.3018 -0.5797  0.1463
 4719SOL     OW25792   4.671   2.079   4.255 -0.0666  0.6390  0.0128
 4719SOL    HW125793   4.643   2.019   4.323 -2.4072  0.0447 -1.4562
 4719SOL    HW225794   4.718   2.136   4.316  4.0973 -1.4928 -1.1576
 4720SOL     OW25795   0.874   0.596  14.162  0.7416  0.1815  0.2887
 4720SOL    HW125796   0.820   0.528  14.204 -1.6650  2.0395  0.2336
 4720SOL    HW225797   0.939   0.534  14.128  2.0066  0.2236  2.5855
 4721SOL     OW25798   0.459   2.051   3.977 -0.1745  0.1179 -0.0829
 4721SOL    HW125799   0.424   2.041   3.888  0.0281  2.3132 -0.3926
 4721SOL    HW225800   0.388   2.016   4.031  0.7316  0.2753  1.1989
 4722SOL     OW25801   2.704   1.459   2.484 -0.1957 -0.4590  0.2773
 4722SOL    HW125802   2.800   1.467   2.487 -0.4636  2.1785  1.6704
 4722SOL    HW225803   2.673   1.512   2.558  3.0589 -0.3516  1.5611
 4723SOL     OW25804   3.454   0.241   7.494  0.2945 -0.4718 -0.3087
 4723SOL    HW125805   3.383   0.286   7.541 -0.3790 -2.1522  0.2595
 4723SOL    HW225806   3.517   0.313   7.483 -0.0037  0.1977  2.1683
 4724SOL     OW25807   3.007   2.178   2.147 -0.1095  0.1385 -0.2597
 4724SOL    HW125808   3.063   2.150   2.220 -1.4183 -1.4257  0.1435
 4724SOL    HW225809   2.974   2.100   2.104  1.2511 -0.2132 -0.6667
 4725SOL     OW25810   1.172   4.055   5.696 -0.1479 -0.2522  0.2172
 4725SOL    HW125811   1.143   4.087   5.781  0.0252  0.6722 -0.0721
 4725SOL    HW225812   1.161   4.133   5.642 -1.0597 -0.7379 -0.3000
 4726SOL     OW25813   0.537   1.160   5.592  0.6103  0.4805 -0.1316
 4726SOL    HW125814   0.478   1.235   5.589  0.3619  0.3541  1.5134
 4726SOL    HW225815   0.502   1.098   5.528  2.1546  0.8935 -1.3903
 4727SOL     OW25816   0.946   0.327  15.934 -0.4698 -0.5688 -0.0215
 4727SOL    HW125817   0.964   0.316  16.028  1.4923  1.3781 -0.1743
 4727SOL    HW225818   1.020   0.384  15.914  3.1876 -4.4826  2.0828
 4728SOL     OW25819   3.186   0.863   9.243 -0.4034 -0.5748 -0.1218
 4728SOL    HW125820   3.141   0.853   9.327  0.7982 -0.3695  0.5467
 4728SOL    HW225821   3.229   0.949   9.250 -1.1214 -0.0791 -1.6664
 4729SOL     OW25822   4.629   3.627   1.920 -0.1092 -0.2570 -0.0658
 4729SOL    HW125823   4.701   3.575   1.954  0.6281  1.0217  0.3188
 4729SOL    HW225824   4.666   3.715   1.917 -1.3761  0.3308  1.4164
 4730SOL     OW25825   0.119   1.668   0.582 -0.0212  0.8144  0.4069
 4730SOL    HW125826   0.174   1.747   0.584  1.3912 -0.1694  0.0312
 4730SOL    HW225827   0.098   1.674   0.489  1.2276  0.4340  0.1112
 4731SOL     OW25828   3.639   3.733   3.784 -0.0418  0.0638 -0.0063
 4731SOL    HW125829   3.678   3.651   3.814 -1.9190 -0.6269  0.5817
 4731SOL    HW225830   3.718   3.784   3.770  0.0336 -0.2692 -0.7992
 4732SOL     OW25831   3.060   4.354   3.669 -0.2681  0.2151 -0.2834
 4732SOL    HW125832   3.032   4.263   3.658 -1.4542  0.4551  0.7649
 4732SOL    HW225833   3.094   4.376   3.582  0.6206 -1.7814 -0.4469
 4733SOL     OW25834   2.205   1.122   3.440  0.2596 -0.0796  0.3030
 4733SOL    HW125835   2.216   1.085   3.353 -0.7041  0.2759  0.0265
 4733SOL    HW225836   2.244   1.053   3.494  2.6608  0.6970 -0.4349
 4734SOL     OW25837   0.616   1.072   3.263  0.0852  0.1522  0.1113
 4734SOL    HW125838   0.553   1.142   3.279  1.1613  1.2795 -0.6167
 4734SOL    HW225839   0.576   1.029   3.187 -2.8284  1.5797  0.8261
 4735SOL     OW25840   1.757   4.576  14.581 -0.4176  0.3395 -0.1991
 4735SOL    HW125841   1.787   4.498  14.535 -1.7097 -0.0406 -0.3941
 4735SOL    HW225842   1.839   4.625  14.589  0.7728 -1.7911  0.5130
 4736SOL     OW25843   4.204   2.275  12.923 -0.2955  0.3750  0.4652
 4736SOL    HW125844   4.266   2.333  12.966 -0.4500  1.6774 -1.1064
 4736SOL    HW225845   4.274   2.232  12.874 -0.2064  0.6818  0.3235
 4737SOL     OW25846   0.779   1.130   0.601  0.3084  0.4117  0.1191
 4737SOL    HW125847   0.863   1.154   0.564 -0.4449  2.2429 -0.3975
 4737SOL    HW225848   0.804   1.041   0.625 -0.1221  0.9600  2.7118
 4738SOL     OW25849   1.140   1.252   9.233 -0.1507  0.0990  0.4790
 4738SOL    HW125850   1.228   1.269   9.265  0.3888 -0.2814 -0.7795
 4738SOL    HW225851   1.137   1.340   9.196 -0.0597 -0.3587 -0.6262
 4739SOL     OW25852   2.674   4.387   3.552 -0.0080 -0.2060 -0.3691
 4739SOL    HW125853   2.715   4.469   3.524  1.3391 -1.4064 -1.8835
 4739SOL    HW225854   2.661   4.335   3.473  1.4669 -0.1879 -0.6240
 4740SOL     OW25855   2.435   3.573   7.955  0.0094 -0.6593 -0.2140
 4740SOL    HW125856   2.445   3.554   8.048 -0.5712  0.5379  0.0926
 4740SOL    HW225857   2.513   3.528   7.921  0.3170  1.3840 -2.2433
 4741SOL     OW25858   0.312   3.745   5.045  0.2938 -0.2559 -0.3914
 4741SOL    HW125859   0.253   3.682   5.086 -0.7128  1.0002  0.1274
 4741SOL    HW225860   0.311   3.817   5.109 -1.9053 -0.7952  0.1922
 4742SOL     OW25861   2.424   1.821  16.207  0.4056  0.0072 -0.8143
 4742SOL    HW125862   2.339   1.825  16.163  0.7622  0.1358 -1.4899
 4742SOL    HW225863   2.479   1.896  16.185  1.3487 -0.3291  0.4579
 4743SOL     OW25864   0.025   0.034  16.887  0.5029 -0.8690  0.2585
 4743SOL    HW125865   4.698   0.038  16.816  0.7839  0.4246  0.0878
 4743SOL    HW225866   4.697   0.059  16.953  0.5985 -1.8185  0.7217
 4744SOL     OW25867   4.389   2.605  13.308  0.2019 -0.3375 -0.0379
 4744SOL    HW125868   4.369   2.654  13.228 -0.3568  1.1809  1.0392
 4744SOL    HW225869   4.464   2.658  13.338 -0.5592  0.4988  0.3785
 4745SOL     OW25870   1.306   4.598   9.360  0.0898  0.2113  0.3488
 4745SOL    HW125871   1.239   4.666   9.347 -0.7513 -0.8449 -0.8013
 4745SOL    HW225872   1.269   4.530   9.416 -0.8324 -0.2833 -0.8690
 4746SOL     OW25873   1.874   1.522   2.570 -0.5528  0.8795  0.6420
 4746SOL    HW125874   1.841   1.544   2.483 -0.9121  1.6897  0.9848
 4746SOL    HW225875   1.851   1.599   2.623  1.9941  0.1512  2.8290
 4747SOL     OW25876   2.014   4.459   4.660  0.5822 -0.0097  0.0209
 4747SOL    HW125877   2.035   4.523   4.729 -3.5716  0.4792  0.8389
 4747SOL    HW225878   2.008   4.385   4.720 -1.4693 -0.0121 -0.1658
 4748SOL     OW25879   4.573   4.429   6.309 -0.4586 -0.4172  0.1938
 4748SOL    HW125880   4.589   4.406   6.401  0.2451 -0.4414  0.0629
 4748SOL    HW225881   4.497   4.378   6.282 -1.1486  1.0324 -0.6084
 4749SOL     OW25882   1.887   1.217  12.680  0.1711  0.5537 -0.4787
 4749SOL    HW125883   1.829   1.251  12.748  0.3895 -0.0393  0.0086
 4749SOL    HW225884   1.890   1.283  12.611  0.8557 -1.2376 -2.1989
 4750SOL     OW25885   1.827   1.473  17.331 -0.2462  0.6657  0.3396
 4750SOL    HW125886   1.841   1.541  17.396  1.0175  0.9332 -0.2349
 4750SOL    HW225887   1.882   1.402  17.365 -1.8606 -0.1493  1.2867
 4751SOL     OW25888   3.710   1.650   3.274  0.2631 -0.5972 -0.5965
 4751SOL    HW125889   3.632   1.634   3.220 -1.0361 -0.1500  1.1764
 4751SOL    HW225890   3.678   1.661   3.363  1.8535 -0.1759 -0.0691
 4752SOL     OW25891   4.387   0.125  10.190 -0.1388  0.7227  0.1559
 4752SOL    HW125892   4.361   0.184  10.260  1.3890 -0.1408  1.4268
 4752SOL    HW225893   4.404   0.194  10.125 -0.0832 -0.7563 -1.4182
 4753SOL     OW25894   0.140   1.768  16.270 -0.2571 -0.5701  0.0538
 4753SOL    HW125895   0.087   1.751  16.347  0.6177  1.3189  1.0656
 4753SOL    HW225896   0.194   1.830  16.317 -1.8635  0.4985  0.4870
 4754SOL     OW25897   3.306   0.396   0.561  0.2026  0.0126  0.8053
 4754SOL    HW125898   3.334   0.323   0.506  0.3191 -1.0701  2.3039
 4754SOL    HW225899   3.301   0.465   0.495  0.1098 -1.5867 -0.8592
 4755SOL     OW25900   2.032   0.500  15.499 -0.6253 -0.0683 -0.0733
 4755SOL    HW125901   2.074   0.415  15.487  0.2592  0.2130  1.0341
 4755SOL    HW225902   1.999   0.514  15.410 -1.1612  1.4663  0.3568
 4756SOL     OW25903   1.443   2.035  14.650 -0.5556  0.6139 -0.0400
 4756SOL    HW125904   1.500   2.030  14.573 -1.7595 -1.2410 -0.8185
 4756SOL    HW225905   1.414   2.126  14.649 -1.1766  0.4173  0.0081
 4757SOL     OW25906   1.768   2.805   4.442  0.1830 -0.4955  0.8191
 4757SOL    HW125907   1.839   2.811   4.506 -1.2791  0.3614  2.3795
 4757SOL    HW225908   1.727   2.890   4.454 -1.1024 -0.8272 -1.2568
 4758SOL     OW25909   1.409   3.609  15.326  0.3219  0.5812 -0.0148
 4758SOL    HW125910   1.493   3.644  15.354  0.0884 -0.6825  2.2812
 4758SOL    HW225911   1.350   3.650  15.389  2.5692  1.8581  1.2615
 4759SOL     OW25912   1.726   3.691   1.173 -0.1132  0.4502 -0.3108
 4759SOL    HW125913   1.767   3.712   1.088  0.5848  0.1320 -0.0549
 4759SOL    HW225914   1.654   3.634   1.146 -3.3362  3.5494  1.8706
 4760SOL     OW25915   0.909   3.603   1.859  0.4820 -0.3231  0.1029
 4760SOL    HW125916   0.904   3.698   1.865 -0.3425 -0.3789  0.3649
 4760SOL    HW225917   0.816   3.582   1.845  0.1254 -0.2657  2.4822
 4761SOL     OW25918   2.615   0.033   8.966  0.0914  0.6300  0.3520
 4761SOL    HW125919   2.655   4.728   9.042 -0.7827  1.3980  1.2414
 4761SOL    HW225920   2.624   4.701   8.900 -1.9316  0.3175  0.3940
 4762SOL     OW25921   3.059   0.794   4.194 -0.7893  0.2258  0.5903
 4762SOL    HW125922   3.023   0.808   4.281  2.0332  0.7989  1.6520
 4762SOL    HW225923   2.982   0.807   4.138 -0.7269 -1.2007  0.1728
 4763SOL     OW25924   3.777   1.289   3.761  0.2531  0.2768  0.3126
 4763SOL    HW125925   3.835   1.362   3.739  0.5353 -0.0492 -0.0115
 4763SOL    HW225926   3.752   1.310   3.852  2.5922  1.4088  0.6875
 4764SOL     OW25927   2.122   3.468   9.270  0.5540 -0.1763 -0.1717
 4764SOL    HW125928   2.133   3.446   9.177  2.2831  0.3666 -0.0991
 4764SOL    HW225929   2.028   3.485   9.273  0.6795  0.5777 -0.6544
 4765SOL     OW25930   1.035   1.857   4.303 -0.4729  0.5247  0.4761
 4765SOL    HW125931   0.981   1.793   4.351  0.8299 -0.4984  0.5894
 4765SOL    HW225932   1.014   1.933   4.358 -3.5447 -0.2891  0.4653
 4766SOL     OW25933   4.688   0.407   2.869 -0.0163  0.7789  0.1000
 4766SOL    HW125934   0.039   0.416   2.908 -0.5869  0.2371  1.5160
 4766SOL    HW225935   4.655   0.495   2.852  1.7696  0.8205 -3.2215
 4767SOL     OW25936   1.088   0.730  13.572 -0.1228  0.4610  0.0035
 4767SOL    HW125937   1.123   0.711  13.485  1.0385 -0.2552  0.6237
 4767SOL    HW225938   0.995   0.723  13.552 -0.1224 -1.0601  0.5296
 4768SOL     OW25939   4.353   4.086   1.864  0.0983 -0.4634  0.1470
 4768SOL    HW125940   4.310   4.082   1.779 -0.4460 -1.3241  0.4695
 4768SOL    HW225941   4.356   3.993   1.886 -1.2547 -0.1020  1.8662
 4769SOL     OW25942   0.026   4.026   7.158  0.3323 -0.0991 -0.4251
 4769SOL    HW125943   4.721   3.996   7.077 -0.3182  0.4554 -0.2986
 4769SOL    HW225944   0.020   3.944   7.207  0.1846 -0.5815 -1.2578
 4770SOL     OW25945   4.354   3.611   0.582 -0.6191 -0.7974  0.1049
 4770SOL    HW125946   4.299   3.681   0.547 -1.4287 -1.1748  0.6110
 4770SOL    HW225947   4.381   3.641   0.669 -1.7423 -2.9848  1.2239
 4771SOL     OW25948   3.608   3.032   9.105  0.0493  0.2291  0.1015
 4771SOL    HW125949   3.619   2.941   9.130  1.8912  0.1128 -1.0350
 4771SOL    HW225950   3.700   3.054   9.089  0.2708  0.2512  1.4764
 4772SOL     OW25951   4.039   1.439   8.319  0.4943 -0.2253 -0.1319
 4772SOL    HW125952   4.130   1.465   8.332  1.0944 -2.2182 -0.3873
 4772SOL    HW225953   4.008   1.528   8.300 -0.2899 -0.1780  1.3407
 4773SOL     OW25954   2.477   3.901  12.302  0.1147 -0.3321  0.1389
 4773SOL    HW125955   2.490   3.859  12.387 -0.6160 -0.2514  0.2891
 4773SOL    HW225956   2.495   3.991  12.330  0.5759  0.6241 -3.2084
 4774SOL     OW25957   3.277   4.534   5.820 -0.1165 -0.2625 -0.2878
 4774SOL    HW125958   3.270   4.488   5.736 -3.4836 -0.0512 -0.1110
 4774SOL    HW225959   3.373   4.536   5.827 -0.0483  0.3180 -1.3222
 4775SOL     OW25960   3.823   3.487   6.286  0.1042  0.2475 -0.1898
 4775SOL    HW125961   3.739   3.450   6.315  0.1002  0.1385 -0.3359
 4775SOL    HW225962   3.845   3.439   6.205  2.0055  0.4785  0.1865
 4776SOL     OW25963   4.028   1.268   4.974  0.1192 -0.2266  0.0051
 4776SOL    HW125964   4.095   1.206   4.945 -0.6205 -1.1047  0.1925
 4776SOL    HW225965   4.080   1.348   4.975 -1.3789  0.7704 -1.9759
 4777SOL     OW25966   0.193   2.577   5.010  0.1547 -0.2244  0.2291
 4777SOL    HW125967   0.173   2.492   5.049 -1.2620  0.5795  1.2480
 4777SOL    HW225968   0.116   2.609   4.964  1.3367  1.5828 -0.5316
 4778SOL     OW25969   3.023   3.309  10.038 -0.6017 -0.2753  0.5626
 4778SOL    HW125970   2.928   3.296  10.042 -0.5440 -0.5605  0.9856
 4778SOL    HW225971   3.041   3.342  10.126 -1.0735  0.9682  0.1918
 4779SOL     OW25972   2.684   0.963   8.123 -0.5852  0.0137 -0.0491
 4779SOL    HW125973   2.746   0.891   8.115  0.1117  0.8059 -1.8070
 4779SOL    HW225974   2.710   1.021   8.051  1.4991 -1.7609 -0.7526
 4780SOL     OW25975   3.056   1.088   8.046  0.0792 -0.0732  0.2266
 4780SOL    HW125976   3.149   1.071   8.056  0.2719  0.6140 -0.3799
 4780SOL    HW225977   3.047   1.165   8.103 -1.0019  0.3355 -0.4910
 4781SOL     OW25978   2.313   1.183   2.841 -0.4382 -0.3143 -0.2072
 4781SOL    HW125979   2.402   1.198   2.811 -0.8971  1.1987 -0.8006
 4781SOL    HW225980   2.319   1.091   2.869  1.0798  0.4580  2.0483
 4782SOL     OW25981   1.175   1.916   3.395  0.1206  0.0673  0.1243
 4782SOL    HW125982   1.094   1.936   3.442  0.0798  0.9300 -0.3117
 4782SOL    HW225983   1.185   2.000   3.350  0.0869 -0.7206 -1.3520
 4783SOL     OW25984   0.694   4.580  15.849 -0.0615 -0.4703 -0.3298
 4783SOL    HW125985   0.745   4.520  15.904 -1.5067 -0.8663  0.5762
 4783SOL    HW225986   0.749   4.655  15.871 -0.2770  0.1255 -1.8207
 4784SOL     OW25987   1.603   1.467   6.247 -0.0428  0.3230 -0.3955
 4784SOL    HW125988   1.551   1.544   6.269  1.4270  1.0302  0.6529
 4784SOL    HW225989   1.683   1.504   6.211  0.1079 -0.6959 -1.1155
 4785SOL     OW25990   4.091   0.842   2.257 -0.4927 -0.1400 -0.0411
 4785SOL    HW125991   4.122   0.806   2.340  1.6923 -0.6154 -1.0488
 4785SOL    HW225992   4.021   0.782   2.233  0.1674 -1.3390  1.0270
 4786SOL     OW25993   0.724   2.698  15.186 -0.3472 -0.2107  0.5722
 4786SOL    HW125994   0.746   2.674  15.276  1.0043 -0.4276  0.1818
 4786SOL    HW225995   0.783   2.634  15.146  0.2640  1.4021 -1.1101
 4787SOL     OW25996   4.526   4.137  16.638  0.0326  0.6539  0.1494
 4787SOL    HW125997   4.472   4.118  16.561  1.4219  0.5296 -0.7900
 4787SOL    HW225998   4.500   4.229  16.644 -1.8739  0.1981 -1.2967
 4788SOL     OW25999   1.803   2.380   6.891  0.0561 -0.4003  0.2794
 4788SOL    HW126000   1.750   2.367   6.970 -1.6151  2.1686 -0.4144
 4788SOL    HW226001   1.884   2.412   6.931 -0.2009  0.0779  0.4231
 4789SOL     OW26002   2.071   0.836   3.010 -0.5946  0.4816  0.4784
 4789SOL    HW126003   2.119   0.757   3.036  0.9274  0.2860 -2.9099
 4789SOL    HW226004   1.991   0.834   3.062 -0.2434 -1.8792  0.9185
 4790SOL     OW26005   4.474   2.559  13.974  0.3294 -0.0179 -0.6320
 4790SOL    HW126006   4.424   2.555  14.055  2.1753 -1.6325  0.4191
 4790SOL    HW226007   4.562   2.589  13.997  0.3804 -1.3182  0.8106
 4791SOL     OW26008   2.915   3.869   0.611  0.5044  0.1283 -0.5578
 4791SOL    HW126009   2.897   3.893   0.702  2.2876  1.7570 -0.6209
 4791SOL    HW226010   2.936   3.955   0.575  1.9236 -0.6051 -1.4863
 4792SOL     OW26011   2.853   2.613   6.184  0.0299  0.0512 -0.2940
 4792SOL    HW126012   2.890   2.525   6.180  0.5919  0.2536  0.4516
 4792SOL    HW226013   2.903   2.648   6.257 -2.3130 -0.4032  1.5075
 4793SOL     OW26014   2.334   2.479  15.451  0.1006 -0.4072  0.1867
 4793SOL    HW126015   2.256   2.534  15.451  0.1281 -0.3676  0.2876
 4793SOL    HW226016   2.407   2.538  15.430 -0.4303  0.4001  0.6141
 4794SOL     OW26017   1.416   2.314   5.080 -0.4775 -0.2557  0.7187
 4794SOL    HW126018   1.450   2.242   5.027 -1.7276 -0.5258  0.2784
 4794SOL    HW226019   1.326   2.327   5.050 -1.1654 -0.2654  2.8029
 4795SOL     OW26020   1.443   4.449   5.207 -0.3399 -0.0937  0.5602
 4795SOL    HW126021   1.486   4.532   5.223  2.1744 -1.3201  0.1369
 4795SOL    HW226022   1.502   4.390   5.255 -0.2711 -0.3371  0.1740
 4796SOL     OW26023   0.465   1.576  10.406  0.3901  0.2201 -0.3014
 4796SOL    HW126024   0.398   1.507  10.412 -1.4757  2.0390 -0.3743
 4796SOL    HW226025   0.445   1.622  10.487 -0.5648  0.3791 -0.6265
 4797SOL     OW26026   2.226   2.613   9.148  0.5181  0.0002  0.0795
 4797SOL    HW126027   2.243   2.637   9.240 -2.4956 -0.6809  0.8323
 4797SOL    HW226028   2.140   2.655   9.148 -0.0583 -1.2135 -1.0147
 4798SOL     OW26029   4.132   4.626   0.355 -0.3770  0.0556 -0.2197
 4798SOL    HW126030   4.124   4.714   0.391  1.8034  0.3294 -0.4021
 4798SOL    HW226031   4.067   4.610   0.286 -0.1175 -0.6230 -0.3065
 4799SOL     OW26032   3.305   0.221   2.600  0.4543  0.0820  0.3461
 4799SOL    HW126033   3.391   0.223   2.558 -0.1260  1.9122 -0.7625
 4799SOL    HW226034   3.331   0.153   2.661 -0.6413 -1.1218 -0.4968
 4800SOL     OW26035   0.833   2.673   8.737  0.0935  0.3218  0.6654
 4800SOL    HW126036   0.836   2.768   8.734 -0.6778  0.3133 -0.2836
 4800SOL    HW226037   0.861   2.662   8.828  1.1572 -1.7417  0.0881
 4801SOL     OW26038   2.104   2.176   2.639 -0.3503  0.3924  0.6338
 4801SOL    HW126039   2.182   2.209   2.683  0.2653 -2.6356  1.8228
 4801SOL    HW226040   2.052   2.252   2.614 -0.2509  0.1594 -0.2711
 4802SOL     OW26041   3.484   4.082  12.526 -0.3561  0.1702 -0.2474
 4802SOL    HW126042   3.568   4.111  12.561 -1.0728 -0.3036  1.8808
 4802SOL    HW226043   3.454   4.146  12.462 -3.5525 -1.1456 -0.0627
 4803SOL     OW26044   1.781   1.668  12.193  0.1712  0.2634 -0.4193
 4803SOL    HW126045   1.709   1.728  12.213 -0.0010  0.0604 -0.4226
 4803SOL    HW226046   1.787   1.618  12.274  0.1300  0.2016 -0.4539
 4804SOL     OW26047   0.129   3.418  11.222  0.0579 -0.0661 -0.2532
 4804SOL    HW126048   0.180   3.345  11.255  2.1823  0.9324 -1.3225
 4804SOL    HW226049   0.038   3.388  11.223 -0.6345  2.1323  1.8354
 4805SOL     OW26050   3.257   1.709   3.774 -0.4252 -0.4673  0.1616
 4805SOL    HW126051   3.286   1.623   3.744  2.1235  0.7262 -0.7676
 4805SOL    HW226052   3.334   1.762   3.754 -2.4740  2.2240 -0.5833
 4806SOL     OW26053   1.188   3.156   3.205 -0.2268 -0.9085 -0.2572
 4806SOL    HW126054   1.146   3.132   3.288  0.3021  0.4762  0.4209
 4806SOL    HW226055   1.255   3.088   3.201  0.4653 -0.3367  1.5457
 4807SOL     OW26056   3.058   0.536   2.809  0.4801 -0.2768  0.5322
 4807SOL    HW126057   3.127   0.521   2.746 -0.0079 -2.7013  0.5627
 4807SOL    HW226058   2.981   0.538   2.751 -0.6478 -1.0301  1.9837
 4808SOL     OW26059   2.626   3.502   1.406  0.2767 -0.1982  0.4634
 4808SOL    HW126060   2.553   3.529   1.349  0.0009  0.2015  1.0057
 4808SOL    HW226061   2.650   3.590   1.434 -3.3580  0.8829  0.1910
 4809SOL     OW26062   2.037   0.373   5.746  0.1756 -0.5298 -0.2745
 4809SOL    HW126063   2.103   0.321   5.791  0.1205  0.4574  0.9421
 4809SOL    HW226064   1.956   0.365   5.798 -0.7189  0.4755 -1.4966
 4810SOL     OW26065   4.135   4.550  13.623  0.2320 -0.5369 -0.7347
 4810SOL    HW126066   4.205   4.516  13.679  0.9552 -0.7413 -1.7685
 4810SOL    HW226067   4.080   4.600  13.683  2.2854  0.3374  0.4360
 4811SOL     OW26068   2.542   3.234  16.367  0.0088  0.3934 -0.0297
 4811SOL    HW126069   2.524   3.240  16.274 -1.3164  1.3574  0.2869
 4811SOL    HW226070   2.637   3.241  16.372  0.0012  1.1721 -1.0340
 4812SOL     OW26071   0.464   0.676  17.531  0.2146  0.3967  0.0979
 4812SOL    HW126072   0.504   0.668  17.444 -0.2124  3.1239 -0.3545
 4812SOL    HW226073   0.450   0.770  17.540 -2.0956  0.1752 -1.0727
 4813SOL     OW26074   4.003   2.589   4.227  0.1107  0.6746 -0.0127
 4813SOL    HW126075   4.062   2.538   4.173  1.1731  0.3362  1.4811
 4813SOL    HW226076   3.920   2.583   4.179  0.6978 -1.3582 -0.7575
 4814SOL     OW26077   0.001   1.762   3.615 -0.1972 -0.0767  0.0989
 4814SOL    HW126078   0.080   1.771   3.668  0.5467  0.6962 -1.1727
 4814SOL    HW226079   0.046   1.734   3.536  0.8151 -0.8694  0.9411
 4815SOL     OW26080   0.757   4.646   5.205 -0.6748  0.5449  0.1906
 4815SOL    HW126081   0.847   4.630   5.179 -0.2072  0.9854  1.5561
 4815SOL    HW226082   0.720   4.658   5.117 -0.4618 -0.7358 -0.0714
 4816SOL     OW26083   1.066   3.680  17.240 -0.1001 -0.4534  0.1647
 4816SOL    HW126084   1.105   3.755  17.286 -0.9936 -0.7321  1.3679
 4816SOL    HW226085   1.127   3.675  17.166 -0.3236 -1.1227  0.0287
 4817SOL     OW26086   0.074   1.255  11.338 -0.0219  0.2325  0.3679
 4817SOL    HW126087   4.732   1.277  11.288 -1.0867 -0.3659  1.7816
 4817SOL    HW226088   0.136   1.315  11.297 -0.4942  1.2102  1.0990
 4818SOL     OW26089   2.175   1.969  12.948 -0.7644  0.3100  0.0839
 4818SOL    HW126090   2.202   2.019  13.025  1.1802  0.9263 -0.9756
 4818SOL    HW226091   2.105   2.027  12.919 -1.3549  0.2110  1.3459
 4819SOL     OW26092   2.299   3.155  10.523 -0.1461 -0.0417  0.4250
 4819SOL    HW126093   2.307   3.229  10.462  1.3396 -0.4601  0.1188
 4819SOL    HW226094   2.372   3.171  10.582 -0.5052 -1.5523  1.2738
 4820SOL     OW26095   4.701   3.142   2.476 -0.0709 -0.0796 -0.3165
 4820SOL    HW126096   0.031   3.206   2.449 -1.0016  1.2736  0.6126
 4820SOL    HW226097   4.730   3.114   2.563 -0.3413  0.6700  0.0215
 4821SOL     OW26098   2.358   0.790   4.245  0.2662  0.3465 -0.6242
 4821SOL    HW126099   2.263   0.796   4.242  0.0734 -1.1619  2.0373
 4821SOL    HW226100   2.369   0.701   4.279  2.1193  0.0819 -1.8924
 4822SOL     OW26101   4.151   2.961   3.408  0.4133 -0.6008  0.0266
 4822SOL    HW126102   4.116   2.930   3.324 -0.8959  1.4550 -0.1822
 4822SOL    HW226103   4.075   2.964   3.465  1.5542 -0.5358  1.5498
 4823SOL     OW26104   4.629   4.030   1.682  0.4013  0.1532  0.1241
 4823SOL    HW126105   4.624   4.061   1.592  0.0990  1.4976  0.5899
 4823SOL    HW226106   4.662   4.108   1.727  0.0554 -1.5688  3.3496
 4824SOL     OW26107   2.064   3.877   2.236  0.6117 -0.2309  0.2209
 4824SOL    HW126108   2.111   3.855   2.316  1.5518  0.2783 -0.1995
 4824SOL    HW226109   2.120   3.940   2.191  1.5074 -1.7038 -0.7223
 4825SOL     OW26110   1.374   0.879   6.791 -0.1348 -0.3747 -0.4843
 4825SOL    HW126111   1.463   0.895   6.760 -0.4020 -1.1644 -1.6544
 4825SOL    HW226112   1.354   0.797   6.745 -0.5315 -0.1025 -0.7957
 4826SOL     OW26113   0.004   4.369   3.472  0.0340 -0.7246  0.1526
 4826SOL    HW126114   0.089   4.395   3.507 -0.1137 -2.2866  1.6661
 4826SOL    HW226115   0.009   4.399   3.381 -0.6644  2.0779  1.0340
 4827SOL     OW26116   2.538   0.362   3.104  0.3214 -0.0043  0.2604
 4827SOL    HW126117   2.604   0.383   3.038 -0.3661 -3.3570 -1.4952
 4827SOL    HW226118   2.566   0.420   3.176 -1.5750  0.8687  0.3012
 4828SOL     OW26119   0.890   0.392   4.585 -0.6934 -0.4233  0.0686
 4828SOL    HW126120   0.798   0.386   4.559 -0.8748 -1.4544  0.9683
 4828SOL    HW226121   0.920   0.432   4.503 -1.8335  0.7625  0.2283
 4829SOL     OW26122   2.075   4.338   4.202  1.3835 -0.2876  0.3260
 4829SOL    HW126123   2.074   4.255   4.155  0.9627 -1.6827  2.8207
 4829SOL    HW226124   2.036   4.302   4.282 -0.0868 -0.7512 -0.6071
 4830SOL     OW26125   2.269   0.326   3.227  0.0241 -0.1089  0.2428
 4830SOL    HW126126   2.280   0.232   3.241 -0.0847 -0.2756 -0.7495
 4830SOL    HW226127   2.350   0.353   3.182  0.9864 -1.5541  1.1165
 4831SOL     OW26128   4.445   0.306   2.592  0.0678  0.5639 -0.2154
 4831SOL    HW126129   4.535   0.292   2.621 -0.1649 -1.5851 -0.4825
 4831SOL    HW226130   4.404   0.264   2.668 -0.4728  0.0771 -0.7773
 4832SOL     OW26131   3.625   1.566   8.901 -0.1049  0.5277  0.1926
 4832SOL    HW126132   3.669   1.620   8.836  3.5853 -3.1506 -0.3945
 4832SOL    HW226133   3.634   1.614   8.984  0.6583 -1.3710  1.2064
 4833SOL     OW26134   4.358   4.484   8.290 -0.0774  0.5716 -0.1028
 4833SOL    HW126135   4.371   4.524   8.376 -0.4375  0.8853 -0.1908
 4833SOL    HW226136   4.328   4.400   8.325 -0.1843  1.3360  1.6817
 4834SOL     OW26137   0.833   0.196  12.691 -0.1207 -0.2919  0.0496
 4834SOL    HW126138   0.835   0.117  12.745  0.3950 -0.6626 -0.5122
 4834SOL    HW226139   0.796   0.162  12.610 -1.3688  1.4846 -0.1376
 4835SOL     OW26140   4.017   1.090   2.137 -0.5389  0.2787 -0.1860
 4835SOL    HW126141   3.954   1.032   2.094 -1.2927  1.5677 -0.8390
 4835SOL    HW226142   4.040   1.030   2.208  1.8928 -1.8377 -2.7898
 4836SOL     OW26143   1.641   4.657  15.245 -0.0330  0.4650  0.1282
 4836SOL    HW126144   1.726   4.620  15.269  0.0823  0.8167  0.2638
 4836SOL    HW226145   1.652   0.011  15.276 -0.8827  1.1535 -1.5513
 4837SOL     OW26146   2.678   3.213   5.374 -0.4123 -0.2917 -0.3329
 4837SOL    HW126147   2.586   3.230   5.358 -1.1270 -0.7487  3.1311
 4837SOL    HW226148   2.680   3.197   5.469  0.6249 -0.6427 -0.4091
 4838SOL     OW26149   2.184   2.500   2.892 -0.2990  0.3219  0.0107
 4838SOL    HW126150   2.168   2.592   2.911 -2.2402  0.0958 -0.5872
 4838SOL    HW226151   2.222   2.507   2.804  2.3252 -0.9027  1.0167
 4839SOL     OW26152   1.157   3.637   6.230  0.2709  0.7440  0.1692
 4839SOL    HW126153   1.170   3.548   6.198 -0.3343  0.2866  1.1985
 4839SOL    HW226154   1.088   3.662   6.169  0.0604 -1.1381 -0.3384
 4840SOL     OW26155   1.114   3.528   5.803  0.5760  0.2671 -0.1412
 4840SOL    HW126156   1.165   3.609   5.806  1.7100 -0.3952 -1.2922
 4840SOL    HW226157   1.037   3.567   5.843  0.4926 -0.5012  0.4636
 4841SOL     OW26158   0.768   0.899   6.430  0.4441 -0.1907  0.1987
 4841SOL    HW126159   0.679   0.919   6.401  0.2470  2.1902  2.5132
 4841SOL    HW226160   0.757   0.889   6.524  2.5568 -1.1043  0.3473
 4842SOL     OW26161   0.572   0.287  13.699 -0.2453  0.3972  0.4924
 4842SOL    HW126162   0.494   0.233  13.685  0.7235 -1.1406  1.0726
 4842SOL    HW226163   0.612   0.271  13.613  0.2662  0.7692  0.6636
 4843SOL     OW26164   3.912   0.530   7.670  0.4301  0.3714 -0.2877
 4843SOL    HW126165   3.863   0.499   7.747  0.7747 -0.4299 -0.3846
 4843SOL    HW226166   3.920   0.624   7.684  0.6887  0.2453  0.4478
 4844SOL     OW26167   4.646   1.537   7.030 -0.1016  0.1531 -0.3699
 4844SOL    HW126168   0.005   1.530   7.025  0.0904  1.5018  1.4379
 4844SOL    HW226169   4.636   1.546   7.124  0.8369  0.9258 -0.3420
 4845SOL     OW26170   2.148   3.370   2.732 -0.1011  0.0289 -0.1379
 4845SOL    HW126171   2.069   3.320   2.710 -0.1795  0.0524  0.0897
 4845SOL    HW226172   2.132   3.372   2.826  0.1623  0.9116 -0.1097
 4846SOL     OW26173   0.457   4.354   6.881  0.3942 -0.3360  0.1115
 4846SOL    HW126174   0.434   4.347   6.789 -0.3669 -2.6827  0.4951
 4846SOL    HW226175   0.388   4.412   6.913  0.6205  0.8348 -1.5555
 4847SOL     OW26176   2.205   1.770   2.623  0.3364  0.4993  0.3565
 4847SOL    HW126177   2.160   1.693   2.589  1.1252 -1.1567  3.0799
 4847SOL    HW226178   2.289   1.728   2.641 -0.6169 -2.7986 -2.9477
 4848SOL     OW26179   2.736   0.551   7.287  0.3589 -0.5568 -0.9634
 4848SOL    HW126180   2.654   0.519   7.250  0.1285 -2.2699  1.0218
 4848SOL    HW226181   2.794   0.537   7.212 -0.8334 -3.5954 -1.3148
 4849SOL     OW26182   0.150   4.183  12.294  0.0935 -0.2732 -0.3833
 4849SOL    HW126183   0.213   4.255  12.288  0.8607 -1.0691 -1.8504
 4849SOL    HW226184   0.191   4.123  12.357 -3.8033 -2.0420  0.4549
 4850SOL     OW26185   2.670   1.274  10.952  0.3480  0.0445  0.0044
 4850SOL    HW126186   2.594   1.232  10.993 -0.3738  0.1330 -1.2468
 4850SOL    HW226187   2.640   1.363  10.931  0.6216 -0.0093 -0.5854
 4851SOL     OW26188   0.548   2.444   8.209 -0.4504 -0.0194 -0.2860
 4851SOL    HW126189   0.470   2.445   8.155 -0.7381 -0.1026  0.1327
 4851SOL    HW226190   0.613   2.440   8.139 -0.5017  0.0195 -0.3358
 4852SOL     OW26191   1.294   4.552   7.232 -0.2131  0.3671 -0.0897
 4852SOL    HW126192   1.292   4.457   7.219  1.3282  0.2386  0.5801
 4852SOL    HW226193   1.294   4.551   7.328  2.3741 -2.7302 -0.0885
 4853SOL     OW26194   0.716   4.497   6.567  0.1336  0.4882 -0.7877
 4853SOL    HW126195   0.629   4.507   6.528 -0.4247 -0.4267  0.2365
 4853SOL    HW226196   0.693   4.510   6.659  2.4529 -0.2060 -0.1092
 4854SOL     OW26197   4.708   3.886   1.914  0.1546  0.4330  0.1392
 4854SOL    HW126198   0.043   3.946   1.936  2.0855 -1.3267 -1.3490
 4854SOL    HW226199   4.679   3.927   1.833  0.8604  0.0895 -0.2825
 4855SOL     OW26200   4.553   3.857   3.680 -0.0296 -0.1390  0.1609
 4855SOL    HW126201   4.570   3.796   3.608  1.0884  0.3801 -0.0122
 4855SOL    HW226202   4.516   3.923   3.621  2.6476  0.3284 -0.9997
 4856SOL     OW26203   2.410   2.817   2.489  0.4323 -0.0245  0.6271
 4856SOL    HW126204   2.317   2.796   2.482  0.2736  0.4237  1.4201
 4856SOL    HW226205   2.445   2.751   2.429  1.9267 -0.3565  1.8413
 4857SOL     OW26206   0.048   1.350   2.187 -0.1716  0.7439 -0.4053
 4857SOL    HW126207   0.077   1.269   2.146 -0.6717  2.1156 -3.5141
 4857SOL    HW226208   4.693   1.326   2.204  0.2185 -0.1891  0.3705
 4858SOL     OW26209   2.994   1.258   4.009  0.1033  0.4031  0.1032
 4858SOL    HW126210   2.904   1.289   4.021 -0.6321 -2.0325  1.0292
 4858SOL    HW226211   3.051   1.317   4.059  1.6010  0.4768 -1.7110
 4859SOL     OW26212   1.763   0.459  11.734 -0.1464 -0.1082 -0.4426
 4859SOL    HW126213   1.677   0.486  11.702 -0.4780  2.3426  2.4256
 4859SOL    HW226214   1.814   0.487  11.658  0.1936  0.9652  0.1721
 4860SOL     OW26215   3.071   3.832   8.725 -0.1000 -0.1445 -0.0683
 4860SOL    HW126216   3.129   3.755   8.719 -2.1427 -1.6584 -0.4751
 4860SOL    HW226217   3.004   3.816   8.659  0.2398 -1.1724 -0.1738
 4861SOL     OW26218   1.546   0.240  16.627 -0.1101 -0.2816 -0.0656
 4861SOL    HW126219   1.471   0.277  16.674 -0.5112 -1.1394 -0.0245
 4861SOL    HW226220   1.605   0.315  16.629  1.5246 -1.6148  1.5448
 4862SOL     OW26221   2.263   0.056   9.678 -0.0591  0.0437 -0.4228
 4862SOL    HW126222   2.237   0.148   9.680 -2.1462 -0.5124 -1.1730
 4862SOL    HW226223   2.175   0.027   9.653  0.7018 -0.8179 -2.1068
 4863SOL     OW26224   1.773   0.917   6.964  0.1431 -0.9063  0.0382
 4863SOL    HW126225   1.830   0.853   7.007  2.0609  0.9249  0.2688
 4863SOL    HW226226   1.696   0.928   7.019  0.8737 -1.2492  1.1389
 4864SOL     OW26227   3.058   1.189   3.229  0.2344  0.3330 -0.1186
 4864SOL    HW126228   3.097   1.151   3.150 -2.2771 -2.4487  0.0253
 4864SOL    HW226229   2.968   1.203   3.199 -0.0707  0.3929  0.8291
 4865SOL     OW26230   3.101   1.721  10.891 -0.8394 -0.4631 -0.2666
 4865SOL    HW126231   3.172   1.697  10.951 -1.0743 -1.2293 -0.2905
 4865SOL    HW226232   3.094   1.813  10.918  0.3048 -0.5494  0.3093
 4866SOL     OW26233   2.956   2.410   4.659 -0.0108  0.2749 -0.9409
 4866SOL    HW126234   2.926   2.475   4.596  0.1261  2.3768  1.1816
 4866SOL    HW226235   2.882   2.402   4.718 -0.0805  0.7610 -0.9644
 4867SOL     OW26236   4.319   0.154   7.580  0.5179 -0.1831  0.1149
 4867SOL    HW126237   4.354   0.209   7.510 -0.4139  0.7987  0.4244
 4867SOL    HW226238   4.336   0.066   7.545  0.2525 -0.7342  1.3712
 4868SOL     OW26239   1.840   4.367   7.236 -0.3324 -0.1311  0.7248
 4868SOL    HW126240   1.856   4.272   7.237  2.7312  0.3998  0.9827
 4868SOL    HW226241   1.744   4.370   7.244 -0.4001  2.0914 -1.0916
 4869SOL     OW26242   0.275   3.754  16.516 -0.2921 -0.0386  0.4471
 4869SOL    HW126243   0.285   3.723  16.606 -2.4146 -3.4925 -0.4633
 4869SOL    HW226244   0.335   3.828  16.512  1.0096 -1.2836 -2.9935
 4870SOL     OW26245   2.547   4.482   1.884  0.0880 -0.0864  0.4235
 4870SOL    HW126246   2.482   4.550   1.902  0.7488  0.2317  1.5808
 4870SOL    HW226247   2.500   4.415   1.834 -1.6211  0.6061  1.0930
 4871SOL     OW26248   2.836   4.730   2.091  0.1055 -0.4215 -0.2600
 4871SOL    HW126249   2.923   0.012   2.126 -0.0780 -0.3017  0.1332
 4871SOL    HW226250   2.786   0.073   2.108  2.6807  1.0140  0.5525
 4872SOL     OW26251   4.607   4.389   3.962  0.3662 -0.1768  0.1665
 4872SOL    HW126252   4.588   4.302   3.995 -0.6453  0.1807  0.5167
 4872SOL    HW226253   4.563   4.384   3.877  0.5718 -2.2266  0.1743
 4873SOL     OW26254   3.780   0.934   6.867 -0.5583  0.2614  0.0574
 4873SOL    HW126255   3.855   0.920   6.925 -0.8396 -0.8876  0.1453
 4873SOL    HW226256   3.824   0.976   6.793  0.6938  1.0745  1.2635
 4874SOL     OW26257   1.442   1.613  17.126 -0.8722  0.0148  0.4161
 4874SOL    HW126258   1.537   1.614  17.136 -0.6151 -2.5214 -1.8677
 4874SOL    HW226259   1.429   1.667  17.049  1.7819  1.0166  0.6716
 4875SOL     OW26260   3.326   2.259   3.253  0.6399 -0.3031  0.1793
 4875SOL    HW126261   3.354   2.321   3.321 -0.9436 -2.1454  2.5045
 4875SOL    HW226262   3.385   2.288   3.184  0.9086 -2.7363 -0.5947
 4876SOL     OW26263   2.344   1.865   3.056  0.0792 -1.1798 -0.0411
 4876SOL    HW126264   2.270   1.846   3.114 -0.9354  0.7776 -0.7109
 4876SOL    HW226265   2.301   1.919   2.990  0.8512 -0.3763  0.1253
 4877SOL     OW26266   1.118   0.065   8.649 -0.2928 -0.0954 -0.3224
 4877SOL    HW126267   1.040   0.086   8.700  0.9586  1.1003  1.0968
 4877SOL    HW226268   1.139   4.710   8.668 -0.6330  0.1628  1.3467
 4878SOL     OW26269   3.792   1.115   9.342  0.3652  0.2296 -0.3453
 4878SOL    HW126270   3.710   1.067   9.334  0.5866 -0.0988 -0.6264
 4878SOL    HW226271   3.855   1.049   9.313 -1.6042 -0.5227 -2.8677
 4879SOL     OW26272   3.750   2.937   8.131  0.5076  0.5858  1.0829
 4879SOL    HW126273   3.717   2.978   8.212 -0.2895 -1.1719  1.6419
 4879SOL    HW226274   3.748   3.009   8.068  0.9109  0.2656  0.7089
 4880SOL     OW26275   1.316   4.707   3.898  0.6519 -0.7966  0.0997
 4880SOL    HW126276   1.254   0.039   3.874  2.9046 -0.2686 -4.1577
 4880SOL    HW226277   1.363   0.026   3.960  1.4082 -0.5531 -0.6911
 4881SOL     OW26278   0.535   1.050   9.847  0.5564 -0.0326 -0.2027
 4881SOL    HW126279   0.494   1.126   9.888  0.0203 -1.2045  1.3758
 4881SOL    HW226280   0.622   1.045   9.887  0.1611 -4.0350  0.1068
 4882SOL     OW26281   0.252   3.145   5.523 -0.2652 -0.1683  0.0237
 4882SOL    HW126282   0.194   3.081   5.482  0.0848 -0.0910 -0.5826
 4882SOL    HW226283   0.293   3.180   5.444  0.3300  1.0707  0.8628
 4883SOL     OW26284   1.047   3.286   4.188  0.2582  0.1076 -0.5382
 4883SOL    HW126285   0.980   3.294   4.121  0.8375  3.4759 -0.7253
 4883SOL    HW226286   1.084   3.199   4.176  0.4581  0.1030  0.0979
 4884SOL     OW26287   3.141   0.510   6.761 -0.2072 -0.0212 -0.1544
 4884SOL    HW126288   3.153   0.603   6.781  1.5379 -0.1169 -0.7388
 4884SOL    HW226289   3.089   0.514   6.681  0.2280  2.6484 -0.3084
 4885SOL     OW26290   2.944   4.197   7.258 -0.1112  0.0414  0.4726
 4885SOL    HW126291   2.934   4.152   7.174  0.8904  0.4790  0.1168
 4885SOL    HW226292   3.018   4.154   7.301  1.5174  2.7642  0.3451
 4886SOL     OW26293   1.854   4.679   9.997 -0.3675 -0.1728  0.0724
 4886SOL    HW126294   1.878   4.594  10.034  1.2462 -0.8232 -2.4683
 4886SOL    HW226295   1.808   4.648   9.919  2.6967  3.3769 -3.1228
 4887SOL     OW26296   3.726   0.276   2.708  0.4432  0.3878  0.2391
 4887SOL    HW126297   3.818   0.269   2.733  0.7926  0.9157 -0.9318
 4887SOL    HW226298   3.676   0.269   2.790 -0.1236 -2.0231 -0.3074
 4888SOL     OW26299   3.954   2.291   9.717  0.4833 -0.0265  0.3101
 4888SOL    HW126300   3.983   2.208   9.754  1.1979 -0.5370 -1.3906
 4888SOL    HW226301   3.947   2.340   9.800  0.8099 -0.0927  0.3788
 4889SOL     OW26302   4.693   1.416   2.720  0.1796 -0.2690  0.4265
 4889SOL    HW126303   4.612   1.436   2.674  0.4011 -1.2617 -0.3905
 4889SOL    HW226304   4.735   1.359   2.655 -0.5757  0.7174 -0.9312
 4890SOL     OW26305   0.094   1.438   3.667 -0.9695  0.4860 -0.6995
 4890SOL    HW126306   0.175   1.444   3.718 -1.8269 -1.9877  0.9555
 4890SOL    HW226307   0.019   1.421   3.724  0.0147 -3.1517 -0.4550
 4891SOL     OW26308   0.052   4.319   9.465 -0.2314  0.4975  0.3254
 4891SOL    HW126309   0.077   4.409   9.486 -0.8150  0.5209  0.9101
 4891SOL    HW226310   4.693   4.324   9.455 -0.4373 -3.1429  0.5847
 4892SOL     OW26311   2.455   2.617   8.564  0.1019 -0.6838  0.3788
 4892SOL    HW126312   2.438   2.708   8.537 -1.0036 -0.4577  1.8505
 4892SOL    HW226313   2.536   2.587   8.524  1.2226  0.0311  2.1143
 4893SOL     OW26314   2.815   0.227   3.012  0.2649  0.1551 -0.7338
 4893SOL    HW126315   2.906   0.219   2.981  0.7908 -1.2476  1.1640
 4893SOL    HW226316   2.798   0.320   3.019  1.8543  0.3668  0.3075
 4894SOL     OW26317   3.490   3.037   3.485 -0.4657 -0.1992 -0.3464
 4894SOL    HW126318   3.411   3.027   3.431 -0.9599  1.2340  0.1109
 4894SOL    HW226319   3.554   3.021   3.416  0.7927 -0.2801  0.8417
 4895SOL     OW26320   1.164   2.747   3.427 -0.5463 -0.0988  0.1731
 4895SOL    HW126321   1.231   2.812   3.405 -0.5012 -0.0495  0.4652
 4895SOL    HW226322   1.131   2.731   3.338 -0.2213 -0.1750  0.0645
 4896SOL     OW26323   0.755   3.280   0.613  0.9288 -0.0413 -0.0768
 4896SOL    HW126324   0.821   3.212   0.601 -1.3457 -2.1660 -0.4205
 4896SOL    HW226325   0.744   3.326   0.529 -2.7327 -0.9059 -0.0515
 4897SOL     OW26326   3.473   3.161   1.633  0.2421 -0.6306  0.3345
 4897SOL    HW126327   3.466   3.074   1.592  1.9241 -0.5402 -0.1368
 4897SOL    HW226328   3.415   3.148   1.708  0.1016 -0.3751  0.2678
 4898SOL     OW26329   3.820   3.389  13.954 -0.0772  0.0508 -0.0700
 4898SOL    HW126330   3.812   3.384  14.050  0.1625  2.5621  0.0870
 4898SOL    HW226331   3.910   3.419  13.941  0.2879 -0.0461  2.0944
 4899SOL     OW26332   0.121   0.626  10.462 -0.1798 -0.4371 -0.1440
 4899SOL    HW126333   0.170   0.654  10.540  1.1485  1.9487 -1.8432
 4899SOL    HW226334   0.035   0.662  10.484  0.8664  0.7613  1.9470
 4900SOL     OW26335   3.625   4.639   3.354 -0.4658  0.0734  0.0530
 4900SOL    HW126336   3.583   4.553   3.358  2.7116 -1.5326 -0.4007
 4900SOL    HW226337   3.655   4.646   3.263 -3.0596 -1.1702 -0.8820
 4901SOL     OW26338   3.649   2.733   1.641  0.0835  0.2261 -0.4119
 4901SOL    HW126339   3.657   2.813   1.692  0.8165 -0.6494  0.8576
 4901SOL    HW226340   3.741   2.707   1.646  0.0231 -0.0862 -0.9002
 4902SOL     OW26341   2.311   1.218  10.095  0.2043 -0.1113  0.4995
 4902SOL    HW126342   2.302   1.125  10.074 -0.3170 -0.3749  1.8632
 4902SOL    HW226343   2.218   1.241  10.092 -0.2980 -2.1184  1.3289
 4903SOL     OW26344   0.001   0.351   5.402 -0.1208 -0.4966  0.1132
 4903SOL    HW126345   0.001   0.317   5.491  2.1786  0.5524  0.5147
 4903SOL    HW226346   4.655   0.313   5.373 -0.2854  0.4825 -0.6803
 4904SOL     OW26347   0.193   4.589   1.713 -0.0441 -0.5439 -0.0471
 4904SOL    HW126348   0.116   4.550   1.754 -0.0687 -1.0652 -0.5754
 4904SOL    HW226349   0.180   4.564   1.621 -1.7507 -1.5638  0.4688
 4905SOL     OW26350   1.565   0.084   5.923  0.2104  0.0112  0.4513
 4905SOL    HW126351   1.656   0.089   5.953 -0.6687 -3.4440  3.7483
 4905SOL    HW226352   1.511   0.130   5.988 -0.2668  0.5444 -0.3222
 4906SOL     OW26353   4.654   0.920   3.122 -0.0399  0.0767 -1.1136
 4906SOL    HW126354   4.576   0.930   3.068 -0.8489 -1.6687 -0.2722
 4906SOL    HW226355   4.722   0.962   3.069  2.9984  2.1100  4.4299
 4907SOL     OW26356   3.073   1.723   6.023 -0.1465 -0.1360 -0.0239
 4907SOL    HW126357   3.147   1.717   5.963 -0.8864  0.9414 -1.0232
 4907SOL    HW226358   3.084   1.811   6.059  2.6888 -0.3748 -0.3018
 4908SOL     OW26359   4.426   1.483   5.196 -0.2336 -0.5143  0.2827
 4908SOL    HW126360   4.346   1.534   5.188  0.4296  0.5547  0.4956
 4908SOL    HW226361   4.383   1.398   5.184  0.2623 -0.9302  1.4359
 4909SOL     OW26362   1.774   3.740   6.964 -0.5452 -0.0767 -0.3275
 4909SOL    HW126363   1.832   3.730   7.040 -0.5847  1.1896 -0.1188
 4909SOL    HW226364   1.726   3.817   6.994 -1.1197 -0.7567  0.4986
 4910SOL     OW26365   1.651   3.939  16.025 -0.0485 -0.5183  0.1720
 4910SOL    HW126366   1.737   3.979  16.011 -0.2022 -1.2334 -2.8322
 4910SOL    HW226367   1.638   3.873  15.956 -1.3781 -1.4987  1.3460
 4911SOL     OW26368   1.178   1.552  11.868  0.1237  0.3686 -0.1725
 4911SOL    HW126369   1.112   1.612  11.903 -1.4748 -1.4385 -0.0933
 4911SOL    HW226370   1.233   1.526  11.942 -2.6712 -1.5401  1.2516
 4912SOL     OW26371   0.287   2.449  11.306 -0.7678  0.0503 -0.2125
 4912SOL    HW126372   0.294   2.510  11.379 -1.9448  0.7420 -0.6809
 4912SOL    HW226373   0.356   2.478  11.247 -1.2520 -0.7246 -1.1589
 4913SOL     OW26374   3.520   4.181  10.285  0.3748 -0.3437  0.1369
 4913SOL    HW126375   3.453   4.114  10.270  1.0486 -1.3330  1.5373
 4913SOL    HW226376   3.467   4.258  10.265  0.0565 -0.5608  0.1482
 4914SOL     OW26377   1.698   0.860   6.135  0.0762  0.0591  0.0354
 4914SOL    HW126378   1.663   0.837   6.049  1.4144  1.3835 -0.8543
 4914SOL    HW226379   1.777   0.806   6.131  0.1285  0.1450 -0.0642
 4915SOL     OW26380   2.471   4.467   6.002  0.2107 -0.0236 -0.0533
 4915SOL    HW126381   2.453   4.384   6.047  0.4774 -0.7253 -1.2542
 4915SOL    HW226382   2.478   4.517   6.084 -0.1998  0.4962 -0.3413
 4916SOL     OW26383   0.710   3.749   5.721  0.4120 -0.2277  0.1106
 4916SOL    HW126384   0.630   3.758   5.774  0.0346  0.6240 -0.6063
 4916SOL    HW226385   0.683   3.794   5.641  0.5755  0.9138  0.6977
 4917SOL     OW26386   4.068   3.530  10.458  0.2208  0.0851 -0.0440
 4917SOL    HW126387   4.009   3.504  10.387  1.3070 -2.2398 -0.1114
 4917SOL    HW226388   4.014   3.510  10.534  0.5934 -0.3679  0.1081
 4918SOL     OW26389   3.679   3.458   3.553  0.5097 -0.2379 -0.2817
 4918SOL    HW126390   3.635   3.413   3.480 -1.0161 -0.2516  0.6553
 4918SOL    HW226391   3.615   3.529   3.557  0.7873 -0.0576  0.9170
 4919SOL     OW26392   3.855   3.148  17.265 -0.2978  0.1624 -0.1645
 4919SOL    HW126393   3.847   3.073  17.325 -1.1036 -0.7739 -1.4339
 4919SOL    HW226394   3.841   3.098  17.185 -0.4962 -0.6328  0.3534
 4920SOL     OW26395   3.545   2.486  11.429  0.2993 -0.2680  0.4714
 4920SOL    HW126396   3.546   2.397  11.464  1.6181  0.3086  1.9139
 4920SOL    HW226397   3.628   2.520  11.463 -0.5544 -1.3265  3.6023
 4921SOL     OW26398   2.086   4.301  11.999  0.2444 -0.0118 -0.2507
 4921SOL    HW126399   2.088   4.397  11.996  3.4093 -0.0742 -0.1785
 4921SOL    HW226400   2.096   4.289  12.093  0.9137 -0.6268 -0.4005
 4922SOL     OW26401   4.192   0.201   9.279  0.4285  0.4850 -0.1846
 4922SOL    HW126402   4.140   0.202   9.359 -2.7914 -0.4931 -2.2719
 4922SOL    HW226403   4.247   0.277   9.300 -1.0857  1.0490  1.7700
 4923SOL     OW26404   2.797   1.278  14.705  0.3299  0.4210  0.3977
 4923SOL    HW126405   2.841   1.342  14.760  1.6677  1.7961 -2.2678
 4923SOL    HW226406   2.761   1.227  14.778 -1.1896  1.3826  0.3184
 4924SOL     OW26407   2.609   3.417   9.927 -0.0501 -0.4373  0.3487
 4924SOL    HW126408   2.556   3.337   9.926 -0.1944 -0.3865  2.2883
 4924SOL    HW226409   2.654   3.414   9.843 -0.3721  0.4802  0.1481
 4925SOL     OW26410   3.329   4.225  11.893  0.1602 -0.3510  0.5927
 4925SOL    HW126411   3.304   4.143  11.850  1.5692 -0.1457 -0.5977
 4925SOL    HW226412   3.251   4.235  11.948 -1.7663 -2.2452 -1.7517
 4926SOL     OW26413   1.985   3.317   8.163 -0.5473 -0.6144 -0.1093
 4926SOL    HW126414   2.004   3.394   8.109  2.0588 -1.4274 -0.3749
 4926SOL    HW226415   1.949   3.252   8.104 -2.9475 -0.6744  1.4442
 4927SOL     OW26416   4.558   0.841   8.814 -0.2182  0.8538 -0.4111
 4927SOL    HW126417   4.633   0.860   8.759 -1.2100  2.4634 -1.1950
 4927SOL    HW226418   4.484   0.851   8.755 -0.8473 -2.2660 -0.1699
 4928SOL     OW26419   3.032   1.135   5.833  0.5200 -0.6550 -0.9501
 4928SOL    HW126420   3.102   1.132   5.897 -1.0804  0.1891  0.8216
 4928SOL    HW226421   3.086   1.160   5.758  1.0772  0.1268 -0.2757
 4929SOL     OW26422   0.425   1.486  12.675 -0.2614 -0.3828  0.2230
 4929SOL    HW126423   0.396   1.434  12.601  0.2052 -2.1031  1.2594
 4929SOL    HW226424   0.424   1.424  12.748  2.7825  0.6742  1.1497
 4930SOL     OW26425   3.808   4.160   7.082 -0.4192  0.6629 -0.2542
 4930SOL    HW126426   3.872   4.100   7.122 -2.0561 -0.5705  0.5453
 4930SOL    HW226427   3.864   4.221   7.036  0.7877  0.5962  1.1054
 4931SOL     OW26428   4.387   3.593   4.954 -0.0534  0.0818 -0.1846
 4931SOL    HW126429   4.350   3.616   4.869  1.7835  0.5178 -0.8632
 4931SOL    HW226430   4.310   3.560   5.000 -0.9003  1.1591 -0.8225
 4932SOL     OW26431   3.722   4.155   1.394 -0.2667  0.4624 -0.4734
 4932SOL    HW126432   3.764   4.069   1.390 -0.8004  0.1326  0.8666
 4932SOL    HW226433   3.647   4.140   1.337  0.6558 -1.2420 -1.2233
 4933SOL     OW26434   3.217   3.302   1.824  0.1514  0.2509 -0.0861
 4933SOL    HW126435   3.135   3.340   1.794  0.6770  1.2459 -0.2512
 4933SOL    HW226436   3.280   3.374   1.826  0.2318  0.0582  3.2385
 4934SOL     OW26437   0.672   2.443   0.925 -0.4006  0.4889 -0.3561
 4934SOL    HW126438   0.718   2.443   1.009 -1.0434  1.6691 -0.0055
 4934SOL    HW226439   0.696   2.357   0.890  0.1463  0.3006  0.4888
 4935SOL     OW26440   0.588   3.592   7.219  0.1640  0.3255 -0.7112
 4935SOL    HW126441   0.674   3.633   7.224  0.5155 -0.5171  0.0593
 4935SOL    HW226442   0.531   3.657   7.178  1.3156  0.2034 -2.4686
 4936SOL     OW26443   2.936   3.701   1.610  0.7474  0.5099 -0.2723
 4936SOL    HW126444   2.857   3.728   1.562  0.8112  1.2414  0.0440
 4936SOL    HW226445   2.916   3.743   1.693 -1.4596  0.2552 -0.6771
 4937SOL     OW26446   0.768   0.802   8.734 -0.0131  0.9495  0.3153
 4937SOL    HW126447   0.821   0.880   8.747  0.7056  0.1861  1.8634
 4937SOL    HW226448   0.683   0.820   8.774  0.8516 -0.2669  2.6766
 4938SOL     OW26449   1.694   3.700   3.992 -0.3334 -0.0466  0.1758
 4938SOL    HW126450   1.733   3.765   3.935  1.2260 -1.3717 -0.2514
 4938SOL    HW226451   1.637   3.662   3.925 -0.9423  0.8831  0.1635
 4939SOL     OW26452   4.406   2.409   8.971 -0.3650 -0.5481  0.0535
 4939SOL    HW126453   4.455   2.485   9.004 -1.6580 -0.5539  2.0333
 4939SOL    HW226454   4.449   2.410   8.886  0.3448  1.1755  0.4321
 4940SOL     OW26455   1.443   2.765   3.927 -0.1044  0.0472  0.2822
 4940SOL    HW126456   1.404   2.685   3.962  1.6364 -1.6627 -1.5747
 4940SOL    HW226457   1.438   2.754   3.832  0.3127 -0.7946  0.3575
 4941SOL     OW26458   2.309   3.958   7.179  0.1080  0.2330  0.5186
 4941SOL    HW126459   2.334   4.026   7.242  1.1854  1.7211 -1.5254
 4941SOL    HW226460   2.346   3.878   7.218 -1.6621 -1.0176 -0.3790
 4942SOL     OW26461   2.430   3.782   5.483 -0.5395 -0.3805 -0.3308
 4942SOL    HW126462   2.501   3.718   5.480 -0.5169 -0.3455 -0.5133
 4942SOL    HW226463   2.350   3.733   5.462  0.9643 -2.8805 -0.1817
 4943SOL     OW26464   2.847   2.614  10.102  0.1093  0.0088  0.3887
 4943SOL    HW126465   2.865   2.552  10.173  1.1037  0.1621  0.2775
 4943SOL    HW226466   2.933   2.616  10.059 -0.1209 -1.9466 -0.1694
 4944SOL     OW26467   1.674   4.107  10.874  0.3269 -0.2057  0.3800
 4944SOL    HW126468   1.614   4.033  10.872 -0.7020  0.6345  0.4898
 4944SOL    HW226469   1.616   4.181  10.856  1.3555 -0.0696 -2.3531
 4945SOL     OW26470   3.035   2.917   5.408 -0.1522  0.3130 -0.2895
 4945SOL    HW126471   2.995   2.990   5.361 -0.4205  0.6811  0.5267
 4945SOL    HW226472   2.991   2.925   5.492 -1.4610 -2.9613 -0.6683
 4946SOL     OW26473   3.278   1.740   5.793  0.8900  0.5954  0.5255
 4946SOL    HW126474   3.312   1.663   5.838  1.2154  0.1756 -0.4413
 4946SOL    HW226475   3.340   1.726   5.722  0.9566 -1.0828  0.9111
 4947SOL     OW26476   4.103   1.948  12.566 -0.2200  0.1169 -0.1943
 4947SOL    HW126477   4.059   1.932  12.650  0.1179 -0.8180 -0.1944
 4947SOL    HW226478   4.029   1.980  12.515  0.5052 -1.1312 -2.0084
 4948SOL     OW26479   1.751   3.366   6.906 -0.2777 -0.0563 -0.0187
 4948SOL    HW126480   1.753   3.443   6.850 -0.1845  1.4411  2.0390
 4948SOL    HW226481   1.684   3.307   6.871  0.5311 -0.7014 -0.4778
 4949SOL     OW26482   0.411   2.328   0.888 -0.7663 -0.6189 -0.1793
 4949SOL    HW126483   0.499   2.365   0.883  0.2061 -2.5893  2.3661
 4949SOL    HW226484   0.363   2.392   0.939  1.2613  0.8393 -0.0836
 4950SOL     OW26485   4.570   0.029   5.044  0.3603  0.1675 -0.4059
 4950SOL    HW126486   4.508   0.085   4.995 -1.1932  0.2837  1.7027
 4950SOL    HW226487   4.618   0.082   5.107 -0.1350 -1.2153  1.1222
 4951SOL     OW26488   4.593   4.410   2.212  0.0694 -0.4917  0.5730
 4951SOL    HW126489   4.558   4.328   2.177 -1.5987 -0.3062  1.7814
 4951SOL    HW226490   4.682   4.386   2.238 -0.8702 -1.4672  2.9255
 4952SOL     OW26491   2.948   3.467   8.261  0.2324 -0.0718  0.1869
 4952SOL    HW126492   2.971   3.482   8.352  0.7593  0.6123 -0.0628
 4952SOL    HW226493   2.884   3.538   8.254 -0.6218 -0.8272  0.2985
 4953SOL     OW26494   2.062   2.290   1.837  0.5344  0.1679 -0.1167
 4953SOL    HW126495   1.978   2.255   1.807  0.8355 -0.7914  0.1828
 4953SOL    HW226496   2.116   2.213   1.823  1.9868  1.1115  0.3690
 4954SOL     OW26497   4.267   3.224   6.860  0.2846  0.4032  0.1926
 4954SOL    HW126498   4.262   3.239   6.766 -1.1494  1.3471  0.4193
 4954SOL    HW226499   4.221   3.141   6.867  0.5379  0.3022  0.6423
 4955SOL     OW26500   3.528   0.716  15.538  0.1661 -0.0842 -0.9143
 4955SOL    HW126501   3.619   0.688  15.545  0.7124  2.1204  0.9344
 4955SOL    HW226502   3.491   0.665  15.610 -0.6796  2.2918  0.3666
 4956SOL     OW26503   1.532   2.133   4.916 -0.3395  0.3637 -0.3292
 4956SOL    HW126504   1.515   2.060   4.858  0.9291 -0.6883  0.6435
 4956SOL    HW226505   1.624   2.115   4.933 -0.4707 -1.7964 -1.9368
 4957SOL     OW26506   4.694   0.883   6.388 -0.1800 -0.1259  0.4604
 4957SOL    HW126507   4.698   0.859   6.480  0.6136  1.9848  0.9909
 4957SOL    HW226508   4.671   0.976   6.391 -1.1255 -0.3436 -0.0950
 4958SOL     OW26509   4.686   1.101   1.897  0.0958 -0.8978  0.5001
 4958SOL    HW126510   4.736   1.111   1.978 -0.6362 -2.3664  1.1226
 4958SOL    HW226511   4.616   1.162   1.920 -0.2659 -0.9411 -0.4718
 4959SOL     OW26512   0.539   1.061   3.907 -0.3436  0.5922 -0.0553
 4959SOL    HW126513   0.591   1.043   3.985 -1.1109  1.8639  0.7335
 4959SOL    HW226514   0.565   0.982   3.859  0.2784  1.2999 -0.8711
 4960SOL     OW26515   2.465   3.548  10.133 -0.6613 -0.4852  0.4413
 4960SOL    HW126516   2.541   3.545  10.075 -0.6862  0.3307  0.3721
 4960SOL    HW226517   2.486   3.629  10.179 -0.7213 -0.8264  1.0719
 4961SOL     OW26518   4.089   4.319   9.361  0.1240 -0.3777  0.2269
 4961SOL    HW126519   4.095   4.410   9.390 -0.8924 -0.4409  0.6110
 4961SOL    HW226520   4.134   4.273   9.431  0.0549  0.2477  0.6795
 4962SOL     OW26521   0.190   4.352   4.583 -0.0265 -0.2290 -0.2584
 4962SOL    HW126522   0.265   4.314   4.538  0.1328 -2.0033  1.4914
 4962SOL    HW226523   0.151   4.417   4.524  0.7295 -0.9691 -1.5505
 4963SOL     OW26524   0.229   2.389   8.455 -0.2040 -0.3126 -0.3427
 4963SOL    HW126525   0.165   2.361   8.521 -1.6072 -1.0355 -2.0315
 4963SOL    HW226526   0.245   2.479   8.482  0.6012 -0.3058 -0.8651
 4964SOL     OW26527   1.115   0.073   2.308  0.6348 -0.3177  0.6285
 4964SOL    HW126528   1.093   0.036   2.393  0.5089  1.0886  1.2146
 4964SOL    HW226529   1.128   0.001   2.246 -1.2118 -0.2900  0.2148
 4965SOL     OW26530   3.720   1.461   2.381  0.2914 -0.2685  0.3946
 4965SOL    HW126531   3.716   1.509   2.298  2.5709 -0.3787  0.2233
 4965SOL    HW226532   3.737   1.373   2.345 -1.5819 -1.5344  2.5930
 4966SOL     OW26533   0.514   1.393  12.115  0.2968  0.1455 -0.0602
 4966SOL    HW126534   0.554   1.425  12.196 -0.6574  0.3153  0.3417
 4966SOL    HW226535   0.560   1.454  12.058 -1.8648 -1.3927 -3.4695
 4967SOL     OW26536   0.553   3.172   1.118 -0.0514  0.4599  1.4567
 4967SOL    HW126537   0.635   3.209   1.149  0.3308  0.6686  0.1873
 4967SOL    HW226538   0.560   3.212   1.031 -1.4372 -0.3698  0.9652
 4968SOL     OW26539   1.462   0.280  11.878 -0.2516 -0.0731 -0.0120
 4968SOL    HW126540   1.381   0.250  11.919 -0.0205 -1.9631 -0.9524
 4968SOL    HW226541   1.433   0.272  11.787  1.7637 -1.4617 -0.5343
 4969SOL     OW26542   0.864   0.512   5.802 -0.2055  0.0567 -0.0952
 4969SOL    HW126543   0.910   0.432   5.776  0.5180  1.0465 -1.8799
 4969SOL    HW226544   0.901   0.571   5.736 -0.1324 -0.2825 -0.3562
 4970SOL     OW26545   1.363   4.061   2.736 -0.0446 -0.0987 -0.2300
 4970SOL    HW126546   1.357   4.025   2.825 -0.4818  1.4392  0.3629
 4970SOL    HW226547   1.349   4.155   2.747 -2.8520 -0.1991 -2.8087
 4971SOL     OW26548   0.740   1.152   5.761  0.0602  0.0519  0.4605
 4971SOL    HW126549   0.746   1.068   5.807 -0.5872  0.8148  1.9665
 4971SOL    HW226550   0.662   1.147   5.705  0.1678 -0.8967  0.4082
 4972SOL     OW26551   1.787   3.285   2.094  0.0024 -0.0232 -0.3102
 4972SOL    HW126552   1.727   3.234   2.039  0.9045 -0.6199 -0.7514
 4972SOL    HW226553   1.780   3.366   2.044  2.1304 -1.7142 -3.3691
 4973SOL     OW26554   2.343   0.985   7.852 -0.5708  0.3897  0.0993
 4973SOL    HW126555   2.388   0.934   7.919 -1.4023  1.0123  1.1196
 4973SOL    HW226556   2.376   1.073   7.868  0.3215  0.0449  0.1234
 4974SOL     OW26557   1.963   1.481   9.410 -0.9788 -0.3817 -0.5941
 4974SOL    HW126558   1.873   1.512   9.418 -0.7182  0.6201 -1.4776
 4974SOL    HW226559   2.003   1.556   9.365  2.1139 -1.7241 -0.0856
 4975SOL     OW26560   0.161   0.281   1.380  0.4856 -0.2873  0.1214
 4975SOL    HW126561   0.075   0.311   1.349  0.5030 -1.4004 -0.9987
 4975SOL    HW226562   0.126   0.198   1.412  0.5254 -0.4516 -0.2678
 4976SOL     OW26563   2.360   2.373   4.900  0.3952 -0.7112  0.0744
 4976SOL    HW126564   2.408   2.408   4.974  0.4511  0.7726 -0.6662
 4976SOL    HW226565   2.289   2.341   4.956  0.7004 -0.1013  0.8095
 4977SOL     OW26566   2.543   1.444   7.968 -0.3291 -0.0270 -0.1861
 4977SOL    HW126567   2.611   1.423   8.031 -0.3709 -0.7486 -0.3798
 4977SOL    HW226568   2.500   1.517   8.013 -0.8796  0.0828 -0.8892
 4978SOL     OW26569   2.243   0.326   4.261 -0.5190  0.1408  0.2388
 4978SOL    HW126570   2.166   0.304   4.313 -0.3039  1.0561  0.9480
 4978SOL    HW226571   2.210   0.333   4.171 -2.6785 -0.4188  0.9998
 4979SOL     OW26572   1.110   3.401   2.687  0.1817  0.0686 -0.0315
 4979SOL    HW126573   1.137   3.409   2.778 -2.4071 -0.7989  0.8031
 4979SOL    HW226574   1.192   3.360   2.658  0.3941  0.2700  0.2861
 4980SOL     OW26575   3.223   0.735  10.767  0.1356  0.3141 -0.1532
 4980SOL    HW126576   3.252   0.661  10.821 -2.0601 -0.3596  0.0987
 4980SOL    HW226577   3.186   0.800  10.826 -2.2598 -2.5650  1.4982
 4981SOL     OW26578   4.473   4.681   3.986  0.0468 -0.5159  0.5461
 4981SOL    HW126579   4.567   4.680   3.969 -0.0656 -1.7840  0.0023
 4981SOL    HW226580   4.440   4.632   3.910 -0.6035 -0.2262  0.6440
 4982SOL     OW26581   3.075   1.431   7.879 -0.2028 -0.1942 -0.1119
 4982SOL    HW126582   3.159   1.469   7.902  0.0096 -0.6733 -0.0918
 4982SOL    HW226583   3.104   1.342   7.857 -0.7795 -0.3112 -0.3862
 4983SOL     OW26584   4.120   4.367   1.184  0.0726 -0.1313  0.4830
 4983SOL    HW126585   4.128   4.443   1.126  2.1090 -1.3718 -0.8789
 4983SOL    HW226586   4.027   4.355   1.203  0.2771 -2.4474  0.0215
 4984SOL     OW26587   2.424   1.657   8.696 -0.3972  0.2363  0.1391
 4984SOL    HW126588   2.393   1.573   8.663 -0.6616  0.0921  0.7618
 4984SOL    HW226589   2.479   1.629   8.769  1.5618 -2.5471 -2.4334
 4985SOL     OW26590   4.239   3.204   8.367 -0.2105 -0.0891  0.1180
 4985SOL    HW126591   4.312   3.217   8.307 -2.0331 -1.4462 -2.3996
 4985SOL    HW226592   4.242   3.280   8.425  1.3152  0.7584 -1.0714
 4986SOL     OW26593   4.094   3.833   4.960 -0.7146 -0.1100  0.2357
 4986SOL    HW126594   4.102   3.923   4.990 -0.9228 -0.5444  1.6321
 4986SOL    HW226595   4.082   3.786   5.043 -0.3983  2.0785  1.5079
 4987SOL     OW26596   1.586   2.923   1.969  0.0627  0.0636 -0.2161
 4987SOL    HW126597   1.577   3.012   1.936 -0.1557  0.1604  0.1090
 4987SOL    HW226598   1.676   2.923   1.936  0.8710 -1.1032  2.0164
 4988SOL     OW26599   0.691   2.194   7.932  0.2503  0.0074 -0.4098
 4988SOL    HW126600   0.663   2.190   8.023 -2.1007 -2.0777 -1.2411
 4988SOL    HW226601   0.614   2.174   7.880 -1.8073  3.1632  1.4253
 4989SOL     OW26602   0.088   1.440   8.369  0.4560  0.3474 -0.1364
 4989SOL    HW126603   0.080   1.418   8.462 -2.1047  1.7941 -0.0070
 4989SOL    HW226604   0.094   1.535   8.380 -0.6091  0.4326 -0.3681
 4990SOL     OW26605   2.160   0.608   7.117  0.0290 -0.0847 -0.1050
 4990SOL    HW126606   2.234   0.655   7.079  0.5292 -0.8673 -0.1030
 4990SOL    HW226607   2.186   0.520   7.091  0.6071  0.5948 -1.8519
 4991SOL     OW26608   3.443   1.467   3.758 -0.3277  0.3201 -0.0747
 4991SOL    HW126609   3.448   1.417   3.839  0.5761 -0.0604 -0.3635
 4991SOL    HW226610   3.535   1.449   3.736 -0.4565 -0.7997  0.2977
 4992SOL     OW26611   0.096   1.881   1.883 -0.8224 -0.3887  0.5549
 4992SOL    HW126612   0.172   1.843   1.839  0.0802  0.7468  1.1121
 4992SOL    HW226613   0.068   1.802   1.930  0.3669 -0.3232  1.3755
 4993SOL     OW26614   3.158   3.882   7.005  0.4323 -0.7320  0.5282
 4993SOL    HW126615   3.158   3.793   6.969 -2.5232 -0.1133 -1.0563
 4993SOL    HW226616   3.227   3.869   7.070 -0.8547 -1.1647  1.8121
 4994SOL     OW26617   3.249   1.747   8.486  0.7367  0.1420  0.1182
 4994SOL    HW126618   3.285   1.816   8.541 -0.5969 -0.6692  2.0303
 4994SOL    HW226619   3.272   1.675   8.545 -3.0809  1.1588  2.9049
 4995SOL     OW26620   2.369   1.029   4.956  0.0519 -0.2095  0.0944
 4995SOL    HW126621   2.453   1.064   4.986 -0.7679  1.8711 -0.0225
 4995SOL    HW226622   2.305   1.100   4.965 -0.6915 -0.7863 -0.5463
 4996SOL     OW26623   3.734   4.260  10.166 -0.1468  0.0852  0.1893
 4996SOL    HW126624   3.725   4.353  10.187 -2.3597  0.0952 -0.8047
 4996SOL    HW226625   3.654   4.228  10.208 -0.3268  0.3388  0.0389
 4997SOL     OW26626   0.158   1.246  14.930 -0.2949  0.0842 -0.5245
 4997SOL    HW126627   0.164   1.150  14.936  0.1011  0.1198 -0.3758
 4997SOL    HW226628   0.149   1.252  14.835  1.1350  2.2535 -0.5079
 4998SOL     OW26629   0.101   3.843   3.797  0.1429 -0.8023  0.5040
 4998SOL    HW126630   0.014   3.846   3.757  0.8909 -0.0654 -1.0811
 4998SOL    HW226631   0.082   3.791   3.874 -1.5089  0.1591  0.7403
 4999SOL     OW26632   3.615   1.871   0.676 -0.1963  0.0934 -0.1698
 4999SOL    HW126633   3.564   1.916   0.743 -1.5450 -1.0913 -0.4123
 4999SOL    HW226634   3.701   1.887   0.716 -0.0448 -0.6208 -0.2060
 5000SOL     OW26635   2.773   0.672   5.477  0.0141  0.3555 -0.3951
 5000SOL    HW126636   2.823   0.753   5.476 -1.1540  1.1087  1.2074
 5000SOL    HW226637   2.738   0.674   5.567  0.5927 -0.1902 -0.1546
 5001SOL     OW26638   1.702   3.707   9.059 -0.4886 -0.1509 -0.4436
 5001SOL    HW126639   1.791   3.741   9.060 -0.6063  0.0611  2.6483
 5001SOL    HW226640   1.682   3.704   8.965 -2.5037 -2.0906  0.0471
 5002SOL     OW26641   1.925   3.216   2.689 -0.6118  0.5440 -0.4844
 5002SOL    HW126642   1.962   3.165   2.617  0.8869 -0.4786  1.0127
 5002SOL    HW226643   1.835   3.226   2.657  0.0383  1.7709 -1.8970
 5003SOL     OW26644   3.874   0.637   6.595 -0.1823 -0.0287 -0.2449
 5003SOL    HW126645   3.827   0.693   6.533  1.3676 -2.0682 -3.2718
 5003SOL    HW226646   3.797   0.589   6.625  0.7317 -0.0885  2.0511
 5004SOL     OW26647   2.364   0.264   9.047 -0.1547 -0.3870  0.6130
 5004SOL    HW126648   2.422   0.292   8.976  1.9936 -1.6764  1.8709
 5004SOL    HW226649   2.299   0.206   9.006 -0.9755 -0.3876  1.9350
 5005SOL     OW26650   0.811   0.243  17.701 -0.8025 -0.5031 -0.2713
 5005SOL    HW126651   0.894   0.227   0.001 -1.4584 -0.4260  0.9836
 5005SOL    HW226652   0.805   0.338  17.687 -1.1099 -0.4637  0.1151
 5006SOL     OW26653   3.165   2.416   8.719 -0.2719 -0.0207 -0.2146
 5006SOL    HW126654   3.093   2.452   8.770 -0.5040  1.6015 -1.7185
 5006SOL    HW226655   3.166   2.484   8.652 -1.4892 -0.1266 -0.3394
 5007SOL     OW26656   2.532   0.470  14.126 -0.0749 -0.1555  0.1987
 5007SOL    HW126657   2.515   0.416  14.202  1.1375 -2.2113 -0.9808
 5007SOL    HW226658   2.614   0.426  14.102  0.6226  0.6446  1.0992
 5008SOL     OW26659   0.159   3.170   1.820  0.3801 -0.0769 -0.6006
 5008SOL    HW126660   0.198   3.245   1.776 -0.3481  0.6542 -0.0057
 5008SOL    HW226661   0.070   3.201   1.804  1.3983  3.5247  0.8409
 5009SOL     OW26662   3.858   3.793   3.031  0.3100  0.0614 -0.0882
 5009SOL    HW126663   3.874   3.818   3.122  2.5303 -0.4886 -0.3292
 5009SOL    HW226664   3.797   3.721   3.044  0.8068 -0.3766 -0.1723
 5010SOL     OW26665   2.106   0.626  12.660  0.1439  0.5920  0.3157
 5010SOL    HW126666   2.162   0.698  12.688  2.3103 -0.9048 -0.1391
 5010SOL    HW226667   2.067   0.664  12.581 -0.7194 -0.0518  0.4384
 5011SOL     OW26668   2.734   4.063   8.275 -0.1251 -0.0397  0.0140
 5011SOL    HW126669   2.724   4.089   8.184  1.1702 -1.4843 -0.5491
 5011SOL    HW226670   2.702   4.141   8.319  0.2757  0.9730 -1.5126
 5012SOL     OW26671   3.832   0.707   1.093  0.2714  0.1795  0.0897
 5012SOL    HW126672   3.789   0.624   1.113  0.7315 -0.3653 -1.1930
 5012SOL    HW226673   3.892   0.718   1.167 -1.9901 -0.4224  2.0101
 5013SOL     OW26674   0.754   2.143   8.398  0.3590 -0.2656 -0.3453
 5013SOL    HW126675   0.766   2.082   8.324  0.0833 -1.0084  0.2205
 5013SOL    HW226676   0.698   2.089   8.454 -1.2081  2.3647  0.6019
 5014SOL     OW26677   0.185   0.520   6.623  0.5233  0.9668 -0.1474
 5014SOL    HW126678   0.220   0.462   6.691 -2.4548 -0.5525  0.0439
 5014SOL    HW226679   0.093   0.521   6.647  0.7294 -2.0900  0.7672
 5015SOL     OW26680   2.887   3.830   3.764 -0.0571 -0.1685 -0.3156
 5015SOL    HW126681   2.958   3.826   3.829 -0.3279  0.4360  0.0168
 5015SOL    HW226682   2.817   3.863   3.820  0.0624  2.5638 -1.7674
 5016SOL     OW26683   4.245   0.113  12.730  0.2856  0.1430 -0.6556
 5016SOL    HW126684   4.155   0.141  12.743  0.0516 -1.5277  1.3350
 5016SOL    HW226685   4.235   0.020  12.708  1.9456  0.2211 -1.7792
 5017SOL     OW26686   3.878   3.191   5.178 -0.0373  0.0612  0.1901
 5017SOL    HW126687   3.856   3.137   5.254 -0.7419  0.7809  0.4933
 5017SOL    HW226688   3.948   3.146   5.131 -0.8363  0.5532 -1.4951
 5018SOL     OW26689   1.573   1.466   5.183  0.5285  0.4414 -0.5258
 5018SOL    HW126690   1.537   1.382   5.211 -1.3966  1.5637  0.3698
 5018SOL    HW226691   1.643   1.434   5.126  2.4375  0.0562  2.0317
 5019SOL     OW26692   0.121   0.704   1.894 -0.2881  0.8806 -0.0728
 5019SOL    HW126693   0.053   0.770   1.881 -0.1063  0.5735 -2.5438
 5019SOL    HW226694   0.145   0.672   1.808  0.8435  1.9019 -0.1313
 5020SOL     OW26695   2.145   3.956  11.962 -0.3065 -0.2856 -0.3848
 5020SOL    HW126696   2.081   3.920  12.024 -0.6130 -2.2694 -1.8573
 5020SOL    HW226697   2.185   4.032  12.004  1.0728 -1.9667  1.3841
 5021SOL     OW26698   4.327   2.129   6.357 -0.0588 -0.4866  0.7540
 5021SOL    HW126699   4.410   2.174   6.341  0.8034 -1.2626  2.9952
 5021SOL    HW226700   4.272   2.141   6.279 -0.7142 -1.0930  1.1218
 5022SOL     OW26701   3.792   2.712   9.853 -0.4330  0.0557 -0.1674
 5022SOL    HW126702   3.886   2.725   9.866 -0.9180  2.4411  1.0915
 5022SOL    HW226703   3.783   2.719   9.758 -2.4006  0.4291  0.0459
 5023SOL     OW26704   2.323   4.692   8.143 -0.3646  0.1479  0.3312
 5023SOL    HW126705   2.404   4.677   8.192 -0.3176  1.5076  0.6748
 5023SOL    HW226706   2.261   4.698   8.216  0.5349  1.4174  1.0103
 5024SOL     OW26707   2.505   0.528  17.572 -0.0966 -0.2878  0.2913
 5024SOL    HW126708   2.553   0.580  17.636 -0.9210  0.5683  0.2251
 5024SOL    HW226709   2.457   0.592  17.519 -0.6840  0.1852  1.3906
 5025SOL     OW26710   1.863   2.406   7.362  0.3506  0.2231 -0.0074
 5025SOL    HW126711   1.935   2.344   7.351  0.7814  0.5710  0.8891
 5025SOL    HW226712   1.852   2.441   7.274  0.4220  0.2513 -0.0048
 5026SOL     OW26713   4.010   2.121   5.015 -0.3735 -0.4133 -0.2852
 5026SOL    HW126714   4.071   2.179   4.969 -0.1595  2.2951  3.3537
 5026SOL    HW226715   4.017   2.146   5.107 -1.1038 -1.5415  0.0799
 5027SOL     OW26716   4.129   3.637   1.818 -0.2323 -0.1447 -0.2988
 5027SOL    HW126717   4.223   3.644   1.804  0.1292 -2.3921  1.1069
 5027SOL    HW226718   4.094   3.678   1.739  1.3760 -0.0023 -0.9313
 5028SOL     OW26719   2.954   0.474   5.210 -0.5867  0.4040  0.1861
 5028SOL    HW126720   2.921   0.563   5.211 -2.3675 -0.2113 -1.5732
 5028SOL    HW226721   2.971   0.472   5.115  1.3274  0.1600  0.5427
 5029SOL     OW26722   1.803   1.644  15.889  0.2965  0.1799 -0.3801
 5029SOL    HW126723   1.749   1.613  15.961 -0.2806  1.0424 -0.4392
 5029SOL    HW226724   1.808   1.734  15.922  0.8985  0.2355 -0.6090
 5030SOL     OW26725   3.719   3.011   9.859  0.4113  0.1025  0.1072
 5030SOL    HW126726   3.643   2.966   9.896  0.8725 -1.0644 -0.3852
 5030SOL    HW226727   3.692   3.103   9.864 -0.8935 -0.2347 -0.7384
 5031SOL     OW26728   1.174   2.992   2.246 -0.3212 -0.2717  0.3512
 5031SOL    HW126729   1.080   3.011   2.244 -0.4098 -1.1047 -3.3766
 5031SOL    HW226730   1.183   3.029   2.334  0.9967  0.5529 -0.1409
 5032SOL     OW26731   1.395   1.008   4.839 -0.2129 -0.1575  0.0410
 5032SOL    HW126732   1.307   1.043   4.823 -1.2165 -2.3725  0.8485
 5032SOL    HW226733   1.445   1.088   4.819 -0.6319 -0.4477 -2.1845
 5033SOL     OW26734   1.380   2.860   2.727  0.0803  0.2890 -0.1093
 5033SOL    HW126735   1.306   2.831   2.673  0.6023 -0.2452 -0.5297
 5033SOL    HW226736   1.417   2.929   2.672  0.6244  1.0561  1.2216
 5034SOL     OW26737   4.639   0.090   7.512 -0.1243 -0.0304 -0.0544
 5034SOL    HW126738   4.730   0.102   7.487 -0.6779  2.3468 -0.8522
 5034SOL    HW226739   4.634   4.731   7.523 -1.2744 -0.1083 -1.2309
 5035SOL     OW26740   1.686   2.723  13.355  0.4293  0.0119 -0.4186
 5035SOL    HW126741   1.709   2.681  13.437  1.0154 -3.8201 -2.5421
 5035SOL    HW226742   1.766   2.723  13.301  1.7781 -0.6805  1.5723
 5036SOL     OW26743   3.007   3.353  10.939 -0.3172 -0.5857 -0.3002
 5036SOL    HW126744   2.983   3.284  11.001  1.4358 -1.1898 -0.2801
 5036SOL    HW226745   2.926   3.403  10.933 -0.2927 -0.7059 -1.8198
 5037SOL     OW26746   0.680   2.395   8.452 -0.6878 -0.0528 -0.0026
 5037SOL    HW126747   0.631   2.427   8.376 -0.2404  1.6376  0.4136
 5037SOL    HW226748   0.699   2.306   8.424  0.7339  0.0552  0.6280
 5038SOL     OW26749   4.107   0.459  13.561  0.3615  0.3967  0.7415
 5038SOL    HW126750   4.024   0.478  13.518 -0.5728 -0.7786  2.0283
 5038SOL    HW226751   4.100   0.519  13.635 -1.1546  1.6599 -0.4228
 5039SOL     OW26752   0.264   1.259   4.919 -0.0345 -0.1222  0.6153
 5039SOL    HW126753   0.210   1.266   4.997  0.2775 -2.7413  1.0637
 5039SOL    HW226754   0.332   1.320   4.945 -1.6523  1.6738  0.6363
 5040SOL     OW26755   4.253   3.855   6.698  0.5315  0.3593 -0.5595
 5040SOL    HW126756   4.257   3.759   6.706 -1.2700  0.2448 -0.9415
 5040SOL    HW226757   4.298   3.870   6.615  0.2042  0.4116 -0.7297
 5041SOL     OW26758   0.730   1.242   5.040  0.1275 -0.5137 -0.0157
 5041SOL    HW126759   0.732   1.318   5.098  1.4594 -0.3792 -0.2380
 5041SOL    HW226760   0.635   1.238   5.037  0.0032  2.8648 -0.7021
 5042SOL     OW26761   1.657   2.393   6.107 -0.7009 -0.8861  0.5512
 5042SOL    HW126762   1.741   2.435   6.089 -0.0794 -2.1557  0.5171
 5042SOL    HW226763   1.661   2.302   6.077 -3.2326 -0.9456  0.3433
 5043SOL     OW26764   0.189   0.757   5.472  0.0602 -0.4045 -0.7915
 5043SOL    HW126765   0.246   0.762   5.550 -0.2896  1.8571 -0.6908
 5043SOL    HW226766   0.140   0.676   5.488  1.5233 -1.3971 -1.2421
 5044SOL     OW26767   0.296   4.287   2.856  0.3494  0.1135  0.1522
 5044SOL    HW126768   0.328   4.257   2.941 -1.0995  0.8737  0.9671
 5044SOL    HW226769   0.374   4.285   2.800 -1.1906  0.4511 -2.0129
 5045SOL     OW26770   2.768   1.440   3.508 -0.3172 -0.3420  0.0785
 5045SOL    HW126771   2.781   1.472   3.598 -0.7088 -1.9731  0.7155
 5045SOL    HW226772   2.847   1.388   3.519 -0.4203  0.0166  2.5409
 5046SOL     OW26773   0.291   3.781   2.118 -0.0525 -0.1811  0.2069
 5046SOL    HW126774   0.239   3.711   2.079 -1.1998  0.8260 -0.0691
 5046SOL    HW226775   0.379   3.753   2.093  0.3819  1.0543  0.3162
 5047SOL     OW26776   4.321   0.293  11.273 -0.2986  0.2897 -0.6920
 5047SOL    HW126777   4.306   0.286  11.367 -3.3757 -0.1572 -1.2230
 5047SOL    HW226778   4.408   0.259  11.293 -0.0045  0.2344 -2.0640
 5048SOL     OW26779   4.188   4.340   2.730  0.3991 -0.1933  0.2012
 5048SOL    HW126780   4.223   4.412   2.678 -0.8511 -1.4731 -2.3843
 5048SOL    HW226781   4.176   4.269   2.667  0.6840  1.4784 -1.7448
 5049SOL     OW26782   0.671   4.439   3.446 -0.1653 -0.5986 -0.3386
 5049SOL    HW126783   0.639   4.470   3.361  0.6053  2.7625  0.5789
 5049SOL    HW226784   0.647   4.519   3.494 -0.8158 -1.5794  0.9861
 5050SOL     OW26785   0.388   0.063  17.453  0.1177 -0.0681  0.4548
 5050SOL    HW126786   0.451   0.107  17.511 -2.6305  3.4113  0.7854
 5050SOL    HW226787   0.392   0.101  17.365  1.9371  0.9082  0.9492
 5051SOL     OW26788   0.121   2.462   7.448  0.1776 -0.2703 -0.1101
 5051SOL    HW126789   0.057   2.529   7.470  0.2032 -1.2218  2.7537
 5051SOL    HW226790   0.192   2.515   7.413 -0.1343  1.5154  1.9895
 5052SOL     OW26791   0.608   1.887  12.541 -0.7876 -0.2098  0.2384
 5052SOL    HW126792   0.593   1.877  12.447  2.0584 -0.9487 -0.1505
 5052SOL    HW226793   0.640   1.803  12.574 -0.4698  0.4775  1.6866
 5053SOL     OW26794   2.463   0.428   5.509  0.6290 -0.4728  0.1538
 5053SOL    HW126795   2.449   0.493   5.578 -1.1818 -1.0135  0.2871
 5053SOL    HW226796   2.376   0.390   5.504  0.2068  0.5199 -0.0923
 5054SOL     OW26797   2.103   4.071  14.742 -0.0631 -0.0695 -0.1424
 5054SOL    HW126798   2.108   3.992  14.796  2.5635 -0.5055 -1.0474
 5054SOL    HW226799   2.009   4.080  14.728 -0.2704  0.7066  1.7401
 5055SOL     OW26800   0.323   2.107   3.745 -0.1052 -0.1222 -0.2826
 5055SOL    HW126801   0.259   2.163   3.789 -0.4375 -1.3823  0.8356
 5055SOL    HW226802   0.391   2.162   3.705  0.1286  0.6714  1.2278
 5056SOL     OW26803   0.033   0.521   4.534 -0.4471  0.0670 -0.0538
 5056SOL    HW126804   0.019   0.616   4.538 -0.8063  0.0303 -0.4433
 5056SOL    HW226805   0.008   0.488   4.448  3.3110  1.0939 -1.5280
 5057SOL     OW26806   2.182   1.351   8.202  0.1002 -0.2515 -0.1514
 5057SOL    HW126807   2.129   1.368   8.124  0.8595  3.4723  0.1136
 5057SOL    HW226808   2.186   1.256   8.203 -0.6526 -0.2569  3.4644
 5058SOL     OW26809   1.407   2.700   7.353  0.3275  0.4692 -0.8819
 5058SOL    HW126810   1.404   2.670   7.262  2.1379 -0.0127 -0.7691
 5058SOL    HW226811   1.319   2.738   7.359 -0.5016 -1.4259 -0.9812
 5059SOL     OW26812   3.450   0.481   6.283  0.7348  0.6979  0.1789
 5059SOL    HW126813   3.416   0.401   6.242 -0.5798  1.7511 -0.7865
 5059SOL    HW226814   3.411   0.475   6.370 -0.1264  5.3026  0.0813
 5060SOL     OW26815   0.524   1.651  15.321  0.5621  0.0879  0.0990
 5060SOL    HW126816   0.484   1.680  15.403 -2.4344 -0.7736 -1.0582
 5060SOL    HW226817   0.569   1.574  15.355 -0.0879 -0.4255 -0.2042
 5061SOL     OW26818   0.904   4.137   0.460 -0.1320  0.1658 -0.8057
 5061SOL    HW126819   0.947   4.135   0.375  0.8544  1.0797 -0.3371
 5061SOL    HW226820   0.820   4.164   0.423 -0.5768  0.4810  0.4442
 5062SOL     OW26821   3.267   2.834   2.274 -0.0379  0.5589 -0.4578
 5062SOL    HW126822   3.324   2.758   2.258 -1.0780  0.1215 -2.0424
 5062SOL    HW226823   3.249   2.825   2.368  2.9205 -0.4537  0.0337
 5063SOL     OW26824   1.031   2.512   1.446 -0.1476  0.1474 -0.0740
 5063SOL    HW126825   0.968   2.456   1.491  0.7999 -0.2385  0.7631
 5063SOL    HW226826   0.978   2.567   1.389 -1.0525  1.7680  2.3429
 5064SOL     OW26827   0.047   1.295   5.305 -0.5738 -0.1693  0.0659
 5064SOL    HW126828   0.090   1.371   5.344 -1.0482  0.0514  0.1536
 5064SOL    HW226829   4.721   1.274   5.374  0.1881  2.1087  1.4700
 5065SOL     OW26830   2.562   4.582   2.643  0.0069 -0.2191  0.3834
 5065SOL    HW126831   2.615   4.655   2.676  0.6555  0.7312 -2.7603
 5065SOL    HW226832   2.572   4.522   2.718 -0.7381 -1.3993 -0.4554
 5066SOL     OW26833   2.097   0.341   6.133 -0.0556 -0.2446 -0.3544
 5066SOL    HW126834   2.106   0.294   6.050 -1.0951 -1.3746  0.1737
 5066SOL    HW226835   2.176   0.305   6.173 -0.2395  0.2227  0.4376
 5067SOL     OW26836   0.671   1.500   3.478  0.6475 -0.0671  0.2714
 5067SOL    HW126837   0.599   1.533   3.532 -3.0500 -0.6111 -4.3345
 5067SOL    HW226838   0.619   1.464   3.406  2.4091 -1.1486 -0.4385
 5068SOL     OW26839   3.613   2.278   7.658  0.2714  0.1302  0.0863
 5068SOL    HW126840   3.609   2.361   7.609  2.4185 -0.9713 -1.9555
 5068SOL    HW226841   3.707   2.266   7.670  0.4446  1.3270 -0.0698
 5069SOL     OW26842   1.264   0.002   9.644 -0.0376 -0.0670 -0.0213
 5069SOL    HW126843   1.343   4.706   9.599 -0.2025 -0.5648  0.0466
 5069SOL    HW226844   1.195   4.681   9.612  0.8000 -1.2931  0.3796
 5070SOL     OW26845   1.844   0.973   0.185 -0.1868  0.0040  0.4366
 5070SOL    HW126846   1.873   0.883   0.199 -1.0215 -0.2469  0.5353
 5070SOL    HW226847   1.926   1.023   0.185 -0.2898  0.1421 -2.9284
 5071SOL     OW26848   3.213   2.264   0.908 -0.0530  0.1656  0.2489
 5071SOL    HW126849   3.119   2.245   0.916  0.1436 -0.3469  1.2821
 5071SOL    HW226850   3.253   2.177   0.918 -0.1600  0.0309 -0.5013
 5072SOL     OW26851   4.271   3.288   0.976  0.0660 -0.0541 -0.1971
 5072SOL    HW126852   4.338   3.319   1.036 -0.2935  0.7514 -0.2139
 5072SOL    HW226853   4.328   3.296   0.900  0.6530  1.2681  0.3829
 5073SOL     OW26854   3.439   1.159   7.193 -0.8037  0.3903  0.1438
 5073SOL    HW126855   3.402   1.076   7.223 -2.8188  1.2859  0.1102
 5073SOL    HW226856   3.503   1.118   7.135 -2.1301 -2.4526  0.6465
 5074SOL     OW26857   1.498   0.447   7.366 -0.2975  0.2464  0.3464
 5074SOL    HW126858   1.563   0.461   7.297  0.4278 -0.4434  0.8918
 5074SOL    HW226859   1.532   0.367   7.406  0.8887  1.9574  2.7538
 5075SOL     OW26860   2.652   1.223   1.822 -0.1264  0.3595 -0.3376
 5075SOL    HW126861   2.727   1.181   1.864 -0.3713  1.1576  0.9111
 5075SOL    HW226862   2.651   1.161   1.750 -1.2487 -1.0957  0.9273
 5076SOL     OW26863   4.733   2.163   5.837  0.1337  0.0406  0.3317
 5076SOL    HW126864   0.056   2.197   5.904 -1.5632 -2.4199  3.0948
 5076SOL    HW226865   0.012   2.070   5.848  2.2105  0.3928  0.4128
 5077SOL     OW26866   1.854   0.348   2.444 -0.2850  0.6043 -0.5084
 5077SOL    HW126867   1.821   0.407   2.513 -0.5592 -2.5486  2.0489
 5077SOL    HW226868   1.794   0.274   2.439 -1.2388  1.0170  4.5419
 5078SOL     OW26869   1.421   1.563  13.975 -0.4625  0.7219 -0.1876
 5078SOL    HW126870   1.341   1.515  13.995  0.2822  0.6027  2.6074
 5078SOL    HW226871   1.480   1.528  14.042 -1.7395 -2.6801 -0.8270
 5079SOL     OW26872   3.714   1.446  10.061  0.3282  0.3137 -0.1771
 5079SOL    HW126873   3.804   1.420  10.079  0.5678  1.3050  0.1035
 5079SOL    HW226874   3.702   1.422   9.970 -1.2246 -2.2002  0.6879
 5080SOL     OW26875   3.174   0.977   8.934 -0.1661  0.0814 -0.3041
 5080SOL    HW126876   3.227   0.986   8.855 -0.8101  1.1350 -0.6125
 5080SOL    HW226877   3.150   1.068   8.952 -0.0653  0.0933 -0.2273
 5081SOL     OW26878   4.358   3.087   3.530 -0.0678  0.1859  0.0282
 5081SOL    HW126879   4.286   3.030   3.505  0.7757 -0.1739 -1.5907
 5081SOL    HW226880   4.359   3.143   3.452  0.7337 -0.7036 -0.5922
 5082SOL     OW26881   3.880   4.034   2.741 -0.2866 -0.2850  0.2410
 5082SOL    HW126882   3.850   4.109   2.793 -0.8626 -0.3784  0.0417
 5082SOL    HW226883   3.922   4.074   2.665  1.3356  0.0248  1.3095
 5083SOL     OW26884   3.515   1.702   6.946 -0.1457 -0.5101 -0.1529
 5083SOL    HW126885   3.452   1.756   6.898 -2.0358  0.1433  3.0629
 5083SOL    HW226886   3.458   1.657   7.008  0.2441 -1.3474 -0.3968
 5084SOL     OW26887   3.111   0.238   1.642 -0.2152 -0.4735 -0.1055
 5084SOL    HW126888   3.084   0.169   1.703 -1.5306  0.1594  0.0163
 5084SOL    HW226889   3.203   0.216   1.628 -0.7824 -2.2586 -1.0124
 5085SOL     OW26890   3.461   1.849  13.565 -0.2569  0.1830  0.3594
 5085SOL    HW126891   3.522   1.798  13.619 -0.0917  0.1813  0.1703
 5085SOL    HW226892   3.528   1.882  13.505 -0.0739 -0.1240  0.3948
 5086SOL     OW26893   1.512   3.059   3.657  0.5866  0.4804 -0.3167
 5086SOL    HW126894   1.584   3.051   3.720  0.5898  1.5885 -0.1802
 5086SOL    HW226895   1.439   3.066   3.718 -1.5165 -0.6546 -2.6982
 5087SOL     OW26896   3.680   3.822   6.079  0.4466 -0.2449 -0.5639
 5087SOL    HW126897   3.771   3.795   6.069  0.9760  1.1526  0.4658
 5087SOL    HW226898   3.671   3.825   6.174 -2.3711 -0.1731 -0.8196
 5088SOL     OW26899   3.553   4.464   8.415  0.1566 -0.3856 -0.6697
 5088SOL    HW126900   3.599   4.519   8.478 -0.1073  0.1939 -0.9722
 5088SOL    HW226901   3.519   4.535   8.360  1.8613 -1.0623 -2.6202
 5089SOL     OW26902   0.809   2.149   4.678 -0.2243  0.0788 -0.8147
 5089SOL    HW126903   0.849   2.220   4.727  2.5056 -3.3734  2.0147
 5089SOL    HW226904   0.823   2.072   4.734  1.2739 -0.4604 -1.9424
 5090SOL     OW26905   2.628   4.281  11.645 -0.2118  0.0650 -0.0426
 5090SOL    HW126906   2.625   4.242  11.732  0.9784 -2.2926 -1.0767
 5090SOL    HW226907   2.640   4.372  11.672  0.2536  0.9821 -3.3772
 5091SOL     OW26908   3.462   4.416  14.328  0.1400 -0.3288 -0.1235
 5091SOL    HW126909   3.391   4.380  14.275  0.5320  1.5096 -1.9038
 5091SOL    HW226910   3.456   4.358  14.404  3.0412  0.5982  0.7907
 5092SOL     OW26911   3.143   2.730  17.203 -0.2358 -0.6072  0.2527
 5092SOL    HW126912   3.230   2.693  17.188 -0.3047 -1.3489  1.6825
 5092SOL    HW226913   3.096   2.650  17.179  0.6398 -0.5593 -1.6461
 5093SOL     OW26914   0.398   4.345   8.245 -0.1235 -0.8730  0.3206
 5093SOL    HW126915   0.469   4.406   8.225 -1.5167  1.4927  2.5462
 5093SOL    HW226916   0.317   4.397   8.245 -0.0490 -0.7574  0.3986
 5094SOL     OW26917   1.705   1.652   5.332  0.5300 -0.0354  0.5101
 5094SOL    HW126918   1.789   1.642   5.287  1.2205 -1.2634  2.1129
 5094SOL    HW226919   1.659   1.580   5.288 -0.6929  0.8697  0.2944
 5095SOL     OW26920   2.659   0.175   2.518  0.6057  0.2903  0.4570
 5095SOL    HW126921   2.736   0.169   2.574  1.0880  2.5346  0.0368
 5095SOL    HW226922   2.610   0.235   2.573  0.3972  2.8533 -2.5199
 5096SOL     OW26923   0.805   3.478   3.308  0.1058  0.0997  0.5348
 5096SOL    HW126924   0.753   3.402   3.335 -0.3206  0.3676  0.4638
 5096SOL    HW226925   0.739   3.538   3.275 -1.1057 -1.1025  0.7742
 5097SOL     OW26926   0.945   4.486   2.971  0.6368  0.7318 -0.0684
 5097SOL    HW126927   1.007   4.519   2.907  0.4587 -1.6624 -1.4664
 5097SOL    HW226928   0.865   4.529   2.940  1.3205  1.9854 -0.0989
 5098SOL     OW26929   2.792   3.845   7.158  0.1146 -0.4572 -0.1940
 5098SOL    HW126930   2.848   3.916   7.126 -0.3356  0.3171  0.7283
 5098SOL    HW226931   2.734   3.827   7.084 -1.7467 -1.2839  1.4692
 5099SOL     OW26932   3.740   2.077  11.504 -0.8981 -0.2087 -0.2455
 5099SOL    HW126933   3.800   2.124  11.446 -2.2549  0.5395 -1.0594
 5099SOL    HW226934   3.770   1.987  11.490  0.2541 -0.0161  1.0852
 5100SOL     OW26935   2.800   3.216   9.179 -0.1800 -0.0523 -0.7804
 5100SOL    HW126936   2.760   3.274   9.115  0.2322  1.4852  0.3555
 5100SOL    HW226937   2.776   3.130   9.145  1.8311 -0.5066 -1.0645
 5101SOL     OW26938   2.087   1.303   3.728 -0.3052  0.0557  0.4278
 5101SOL    HW126939   2.112   1.218   3.765  0.4448  0.7908  1.6270
 5101SOL    HW226940   2.030   1.333   3.799  1.7632  2.4593  1.1128
 5102SOL     OW26941   2.450   0.032   6.840  0.2851 -0.1699 -0.3613
 5102SOL    HW126942   2.521   4.707   6.822  0.7667  0.2155  0.2141
 5102SOL    HW226943   2.499   0.113   6.856  0.2461 -0.1469 -0.3584
 5103SOL     OW26944   4.505   1.527   5.458  0.8671 -0.0288 -0.5440
 5103SOL    HW126945   4.454   1.497   5.382 -1.8066  2.3866  0.2599
 5103SOL    HW226946   4.561   1.455   5.484  3.0794  0.4522 -3.9297
 5104SOL     OW26947   0.784   4.409   5.390 -0.0899 -0.0314 -0.0351
 5104SOL    HW126948   0.715   4.474   5.379  0.5365  0.5540 -0.5098
 5104SOL    HW226949   0.837   4.456   5.454 -0.6406 -2.0289  1.8882
 5105SOL     OW26950   0.892   1.255   4.005  0.3105  0.6885  0.5402
 5105SOL    HW126951   0.868   1.164   3.992 -3.6782  1.9852 -1.2413
 5105SOL    HW226952   0.951   1.264   4.080 -0.1333  1.9396  0.7532
 5106SOL     OW26953   3.168   0.859   4.927 -0.3084  0.0648 -0.3178
 5106SOL    HW126954   3.215   0.936   4.895 -0.8275  0.5100 -0.0110
 5106SOL    HW226955   3.204   0.849   5.015 -0.0970  0.5538 -0.3478
 5107SOL     OW26956   1.808   1.107  11.787 -0.0891  0.3963 -0.1249
 5107SOL    HW126957   1.843   1.069  11.867  0.3969  2.1722  0.5050
 5107SOL    HW226958   1.876   1.175  11.781 -0.6563  1.1451  1.9861
 5108SOL     OW26959   2.296   0.684  15.124 -0.2779 -0.1732  0.1955
 5108SOL    HW126960   2.317   0.775  15.101  0.0613 -0.7051 -1.5424
 5108SOL    HW226961   2.234   0.655  15.057  0.2572 -0.4793 -0.1684
 5109SOL     OW26962   1.553   3.999   3.029  0.2317  0.2684  0.2605
 5109SOL    HW126963   1.460   3.981   3.041  0.0906  1.4029  0.8783
 5109SOL    HW226964   1.548   4.093   3.046 -1.0049  0.6278 -2.1422
 5110SOL     OW26965   1.771   4.665   7.066  0.2242 -0.4723  0.2154
 5110SOL    HW126966   1.790   0.020   7.082 -1.7544 -0.5143  2.9312
 5110SOL    HW226967   1.676   4.674   7.055  0.1268  1.0737  2.3470
 5111SOL     OW26968   1.921   4.537   9.168 -0.9759  0.1321 -0.2298
 5111SOL    HW126969   1.968   4.539   9.085  0.1957  0.6406  0.4447
 5111SOL    HW226970   1.854   4.472   9.147  0.3409 -0.8725 -1.3154
 5112SOL     OW26971   4.185   4.576   7.667 -0.5588  0.4436 -0.2144
 5112SOL    HW126972   4.233   4.604   7.589  1.8875 -1.6237  0.5270
 5112SOL    HW226973   4.093   4.590   7.645 -1.1977 -3.0589  0.2740
 5113SOL     OW26974   1.308   0.692  11.897  0.3226  0.0783 -0.5335
 5113SOL    HW126975   1.380   0.628  11.904 -0.3153 -0.6286 -0.3966
 5113SOL    HW226976   1.302   0.701  11.802  2.5161 -0.6151 -0.7539
 5114SOL     OW26977   3.438   1.902  11.762 -0.2732 -0.0135 -0.0541
 5114SOL    HW126978   3.347   1.874  11.754  0.0497 -0.3911 -2.3390
 5114SOL    HW226979   3.425   1.993  11.789 -0.5398 -0.4986  1.4721
 5115SOL     OW26980   2.411   3.103   7.669 -0.6763  0.2522 -0.4704
 5115SOL    HW126981   2.374   3.048   7.600  0.2524 -1.0325  0.0700
 5115SOL    HW226982   2.400   3.193   7.636  2.3140  0.1728 -1.6514
 5116SOL     OW26983   3.143   2.261  13.583 -0.5497  0.6309  0.1419
 5116SOL    HW126984   3.085   2.185  13.588  1.4599 -1.0735 -3.1051
 5116SOL    HW226985   3.131   2.302  13.669  0.7065  1.1021  0.0901
 5117SOL     OW26986   0.054   0.357  16.820 -0.1451  0.0060 -0.0729
 5117SOL    HW126987   0.050   0.450  16.844  0.6592 -0.5926  2.3553
 5117SOL    HW226988   4.731   0.312  16.881 -1.1639 -0.5202 -1.4639
 5118SOL     OW26989   1.650   2.801   2.250  0.5485  0.6194 -0.3442
 5118SOL    HW126990   1.650   2.778   2.157 -0.1002  1.4909 -0.5578
 5118SOL    HW226991   1.746   2.792   2.256  0.3195 -2.1848 -0.8062
 5119SOL     OW26992   0.791   2.415  15.846 -0.0858  0.1396 -0.3176
 5119SOL    HW126993   0.854   2.355  15.806  0.4984 -0.6277  1.7735
 5119SOL    HW226994   0.709   2.376  15.815 -1.4125  2.6235  0.0039
 5120SOL     OW26995   3.513   0.844  14.592  0.5779 -0.6434  1.0007
 5120SOL    HW126996   3.548   0.878  14.674  0.1384  2.3156 -0.0168
 5120SOL    HW226997   3.422   0.853  14.620  0.1482 -0.3209 -0.4805
 5121SOL     OW26998   2.525   1.884   8.576  0.1567 -0.3726  0.4139
 5121SOL    HW126999   2.545   1.947   8.644  0.6679 -1.5334  1.3387
 5121SOL    HW227000   2.504   1.806   8.627 -1.0845 -2.5729 -3.4445
 5122SOL     OW27001   4.398   3.146   7.558 -0.5538 -0.2168 -0.1459
 5122SOL    HW127002   4.371   3.139   7.467  0.9098 -1.4061 -0.4849
 5122SOL    HW227003   4.314   3.151   7.604  0.6857  2.2602  1.8323
 5123SOL     OW27004   4.134   3.558  11.471 -0.4833 -0.2182 -0.0727
 5123SOL    HW127005   4.049   3.583  11.433 -0.2018  1.4381  0.3910
 5123SOL    HW227006   4.117   3.466  11.492 -3.5462  0.1406 -0.9205
 5124SOL     OW27007   1.890   4.613  16.911 -0.1387 -0.7056  0.0204
 5124SOL    HW127008   1.849   4.696  16.937  1.6055  0.5009 -1.1455
 5124SOL    HW227009   1.976   4.643  16.882  0.6110 -2.4430  0.4016
 5125SOL     OW27010   2.976   0.893   8.318  0.2600  0.4087 -0.0185
 5125SOL    HW127011   2.921   0.857   8.248  0.6020 -2.9025  1.4106
 5125SOL    HW227012   3.033   0.940   8.257  0.3718  1.8845  1.2118
 5126SOL     OW27013   2.816   3.929   9.264  0.1153  0.7614  0.1404
 5126SOL    HW127014   2.886   3.864   9.275 -0.1288  1.0869  3.7241
 5126SOL    HW227015   2.767   3.933   9.346 -1.6310  0.1875 -0.8737
 5127SOL     OW27016   3.362   1.025   1.329 -0.6281 -0.3079 -0.4224
 5127SOL    HW127017   3.297   1.040   1.398  0.0343  0.9286 -0.0742
 5127SOL    HW227018   3.424   0.977   1.383 -0.2320 -0.0904 -0.6852
 5128SOL     OW27019   2.120   2.730  10.637 -0.2496 -0.0073 -0.1907
 5128SOL    HW127020   2.051   2.692  10.582  0.1285  0.5844 -1.0873
 5128SOL    HW227021   2.167   2.780  10.570  0.7517 -1.0823 -0.2902
 5129SOL     OW27022   0.089   1.081   2.114 -0.2756 -0.3483 -0.1595
 5129SOL    HW127023   0.171   1.033   2.124 -1.2378 -1.7368  1.0221
 5129SOL    HW227024   0.035   1.014   2.155  0.2661 -1.0748 -0.6261
 5130SOL     OW27025   2.797   4.598   4.372  0.2811  0.1944  0.7028
 5130SOL    HW127026   2.815   4.669   4.435  0.3159 -0.5737  1.5547
 5130SOL    HW227027   2.868   4.595   4.308  1.9516 -1.5498  2.6258
 5131SOL     OW27028   4.562   3.051   6.469 -0.3635  0.5840  0.1527
 5131SOL    HW127029   4.573   3.072   6.562 -0.6633 -1.3566  0.6412
 5131SOL    HW227030   4.473   3.015   6.469 -0.3635  0.5942 -0.5432
 5132SOL     OW27031   3.036   4.058   3.625  0.4934 -0.3166  0.3808
 5132SOL    HW127032   2.952   4.077   3.668 -0.0790  1.5591 -1.5823
 5132SOL    HW227033   3.064   3.993   3.690 -0.2323  0.5224  1.5441
 5133SOL     OW27034   0.246   4.429   2.055  0.3245  0.0577 -0.1098
 5133SOL    HW127035   0.283   4.516   2.065  0.7951  0.1123 -2.1297
 5133SOL    HW227036   0.163   4.436   2.008  0.2551  0.2485  0.0427
 5134SOL     OW27037   3.358   3.340   8.467 -0.4941  0.5595 -0.3549
 5134SOL    HW127038   3.343   3.366   8.376 -1.6544 -0.7471 -0.5479
 5134SOL    HW227039   3.443   3.381   8.483  0.0896 -1.0938  0.8828
 5135SOL     OW27040   0.106   2.223   4.401  0.0401  0.0316 -0.8979
 5135SOL    HW127041   0.178   2.168   4.433 -0.2701  0.5065  0.5847
 5135SOL    HW227042   0.147   2.309   4.400  0.5988 -0.1990  1.1182
 5136SOL     OW27043   3.146   3.148   7.165 -0.0647  0.2209  0.1084
 5136SOL    HW127044   3.235   3.133   7.198 -0.8681  0.5009  2.4177
 5136SOL    HW227045   3.092   3.074   7.190 -1.0824  2.2485  3.8227
 5137SOL     OW27046   4.242   4.462   6.549  0.1591 -0.3235  0.4762
 5137SOL    HW127047   4.240   4.474   6.455  1.4075  1.2950  0.6566
 5137SOL    HW227048   4.177   4.392   6.558 -1.4879  1.1575  0.0276
 5138SOL     OW27049   4.245   4.138   5.688  0.0713 -0.0952  0.7474
 5138SOL    HW127050   4.325   4.190   5.689  0.0098 -0.0990  3.9265
 5138SOL    HW227051   4.214   4.180   5.608  1.3479 -0.2887  0.1442
 5139SOL     OW27052   1.802   2.534  16.416  0.0574  0.5811  0.0999
 5139SOL    HW127053   1.856   2.608  16.443 -0.0959 -0.3967  3.1152
 5139SOL    HW227054   1.768   2.499  16.499 -1.5161 -1.3188 -1.3522
 5140SOL     OW27055   0.836   2.211   4.091  0.1599  0.1652 -0.6796
 5140SOL    HW127056   0.795   2.276   4.033  1.8720  1.6451 -0.2211
 5140SOL    HW227057   0.781   2.133   4.089 -1.3704  1.2557 -1.5389
 5141SOL     OW27058   2.271   4.454   4.060 -0.2225 -0.2053 -0.0270
 5141SOL    HW127059   2.199   4.405   4.101  0.3118 -1.0355 -0.0713
 5141SOL    HW227060   2.290   4.511   4.134  0.5470 -1.2140  0.5614
 5142SOL     OW27061   3.531   0.123   4.154  0.0012 -0.2436 -0.0117
 5142SOL    HW127062   3.477   0.073   4.215 -0.9154 -0.6999 -1.1983
 5142SOL    HW227063   3.622   0.093   4.162  0.2614  0.9409  1.5540
 5143SOL     OW27064   0.345   0.447   5.421 -0.4469 -0.0291 -0.2383
 5143SOL    HW127065   0.279   0.474   5.486  0.7893 -0.4026  1.1780
 5143SOL    HW227066   0.426   0.471   5.465 -0.5135  1.7118 -1.0588
 5144SOL     OW27067   0.349   0.601   0.177 -0.0135 -0.2477 -0.4390
 5144SOL    HW127068   0.267   0.573   0.136  1.1377 -0.5642 -2.5173
 5144SOL    HW227069   0.329   0.692   0.203  2.8224  0.5052 -0.9074
 5145SOL     OW27070   1.911   4.494   6.554 -0.6238  0.2873  0.0842
 5145SOL    HW127071   1.884   4.418   6.606  2.2686  0.1248  1.3460
 5145SOL    HW227072   1.998   4.475   6.519 -1.5264  1.0870 -2.5366
 5146SOL     OW27073   3.079   2.599  11.757  0.0075 -0.7592 -0.1309
 5146SOL    HW127074   2.988   2.607  11.726 -0.6206  0.1294  1.9154
 5146SOL    HW227075   3.116   2.545  11.687  0.8282 -1.3680  0.7789
 5147SOL     OW27076   2.033   1.813   7.540 -0.4804  0.3754 -0.1602
 5147SOL    HW127077   1.954   1.864   7.560  2.3949  4.0062  1.9841
 5147SOL    HW227078   2.056   1.797   7.632  0.7800  1.1859 -0.3255
 5148SOL     OW27079   3.732   0.314   6.676  0.2342  0.1259 -0.0518
 5148SOL    HW127080   3.826   0.319   6.655  0.0728  0.2110 -0.7239
 5148SOL    HW227081   3.708   0.230   6.638 -3.5917  0.5126  1.5076
 5149SOL     OW27082   3.268   2.965  14.200 -0.0139 -0.8442 -0.6051
 5149SOL    HW127083   3.251   2.997  14.112 -1.7429 -0.9929 -0.3154
 5149SOL    HW227084   3.339   2.905  14.175  1.8755  0.5717  1.2859
 5150SOL     OW27085   1.235   0.935   3.708 -0.1378 -0.0542  0.4053
 5150SOL    HW127086   1.323   0.963   3.733 -0.4915  1.4043 -0.0146
 5150SOL    HW227087   1.245   0.921   3.614 -0.2654  0.9278  0.2448
 5151SOL     OW27088   1.631   2.213   9.541 -0.3062  0.0943 -0.1084
 5151SOL    HW127089   1.558   2.198   9.481  0.2506  0.3381 -0.8449
 5151SOL    HW227090   1.673   2.129   9.529 -0.2807  0.0319  0.4174
 5152SOL     OW27091   3.278   4.469   8.506  0.5187  0.0026 -0.0222
 5152SOL    HW127092   3.364   4.429   8.515  0.1378 -1.4779 -2.7694
 5152SOL    HW227093   3.233   4.439   8.585 -0.0191 -2.3943 -1.2491
 5153SOL     OW27094   0.505   0.893   1.470 -0.2609 -0.1171 -0.4269
 5153SOL    HW127095   0.543   0.957   1.530 -0.3141 -0.3658 -0.1316
 5153SOL    HW227096   0.557   0.814   1.480 -1.9587 -1.0378  1.0966
 5154SOL     OW27097   1.040   3.702  15.133 -0.6827 -0.5796  0.3250
 5154SOL    HW127098   0.972   3.701  15.066  1.0874  0.7076 -1.4884
 5154SOL    HW227099   1.035   3.792  15.164 -0.2947 -0.2615 -0.5406
 5155SOL     OW27100   3.489   1.527   2.526  0.1902 -0.1879  0.5769
 5155SOL    HW127101   3.454   1.535   2.437  0.5678  3.0189  0.6988
 5155SOL    HW227102   3.584   1.524   2.511  0.1801  1.2159  0.1985
 5156SOL     OW27103   0.201   3.353   3.785  0.3186  0.2148  0.2273
 5156SOL    HW127104   0.222   3.293   3.856 -0.3748 -1.1329 -0.7075
 5156SOL    HW227105   0.225   3.434   3.830  0.4199  1.0523 -1.3401
 5157SOL     OW27106   2.463   3.865  12.671  0.5321 -0.3954  0.1191
 5157SOL    HW127107   2.459   3.959  12.654 -2.1323 -0.8007 -1.3570
 5157SOL    HW227108   2.403   3.819  12.613 -0.2159 -0.9813  1.3473
 5158SOL     OW27109   4.572   2.919  17.460  0.2893  0.4651 -0.4262
 5158SOL    HW127110   4.593   2.952  17.372  0.4286 -0.1698 -0.6257
 5158SOL    HW227111   4.583   3.000  17.510 -0.4540 -0.2061  0.8211
 5159SOL     OW27112   2.774   3.330  15.547  0.4910 -0.4073 -0.0871
 5159SOL    HW127113   2.721   3.396  15.501  2.8857 -0.3431 -2.7578
 5159SOL    HW227114   2.825   3.289  15.477 -0.1796 -2.5296  0.6791
 5160SOL     OW27115   2.561   1.735   4.781 -0.7548 -0.1000 -0.2886
 5160SOL    HW127116   2.577   1.641   4.792  2.8223  0.3427 -1.7717
 5160SOL    HW227117   2.513   1.733   4.698 -1.1079  1.6960 -0.1133
 5161SOL     OW27118   2.423   1.990   5.185 -0.3351 -0.4971  0.0602
 5161SOL    HW127119   2.357   1.969   5.119  0.7384 -1.7670 -0.6210
 5161SOL    HW227120   2.504   1.970   5.138  0.4281 -0.6372  1.4366
 5162SOL     OW27121   0.374   2.766  10.620 -0.5129 -0.4309 -0.1181
 5162SOL    HW127122   0.305   2.702  10.635 -1.5617  0.7309 -0.0000
 5162SOL    HW227123   0.336   2.843  10.579  0.1066 -1.0803 -1.9159
 5163SOL     OW27124   2.623   3.007   9.075 -0.1401 -0.0374  0.4419
 5163SOL    HW127125   2.604   3.008   8.981 -2.5131  2.9468  0.9332
 5163SOL    HW227126   2.572   2.929   9.093  0.0299 -0.8572 -2.6638
 5164SOL     OW27127   2.127   2.045   2.043  0.3393  0.4854  0.0835
 5164SOL    HW127128   2.179   2.005   2.112 -1.0799 -2.4200 -0.5457
 5164SOL    HW227129   2.152   2.000   1.963 -1.9944 -0.3242 -0.1916
 5165SOL     OW27130   2.392   4.004   2.970  0.1735  0.1687  0.1858
 5165SOL    HW127131   2.335   4.037   2.901  1.7386  2.6041  0.0438
 5165SOL    HW227132   2.374   3.912   2.953 -0.1579  0.3973 -0.7081
 5166SOL     OW27133   0.352   3.963   5.252 -0.0967 -0.0278 -0.3018
 5166SOL    HW127134   0.425   3.980   5.311  0.7511 -0.3456 -1.2439
 5166SOL    HW227135   0.343   4.049   5.212 -2.2927 -0.1459 -0.0608
 5167SOL     OW27136   1.413   3.831   2.116 -0.3547  0.4769 -0.6551
 5167SOL    HW127137   1.414   3.808   2.209 -2.0768 -0.6546 -0.9224
 5167SOL    HW227138   1.331   3.789   2.093 -0.7524  0.1121  1.3935
 5168SOL     OW27139   2.088   2.679   3.252  0.1566 -0.0617 -0.1233
 5168SOL    HW127140   2.103   2.693   3.158 -3.1977 -0.7238 -0.7318
 5168SOL    HW227141   2.068   2.586   3.253 -0.0282 -0.0370 -1.2488
 5169SOL     OW27142   2.901   0.182   4.110  0.6543  0.3027 -0.3250
 5169SOL    HW127143   2.944   0.163   4.194 -2.4034  0.1874  1.2352
 5169SOL    HW227144   2.959   0.255   4.089  0.0128  0.2483 -2.2223
 5170SOL     OW27145   3.738   2.961  16.516 -0.9534  0.2062  0.6969
 5170SOL    HW127146   3.824   3.002  16.505 -1.3102  0.7056 -0.2200
 5170SOL    HW227147   3.708   2.977  16.427  1.6701  1.5162  0.0373
 5171SOL     OW27148   0.487   0.206   8.690 -0.1670 -0.2427  0.4167
 5171SOL    HW127149   0.563   0.245   8.733 -0.9022  0.9752  0.6184
 5171SOL    HW227150   0.504   0.114   8.710  0.6349  0.0364  0.9999
 5172SOL     OW27151   4.144   4.600  15.132 -0.4739  0.5581  0.1271
 5172SOL    HW127152   4.110   4.685  15.103 -1.4606  0.5569  1.3073
 5172SOL    HW227153   4.233   4.624  15.158 -0.7865  1.4231  0.4013
 5173SOL     OW27154   1.656   0.135   7.823 -0.0856  0.0011 -0.2431
 5173SOL    HW127155   1.632   0.145   7.915 -1.2699  2.4800 -0.8177
 5173SOL    HW227156   1.636   0.043   7.809 -2.9518  0.3336  1.7439
 5174SOL     OW27157   4.647   0.984   2.386 -0.6212  0.2854  0.1732
 5174SOL    HW127158   4.658   0.910   2.327  0.4268  1.1000 -0.6440
 5174SOL    HW227159   4.552   0.980   2.399 -1.1493  1.7018 -3.4073
 5175SOL     OW27160   3.542   1.207   4.559 -0.4836 -0.2983  0.2092
 5175SOL    HW127161   3.573   1.216   4.469  1.4955  2.4868  1.1914
 5175SOL    HW227162   3.469   1.269   4.553 -0.0903  0.2478  1.1365
 5176SOL     OW27163   2.548   0.402   2.667 -0.0600 -0.4671  0.6121
 5176SOL    HW127164   2.474   0.364   2.713  0.4269  0.0783  1.8355
 5176SOL    HW227165   2.511   0.489   2.661  2.4585  0.6134  0.6909
 5177SOL     OW27166   2.774   0.557   9.767 -0.3170  0.3194  0.2879
 5177SOL    HW127167   2.789   0.481   9.823  1.1997  0.5046  0.1381
 5177SOL    HW227168   2.857   0.583   9.726  1.1168 -1.2532  2.1550
 5178SOL     OW27169   2.749   1.885   2.231  0.0578 -0.2597  0.1750
 5178SOL    HW127170   2.748   1.971   2.272  1.1148 -0.6932  1.1269
 5178SOL    HW227171   2.810   1.844   2.293  0.1085 -2.3965 -1.2839
 5179SOL     OW27172   1.029   4.420   4.931 -0.3574  0.1342 -0.3805
 5179SOL    HW127173   1.024   4.493   4.993 -0.9474  0.2879 -0.6095
 5179SOL    HW227174   1.063   4.469   4.856  0.5913  0.8480  0.5116
 5180SOL     OW27175   1.603   4.168  15.368  0.1870 -0.2349 -0.2719
 5180SOL    HW127176   1.636   4.210  15.288 -0.1761  1.9837  0.7332
 5180SOL    HW227177   1.534   4.233  15.383  0.4691 -0.3084  1.3327
 5181SOL     OW27178   4.588   0.528  12.394 -0.2687  0.9592 -0.2664
 5181SOL    HW127179   4.604   0.482  12.477  0.3598  0.7066 -0.5323
 5181SOL    HW227180   4.666   0.582  12.399 -0.6799  1.1927  4.4585
 5182SOL     OW27181   4.447   4.732  11.397  0.3762  0.2942 -0.0781
 5182SOL    HW127182   4.450   0.020  11.305 -0.5626  1.6688  0.2673
 5182SOL    HW227183   4.497   4.653  11.376 -1.4788 -0.9644  0.2874
 5183SOL     OW27184   0.307   0.574  16.668 -0.3058 -0.3126  0.3628
 5183SOL    HW127185   0.399   0.599  16.658 -0.1931 -1.1779 -0.7238
 5183SOL    HW227186   0.266   0.657  16.691 -0.3150 -0.5517  1.2152
 5184SOL     OW27187   3.554   0.649   6.982  0.6722  0.0276  0.0952
 5184SOL    HW127188   3.558   0.691   6.896 -2.6382 -0.3500 -0.2332
 5184SOL    HW227189   3.462   0.674   6.990  0.2652 -1.0704 -1.0344
 5185SOL     OW27190   4.540   3.276  13.346 -0.3730 -0.1996  0.1424
 5185SOL    HW127191   4.564   3.203  13.290  1.6205 -1.0778  2.1576
 5185SOL    HW227192   4.553   3.235  13.432 -0.4963 -2.5741 -0.9834
 5186SOL     OW27193   4.391   0.158   4.903 -0.0646 -0.3052  0.5557
 5186SOL    HW127194   4.312   0.153   4.958 -0.0581  1.5712  0.7530
 5186SOL    HW227195   4.357   0.108   4.828  2.6448 -0.3401 -0.6235
 5187SOL     OW27196   4.703   2.364   4.836 -0.6515  0.6985  0.1125
 5187SOL    HW127197   0.046   2.370   4.783 -0.8491  0.5075 -0.2065
 5187SOL    HW227198   4.661   2.290   4.791 -0.7364  0.3425  0.7828
 5188SOL     OW27199   3.275   4.440   1.758 -0.4200 -0.2091  0.4142
 5188SOL    HW127200   3.320   4.374   1.809  0.1318  0.4747  0.8130
 5188SOL    HW227201   3.191   4.434   1.804 -0.3503  0.9870  0.6930
 5189SOL     OW27202   2.675   3.476   3.919  0.0260  0.2152 -0.2638
 5189SOL    HW127203   2.688   3.485   3.825 -0.8724  0.2784 -0.3818
 5189SOL    HW227204   2.767   3.470   3.945 -0.6035 -0.9872  1.7212
 5190SOL     OW27205   1.878   0.219   3.468  0.2746 -0.1068  0.4191
 5190SOL    HW127206   1.942   0.177   3.410  0.7296  0.7485  0.2920
 5190SOL    HW227207   1.882   0.161   3.544  3.0137 -1.8540 -1.0692
 5191SOL     OW27208   1.534   1.302   6.469  0.4647 -0.4546 -0.2278
 5191SOL    HW127209   1.536   1.214   6.433  1.9535 -0.6092  0.2737
 5191SOL    HW227210   1.567   1.352   6.394 -0.3795 -1.1967 -1.0925
 5192SOL     OW27211   0.686   0.067   4.764 -0.3394  0.2252 -0.2466
 5192SOL    HW127212   0.613   0.124   4.741  1.3989  2.7945  0.5943
 5192SOL    HW227213   0.752   0.088   4.697  1.0330 -1.1417  0.6672
 5193SOL     OW27214   1.339   2.711  11.224  0.5520 -0.3537 -0.3135
 5193SOL    HW127215   1.345   2.745  11.135  1.8315  2.7991  0.9812
 5193SOL    HW227216   1.313   2.619  11.218 -0.0178  0.0211 -3.5930
 5194SOL     OW27217   1.508   1.746   0.093 -0.2262 -0.4986 -0.2998
 5194SOL    HW127218   1.427   1.795   0.107 -1.1341 -2.2504  0.5823
 5194SOL    HW227219   1.545   1.746   0.181 -0.7191  0.3949 -0.0929
 5195SOL     OW27220   1.589   4.440   6.996 -0.1406 -0.1159 -0.0674
 5195SOL    HW127221   1.674   4.483   6.987 -0.0732 -0.3229 -0.4516
 5195SOL    HW227222   1.591   4.443   7.092  3.8511 -1.3590 -0.0716
 5196SOL     OW27223   1.445   2.789   5.174 -0.7101  0.8558  0.2746
 5196SOL    HW127224   1.469   2.838   5.253 -0.2503 -1.4161  1.5483
 5196SOL    HW227225   1.424   2.705   5.215  2.3455 -1.6848 -3.3570
 5197SOL     OW27226   0.249   2.358   2.845 -0.1317  0.8668  0.0778
 5197SOL    HW127227   0.236   2.452   2.829  1.4581  0.8596 -1.3013
 5197SOL    HW227228   0.180   2.328   2.786 -0.0755 -0.3638  0.6326
 5198SOL     OW27229   2.783   0.509   2.993 -0.4283 -0.6322 -0.7950
 5198SOL    HW127230   2.702   0.560   2.995  0.4333  0.7050 -0.2612
 5198SOL    HW227231   2.852   0.569   3.021 -1.9060 -0.1290  1.7883
 5199SOL     OW27232   1.138   0.967  11.281  0.0065  0.0570  0.1567
 5199SOL    HW127233   1.095   0.973  11.366  0.1978 -2.6101  0.4367
 5199SOL    HW227234   1.208   1.033  11.279  0.1138  0.0390  3.0291
 5200SOL     OW27235   1.644   0.979  14.886  0.6465  0.1578 -0.6438
 5200SOL    HW127236   1.656   0.935  14.970 -1.8737  0.0649 -0.3178
 5200SOL    HW227237   1.602   0.912  14.832 -2.8188  1.1466  0.7919
 5201SOL     OW27238   1.242   4.152   8.211  0.0025  0.2447 -0.0459
 5201SOL    HW127239   1.186   4.192   8.144  0.9846  0.0307 -0.9890
 5201SOL    HW227240   1.326   4.131   8.170  1.1402 -1.7587  3.3403
 5202SOL     OW27241   4.100   1.652   2.991  0.1164 -0.2708 -0.3454
 5202SOL    HW127242   4.047   1.692   3.061 -0.0123  2.3045 -1.9044
 5202SOL    HW227243   4.123   1.569   3.032  0.2477 -0.4914 -0.8645
 5203SOL     OW27244   3.739   1.078  16.070 -0.3377 -0.5277 -0.2392
 5203SOL    HW127245   3.644   1.069  16.066 -0.4769  1.1913 -0.9926
 5203SOL    HW227246   3.774   0.996  16.105 -1.6269 -1.0206 -0.1379
 5204SOL     OW27247   2.793   0.752   7.041  0.0997  0.1846  0.3388
 5204SOL    HW127248   2.768   0.660   7.044 -0.4894  0.2801 -1.6339
 5204SOL    HW227249   2.867   0.769   7.100  0.6776 -0.2680 -0.2665
 5205SOL     OW27250   1.281   4.319   6.382 -0.1562  0.3916  0.2376
 5205SOL    HW127251   1.192   4.353   6.372 -0.4046 -0.8073 -1.8122
 5205SOL    HW227252   1.257   4.226   6.380 -2.6995  1.0823 -0.7431
 5206SOL     OW27253   3.072   0.453   5.456 -0.1069 -0.3243  0.0213
 5206SOL    HW127254   3.160   0.417   5.442 -0.3420 -0.5492 -0.8663
 5206SOL    HW227255   3.029   0.439   5.372 -2.3694 -0.3275  1.1935
 5207SOL     OW27256   2.513   0.566   4.833 -0.1411 -0.1963 -0.7066
 5207SOL    HW127257   2.470   0.651   4.842  1.2358  0.6319 -1.8294
 5207SOL    HW227258   2.589   0.586   4.888 -1.7888  0.6321  1.2609
 5208SOL     OW27259   0.559   3.988   0.406 -0.1708 -0.5742  0.1527
 5208SOL    HW127260   0.612   3.978   0.327  1.2861  2.6779  0.7248
 5208SOL    HW227261   0.486   4.029   0.360  0.0246  0.7732  1.0558
 5209SOL     OW27262   2.077   2.162   8.097  0.3463  0.2182  0.6487
 5209SOL    HW127263   2.053   2.070   8.098  0.5958  0.1614  1.4167
 5209SOL    HW227264   2.064   2.176   8.003 -1.4289 -1.0110  0.7255
 5210SOL     OW27265   1.017   3.533   4.695 -0.4146 -0.8153 -0.4572
 5210SOL    HW127266   1.006   3.465   4.628  1.4092 -2.9787  1.4377
 5210SOL    HW227267   0.933   3.549   4.737 -1.1297  1.5326 -2.7224
 5211SOL     OW27268   2.871   3.854  15.503 -0.7109  0.5549  0.7725
 5211SOL    HW127269   2.872   3.950  15.503  0.8810  0.5362  0.2307
 5211SOL    HW227270   2.798   3.834  15.561  0.3704 -1.7376  1.3494
 5212SOL     OW27271   1.680   1.921  14.302 -0.3460 -0.4093  0.7051
 5212SOL    HW127272   1.693   1.969  14.384 -3.4819  2.2641 -0.3646
 5212SOL    HW227273   1.585   1.916  14.295 -0.4271 -0.7272  1.9386
 5213SOL     OW27274   1.380   2.701   6.454  0.1787  0.3141  0.2703
 5213SOL    HW127275   1.286   2.682   6.461  0.3986 -0.9498 -0.1597
 5213SOL    HW227276   1.415   2.619   6.419 -0.3887 -0.0743  0.6053
 5214SOL     OW27277   2.613   4.018   5.329 -0.4313  0.4350 -0.8235
 5214SOL    HW127278   2.562   3.945   5.295  0.2771 -0.8220  0.8372
 5214SOL    HW227279   2.549   4.068   5.379  0.4950 -0.6507  1.4443
 5215SOL     OW27280   1.980   3.843   9.334  0.0411 -0.2745  0.2412
 5215SOL    HW127281   1.998   3.787   9.409 -1.7145  0.5948  1.3190
 5215SOL    HW227282   1.991   3.932   9.368 -1.0783 -0.2897  0.6505
 5216SOL     OW27283   3.282   2.784   9.991  0.6775  0.5368  0.3088
 5216SOL    HW127284   3.240   2.863   9.955  1.7515  0.8995 -0.1451
 5216SOL    HW227285   3.352   2.773   9.927  0.3020  4.2710 -0.7729
 5217SOL     OW27286   2.754   0.708   8.603 -0.1552  0.0519  0.6068
 5217SOL    HW127287   2.729   0.779   8.662  3.1780  0.5503  1.4017
 5217SOL    HW227288   2.697   0.645   8.647  0.5615 -0.7588  0.3766
 5218SOL     OW27289   3.169   2.405   2.499 -0.0642  0.0686  0.6255
 5218SOL    HW127290   3.101   2.412   2.566  1.3364 -1.0422  2.1712
 5218SOL    HW227291   3.154   2.318   2.461  0.7178 -0.2479  1.0309
 5219SOL     OW27292   1.573   2.728   3.233  0.3530 -0.2435 -0.4660
 5219SOL    HW127293   1.604   2.643   3.202  0.7240  1.2325 -4.1198
 5219SOL    HW227294   1.640   2.792   3.257 -0.1313 -0.0191  0.2866
 5220SOL     OW27295   2.926   2.285   5.826 -0.2484  0.6300 -0.1629
 5220SOL    HW127296   2.856   2.350   5.833 -0.0939  0.6230  1.4348
 5220SOL    HW227297   2.986   2.320   5.761 -0.2871  0.1084 -0.4761
 5221SOL     OW27298   0.804   0.055   1.503 -0.6312  0.7912 -0.3101
 5221SOL    HW127299   0.851   0.111   1.564 -1.6895  0.0461  1.1932
 5221SOL    HW227300   0.730   0.040   1.562 -2.0496 -0.9490 -2.5169
 5222SOL     OW27301   2.168   3.487   5.068 -0.1517 -0.0504  0.8724
 5222SOL    HW127302   2.240   3.428   5.045  0.1387 -0.1637  2.0819
 5222SOL    HW227303   2.212   3.564   5.103  1.1460 -0.1381 -0.5655
 5223SOL     OW27304   2.306   4.127   4.700 -0.3094 -0.2957 -0.5774
 5223SOL    HW127305   2.299   4.159   4.790 -4.0786 -2.1557 -0.1742
 5223SOL    HW227306   2.215   4.123   4.669 -0.4197  1.1491 -0.4526
 5224SOL     OW27307   0.836   2.986   7.129  0.1910  0.2394 -0.2802
 5224SOL    HW127308   0.931   2.984   7.119  0.2600  0.0724  0.4085
 5224SOL    HW227309   0.835   2.968   7.223  1.1678 -0.2998 -0.3670
 5225SOL     OW27310   4.563   2.677   2.582  0.2045 -0.1997 -0.6239
 5225SOL    HW127311   4.509   2.722   2.647 -2.6766 -0.5528 -2.7657
 5225SOL    HW227312   4.651   2.702   2.609  0.4576 -0.5649 -1.1035
 5226SOL     OW27313   3.192   2.406  14.994  0.8098 -0.0555 -0.3012
 5226SOL    HW127314   3.205   2.324  14.945 -1.4986  0.3452 -1.6097
 5226SOL    HW227315   3.151   2.366  15.071 -1.8349 -1.1278 -2.2530
 5227SOL     OW27316   0.858   1.675   0.820  0.1566 -0.3656 -0.3549
 5227SOL    HW127317   0.901   1.645   0.740 -2.1062  1.3165 -2.2048
 5227SOL    HW227318   0.877   1.606   0.884  2.6341 -0.1683 -0.8871
 5228SOL     OW27319   2.665   2.040   4.132 -0.1404  0.0502  0.3818
 5228SOL    HW127320   2.574   2.012   4.126 -0.5316  1.2541  0.5792
 5228SOL    HW227321   2.688   2.049   4.039  0.6751 -0.2867  0.5513
 5229SOL     OW27322   4.402   3.351  14.842 -0.5894 -0.2343 -0.3682
 5229SOL    HW127323   4.450   3.325  14.920 -0.9816  0.2320  0.0289
 5229SOL    HW227324   4.382   3.269  14.796  1.0136 -0.1832 -1.1535
 5230SOL     OW27325   3.905   2.107   7.087 -0.3210 -0.2771 -0.0019
 5230SOL    HW127326   3.990   2.141   7.117 -0.6066 -0.1345  0.6481
 5230SOL    HW227327   3.877   2.047   7.156 -0.4041  0.3057  0.4745
 5231SOL     OW27328   2.865   1.511   4.725 -0.0753 -0.0684 -0.3717
 5231SOL    HW127329   2.770   1.506   4.715 -0.0716  1.1288 -1.0321
 5231SOL    HW227330   2.889   1.603   4.732 -1.0941  0.2900 -1.5125
 5232SOL     OW27331   0.395   2.395   8.915  0.2944  0.0853  0.3725
 5232SOL    HW127332   0.391   2.490   8.911 -1.3344 -0.0389 -1.1955
 5232SOL    HW227333   0.413   2.358   8.828 -0.1996  0.5556  0.0720
 5233SOL     OW27334   1.839   4.134  10.636 -0.1158  0.4620  0.4564
 5233SOL    HW127335   1.767   4.129  10.573  0.1096  1.4860  0.1179
 5233SOL    HW227336   1.796   4.151  10.720  4.0513 -2.9488  3.2998
 5234SOL     OW27337   0.514   1.212  17.579  0.3409  0.2135  0.6901
 5234SOL    HW127338   0.563   1.188  17.658  0.4847  0.1641  0.5858
 5234SOL    HW227339   0.563   1.186  17.501 -0.6273 -0.0443  0.1755
 5235SOL     OW27340   2.615   4.405  14.913 -0.3413  0.2297  0.6009
 5235SOL    HW127341   2.535   4.418  14.963 -0.2684 -1.4927  1.1560
 5235SOL    HW227342   2.622   4.487  14.864  0.1499  2.9775  5.2456
 5236SOL     OW27343   3.063   1.663   3.948  0.2994  0.0370 -0.0871
 5236SOL    HW127344   3.136   1.677   3.887 -1.3631  1.6550 -1.7314
 5236SOL    HW227345   3.088   1.584   3.995 -0.3875  0.5922  1.2098
 5237SOL     OW27346   1.548   2.089   7.740 -0.0666 -0.0855 -0.3974
 5237SOL    HW127347   1.560   2.175   7.781 -1.4502 -1.0829  2.0453
 5237SOL    HW227348   1.621   2.038   7.775 -0.8937 -2.1630 -1.7091
 5238SOL     OW27349   4.704   4.512   8.467 -0.4165 -0.0992 -0.4745
 5238SOL    HW127350   0.039   4.559   8.425 -1.9251  2.7900  0.1669
 5238SOL    HW227351   4.637   4.560   8.419  1.8015 -0.5906 -4.0511
 5239SOL     OW27352   3.502   2.677   6.737  0.3677  0.0716  0.0174
 5239SOL    HW127353   3.543   2.593   6.758 -2.6457 -1.0447  1.4776
 5239SOL    HW227354   3.510   2.671   6.641  0.8446  0.5115  0.0319
 5240SOL     OW27355   0.294   0.932   2.148 -0.4948  0.6015  0.5512
 5240SOL    HW127356   0.317   0.853   2.100  1.1539  1.4311 -0.0494
 5240SOL    HW227357   0.317   0.887   2.229 -1.1374 -2.1142 -0.7802
 5241SOL     OW27358   4.714   2.713  16.609 -1.4888 -0.8556 -0.3099
 5241SOL    HW127359   4.670   2.783  16.658 -2.5006 -1.5018 -0.2798
 5241SOL    HW227360   4.687   2.646  16.671  3.1802  0.4303  3.1035
 5242SOL     OW27361   0.279   3.791   4.094 -0.0206  0.3324 -0.1792
 5242SOL    HW127362   0.297   3.884   4.077 -1.6901  0.5696 -0.5983
 5242SOL    HW227363   0.188   3.780   4.069  0.1971 -0.0303 -0.8101
 5243SOL     OW27364   3.050   2.418   7.311  0.0796  0.8477 -0.4162
 5243SOL    HW127365   2.960   2.390   7.323  0.9474 -0.7904  2.2221
 5243SOL    HW227366   3.100   2.362   7.370 -1.8110 -0.0656  0.3111
 5244SOL     OW27367   3.371   0.240   1.395 -0.4258  0.2013 -0.3730
 5244SOL    HW127368   3.394   0.212   1.483  1.2293 -1.2701 -1.2799
 5244SOL    HW227369   3.285   0.201   1.380 -1.1247  1.4273  0.4043
 5245SOL     OW27370   2.430   0.524   4.320 -0.3455 -0.2810 -0.0370
 5245SOL    HW127371   2.462   0.529   4.410 -0.8322 -1.2589  0.1860
 5245SOL    HW227372   2.356   0.463   4.314 -1.1544  0.5003  2.1165
 5246SOL     OW27373   0.478   3.048   8.142 -0.0325  0.6691 -0.0352
 5246SOL    HW127374   0.496   2.967   8.190 -0.0051 -0.1139 -1.3845
 5246SOL    HW227375   0.537   3.114   8.180  0.2244  0.5872 -0.2982
 5247SOL     OW27376   3.813   3.944   7.377  0.0809 -0.0368 -0.1140
 5247SOL    HW127377   3.810   3.958   7.472 -2.0648  3.2013 -0.6637
 5247SOL    HW227378   3.908   3.949   7.368  0.1485  0.9473  1.2059
 5248SOL     OW27379   2.362   2.859   8.506 -0.4483  0.2475  0.1073
 5248SOL    HW127380   2.301   2.867   8.579 -2.1817 -2.8216 -0.9749
 5248SOL    HW227381   2.320   2.901   8.431 -0.2211  0.9910  0.4017
 5249SOL     OW27382   4.389   2.732   3.337 -0.1776 -0.0989 -0.0822
 5249SOL    HW127383   4.315   2.677   3.364 -0.4787  0.4118  0.1340
 5249SOL    HW227384   4.421   2.763   3.422  1.6076 -2.0243 -0.0626
 5250SOL     OW27385   1.436   0.383   2.680 -0.2366 -0.5888  0.3154
 5250SOL    HW127386   1.531   0.376   2.693 -0.3415  0.1018  1.4076
 5250SOL    HW227387   1.433   0.452   2.746  1.7886 -1.1358  0.9901
 5251SOL     OW27388   4.087   0.894   6.713  0.2858  0.5627  0.0958
 5251SOL    HW127389   4.030   0.962   6.676 -1.6620 -1.1972 -0.1142
 5251SOL    HW227390   4.090   0.823   6.649 -1.3149 -1.6832  2.5100
 5252SOL     OW27391   3.015   3.309   8.648 -0.5039  0.3807  0.4716
 5252SOL    HW127392   2.970   3.225   8.653  1.1413 -0.4306  1.6281
 5252SOL    HW227393   3.106   3.279   8.651 -0.7875 -0.6126 -0.9527
 5253SOL     OW27394   0.520   0.250   1.734 -0.2084 -0.1094 -0.0680
 5253SOL    HW127395   0.474   0.277   1.814 -2.3387 -1.4799 -0.8441
 5253SOL    HW227396   0.477   0.306   1.670 -3.1669 -1.7343  0.4591
 5254SOL     OW27397   3.003   4.228  14.951 -0.0745 -0.3465 -0.3497
 5254SOL    HW127398   3.051   4.239  14.869 -1.3121 -3.0402 -1.4146
 5254SOL    HW227399   3.075   4.217  15.014 -0.6217 -0.5987  0.2329
 5255SOL     OW27400   2.337   2.483   9.465 -0.6569 -0.2759  0.2016
 5255SOL    HW127401   2.313   2.570   9.434 -0.5670  0.1707  1.4070
 5255SOL    HW227402   2.417   2.474   9.412 -0.5429  2.0351 -0.0005
 5256SOL     OW27403   0.945   0.987   7.879 -0.2728 -0.1513  0.2230
 5256SOL    HW127404   0.965   1.043   7.803 -1.0500 -0.5455 -0.2755
 5256SOL    HW227405   0.858   1.023   7.896 -0.5402 -1.3169  1.3453
 5257SOL     OW27406   4.184   1.892   9.636 -0.5256 -0.3928 -0.0686
 5257SOL    HW127407   4.245   1.819   9.626 -0.2936  0.0233 -1.6980
 5257SOL    HW227408   4.239   1.969   9.618 -2.1250  1.1699  1.7853
 5258SOL     OW27409   3.676   2.889  10.275 -0.3055 -0.3203 -0.2726
 5258SOL    HW127410   3.587   2.911  10.247 -0.1815  0.4736 -0.0490
 5258SOL    HW227411   3.701   2.815  10.221 -0.4888 -0.8012  0.2964
 5259SOL     OW27412   0.138   4.228   7.313 -0.1407 -0.3243  0.2193
 5259SOL    HW127413   0.112   4.160   7.252 -0.3859 -0.7083  0.7468
 5259SOL    HW227414   0.222   4.192   7.342 -0.2796 -1.6230 -1.0009
 5260SOL     OW27415   3.436   2.900   6.510  0.2876  0.6488  0.8388
 5260SOL    HW127416   3.408   2.953   6.435  0.2215  0.7386  0.9273
 5260SOL    HW227417   3.517   2.862   6.477 -0.4516  0.0228 -0.2320
 5261SOL     OW27418   4.607   0.104   2.801 -0.4791  0.0777 -0.6610
 5261SOL    HW127419   4.592   0.012   2.823  3.2116 -0.5138 -0.6096
 5261SOL    HW227420   4.689   0.096   2.752  0.0248  0.6971  0.0778
 5262SOL     OW27421   1.711   3.048   3.825  0.1019 -0.4158  0.0526
 5262SOL    HW127422   1.693   3.120   3.885  1.9917 -1.6075  2.0368
 5262SOL    HW227423   1.807   3.047   3.829  0.1087 -0.7009 -0.1504
 5263SOL     OW27424   2.458   0.381   6.504 -0.5609 -0.4418 -0.0159
 5263SOL    HW127425   2.469   0.286   6.516  0.8699 -0.4678 -1.4482
 5263SOL    HW227426   2.543   0.406   6.540 -0.8390  0.5144 -0.0419
 5264SOL     OW27427   3.639   3.686   1.481 -0.1717  0.0710  0.3507
 5264SOL    HW127428   3.576   3.614   1.472 -1.1512  0.8423  1.0123
 5264SOL    HW227429   3.723   3.640   1.476 -0.7769 -1.0255  0.0800
 5265SOL     OW27430   3.860   3.597   0.993 -0.4084  0.5930  0.1753
 5265SOL    HW127431   3.771   3.562   0.981 -0.1251  0.5507 -1.7813
 5265SOL    HW227432   3.842   3.689   1.014 -2.3564 -0.4090  3.0110
 5266SOL     OW27433   0.439   0.946  17.572  0.5712  0.1986  0.2977
 5266SOL    HW127434   0.436   1.042  17.571  0.0420  0.1784  0.0653
 5266SOL    HW227435   0.426   0.943  17.666 -1.0109  2.9181  0.1648
 5267SOL     OW27436   4.030   4.303   6.481  0.1966  0.4241  0.6302
 5267SOL    HW127437   4.012   4.316   6.388 -0.7578  1.0328  0.9073
 5267SOL    HW227438   3.993   4.214   6.485  1.4971 -0.0941  1.2041
 5268SOL     OW27439   3.557   0.847   4.054 -0.0368  0.3731  0.0735
 5268SOL    HW127440   3.507   0.810   3.981 -0.9729 -2.0940  1.9741
 5268SOL    HW227441   3.619   0.775   4.065  0.1843  0.6454  0.5881
 5269SOL     OW27442   0.085   3.298   7.763 -0.1201  0.1921 -0.3126
 5269SOL    HW127443   0.030   3.266   7.835  0.6562 -0.5864 -0.0687
 5269SOL    HW227444   0.172   3.282   7.799 -1.5430 -0.5766  2.8089
 5270SOL     OW27445   1.695   3.146   5.002  0.4828 -0.2104  0.6691
 5270SOL    HW127446   1.627   3.122   5.065  1.5464 -0.1026  1.8503
 5270SOL    HW227447   1.690   3.069   4.945  3.8233  0.0305  0.0881
 5271SOL     OW27448   2.374   2.562   5.918  0.1656 -0.2322 -0.3667
 5271SOL    HW127449   2.396   2.589   6.007 -1.3369  0.1919 -0.1400
 5271SOL    HW227450   2.283   2.535   5.931  0.3014 -0.9178 -0.7906
 5272SOL     OW27451   3.481   4.132   6.560  0.1805 -0.1664  0.2590
 5272SOL    HW127452   3.443   4.044   6.565  0.8041 -0.4393  0.1254
 5272SOL    HW227453   3.416   4.176   6.615  1.0271  1.1365  0.2150
 5273SOL     OW27454   3.743   1.579   9.435 -0.0742 -0.5079 -0.1604
 5273SOL    HW127455   3.728   1.647   9.370  0.3291 -1.0309 -0.8014
 5273SOL    HW227456   3.689   1.605   9.510  0.1174  1.1658 -0.6182
 5274SOL     OW27457   2.324   1.956  15.555  0.7288  0.1592 -0.4764
 5274SOL    HW127458   2.290   2.030  15.504 -0.8616 -0.2134  0.0539
 5274SOL    HW227459   2.282   1.885  15.507  0.1432 -0.5580  1.0868
 5275SOL     OW27460   2.806   4.109  15.532  0.3508  0.6758 -0.6479
 5275SOL    HW127461   2.861   4.187  15.534  2.0039 -0.5077 -0.4365
 5275SOL    HW227462   2.734   4.141  15.478 -0.9770 -0.9372  0.1761
 5276SOL     OW27463   0.428   1.381   5.443 -0.3226  0.1317  0.1747
 5276SOL    HW127464   0.428   1.408   5.535  1.2223  0.5511  0.0601
 5276SOL    HW227465   0.340   1.412   5.422 -1.4610 -3.2714 -0.1525
 5277SOL     OW27466   0.140   4.238   8.420  0.1617 -0.0615  0.2753
 5277SOL    HW127467   0.075   4.301   8.388  0.2787 -0.7380 -1.2821
 5277SOL    HW227468   0.127   4.229   8.514 -1.4257 -1.2208 -0.0572
 5278SOL     OW27469   4.016   3.291   9.466  0.0445  0.0446  0.3099
 5278SOL    HW127470   4.040   3.339   9.546 -0.3052  0.1579  0.3467
 5278SOL    HW227471   4.072   3.338   9.404  2.1428 -1.1314  1.2859
 5279SOL     OW27472   3.641   2.924  11.987 -0.1201 -1.0257 -0.0236
 5279SOL    HW127473   3.628   2.860  11.917 -0.3851  0.6580 -1.5030
 5279SOL    HW227474   3.554   2.963  11.987  0.6068  0.5794 -0.5206
 5280SOL     OW27475   0.504   0.100   3.790 -0.1326  1.0733  0.1761
 5280SOL    HW127476   0.589   0.138   3.811 -0.0893  0.7093  0.6445
 5280SOL    HW227477   0.447   0.175   3.805 -0.4857  0.7312  0.5548
 5281SOL     OW27478   4.234   2.241   3.669  0.5349 -0.7045  0.1034
 5281SOL    HW127479   4.326   2.240   3.696  0.7787 -2.3640 -0.7947
 5281SOL    HW227480   4.218   2.335   3.666  0.1263 -0.7560  0.5184
 5282SOL     OW27481   1.483   1.091  12.149  0.0521 -0.8632  0.1110
 5282SOL    HW127482   1.497   1.038  12.227 -0.3098 -1.9755 -0.5865
 5282SOL    HW227483   1.520   1.035  12.081 -1.8095 -0.1567 -1.4826
 5283SOL     OW27484   0.637   1.176   8.199 -0.3606 -0.1481 -0.4463
 5283SOL    HW127485   0.629   1.200   8.291 -1.1443 -1.1324 -0.2639
 5283SOL    HW227486   0.714   1.118   8.196  0.2202  0.4595  2.2532
 5284SOL     OW27487   2.208   2.936   9.195 -0.2906 -0.2378 -0.1007
 5284SOL    HW127488   2.201   2.939   9.100  0.3119  4.5833 -0.0347
 5284SOL    HW227489   2.244   3.021   9.223 -2.3855  0.0232  1.8512
 5285SOL     OW27490   2.613   4.075  15.775 -0.7794  0.4735 -0.2602
 5285SOL    HW127491   2.652   4.128  15.844 -0.0032  0.5169 -0.7275
 5285SOL    HW227492   2.678   4.086  15.705 -1.0920 -2.0052 -0.9617
 5286SOL     OW27493   0.841   3.568  10.960  0.3399 -0.5856 -0.2357
 5286SOL    HW127494   0.865   3.610  11.043  0.5426 -2.6738  0.7671
 5286SOL    HW227495   0.883   3.628  10.899 -1.2727 -1.3489 -2.0709
 5287SOL     OW27496   4.394   2.426   6.630 -1.0259 -0.0440  0.2098
 5287SOL    HW127497   4.402   2.330   6.626  3.2313  0.4110 -2.6104
 5287SOL    HW227498   4.437   2.442   6.713 -0.2540  1.2782 -0.4463
 5288SOL     OW27499   2.127   1.646   5.862  0.4762 -0.3405  0.1987
 5288SOL    HW127500   2.116   1.642   5.957 -1.5200  0.2859  0.0067
 5288SOL    HW227501   2.134   1.740   5.848  0.7954 -0.2807  0.7622
 5289SOL     OW27502   1.004   1.615  11.290  0.0559 -0.1406 -0.0375
 5289SOL    HW127503   1.019   1.698  11.336  0.2970  0.2166 -0.7590
 5289SOL    HW227504   0.909   1.606  11.291  0.0021  0.2526 -2.1836
 5290SOL     OW27505   3.782   1.996   0.858  0.6218  0.6288  0.0621
 5290SOL    HW127506   3.802   2.073   0.804 -0.3190  1.8558  1.4232
 5290SOL    HW227507   3.821   2.030   0.938  0.7002 -0.3789  0.4444
 5291SOL     OW27508   1.102   4.378   3.300 -0.0030 -0.1100  0.4197
 5291SOL    HW127509   1.041   4.330   3.356  0.0554 -0.8652 -0.1623
 5291SOL    HW227510   1.152   4.429   3.364 -0.7619 -0.7245  1.5049
 5292SOL     OW27511   4.545   2.221   2.564 -0.3663  0.3461 -0.8548
 5292SOL    HW127512   4.473   2.162   2.588  1.2235 -0.5665  1.6590
 5292SOL    HW227513   4.507   2.304   2.593 -0.7662 -0.3397  0.6082
 5293SOL     OW27514   2.859   2.438   9.328  0.2131 -0.5054  0.2294
 5293SOL    HW127515   2.824   2.468   9.244 -0.6364  2.2170  1.5621
 5293SOL    HW227516   2.930   2.387   9.290  0.9770  1.6931 -1.2969
 5294SOL     OW27517   0.109   0.433   0.032 -0.6235 -0.2434  0.0059
 5294SOL    HW127518   0.179   0.452  17.715  0.3508 -0.2441  1.0958
 5294SOL    HW227519   0.156   0.378   0.095  0.8239 -0.0274 -0.8910
 5295SOL     OW27520   3.194   4.494   2.137  0.2473  0.8980  0.0769
 5295SOL    HW127521   3.140   4.432   2.186  3.1455 -0.5047  1.4396
 5295SOL    HW227522   3.262   4.436   2.103  0.0464  0.1736  0.9266
 5296SOL     OW27523   3.989   4.289   6.206  0.4194  0.0293 -0.4678
 5296SOL    HW127524   4.037   4.302   6.124  1.3040 -0.6453 -0.0598
 5296SOL    HW227525   3.973   4.194   6.202  0.6752 -0.0345  0.1479
 5297SOL     OW27526   1.950   0.048   2.745 -0.4693  0.2669  0.6327
 5297SOL    HW127527   1.859   0.055   2.717 -0.6581  1.9628  1.6945
 5297SOL    HW227528   1.978   4.696   2.722  0.3168  0.1624  1.9972
 5298SOL     OW27529   3.836   3.032   2.654 -0.3908  0.2100  0.5368
 5298SOL    HW127530   3.870   3.111   2.695  0.1257  0.0402  0.4412
 5298SOL    HW227531   3.914   2.977   2.646 -1.3782 -0.8404 -1.8689
 5299SOL     OW27532   2.481   0.761   6.714  0.0906 -0.3193 -0.6443
 5299SOL    HW127533   2.505   0.791   6.802  1.1177  0.1526 -1.0768
 5299SOL    HW227534   2.571   0.748   6.682  0.8561  0.5389  1.1580
 5300SOL     OW27535   2.306   1.675  11.233  0.4125 -0.0658  0.0786
 5300SOL    HW127536   2.376   1.655  11.170  0.0204  0.9059 -0.6633
 5300SOL    HW227537   2.229   1.639  11.188  1.4462 -1.2719 -0.7496
 5301SOL     OW27538   1.203   2.418   4.411  0.7520 -0.0668 -0.0763
 5301SOL    HW127539   1.114   2.454   4.410  0.0009 -1.9722 -3.8825
 5301SOL    HW227540   1.235   2.444   4.497 -2.8488  1.0910  0.9249
 5302SOL     OW27541   4.714   3.808   7.902  0.0842  0.4741  0.4147
 5302SOL    HW127542   4.728   3.869   7.830 -0.5256 -0.8212 -0.8134
 5302SOL    HW227543   4.670   3.858   7.970 -1.1399 -1.5400  1.0943
 5303SOL     OW27544   1.116   3.736   2.804 -0.2123 -0.0685  0.0839
 5303SOL    HW127545   1.168   3.690   2.869  1.9251 -1.3030 -2.4939
 5303SOL    HW227546   1.038   3.728   2.859 -0.5132 -1.1820 -0.5087
 5304SOL     OW27547   3.023   3.299   5.550  0.1401  0.3550  0.1849
 5304SOL    HW127548   3.111   3.320   5.520 -0.5364  1.2581 -1.1541
 5304SOL    HW227549   3.028   3.214   5.507 -0.3323  0.3867  0.0677
 5305SOL     OW27550   0.903   3.759  11.153 -0.2576  1.0396 -0.3691
 5305SOL    HW127551   0.878   3.831  11.095 -0.0566  0.5514 -1.0555
 5305SOL    HW227552   0.971   3.801  11.206 -0.2342  1.6084 -0.8463
 5306SOL     OW27553   2.219   1.988   8.699  0.1859 -0.0610  0.2883
 5306SOL    HW127554   2.194   2.061   8.642  1.9409  1.1771  1.1103
 5306SOL    HW227555   2.240   1.917   8.639  3.0864  0.0493  1.1846
 5307SOL     OW27556   0.669   2.911   0.692 -0.1628 -0.0481  0.6351
 5307SOL    HW127557   0.686   2.827   0.736  0.6597  0.5570  1.4515
 5307SOL    HW227558   0.616   2.959   0.756 -3.1538 -0.0917 -1.7806
 5308SOL     OW27559   2.282   3.928   9.558 -0.4140 -0.0673 -0.1972
 5308SOL    HW127560   2.194   3.892   9.567  0.2185 -1.3336  0.8257
 5308SOL    HW227561   2.344   3.855   9.556  1.6111  1.6546 -0.7314
 5309SOL     OW27562   2.976   2.484  16.627 -0.1924 -0.1311 -0.1351
 5309SOL    HW127563   2.934   2.468  16.542  0.6007 -2.9217 -0.0016
 5309SOL    HW227564   3.034   2.409  16.637  1.3423  1.1050  0.2398
 5310SOL     OW27565   3.710   0.946   5.597 -0.3622  0.0488 -0.3238
 5310SOL    HW127566   3.674   0.858   5.610 -1.0087  0.8267  3.1865
 5310SOL    HW227567   3.720   0.944   5.502  0.4770  0.9229 -0.2480
 5311SOL     OW27568   2.147   3.844   3.328 -0.0933  0.2441 -0.1585
 5311SOL    HW127569   2.105   3.765   3.361 -1.3048  0.4785 -1.1127
 5311SOL    HW227570   2.238   3.816   3.336 -0.5131 -0.8897  0.5416
 5312SOL     OW27571   0.099   2.517   6.037  0.0691 -0.3590 -0.6380
 5312SOL    HW127572   0.130   2.427   6.028 -0.1783 -0.3591 -1.4723
 5312SOL    HW227573   0.177   2.564   6.008  0.1089  1.8078  3.0559
 5313SOL     OW27574   4.723   4.142   3.197  0.4506  0.2156 -0.0233
 5313SOL    HW127575   0.022   4.123   3.109 -0.3085  0.8437 -0.4650
 5313SOL    HW227576   4.707   4.235   3.181 -1.3975 -0.2761 -0.9919
 5314SOL     OW27577   4.589   3.957   0.622 -0.3025 -0.1530 -0.2344
 5314SOL    HW127578   4.615   3.871   0.588 -3.8797 -1.7603  1.1278
 5314SOL    HW227579   4.532   3.983   0.550 -2.5102 -0.9589  1.2150
 5315SOL     OW27580   3.486   2.492   1.478 -0.6627  0.0661  0.2151
 5315SOL    HW127581   3.427   2.435   1.428 -0.6097  1.3370 -1.2741
 5315SOL    HW227582   3.518   2.429   1.542 -3.1891  0.3161  1.7209
 5316SOL     OW27583   0.526   1.287   2.349  0.7917  0.1419  1.0262
 5316SOL    HW127584   0.460   1.329   2.294 -0.4721 -1.1468  1.5734
 5316SOL    HW227585   0.522   1.339   2.429 -1.4542 -1.5018  1.9826
 5317SOL     OW27586   0.216   1.070   4.722  0.0855 -0.0331  0.3000
 5317SOL    HW127587   0.192   0.993   4.774 -0.1794  0.9920  1.6973
 5317SOL    HW227588   0.206   1.136   4.790  0.1509  0.5762 -0.2839
 5318SOL     OW27589   2.740   0.538   7.646 -0.5761  0.6667 -0.1400
 5318SOL    HW127590   2.811   0.558   7.586 -0.8871  1.1124 -0.3635
 5318SOL    HW227591   2.723   0.451   7.611  1.9807 -0.0530  0.4364
 5319SOL     OW27592   0.737   1.593   0.497  0.3199  0.2923 -0.1327
 5319SOL    HW127593   0.706   1.529   0.561  0.0728  0.5428 -0.0033
 5319SOL    HW227594   0.657   1.598   0.444  0.5945  1.2960 -0.4617
 5320SOL     OW27595   4.467   0.999   4.275  0.0364 -0.0102  0.2441
 5320SOL    HW127596   4.470   1.059   4.200  0.4591  1.2531  1.2748
 5320SOL    HW227597   4.532   1.044   4.329  0.9053 -1.7471  0.6445
 5321SOL     OW27598   1.131   2.612   3.693 -0.1679  1.0643 -0.4115
 5321SOL    HW127599   1.174   2.548   3.637 -3.4833 -1.1387 -0.4266
 5321SOL    HW227600   1.191   2.687   3.694  2.4980 -1.0497 -1.6570
 5322SOL     OW27601   1.439   2.181  10.323  0.0875 -0.5119 -0.3813
 5322SOL    HW127602   1.522   2.180  10.371  0.9145 -3.0636 -1.8782
 5322SOL    HW227603   1.445   2.117  10.252 -2.7861  0.2501 -1.3351
 5323SOL     OW27604   2.157   1.517   2.554  0.2690  0.0554  0.0781
 5323SOL    HW127605   2.176   1.505   2.460 -0.1760 -0.8140  0.0987
 5323SOL    HW227606   2.063   1.498   2.560 -0.1250  1.8603 -0.4450
 5324SOL     OW27607   2.423   3.827   3.382  0.0782  0.3660  0.3005
 5324SOL    HW127608   2.485   3.795   3.448  0.0306 -0.7234 -0.1729
 5324SOL    HW227609   2.481   3.827   3.307 -1.1189 -2.2169 -0.6276
 5325SOL     OW27610   3.011   0.782   7.227  0.5190 -0.0203  0.1066
 5325SOL    HW127611   3.083   0.813   7.172  0.9744 -0.3173  0.5275
 5325SOL    HW227612   3.021   0.845   7.298  1.3855  0.6098 -0.5680
 5326SOL     OW27613   0.190   3.187   8.747  0.1819  0.0096  0.0782
 5326SOL    HW127614   0.255   3.229   8.690  2.4732  0.1629  2.8236
 5326SOL    HW227615   0.172   3.111   8.690  0.0130  1.6193 -2.0163
 5327SOL     OW27616   3.360   3.910  13.096 -0.4665 -0.1786 -0.4061
 5327SOL    HW127617   3.327   3.997  13.117  1.9879  0.3915  1.1504
 5327SOL    HW227618   3.294   3.853  13.135 -0.1855  1.2513  2.1857
 5328SOL     OW27619   0.661   0.074   6.870  0.2789  0.3654 -0.0239
 5328SOL    HW127620   0.659   4.715   6.871  2.0807  0.3626  1.7891
 5328SOL    HW227621   0.738   0.086   6.815  0.6035  0.2023  0.3993
 5329SOL     OW27622   3.296   2.661   7.077  0.1746 -0.0069  0.4212
 5329SOL    HW127623   3.371   2.603   7.065 -1.1983 -1.1877 -2.2801
 5329SOL    HW227624   3.326   2.736   7.027 -1.5200  0.8563  0.7016
 5330SOL     OW27625   0.065   2.735   2.237 -0.8047 -0.3013 -0.2312
 5330SOL    HW127626   0.081   2.692   2.153  2.5485  0.5376 -0.0216
 5330SOL    HW227627   0.088   2.662   2.295 -0.0140 -2.5034 -3.2833
 5331SOL     OW27628   3.869   2.247  15.761  0.3272  0.2211  0.0266
 5331SOL    HW127629   3.777   2.243  15.735  0.2571  3.0011 -0.1940
 5331SOL    HW227630   3.868   2.327  15.815 -1.8731 -0.3212  0.7886
 5332SOL     OW27631   1.037   0.532  12.804 -0.5724  0.0778 -0.5179
 5332SOL    HW127632   1.092   0.584  12.861 -0.4679  0.0975 -0.6360
 5332SOL    HW227633   1.022   0.590  12.729  1.1261  0.0205 -0.8862
 5333SOL     OW27634   0.561   2.813   7.506  0.0799  0.1932 -0.0444
 5333SOL    HW127635   0.497   2.817   7.577  0.7929 -1.7239  0.6834
 5333SOL    HW227636   0.610   2.895   7.520 -0.8536  0.5291  1.1633
 5334SOL     OW27637   2.834   0.358   9.152  0.0309 -0.1537 -0.2847
 5334SOL    HW127638   2.837   0.262   9.152 -1.9310 -0.2114  1.8003
 5334SOL    HW227639   2.926   0.361   9.127  0.8531 -0.6794  2.7701
 5335SOL     OW27640   0.255   2.507   1.029 -0.7917  0.1401  0.1794
 5335SOL    HW127641   0.306   2.588   1.035  0.2222 -0.5321  0.5716
 5335SOL    HW227642   0.167   2.542   1.017 -1.1701 -0.7806  0.3402
 5336SOL     OW27643   1.362   4.279   7.929  0.1720 -0.0626  0.1631
 5336SOL    HW127644   1.345   4.373   7.936 -0.0939  0.0856 -2.3097
 5336SOL    HW227645   1.457   4.288   7.919 -0.2167  1.9218 -1.9200
 5337SOL     OW27646   4.185   0.133  14.081  0.4739 -0.2742 -0.0060
 5337SOL    HW127647   4.133   0.132  14.000  0.8059  1.1978 -0.2504
 5337SOL    HW227648   4.111   0.146  14.141  3.3023  1.2363  3.0941
 5338SOL     OW27649   1.808   2.709   3.568  0.1102 -0.4419  0.3197
 5338SOL    HW127650   1.792   2.624   3.610 -0.3157 -1.5883 -2.1843
 5338SOL    HW227651   1.720   2.744   3.555  0.5994  0.6877  0.0929
 5339SOL     OW27652   3.094   4.647   0.203  0.3325 -0.3165 -0.5445
 5339SOL    HW127653   3.039   4.603   0.268 -0.5222  0.7073 -0.5831
 5339SOL    HW227654   3.036   4.700   0.148  1.0595  1.3225  0.2723
 5340SOL     OW27655   2.249   1.364   4.106  0.2023  0.0117  0.3116
 5340SOL    HW127656   2.305   1.306   4.054  0.3623  0.2178  0.2566
 5340SOL    HW227657   2.310   1.436   4.118  1.7669 -0.9861 -1.6328
 5341SOL     OW27658   0.629   1.451  13.491 -0.2707 -0.2068  0.1310
 5341SOL    HW127659   0.596   1.414  13.573 -0.5419  1.3968  0.7425
 5341SOL    HW227660   0.688   1.385  13.456  2.1027  3.2392 -2.2926
 5342SOL     OW27661   4.112   3.333   6.356  0.1884  1.0043 -0.2532
 5342SOL    HW127662   4.148   3.288   6.432  0.5384 -0.3841 -1.2285
 5342SOL    HW227663   4.054   3.265   6.320  0.4404  1.1825 -1.0049
 5343SOL     OW27664   1.256   1.266   8.018 -0.1453 -0.3849  0.0583
 5343SOL    HW127665   1.315   1.211   7.966  0.2465  0.1830 -0.0970
 5343SOL    HW227666   1.201   1.328   7.970 -0.5902 -0.3171  0.6482
 5344SOL     OW27667   0.485   0.188   2.495 -0.0268 -0.1375 -0.3784
 5344SOL    HW127668   0.426   0.244   2.445 -0.1985 -0.0343 -0.0641
 5344SOL    HW227669   0.544   0.243   2.546  0.9248 -2.0634  0.6309
 5345SOL     OW27670   2.999   1.614   9.038  0.3368  0.1047  0.0086
 5345SOL    HW127671   2.965   1.689   8.990  1.3652 -0.0898 -1.0105
 5345SOL    HW227672   3.052   1.573   8.970  0.5504  1.6619 -0.7628
 5346SOL     OW27673   3.809   0.735   3.430  0.2385  0.0413 -0.3318
 5346SOL    HW127674   3.874   0.689   3.483 -0.3465 -1.6268 -1.0568
 5346SOL    HW227675   3.731   0.720   3.484  0.5073 -0.4058 -0.0614
 5347SOL     OW27676   4.003   4.585  16.639  0.1166  0.5762 -0.5789
 5347SOL    HW127677   4.013   4.639  16.717  2.1215 -0.3692 -0.1740
 5347SOL    HW227678   3.911   4.562  16.645  0.4615 -0.6123  0.0262
 5348SOL     OW27679   2.671   1.532  13.480 -0.0759 -0.1495  0.2034
 5348SOL    HW127680   2.614   1.534  13.557  0.9996 -0.5050  1.0002
 5348SOL    HW227681   2.744   1.486  13.521 -0.3361  0.4099  1.2884
 5349SOL     OW27682   2.766   4.051   4.522 -1.0693 -0.0097  0.3369
 5349SOL    HW127683   2.699   4.025   4.587 -1.5138 -0.1752 -0.1849
 5349SOL    HW227684   2.742   4.142   4.540 -0.1161  0.3674 -0.3344
 5350SOL     OW27685   1.832   3.823  17.517  0.0158 -0.2167  0.1491
 5350SOL    HW127686   1.895   3.789  17.580  1.1079 -0.8563 -1.2734
 5350SOL    HW227687   1.867   3.795  17.432  0.1849 -5.2262  1.8832
 5351SOL     OW27688   3.702   0.452   8.898  0.2377 -0.0205  0.5838
 5351SOL    HW127689   3.780   0.489   8.856 -0.3965 -0.3872 -0.9039
 5351SOL    HW227690   3.633   0.516   8.882 -1.3340 -1.7743  0.4256
 5352SOL     OW27691   3.482   0.974  16.429 -0.0370 -0.1277 -0.1042
 5352SOL    HW127692   3.405   0.920  16.412 -1.0843  1.5979 -0.8619
 5352SOL    HW227693   3.549   0.925  16.382 -0.1252 -0.2762 -0.0738
 5353SOL     OW27694   2.191   0.001   8.495 -0.3218 -0.4105  0.3351
 5353SOL    HW127695   2.154   0.086   8.518 -2.5134 -2.1609  3.3789
 5353SOL    HW227696   2.277   4.734   8.535  0.2084  1.4955 -0.6407
 5354SOL     OW27697   1.941   0.471  17.572 -0.0977 -0.8720  0.2480
 5354SOL    HW127698   1.990   0.402  17.617  0.4474 -0.5137  0.2062
 5354SOL    HW227699   2.011   0.537  17.573 -0.2541 -0.7017 -0.0861
 5355SOL     OW27700   2.216   2.069   1.770 -0.2120  0.0748 -0.1214
 5355SOL    HW127701   2.274   2.076   1.694  2.7803 -3.5200  1.7824
 5355SOL    HW227702   2.180   1.981   1.757  1.6526 -0.5402 -1.1037
 5356SOL     OW27703   2.115   2.417   8.257 -0.6123 -0.3811  0.4678
 5356SOL    HW127704   2.044   2.474   8.225  0.4138  0.6508  0.0263
 5356SOL    HW227705   2.094   2.336   8.209 -0.3977  0.5315 -1.1686
 5357SOL     OW27706   0.917   3.988  13.957  0.3667 -0.1144  0.5758
 5357SOL    HW127707   0.868   4.047  13.899 -1.8707  0.2145  2.7985
 5357SOL    HW227708   0.846   3.925  13.953  1.7014 -1.5459 -0.3663
 5358SOL     OW27709   3.959   2.126   5.308 -0.7845  0.3017  0.4136
 5358SOL    HW127710   3.893   2.058   5.319 -1.6058  0.6582 -2.1324
 5358SOL    HW227711   3.905   2.205   5.306 -0.0374  0.8251  0.9193
 5359SOL     OW27712   3.316   3.094  10.980  0.3025  0.0640 -0.1066
 5359SOL    HW127713   3.247   3.029  10.993  1.3263 -0.8517  0.6688
 5359SOL    HW227714   3.299   3.164  11.043  0.0501 -1.8911  2.0105
 5360SOL     OW27715   1.217   4.543   8.699 -0.0023  0.0761 -0.5701
 5360SOL    HW127716   1.178   4.512   8.781  0.1115 -1.5099 -1.1173
 5360SOL    HW227717   1.293   4.585   8.740 -0.0263 -0.7221  0.3033
 5361SOL     OW27718   1.419   3.246   8.798  0.2704 -0.0639  0.1851
 5361SOL    HW127719   1.479   3.314   8.829 -0.2873  1.3816 -1.9131
 5361SOL    HW227720   1.470   3.174   8.835  0.3409  0.6384  1.4335
 5362SOL     OW27721   0.960   3.452   3.097  0.1832  0.0268 -0.2140
 5362SOL    HW127722   0.990   3.542   3.082  0.7420  0.2702  2.3881
 5362SOL    HW227723   0.910   3.458   3.178 -0.5025 -1.8080 -0.5119
 5363SOL     OW27724   1.062   1.866   4.919  0.4141 -0.1653 -0.5750
 5363SOL    HW127725   0.991   1.823   4.871  1.4680 -2.9635  0.3308
 5363SOL    HW227726   1.134   1.815   4.881 -0.6120 -0.4393 -2.1372
 5364SOL     OW27727   0.728   0.287  16.816 -0.2159 -0.1954  0.2162
 5364SOL    HW127728   0.747   0.304  16.724 -1.4265 -2.1158 -0.3770
 5364SOL    HW227729   0.634   0.273  16.808  0.4219 -3.9145 -0.7752
 5365SOL     OW27730   1.201   1.716   2.993 -0.0551 -0.1874 -0.0310
 5365SOL    HW127731   1.117   1.688   3.030 -0.9515 -0.7748 -2.4851
 5365SOL    HW227732   1.255   1.755   3.061  0.6887  0.5365 -1.0518
 5366SOL     OW27733   0.661   4.666  17.725  0.2744  0.0968 -0.4777
 5366SOL    HW127734   0.746   4.673  17.681  1.3676 -0.1987  1.6046
 5366SOL    HW227735   0.642   0.019   0.007  1.9784  0.4521 -0.4401
 5367SOL     OW27736   2.392   0.050  14.074 -0.2697 -0.1439 -0.1197
 5367SOL    HW127737   2.425   0.032  14.162  0.4057 -1.7434 -0.7088
 5367SOL    HW227738   2.459   0.097  14.024  2.4957 -1.9825  1.8877
 5368SOL     OW27739   4.351   4.034   7.382 -0.2340  0.0423 -0.6979
 5368SOL    HW127740   4.386   4.056   7.296  2.7770  0.8693  0.7332
 5368SOL    HW227741   4.438   4.021   7.421 -0.7042 -0.2332  0.2632
 5369SOL     OW27742   0.906   0.136   6.077 -0.4826  0.0947  0.0374
 5369SOL    HW127743   0.913   0.097   6.164  0.3930  0.3286  0.0783
 5369SOL    HW227744   0.917   0.059   6.020 -0.5770  0.0487  0.0822
 5370SOL     OW27745   0.210   2.411   9.399 -0.2432 -0.0339  0.3354
 5370SOL    HW127746   0.281   2.352   9.421  0.7422  0.8097 -0.5523
 5370SOL    HW227747   0.248   2.497   9.419 -1.4897  0.5734  0.1214
 5371SOL     OW27748   2.730   4.441  11.188  0.1022 -0.1316  0.4055
 5371SOL    HW127749   2.740   4.525  11.232  0.5887 -1.0071  1.9482
 5371SOL    HW227750   2.719   4.377  11.258  0.7293 -1.0408 -0.3063
 5372SOL     OW27751   2.577   1.244   5.091 -0.0189  0.5005  0.1560
 5372SOL    HW127752   2.631   1.181   5.044  0.3200  0.6003  0.4101
 5372SOL    HW227753   2.534   1.283   5.015 -0.5693  1.4919  0.9769
 5373SOL     OW27754   0.728   3.606   4.946 -0.6406 -0.1708  0.2468
 5373SOL    HW127755   0.695   3.652   5.023  1.6578  0.5789  0.7808
 5373SOL    HW227756   0.796   3.553   4.987  0.4538  3.1867  2.7811
 5374SOL     OW27757   2.324   0.657   8.153 -0.2033  0.4298 -0.1067
 5374SOL    HW127758   2.234   0.657   8.185 -0.8782 -0.0329 -1.9754
 5374SOL    HW227759   2.355   0.575   8.190  1.8028  1.5764  0.7789
 5375SOL     OW27760   0.136   0.096   7.358  0.3794 -0.3114  0.2548
 5375SOL    HW127761   0.173   0.177   7.323 -1.0052  0.4761  0.6240
 5375SOL    HW227762   0.178   0.031   7.301 -2.6433 -0.9511 -1.2755
 5376SOL     OW27763   1.272   4.471   3.476  0.0563  0.3424 -0.0880
 5376SOL    HW127764   1.190   4.500   3.515 -0.4236 -0.9054 -0.1692
 5376SOL    HW227765   1.328   4.511   3.543  0.1991  1.3060 -0.7870
 5377SOL     OW27766   3.768   0.570   9.890 -0.7030 -0.0187  0.3671
 5377SOL    HW127767   3.676   0.583   9.914 -0.5051 -1.8624  2.1494
 5377SOL    HW227768   3.771   0.602   9.800 -0.1896  0.5036  0.5712
 5378SOL     OW27769   0.825   3.872   3.196 -0.2986  0.2264 -0.0078
 5378SOL    HW127770   0.762   3.801   3.204  1.2977 -0.8630  3.0537
 5378SOL    HW227771   0.781   3.938   3.250 -1.6340 -1.6764  1.2218
 5379SOL     OW27772   1.045   1.772   6.074 -0.4286 -0.1009  0.0044
 5379SOL    HW127773   1.048   1.690   6.025 -2.3134  1.1575 -2.2073
 5379SOL    HW227774   1.067   1.834   6.005  0.8517 -0.7410 -0.1620
 5380SOL     OW27775   3.289   4.535  10.425 -0.5093 -0.2812  0.2489
 5380SOL    HW127776   3.356   4.480  10.467 -0.9888 -0.2729  1.0208
 5380SOL    HW227777   3.244   4.568  10.503  0.7616  1.7251  0.1609
 5381SOL     OW27778   3.798   2.359   5.348 -0.3427  0.9314 -0.2663
 5381SOL    HW127779   3.836   2.444   5.330 -0.5736  0.7735 -1.5070
 5381SOL    HW227780   3.716   2.357   5.299 -0.3322 -0.8082 -0.2087
 5382SOL     OW27781   1.880   0.335   7.024 -0.3113 -0.0309  0.0079
 5382SOL    HW127782   1.873   0.255   6.972  3.6096 -0.7565  0.5437
 5382SOL    HW227783   1.949   0.321   7.089 -0.9343  1.1600  0.9139
 5383SOL     OW27784   0.012   1.347   8.135  0.1064  0.0914  0.0053
 5383SOL    HW127785   0.009   1.404   8.212 -0.2279  1.8680 -1.3175
 5383SOL    HW227786   0.042   1.270   8.183  0.6466  0.5399  0.4073
 5384SOL     OW27787   1.515   4.366   1.782 -0.2160  0.5552  0.1474
 5384SOL    HW127788   1.595   4.317   1.804 -1.7133 -1.9401  0.1005
 5384SOL    HW227789   1.554   4.451   1.764  0.4958  0.4973  1.4415
 5385SOL     OW27790   3.755   1.214  11.175  0.6135  0.0690  0.2964
 5385SOL    HW127791   3.817   1.175  11.113 -0.5372 -0.7941 -0.3109
 5385SOL    HW227792   3.813   1.221  11.250  1.9047 -0.3558 -0.6552
 5386SOL     OW27793   1.432   2.909  15.867  0.3119 -0.2023 -0.2404
 5386SOL    HW127794   1.464   2.960  15.941  0.2065  0.9145 -0.9691
 5386SOL    HW227795   1.456   2.821  15.895 -2.2763 -1.3363 -1.5824
 5387SOL     OW27796   2.574   1.931  13.090 -0.0356 -0.0355 -0.4674
 5387SOL    HW127797   2.555   1.943  13.183  2.7884  0.2463  0.0531
 5387SOL    HW227798   2.596   2.018  13.057  0.8782 -0.1338 -0.1194
 5388SOL     OW27799   0.632   2.834   4.182  0.1084 -0.2039  0.0124
 5388SOL    HW127800   0.625   2.846   4.087  1.1996  1.0914  0.1090
 5388SOL    HW227801   0.722   2.801   4.189 -1.5022 -4.5109  0.5307
 5389SOL     OW27802   1.201   1.276   5.763  0.2587 -0.4131 -0.3489
 5389SOL    HW127803   1.118   1.259   5.718  0.3134  1.9214 -1.3415
 5389SOL    HW227804   1.181   1.210   5.829  2.1742  0.3430  0.9885
 5390SOL     OW27805   1.044   3.389   6.417 -0.0060 -0.1113 -0.0016
 5390SOL    HW127806   1.018   3.314   6.363  1.5603  0.1137 -1.0996
 5390SOL    HW227807   1.117   3.413   6.360  0.1024  0.6393  0.4613
 5391SOL     OW27808   4.436   2.043   9.272 -1.2502 -0.9085 -0.4069
 5391SOL    HW127809   4.448   2.135   9.247 -1.0642 -1.3707 -2.0355
 5391SOL    HW227810   4.352   2.031   9.227 -1.4820 -0.9734  0.0413
 5392SOL     OW27811   2.191   2.367  12.286  0.1989 -0.6648 -0.7782
 5392SOL    HW127812   2.116   2.395  12.339  1.2073  0.6344 -0.0252
 5392SOL    HW227813   2.145   2.312  12.223  0.7304 -1.9356 -0.0513
 5393SOL     OW27814   1.026   0.468   5.567 -0.1881  0.3386 -0.0814
 5393SOL    HW127815   1.119   0.450   5.558 -0.3393 -0.5418  0.1799
 5393SOL    HW227816   1.029   0.564   5.570  0.5895  0.4083 -2.8447
 5394SOL     OW27817   1.625   3.750   7.400  0.2067  0.5500 -0.5325
 5394SOL    HW127818   1.678   3.670   7.399  1.0119  1.0796  1.2085
 5394SOL    HW227819   1.569   3.730   7.324 -2.6933  0.5847  1.5764
 5395SOL     OW27820   2.125   2.682   5.047 -0.5874 -0.0988 -0.1697
 5395SOL    HW127821   2.133   2.626   5.124 -0.6521  2.8646  1.9908
 5395SOL    HW227822   2.058   2.741   5.081  0.9295  1.2902  0.4270
 5396SOL     OW27823   3.396   4.367   8.021  0.4910 -0.5437 -0.2273
 5396SOL    HW127824   3.445   4.394   8.099  0.4562 -1.6867  0.1977
 5396SOL    HW227825   3.452   4.399   7.950  3.1435  1.4582  2.7432
 5397SOL     OW27826   1.630   0.803  10.901  1.1395 -0.3622  0.0866
 5397SOL    HW127827   1.601   0.748  10.974 -0.4440  0.4068  0.0340
 5397SOL    HW227828   1.710   0.840  10.938  0.3500  2.0224 -0.6175
 5398SOL     OW27829   2.944   1.837   9.236  0.2650  0.0372  0.0080
 5398SOL    HW127830   2.936   1.771   9.167  0.8378  0.9824 -0.9646
 5398SOL    HW227831   3.006   1.899   9.198 -0.8858  1.9595  1.2768
 5399SOL     OW27832   4.081   4.104   5.054 -0.1654  0.1910  0.3404
 5399SOL    HW127833   4.111   4.119   4.964 -3.2973 -0.9323 -0.8782
 5399SOL    HW227834   4.090   4.192   5.090  1.7905  0.4445 -0.7543
 5400SOL     OW27835   2.333   1.963  15.821  0.4481  0.3087  0.5770
 5400SOL    HW127836   2.423   1.988  15.841 -0.1731  1.7785  1.5542
 5400SOL    HW227837   2.320   1.977  15.727  1.7365 -0.3825  0.3017
 5401SOL     OW27838   2.489   0.004   3.658 -0.2831  0.6617  0.5472
 5401SOL    HW127839   2.468   4.691   3.738 -2.5785 -1.6678 -1.4860
 5401SOL    HW227840   2.549   0.060   3.707  2.1280  0.8375 -2.5578
 5402SOL     OW27841   0.650   3.402   2.651 -0.0473 -0.0074  0.1894
 5402SOL    HW127842   0.723   3.357   2.609 -0.4550 -0.3590 -0.1413
 5402SOL    HW227843   0.684   3.424   2.738  0.3279  0.1919 -0.0108
 5403SOL     OW27844   0.032   1.648   2.010  0.6347  0.1298  0.6708
 5403SOL    HW127845   4.682   1.607   2.005  0.0352  1.1103  3.0636
 5403SOL    HW227846   0.086   1.595   1.951  0.1726  0.0172  0.3471
 5404SOL     OW27847   4.063   2.562   9.803  0.0433 -0.4606  0.4808
 5404SOL    HW127848   4.070   2.581   9.710 -2.3780  0.1154  0.4127
 5404SOL    HW227849   4.057   2.645   9.851 -2.0520  0.1292 -0.8067
 5405SOL     OW27850   1.885   4.352  13.693  0.0768 -0.1588  0.0133
 5405SOL    HW127851   1.980   4.344  13.703  0.1398 -0.7645 -1.0252
 5405SOL    HW227852   1.867   4.389  13.779 -0.0405 -0.9491  0.3347
 5406SOL     OW27853   1.877   0.248  14.653 -0.4763  0.2320 -0.1973
 5406SOL    HW127854   1.842   0.213  14.735 -2.6873  3.1937  0.1151
 5406SOL    HW227855   1.881   0.172  14.594 -0.0356  1.3331 -1.5833
 5407SOL     OW27856   1.954   2.174   3.877  0.6629  0.7415 -0.1827
 5407SOL    HW127857   1.893   2.140   3.943  1.8760 -0.6599  0.2147
 5407SOL    HW227858   1.926   2.124   3.800  2.2463  1.1644 -1.0314
 5408SOL     OW27859   4.154   3.333   7.889 -0.0005 -0.3535 -0.4993
 5408SOL    HW127860   4.082   3.321   7.951 -0.5594  2.6530 -0.5759
 5408SOL    HW227861   4.175   3.423   7.912  1.7419 -0.9091  0.0948
 5409SOL     OW27862   4.608   2.803   7.823 -0.0840  0.1003  0.0764
 5409SOL    HW127863   4.543   2.805   7.893  0.6326  0.5318  0.7261
 5409SOL    HW227864   4.635   2.712   7.837 -0.7500  0.2782  2.4477
 5410SOL     OW27865   1.260   1.908   0.059  0.0618  0.2451 -0.2899
 5410SOL    HW127866   1.217   1.970  17.744 -0.1491 -0.0444 -0.4393
 5410SOL    HW227867   1.224   1.828   0.021  0.2872 -1.1176  2.4031
 5411SOL     OW27868   0.770   2.171  11.644 -0.4731  0.0801  0.4452
 5411SOL    HW127869   0.705   2.236  11.618  0.6616  1.5566  1.3101
 5411SOL    HW227870   0.849   2.201  11.599  2.0175 -2.5623  3.0661
 5412SOL     OW27871   0.197   2.302  16.686  0.2083  0.1018  0.1704
 5412SOL    HW127872   0.213   2.382  16.736  1.3029  0.1838 -0.3022
 5412SOL    HW227873   0.223   2.336  16.601  2.7137 -0.5494  0.6814
 5413SOL     OW27874   4.209   2.585  17.715  0.1894  0.5125 -0.0108
 5413SOL    HW127875   4.201   2.672  17.675  1.3091  0.3155 -0.6725
 5413SOL    HW227876   4.182   2.613   0.056 -0.8695  0.3070 -0.2745
 5414SOL     OW27877   2.528   4.595   0.845 -0.2649  0.0868 -0.1610
 5414SOL    HW127878   2.475   4.534   0.895 -1.6701  2.1081  0.8455
 5414SOL    HW227879   2.610   4.546   0.846 -0.5386 -0.3025  2.0962
 5415SOL     OW27880   3.833   1.133   6.645  0.2007  0.4773 -0.0437
 5415SOL    HW127881   3.744   1.167   6.631  0.4323  0.3434 -1.8922
 5415SOL    HW227882   3.853   1.087   6.563  3.0268  2.9190 -0.7090
 5416SOL     OW27883   1.047   2.568   4.176 -0.0779 -0.5384  0.1359
 5416SOL    HW127884   0.984   2.499   4.196  0.9087 -1.9474 -1.5993
 5416SOL    HW227885   1.081   2.538   4.092  1.1189  0.2958  0.3123
 5417SOL     OW27886   2.873   2.839   1.669  0.1384 -0.1653 -0.3513
 5417SOL    HW127887   2.858   2.748   1.695  1.8155 -0.6636 -1.1090
 5417SOL    HW227888   2.812   2.849   1.596  1.6277  2.4728 -1.2635
 5418SOL     OW27889   0.359   1.002   1.820 -0.1761 -0.6376 -0.2388
 5418SOL    HW127890   0.389   1.075   1.873  1.1003 -1.9656  0.8672
 5418SOL    HW227891   0.417   0.935   1.857 -0.2641 -1.3984 -1.4640
 5419SOL     OW27892   3.509   4.105  14.428 -0.4740 -0.3386  0.2085
 5419SOL    HW127893   3.454   4.166  14.477  0.8495  0.9535  0.0938
 5419SOL    HW227894   3.544   4.049  14.497  0.7877 -0.5887 -0.6241
 5420SOL     OW27895   2.858   2.249  13.868  0.1796  0.6043  0.2914
 5420SOL    HW127896   2.816   2.218  13.948 -0.0818 -0.2130 -0.1507
 5420SOL    HW227897   2.780   2.293  13.835  0.8123  0.9472 -0.7595
 5421SOL     OW27898   1.627   3.600   6.781  0.0604 -0.1842 -0.1228
 5421SOL    HW127899   1.661   3.637   6.863  1.7073 -1.1184 -0.3766
 5421SOL    HW227900   1.583   3.674   6.740 -1.6805 -1.3276 -0.3046
 5422SOL     OW27901   1.235   2.301   7.103  0.0843 -0.6135 -0.2453
 5422SOL    HW127902   1.146   2.302   7.068 -0.1326  0.2465  0.3196
 5422SOL    HW227903   1.250   2.208   7.114  0.1800 -0.6092 -0.3373
 5423SOL     OW27904   4.386   0.510   8.356 -0.0454 -0.0341  0.7273
 5423SOL    HW127905   4.294   0.491   8.339  0.2083 -0.3487 -0.3036
 5423SOL    HW227906   4.422   0.491   8.269  0.2484  0.3915  0.7550
 5424SOL     OW27907   4.035   3.820   8.062  0.2378 -0.0788  0.7770
 5424SOL    HW127908   3.942   3.803   8.050  0.3322  1.6520 -2.3768
 5424SOL    HW227909   4.023   3.911   8.037  0.7142 -0.3633 -0.4842
 5425SOL     OW27910   0.026   3.169   1.416 -0.1222  0.1295  0.1242
 5425SOL    HW127911   0.020   3.074   1.430 -0.6077  0.0069 -0.9236
 5425SOL    HW227912   0.067   3.171   1.329 -0.6324  2.3779 -0.0652
 5426SOL     OW27913   4.330   0.197   8.633 -0.0561  1.0462  0.2774
 5426SOL    HW127914   4.418   0.168   8.655 -0.6931 -0.5523  0.7243
 5426SOL    HW227915   4.277   0.141   8.689 -0.1602 -0.3048 -1.1590
 5427SOL     OW27916   3.710   3.221   4.898 -0.6477  0.6341 -0.1884
 5427SOL    HW127917   3.621   3.209   4.866 -0.2846  0.8569 -1.2904
 5427SOL    HW227918   3.734   3.132   4.922  1.2648  1.4914  1.0816
 5428SOL     OW27919   2.606   4.565   8.747  0.3928  0.4438 -0.0841
 5428SOL    HW127920   2.616   4.479   8.788  0.3428 -0.2767 -1.6059
 5428SOL    HW227921   2.696   4.597   8.736  1.1868 -1.4712  0.8720
 5429SOL     OW27922   2.368   0.067  10.731 -0.5820  0.6084  0.1671
 5429SOL    HW127923   2.303   0.009  10.771 -0.5734 -0.5389 -1.4807
 5429SOL    HW227924   2.332   0.086  10.645 -1.0657 -2.0380 -0.2308
 5430SOL     OW27925   2.762   4.214   2.420 -0.1597 -0.0459  0.3098
 5430SOL    HW127926   2.715   4.173   2.493  0.1945 -1.7474 -0.4311
 5430SOL    HW227927   2.778   4.144   2.357  0.8381 -0.5150  1.0797
 5431SOL     OW27928   1.787   4.560  16.343 -0.0433 -0.1314  0.0775
 5431SOL    HW127929   1.741   4.621  16.401 -0.0121 -0.4636  0.4547
 5431SOL    HW227930   1.864   4.534  16.394  1.7646  2.2633 -1.4140
 5432SOL     OW27931   0.733   1.823   5.498 -0.2316  0.2597  0.0330
 5432SOL    HW127932   0.760   1.892   5.438  2.0912 -0.6620  0.0220
 5432SOL    HW227933   0.654   1.864   5.533 -0.6703 -2.3664  2.1275
 5433SOL     OW27934   1.251   4.171   7.676  0.0215 -0.2886  0.3236
 5433SOL    HW127935   1.170   4.172   7.726 -0.8824 -0.8356 -1.1277
 5433SOL    HW227936   1.305   4.192   7.752 -1.1166 -0.9069  1.3003
 5434SOL     OW27937   3.041   0.411   4.083 -0.0776  0.1861 -0.3179
 5434SOL    HW127938   3.027   0.439   4.173  1.7252 -1.1158  0.3632
 5434SOL    HW227939   3.100   0.477   4.048  1.1564 -0.8994 -0.2872
 5435SOL     OW27940   3.407   0.457   9.117 -0.1012 -0.1574  0.1035
 5435SOL    HW127941   3.361   0.529   9.074  2.6411  0.2110 -2.2306
 5435SOL    HW227942   3.343   0.386   9.125  0.5833 -0.8834 -0.8555
 5436SOL     OW27943   3.420   2.723  14.716 -0.4547 -0.0656  0.0594
 5436SOL    HW127944   3.510   2.695  14.699 -0.7495 -0.7327 -0.3698
 5436SOL    HW227945   3.413   2.804  14.665  0.0215  0.6907  1.1938
 5437SOL     OW27946   4.384   1.012   2.279  0.9283  0.8301  0.6953
 5437SOL    HW127947   4.390   0.920   2.251 -0.2617  1.4919 -1.7269
 5437SOL    HW227948   4.327   1.001   2.355  1.2112 -0.0693  0.7777
 5438SOL     OW27949   3.850   4.412  16.449  0.3510  0.1247  0.0921
 5438SOL    HW127950   3.818   4.460  16.525 -0.4430 -0.4077  0.0938
 5438SOL    HW227951   3.808   4.327  16.459  0.0976  0.2811  0.3582
 5439SOL     OW27952   0.390   3.014   0.781  0.2268  0.1368  0.2203
 5439SOL    HW127953   0.342   2.948   0.732  2.7300  0.5545 -2.8565
 5439SOL    HW227954   0.319   3.077   0.791  2.7945  2.7875  1.9166
 5440SOL     OW27955   4.598   2.437   7.623 -0.7993  0.0844  0.0243
 5440SOL    HW127956   4.637   2.521   7.645 -5.3860  2.1677  0.1150
 5440SOL    HW227957   4.569   2.451   7.533 -1.8982  0.0588  0.3761
 5441SOL     OW27958   3.802   0.170   7.768 -0.0716 -0.3115 -0.1522
 5441SOL    HW127959   3.886   0.195   7.729  0.4910 -0.7985  0.7486
 5441SOL    HW227960   3.833   0.149   7.856  2.1393 -1.2250 -1.1610
 5442SOL     OW27961   1.403   3.238   6.997  0.5920 -0.4728  0.5398
 5442SOL    HW127962   1.392   3.274   6.909 -0.3730 -1.2464  0.3449
 5442SOL    HW227963   1.382   3.148   6.974  0.7961 -0.9638  2.3053
 5443SOL     OW27964   3.685   0.949   7.611 -0.3334  0.4722  0.3228
 5443SOL    HW127965   3.753   1.011   7.585 -0.4086  0.2247 -0.4765
 5443SOL    HW227966   3.700   0.948   7.706 -1.7264 -0.8520  0.5341
 5444SOL     OW27967   0.495   1.252   2.904  0.5064  0.1207  0.3056
 5444SOL    HW127968   0.414   1.205   2.926  1.5366 -1.3006  1.0267
 5444SOL    HW227969   0.452   1.327   2.863 -4.1939 -3.2007 -0.9728
 5445SOL     OW27970   4.288   2.456  11.551 -0.3336  0.1094 -0.0928
 5445SOL    HW127971   4.379   2.428  11.563 -0.7644 -0.8563  0.8980
 5445SOL    HW227972   4.261   2.462  11.643  0.4608 -0.4148  0.1812
 5446SOL     OW27973   2.099   1.502  13.783  0.8822  0.1600  0.4829
 5446SOL    HW127974   2.066   1.573  13.837  0.4790  0.3479 -0.0085
 5446SOL    HW227975   2.157   1.458  13.845  2.5134 -0.2789 -1.3606
 5447SOL     OW27976   1.124   0.488  14.074 -0.4447  0.5127 -0.4148
 5447SOL    HW127977   1.140   0.528  13.988 -1.4701  0.5026 -0.6142
 5447SOL    HW227978   1.196   0.425  14.073  2.3519  3.7539  0.8339
 5448SOL     OW27979   0.579   4.540  12.468  0.2380 -0.5641  0.4414
 5448SOL    HW127980   0.522   4.572  12.398  0.6900 -1.2640 -0.2414
 5448SOL    HW227981   0.523   4.473  12.506  2.1654 -0.8661  2.7849
 5449SOL     OW27982   0.594   0.941   7.519  0.2045  0.0696  0.0611
 5449SOL    HW127983   0.609   1.022   7.470  0.9014 -0.6379 -0.9019
 5449SOL    HW227984   0.569   0.977   7.604  1.6929  0.6983  0.2291
 5450SOL     OW27985   1.612   1.845   8.239  0.0116 -0.0168  0.1351
 5450SOL    HW127986   1.701   1.814   8.254  0.1147  0.8814  1.4728
 5450SOL    HW227987   1.577   1.782   8.176 -0.7806  0.9007 -0.3590
 5451SOL     OW27988   1.849   0.254  10.431  0.0314  0.2220 -0.0687
 5451SOL    HW127989   1.892   0.336  10.406  0.9473  0.1065  1.1142
 5451SOL    HW227990   1.845   0.208  10.347  2.1893  0.6289 -0.3886
 5452SOL     OW27991   1.141   2.277   5.019  0.1442 -0.6353  0.4521
 5452SOL    HW127992   1.140   2.242   4.930 -1.2889  1.8696 -0.5236
 5452SOL    HW227993   1.089   2.217   5.071 -1.6625 -0.9255 -1.7143
 5453SOL     OW27994   2.881   0.100  10.335  0.6244 -0.9771 -0.0421
 5453SOL    HW127995   2.810   0.146  10.379  0.1147 -1.1494 -0.6845
 5453SOL    HW227996   2.850   0.089  10.245 -1.9294 -2.6456  1.0370
 5454SOL     OW27997   2.332   2.267   4.652  0.1234 -0.5869  0.1937
 5454SOL    HW127998   2.318   2.285   4.745  4.5473 -3.7740  1.5065
 5454SOL    HW227999   2.428   2.263   4.652  0.1246 -0.5946 -2.3539
 5455SOL     OW28000   2.988   2.283  17.674 -0.5378 -0.3281 -0.3193
 5455SOL    HW128001   2.947   2.271  17.588 -0.2200 -0.6660 -0.4206
 5455SOL    HW228002   3.038   2.201  17.675 -0.6566 -0.4041 -0.5337
 5456SOL     OW28003   2.499   0.465   7.146 -0.0222 -0.9479  0.3273
 5456SOL    HW128004   2.466   0.415   7.071 -0.2228  0.9965 -0.8902
 5456SOL    HW228005   2.544   0.397   7.195  1.3903  0.8531  1.5377
 5457SOL     OW28006   1.751   4.050   5.330  0.0431  0.0266 -0.0468
 5457SOL    HW128007   1.741   4.069   5.237  1.3085  2.1600  0.2629
 5457SOL    HW228008   1.768   3.956   5.327 -1.8303 -0.3670  1.6358
 5458SOL     OW28009   2.575   0.581   5.297 -0.0184  0.5895  0.2141
 5458SOL    HW128010   2.641   0.626   5.349  1.3533 -2.6646  1.2765
 5458SOL    HW228011   2.534   0.523   5.361 -1.3673  1.1858 -0.1082
 5459SOL     OW28012   2.390   4.176   7.381 -0.3388  0.3349  0.0695
 5459SOL    HW128013   2.484   4.172   7.397 -0.2413  2.0705 -0.0358
 5459SOL    HW228014   2.363   4.134   7.463  1.3937  1.6101  1.2873
 5460SOL     OW28015   3.311   1.002   8.141  0.0878 -0.7726  0.0351
 5460SOL    HW128016   3.359   0.951   8.075 -0.2424 -1.0957  0.0403
 5460SOL    HW228017   3.289   0.930   8.201 -2.1688  0.4798  0.7118
 5461SOL     OW28018   2.457   1.220   6.059 -0.2586  0.2210 -0.6679
 5461SOL    HW128019   2.383   1.273   6.029  0.6450  1.7151 -0.2472
 5461SOL    HW228020   2.524   1.288   6.066 -1.7273  1.8879 -2.7743
 5462SOL     OW28021   0.466   3.466   5.798 -0.1422 -0.6508  0.0455
 5462SOL    HW128022   0.377   3.434   5.814 -0.6732  0.5686 -0.4800
 5462SOL    HW228023   0.472   3.430   5.709  1.1163 -0.3952  0.0299
 5463SOL     OW28024   3.181   2.423   0.674 -0.0213  0.4094 -0.3271
 5463SOL    HW128025   3.268   2.438   0.638 -0.9784  0.5639 -2.5472
 5463SOL    HW228026   3.203   2.376   0.755 -0.0575 -1.1458 -1.2173
 5464SOL     OW28027   4.088   1.721  11.759 -0.1830  0.6491 -0.0240
 5464SOL    HW128028   4.109   1.629  11.744  0.3520  0.3297  2.7197
 5464SOL    HW228029   4.106   1.761  11.674  0.1087  2.0355  0.6872
 5465SOL     OW28030   0.889   2.689   5.408  0.2399  0.0328  0.3614
 5465SOL    HW128031   0.893   2.671   5.502  0.0115 -0.5287  0.2650
 5465SOL    HW228032   0.982   2.682   5.388  0.0309  1.1859 -0.9406
 5466SOL     OW28033   4.193   1.378  13.366 -0.2990  0.0615 -0.0892
 5466SOL    HW128034   4.252   1.442  13.326  1.3390 -1.9628 -0.9012
 5466SOL    HW228035   4.189   1.316  13.293 -0.0973  1.4680 -1.3023
 5467SOL     OW28036   2.432   0.880   4.558  0.1591  0.0771  0.0175
 5467SOL    HW128037   2.425   0.848   4.648 -1.9620  2.4586  0.7069
 5467SOL    HW228038   2.394   0.803   4.516  0.4909 -0.5342  0.8439
 5468SOL     OW28039   1.896   0.782  11.407 -0.9421  0.2566  0.3983
 5468SOL    HW128040   1.884   0.827  11.491  0.3285  1.4414 -0.0584
 5468SOL    HW228041   1.829   0.822  11.351 -0.0147  0.5761 -0.4753
 5469SOL     OW28042   4.552   2.593  14.343  0.4127 -0.1207 -0.3381
 5469SOL    HW128043   4.566   2.687  14.344 -1.7882  0.1687  2.6749
 5469SOL    HW228044   4.632   2.557  14.381 -2.2593 -2.5428  2.9420
 5470SOL     OW28045   2.099   3.393   8.394  0.0590 -0.2178  0.1711
 5470SOL    HW128046   2.016   3.362   8.429 -0.1215  0.4334  0.3301
 5470SOL    HW228047   2.074   3.384   8.303  1.8209  2.4332 -0.5864
 5471SOL     OW28048   0.500   1.254   3.726  0.0728 -0.0381 -0.0928
 5471SOL    HW128049   0.455   1.205   3.657 -1.0320  2.3753 -1.0654
 5471SOL    HW228050   0.521   1.179   3.782 -0.7551 -0.7480 -0.7260
 5472SOL     OW28051   4.125   4.148   7.403  0.5514  0.3322 -0.1748
 5472SOL    HW128052   4.094   4.157   7.313 -0.9481  0.5265  0.3643
 5472SOL    HW228053   4.206   4.098   7.392  0.3360 -0.0476 -0.0401
 5473SOL     OW28054   0.777   1.693  12.146  0.2428  0.0327 -0.0722
 5473SOL    HW128055   0.858   1.725  12.105 -0.3396 -0.3216 -1.5046
 5473SOL    HW228056   0.732   1.641  12.080 -0.4286  0.3406  0.1403
 5474SOL     OW28057   2.344   3.554   6.847  0.0969  0.4884 -0.2214
 5474SOL    HW128058   2.332   3.634   6.796 -2.0858  0.3576  0.1157
 5474SOL    HW228059   2.276   3.502   6.806  0.9619 -1.7066  1.1067
 5475SOL     OW28060   2.894   2.175  10.483  0.3063 -0.3486  0.2876
 5475SOL    HW128061   2.953   2.242  10.518 -1.3380  2.5344 -2.5243
 5475SOL    HW228062   2.820   2.221  10.444 -2.3950 -2.5199  2.8110
 5476SOL     OW28063   1.541   0.493   8.806  0.3872 -0.1040 -0.1297
 5476SOL    HW128064   1.474   0.560   8.820  0.4759  0.1322 -0.8111
 5476SOL    HW228065   1.623   0.536   8.830  0.3666  0.8883 -1.7969
 5477SOL     OW28066   2.580   2.608  12.933  0.2252 -0.4661 -0.4880
 5477SOL    HW128067   2.634   2.595  13.011  1.8734  0.5503 -1.4778
 5477SOL    HW228068   2.600   2.700  12.919  0.3662 -0.1878  1.5846
 5478SOL     OW28069   0.738   2.510   3.316 -0.3721  1.0017  0.2843
 5478SOL    HW128070   0.721   2.462   3.397 -1.6404  1.5158  0.3260
 5478SOL    HW228071   0.660   2.564   3.303 -0.2118  1.5086  1.4095
 5479SOL     OW28072   3.807   1.164   9.826  0.1098  0.1930 -0.1230
 5479SOL    HW128073   3.830   1.133   9.913  0.9871 -0.2291 -0.5048
 5479SOL    HW228074   3.749   1.236   9.850  0.8556  0.6694  0.2529
 5480SOL     OW28075   3.119   0.954   5.508 -0.2898  0.9263 -0.2537
 5480SOL    HW128076   3.169   0.894   5.563 -1.3286 -0.8906 -1.3250
 5480SOL    HW228077   3.029   0.924   5.519  0.2544 -1.2593 -1.7964
 5481SOL     OW28078   3.354   0.603   9.370 -0.0710 -0.1766  0.4542
 5481SOL    HW128079   3.359   0.544   9.295 -0.5994 -0.1695  0.4188
 5481SOL    HW228080   3.297   0.670   9.333 -0.3681 -1.0204 -0.6105
 5482SOL     OW28081   4.497   2.368   8.725 -0.0052  0.0225 -0.4993
 5482SOL    HW128082   4.424   2.342   8.668 -0.1052 -0.0383 -0.3423
 5482SOL    HW228083   4.542   2.422   8.660 -1.3257  2.3716  0.5648
 5483SOL     OW28084   4.557   0.740   7.597 -0.1671 -0.4318 -0.3729
 5483SOL    HW128085   4.467   0.723   7.568  0.0246 -1.5124 -0.3255
 5483SOL    HW228086   4.561   0.834   7.611 -0.5086 -0.0260 -2.8997
 5484SOL     OW28087   3.149   0.295   7.273  0.1103  0.0924 -0.5269
 5484SOL    HW128088   3.184   0.362   7.331  2.3835 -0.9675 -0.6976
 5484SOL    HW228089   3.161   0.325   7.183 -0.3503  1.2808 -0.1850
 5485SOL     OW28090   4.669   2.446   4.495  0.5046  0.8756  0.3450
 5485SOL    HW128091   4.706   2.528   4.526  0.2680  1.8573 -1.9234
 5485SOL    HW228092   4.701   2.382   4.558 -0.6038 -2.4547 -2.4314
 5486SOL     OW28093   4.693   4.128   2.545 -0.9608  0.3171 -0.2260
 5486SOL    HW128094   4.675   4.111   2.453  0.6311 -0.3701 -0.4074
 5486SOL    HW228095   4.606   4.143   2.582 -1.6969  0.4143 -1.9945
 5487SOL     OW28096   0.010   2.893  15.535  0.6584  0.4596 -0.7512
 5487SOL    HW128097   4.705   2.897  15.449  1.4003 -2.5008 -1.2454
 5487SOL    HW228098   4.682   2.937  15.591 -0.0252 -1.6966  0.1517
 5488SOL     OW28099   4.501   2.403   7.303 -0.0530  0.3509  0.6346
 5488SOL    HW128100   4.425   2.356   7.267 -0.1020  0.7381  0.2303
 5488SOL    HW228101   4.525   2.447   7.221  2.9089 -0.4066  1.1281
 5489SOL     OW28102   3.816   4.320   8.442  0.3671 -0.3131 -0.5414
 5489SOL    HW128103   3.815   4.290   8.533  0.0198 -0.5796 -0.6331
 5489SOL    HW228104   3.734   4.366   8.424  0.5789 -0.2417 -1.3572
 5490SOL     OW28105   2.203   3.292   6.115  0.4279 -0.4174  0.1808
 5490SOL    HW128106   2.122   3.255   6.082  2.3296 -2.4979 -2.1127
 5490SOL    HW228107   2.200   3.276   6.209 -1.6077 -0.3915  0.1198
 5491SOL     OW28108   0.271   3.267  15.458  0.3081 -0.2395  0.3752
 5491SOL    HW128109   0.298   3.261  15.367 -0.7341  0.7037 -0.0022
 5491SOL    HW228110   0.300   3.181  15.487  0.7133 -0.0938  0.4072
 5492SOL     OW28111   3.110   1.254   2.813 -0.2547 -0.5981 -0.1834
 5492SOL    HW128112   3.121   1.300   2.729  1.9391 -0.0553  0.4125
 5492SOL    HW228113   3.167   1.303   2.871 -2.2890  2.6616 -0.9042
 5493SOL     OW28114   2.541   1.324   6.927  0.3476 -0.0458 -0.0873
 5493SOL    HW128115   2.488   1.262   6.978 -0.5927  1.0190  0.2183
 5493SOL    HW228116   2.497   1.334   6.843  1.3586 -0.9876 -0.7432
 5494SOL     OW28117   1.331   2.399   8.777 -0.0812  0.4756 -0.1532
 5494SOL    HW128118   1.418   2.358   8.783 -0.2351 -0.1615 -2.4084
 5494SOL    HW228119   1.264   2.334   8.794  0.4058  0.0866  0.2824
 5495SOL     OW28120   3.795   3.187   5.752 -0.5345  0.0443  0.4770
 5495SOL    HW128121   3.806   3.239   5.672  1.1162  2.0086  1.9745
 5495SOL    HW228122   3.729   3.245   5.791 -2.1088 -0.2972 -1.6773
 5496SOL     OW28123   0.969   2.580   1.904  0.2794  0.6551 -0.3457
 5496SOL    HW128124   0.976   2.522   1.979 -1.2308 -1.6857 -2.0141
 5496SOL    HW228125   1.055   2.622   1.912  1.0309 -1.1783  1.0452
 5497SOL     OW28126   3.473   2.823   3.626  0.4450 -0.5565  0.0752
 5497SOL    HW128127   3.461   2.840   3.720 -0.8453 -3.2953  0.3802
 5497SOL    HW228128   3.480   2.911   3.588 -0.0512 -0.1405  0.9462
 5498SOL     OW28129   1.642   1.515   8.392 -0.1441  0.0213 -0.1578
 5498SOL    HW128130   1.704   1.511   8.319  0.2861  0.9968  0.1577
 5498SOL    HW228131   1.619   1.422   8.388 -0.8014  0.1847 -0.0848
 5499SOL     OW28132   3.106   2.260   1.473  0.1650  0.3107 -1.0316
 5499SOL    HW128133   3.183   2.291   1.426  0.7569 -0.9383 -0.8774
 5499SOL    HW228134   3.070   2.330   1.528  1.1250 -1.5172  1.9301
 5500SOL     OW28135   2.286   3.173  13.164 -0.0845  0.2938 -0.0152
 5500SOL    HW128136   2.314   3.186  13.254  0.8511 -0.6085 -0.1779
 5500SOL    HW228137   2.317   3.253  13.122  1.8329  0.0813  1.0267
 5501SOL     OW28138   0.518   3.425   8.011 -0.0679  0.5024  0.8791
 5501SOL    HW128139   0.539   3.508   7.970 -1.4768 -0.1071 -1.0503
 5501SOL    HW228140   0.600   3.376   8.005  0.4295  1.2272  1.7796
 5502SOL     OW28141   1.593   2.085   6.034  0.3598  0.6081  0.1936
 5502SOL    HW128142   1.598   2.054   6.124  2.0287  1.0843  0.2767
 5502SOL    HW228143   1.526   2.026   6.000  1.0937 -0.7618  1.1421
 5503SOL     OW28144   4.295   3.883   2.364 -0.0734 -0.5354  0.3287
 5503SOL    HW128145   4.280   3.824   2.290 -0.4080  1.4749 -1.2184
 5503SOL    HW228146   4.219   3.937   2.343 -0.1674 -0.2041  1.5293
 5504SOL     OW28147   3.629   0.214   1.056  0.3396  0.4082  0.3876
 5504SOL    HW128148   3.575   0.177   0.986 -2.9494  1.6863  2.2297
 5504SOL    HW228149   3.574   0.267   1.114  0.7602 -0.9232  2.0360
 5505SOL     OW28150   0.835   2.336   5.033 -0.2230  0.2404  0.4121
 5505SOL    HW128151   0.751   2.289   5.035  0.7446 -1.5106 -0.1983
 5505SOL    HW228152   0.842   2.364   5.124 -1.0168  0.3780  0.4377
 5506SOL     OW28153   0.551   0.697   9.809  0.1008 -0.0508  0.5893
 5506SOL    HW128154   0.531   0.606   9.828  0.9771 -0.8409 -2.1415
 5506SOL    HW228155   0.464   0.737   9.812 -0.4885 -1.3261  0.1647
 5507SOL     OW28156   3.603   0.892   2.233  0.1271 -0.4921  0.1364
 5507SOL    HW128157   3.674   0.828   2.243  0.9092  0.4674  0.6673
 5507SOL    HW228158   3.518   0.850   2.219 -0.4662  0.3741  1.1615
 5508SOL     OW28159   0.675   4.217   8.278  0.2124  0.1900  0.2743
 5508SOL    HW128160   0.635   4.299   8.249 -1.1853 -0.6174 -0.0824
 5508SOL    HW228161   0.606   4.153   8.297  0.9240 -0.3865  0.9142
 5509SOL     OW28162   3.779   3.187   2.211 -0.0786  0.1501 -0.2642
 5509SOL    HW128163   3.754   3.245   2.283  1.2581  1.6002 -0.9557
 5509SOL    HW228164   3.699   3.135   2.199  0.4138 -0.7739  0.4779
 5510SOL     OW28165   3.630   3.009   3.248  0.0705  0.5995 -0.0049
 5510SOL    HW128166   3.720   2.990   3.221  0.3039  0.2604  1.0021
 5510SOL    HW228167   3.605   3.067   3.177  1.1818  0.5899 -0.4043
 5511SOL     OW28168   0.339   4.105   8.662  0.4731 -0.9690  0.2789
 5511SOL    HW128169   0.410   4.047   8.689  1.3152  0.1886  0.5566
 5511SOL    HW228170   0.264   4.049   8.685 -0.2611  0.5487  1.5939
 5512SOL     OW28171   2.571   1.170   3.402  0.7231 -0.0509  0.0409
 5512SOL    HW128172   2.655   1.127   3.421  0.9910  0.7066  0.5541
 5512SOL    HW228173   2.515   1.103   3.363 -1.2710  1.7653 -0.2087
 5513SOL     OW28174   2.787   0.760  17.536 -0.1705 -0.3137  0.0245
 5513SOL    HW128175   2.718   0.812  17.494 -0.2193 -1.0831 -0.8228
 5513SOL    HW228176   2.742   0.733  17.616  1.2042 -1.3442  0.4462
 5514SOL     OW28177   3.806   0.923  16.367  0.1128 -0.0785  0.1608
 5514SOL    HW128178   3.778   0.875  16.289 -0.8683 -0.8311  0.9865
 5514SOL    HW228179   3.789   0.865  16.441 -1.2238  1.5738  1.1504
 5515SOL     OW28180   3.097   1.181   7.196 -0.1453 -0.1882  0.4868
 5515SOL    HW128181   3.062   1.267   7.218  0.1862  0.0051  0.2643
 5515SOL    HW228182   3.021   1.132   7.225  0.0484 -1.0088 -0.4036
 5516SOL     OW28183   0.000   1.458   0.106  0.4179 -0.1941  0.3138
 5516SOL    HW128184   0.036   1.544   0.084  0.4384 -0.1973  0.3348
 5516SOL    HW228185   4.661   1.463   0.048  1.2927  2.2211 -0.5972
 5517SOL     OW28186   0.014   2.915   9.286 -0.1732  0.6081  0.1795
 5517SOL    HW128187   4.667   2.869   9.294 -0.7102  1.2718 -1.6046
 5517SOL    HW228188   0.020   2.947   9.376  3.2646  1.9457 -0.5077
 5518SOL     OW28189   2.851   2.681   6.978 -0.0590  0.1816 -0.0955
 5518SOL    HW128190   2.783   2.704   6.915  1.1231  0.6704 -1.1934
 5518SOL    HW228191   2.883   2.765   7.012  0.6706  0.2766 -1.0087
 5519SOL     OW28192   0.488   0.740  16.787  0.2030  0.2498  0.6061
 5519SOL    HW128193   0.536   0.798  16.728 -2.0534  1.0901 -0.4034
 5519SOL    HW228194   0.399   0.773  16.792 -0.7746 -2.6876  2.4497
 5520SOL     OW28195   4.373   0.648   5.651  0.0986 -0.0353  1.0601
 5520SOL    HW128196   4.354   0.554   5.658 -2.2770  0.2521 -1.4593
 5520SOL    HW228197   4.424   0.649   5.732  0.6168 -0.3000  0.7358
 5521SOL     OW28198   3.313   1.510   6.632 -0.5973  0.3967 -0.0043
 5521SOL    HW128199   3.345   1.490   6.720 -1.2937  1.0207  0.3897
 5521SOL    HW228200   3.245   1.574   6.652 -0.6557  0.9401 -1.9393
 5522SOL     OW28201   1.501   3.252   7.506 -0.2347 -0.0392 -0.0241
 5522SOL    HW128202   1.560   3.179   7.524 -2.6577 -1.3092  2.7607
 5522SOL    HW228203   1.512   3.268   7.412  3.1682 -0.1011  0.3866
 5523SOL     OW28204   0.128   3.875   5.379  0.2557 -0.3008 -0.1394
 5523SOL    HW128205   0.214   3.882   5.337 -0.8611 -0.2654 -2.4350
 5523SOL    HW228206   0.081   3.828   5.310 -0.8103  0.3282  0.1478
 5524SOL     OW28207   3.887   1.011   4.155 -0.8704 -0.2313  0.6665
 5524SOL    HW128208   3.875   0.958   4.076 -3.9292  1.5737 -0.0841
 5524SOL    HW228209   3.943   1.081   4.119  0.3273 -0.8080  1.4167
 5525SOL     OW28210   1.278   4.461   8.445 -0.2218 -0.1914 -0.6075
 5525SOL    HW128211   1.279   4.503   8.531  1.9173 -0.7865 -0.3291
 5525SOL    HW228212   1.201   4.409   8.467 -0.5254 -0.0171 -1.2701
 5526SOL     OW28213   0.791   3.648  16.642 -0.1014  0.3911 -0.2584
 5526SOL    HW128214   0.842   3.727  16.623 -1.3422  1.0800 -0.7691
 5526SOL    HW228215   0.846   3.602  16.704 -2.0067  0.3988  1.4613
 5527SOL     OW28216   1.170   0.123   6.973 -0.2959  0.3954 -0.3426
 5527SOL    HW128217   1.084   0.163   6.965 -0.2268  0.5794 -0.1465
 5527SOL    HW228218   1.220   0.202   6.992 -1.8225  1.9248 -2.6130
 5528SOL     OW28219   0.963   2.335   8.376  0.2270  0.1657  0.2711
 5528SOL    HW128220   0.894   2.273   8.396  0.8722 -0.3173  1.0034
 5528SOL    HW228221   0.921   2.420   8.390  0.5914  0.2168  1.0416
 5529SOL     OW28222   2.855   0.970   3.933  0.2666  0.2074  0.2407
 5529SOL    HW128223   2.870   1.040   3.870  3.9575  0.3521  1.2441
 5529SOL    HW228224   2.856   0.892   3.879  0.9743  1.6339 -1.8067
 5530SOL     OW28225   0.331   1.554   4.034  0.2693  0.2785  0.6052
 5530SOL    HW128226   0.267   1.609   4.080  1.7930  1.2079  1.6267
 5530SOL    HW228227   0.362   1.501   4.107  1.7768  0.9947  0.4950
 5531SOL     OW28228   4.510   4.731   1.048  0.0169 -0.0789  0.0996
 5531SOL    HW128229   4.581   0.054   1.070 -0.7095  0.5892  0.6338
 5531SOL    HW228230   4.510   4.680   1.129 -1.6957 -0.3037 -0.0285
 5532SOL     OW28231   3.597   2.844   5.111  0.0934 -0.7856  0.0513
 5532SOL    HW128232   3.658   2.856   5.038  0.5405 -2.2875  0.1743
 5532SOL    HW228233   3.658   2.811   5.176 -0.7257 -3.1591 -0.3867
 5533SOL     OW28234   1.973   3.155  14.405 -0.9184  0.2168  0.0810
 5533SOL    HW128235   2.054   3.143  14.354 -0.5033 -0.7764  0.9807
 5533SOL    HW228236   2.002   3.202  14.483 -2.8728 -0.0695  0.9809
 5534SOL     OW28237   0.618   4.420   1.590 -0.2802  0.0889 -0.0826
 5534SOL    HW128238   0.659   4.350   1.539 -0.1769  1.0670 -1.3365
 5534SOL    HW228239   0.648   4.397   1.678  1.4160  1.2219 -0.3637
 5535SOL     OW28240   0.652   1.519   3.785  0.1309 -0.5219  0.4219
 5535SOL    HW128241   0.618   1.431   3.772  0.5432 -0.3838 -1.6848
 5535SOL    HW228242   0.730   1.521   3.729  1.0096  1.9291  1.7172
 5536SOL     OW28243   0.420   4.624   2.395  0.1748  0.3362  0.3647
 5536SOL    HW128244   0.495   4.660   2.442 -0.1661  0.8067  0.5577
 5536SOL    HW228245   0.411   4.535   2.427  0.9766 -0.3791 -1.4506
 5537SOL     OW28246   1.297   2.218   5.381  0.2298  0.3429  0.1264
 5537SOL    HW128247   1.385   2.204   5.414  0.2444 -0.2814 -0.1562
 5537SOL    HW228248   1.303   2.202   5.286 -0.9420  0.1907  0.0732
 5538SOL     OW28249   1.087   3.516   8.623  0.4264  0.3493  0.4242
 5538SOL    HW128250   1.049   3.549   8.542  2.2406  2.0973  0.2828
 5538SOL    HW228251   1.176   3.493   8.598  0.6215  0.3294  1.1215
 5539SOL     OW28252   3.197   3.689   7.221 -0.3764 -0.3412 -0.2927
 5539SOL    HW128253   3.291   3.694   7.233 -0.2528 -0.9062 -0.9958
 5539SOL    HW228254   3.188   3.603   7.181 -3.6391  0.9883 -2.3994
 5540SOL     OW28255   3.200   0.127  11.358 -0.1650  0.3840  0.2984
 5540SOL    HW128256   3.126   0.150  11.414  1.1753  1.5855  1.5697
 5540SOL    HW228257   3.224   0.042  11.395 -1.0754  0.1727  0.4067
 5541SOL     OW28258   1.350   3.101   2.860 -0.4654  0.0231  0.7301
 5541SOL    HW128259   1.364   3.020   2.811 -0.0078 -0.8837  2.3499
 5541SOL    HW228260   1.430   3.109   2.912 -0.1771 -2.9285  0.7366
 5542SOL     OW28261   0.259   3.886   6.835  0.0344  0.3264 -1.0995
 5542SOL    HW128262   0.165   3.898   6.846  0.6719  2.8263  1.5591
 5542SOL    HW228263   0.265   3.805   6.886  0.4969  0.2433 -1.2825
 5543SOL     OW28264   0.597   2.267   6.010  1.2497 -0.2133  0.0362
 5543SOL    HW128265   0.555   2.351   5.991  1.6224  0.5691  2.6203
 5543SOL    HW228266   0.690   2.275   5.991  0.6221  0.7375 -2.6199
 5544SOL     OW28267   2.359   3.332   0.306  0.2383 -0.2160  0.5803
 5544SOL    HW128268   2.312   3.251   0.284  1.4213 -0.8353  0.3225
 5544SOL    HW228269   2.431   3.323   0.244  0.9529 -1.0227  1.5289
 5545SOL     OW28270   2.146   0.923   7.284  0.2717 -0.0970  0.4903
 5545SOL    HW128271   2.066   0.948   7.329 -0.4192 -1.1013 -0.1778
 5545SOL    HW228272   2.110   0.838   7.258 -2.3487  1.1366  0.1308
 5546SOL     OW28273   0.492   3.122   9.269 -0.0816  0.5855  0.0601
 5546SOL    HW128274   0.455   3.098   9.185  1.1371 -0.5093 -0.1811
 5546SOL    HW228275   0.579   3.151   9.242 -0.2056 -0.1010 -1.0884
 5547SOL     OW28276   2.193   0.369   8.304  0.2456 -0.0875  0.5479
 5547SOL    HW128277   2.140   0.313   8.361 -0.8356  1.0127  0.6342
 5547SOL    HW228278   2.139   0.367   8.225  0.2680  3.4045  0.4363
 5548SOL     OW28279   4.705   2.985   3.399 -0.8643  0.0607 -0.2385
 5548SOL    HW128280   4.614   2.960   3.383 -0.9258 -0.2280  0.5660
 5548SOL    HW228281   0.009   2.930   3.331  0.2943  1.4537 -0.6734
 5549SOL     OW28282   1.616   2.797  11.947  0.1235 -0.1373 -0.0127
 5549SOL    HW128283   1.619   2.727  11.883 -0.4482 -0.9643  0.8697
 5549SOL    HW228284   1.686   2.855  11.918 -0.8516  2.2686  2.3518
 5550SOL     OW28285   0.346   4.037   2.510  0.3207  0.3101  0.0181
 5550SOL    HW128286   0.416   4.022   2.447  1.4218  0.9958  1.0786
 5550SOL    HW228287   0.384   4.099   2.573 -0.0924 -0.0726  0.6447
 5551SOL     OW28288   0.966   0.654   7.751 -0.4682 -0.6742  0.2867
 5551SOL    HW128289   1.013   0.728   7.713 -0.2103 -1.8183 -1.6077
 5551SOL    HW228290   0.879   0.666   7.713  0.6096 -1.6278 -2.4149
 5552SOL     OW28291   3.974   2.212   0.557  0.5365 -0.0494 -0.0293
 5552SOL    HW128292   4.060   2.254   0.558 -0.5329  2.2449 -2.1754
 5552SOL    HW228293   3.928   2.257   0.628  1.7682  1.2063 -0.0221
 5553SOL     OW28294   0.062   1.948   2.549 -0.3737  0.1701 -0.5242
 5553SOL    HW128295   0.040   1.978   2.461 -0.5722  0.8835 -0.2272
 5553SOL    HW228296   4.711   1.914   2.569 -0.6861  1.5956  0.4992
 5554SOL     OW28297   0.214   0.861   4.008  0.3660  0.6089  0.2320
 5554SOL    HW128298   0.149   0.869   4.078  0.5276 -3.4489  0.8276
 5554SOL    HW228299   0.213   0.768   3.987  1.1129  1.1583 -2.2806
 5555SOL     OW28300   3.462   1.680   5.637 -0.0388 -0.3483  0.4690
 5555SOL    HW128301   3.466   1.644   5.548 -0.9123  2.5845 -0.7404
 5555SOL    HW228302   3.539   1.643   5.680 -0.7044 -0.7469  1.2993
 5556SOL     OW28303   1.758   1.422  15.749 -0.2735 -0.0127 -0.3022
 5556SOL    HW128304   1.767   1.512  15.780  0.5777  0.5267 -2.0644
 5556SOL    HW228305   1.684   1.423  15.687  0.0599  1.7599 -0.6653
 5557SOL     OW28306   3.848   0.901   8.749 -0.3466  0.2533  0.1006
 5557SOL    HW128307   3.828   0.973   8.689  0.0740  0.1357 -0.1786
 5557SOL    HW228308   3.930   0.931   8.787 -0.1439  1.7252 -1.5073
 5558SOL     OW28309   3.456   2.493   5.502  0.2865 -0.6992  0.6901
 5558SOL    HW128310   3.368   2.530   5.509 -0.1256 -1.7511  1.0216
 5558SOL    HW228311   3.440   2.406   5.538 -1.0994 -0.1850  1.3388
 5559SOL     OW28312   0.803   2.321   5.402 -0.5191  0.3527 -0.0245
 5559SOL    HW128313   0.894   2.345   5.418 -0.0619 -0.8131 -0.8461
 5559SOL    HW228314   0.814   2.255   5.333 -2.5076 -1.1361  1.0907
 5560SOL     OW28315   2.314   3.003  14.581  0.4362  0.2077  0.7012
 5560SOL    HW128316   2.364   2.921  14.576 -1.5443 -0.9478 -0.2741
 5560SOL    HW228317   2.278   3.000  14.493 -0.0942  0.7715  0.8973
 5561SOL     OW28318   0.662   1.112   1.660  0.3109  0.0278  0.0205
 5561SOL    HW128319   0.754   1.115   1.633  0.3177 -0.1322  0.0250
 5561SOL    HW228320   0.661   1.035   1.718  1.3147 -0.0379 -0.0462
 5562SOL     OW28321   0.529   3.425  14.662  0.1960  1.3220 -0.4383
 5562SOL    HW128322   0.602   3.424  14.600  1.5256  2.6062  1.1306
 5562SOL    HW228323   0.479   3.494  14.616 -3.0449 -1.2355 -0.7404
 5563SOL     OW28324   3.634   3.255   5.415  0.1305 -0.1905  0.0585
 5563SOL    HW128325   3.698   3.186   5.432  0.1706 -0.8458 -2.8177
 5563SOL    HW228326   3.616   3.241   5.322  0.6776  1.7827 -0.3533
 5564SOL     OW28327   3.651   0.222   2.970 -0.1260 -0.2474 -0.0322
 5564SOL    HW128328   3.643   0.129   2.951  2.3865 -0.8345  1.7413
 5564SOL    HW228329   3.724   0.237   3.031 -0.5717  0.4123  0.3422
 5565SOL     OW28330   3.035   2.533   4.193 -0.1589 -1.0082 -0.3108
 5565SOL    HW128331   2.972   2.599   4.165 -0.2257 -0.8547  0.2081
 5565SOL    HW228332   3.011   2.504   4.281  0.4099  0.5606  0.3581
 5566SOL     OW28333   4.466   4.551   3.739  0.2585  0.2507  0.2918
 5566SOL    HW128334   4.430   4.593   3.662  1.3106 -0.7467 -0.7344
 5566SOL    HW228335   4.400   4.484   3.761  0.6261 -0.1335  0.2257
 5567SOL     OW28336   2.054   1.350  16.837  0.5276 -0.1494 -0.5357
 5567SOL    HW128337   2.128   1.353  16.897 -1.2924  1.2988  1.6569
 5567SOL    HW228338   1.984   1.365  16.901  1.9726 -0.9283  1.2129
 5568SOL     OW28339   2.043   3.965   5.618 -0.0487 -0.4554  0.2001
 5568SOL    HW128340   2.047   3.929   5.530  2.0736  2.1140 -0.7865
 5568SOL    HW228341   1.964   3.922   5.650 -1.8464  1.8075 -1.1338
 5569SOL     OW28342   3.872   1.748  14.850 -0.2287  0.0663  0.1531
 5569SOL    HW128343   3.878   1.745  14.754 -1.3479 -0.1973  0.0883
 5569SOL    HW228344   3.898   1.838  14.870  0.4974  0.1178 -0.9811
 5570SOL     OW28345   4.006   1.451  16.789  0.4351  0.2380 -0.2750
 5570SOL    HW128346   3.939   1.518  16.801 -0.7889 -0.3300 -4.1585
 5570SOL    HW228347   4.068   1.507  16.742  1.3846 -0.1932  0.4405
 5571SOL     OW28348   4.048   3.696   5.208  0.1757 -0.1434  0.8670
 5571SOL    HW128349   4.110   3.688   5.280  0.0459 -3.1111  0.6614
 5571SOL    HW228350   4.039   3.607   5.174  0.5597 -0.3479  1.3055
 5572SOL     OW28351   0.814   0.555   8.611  0.2439 -0.1291 -0.7897
 5572SOL    HW128352   0.729   0.516   8.628  0.2200 -0.6883 -2.1994
 5572SOL    HW228353   0.787   0.638   8.651 -1.1106 -1.2661  0.6374
 5573SOL     OW28354   0.715   4.052   3.365  0.4463 -0.2779 -0.5031
 5573SOL    HW128355   0.742   4.141   3.346 -0.1553 -0.0226 -0.1855
 5573SOL    HW228356   0.645   4.074   3.427 -0.0802  0.3997 -1.3450
 5574SOL     OW28357   2.283   4.694   2.524  0.3062  0.1507  0.3017
 5574SOL    HW128358   2.356   4.677   2.584  1.9208  2.7652 -0.9276
 5574SOL    HW228359   2.256   0.043   2.556 -0.9502 -0.2572  0.3116
 5575SOL     OW28360   0.890   1.263   9.776 -0.7019  0.4917  0.1658
 5575SOL    HW128361   0.849   1.349   9.765 -3.1156 -0.5430  1.1331
 5575SOL    HW228362   0.929   1.271   9.864  1.5357 -3.8797 -0.4022
 5576SOL     OW28363   0.010   2.095   1.195 -0.2773 -0.4885  0.0001
 5576SOL    HW128364   0.004   2.144   1.276  0.9265 -1.2733  0.5624
 5576SOL    HW228365   4.662   2.051   1.201 -0.3361 -0.5733 -1.5142
 5577SOL     OW28366   0.470   2.696   6.559 -0.0677 -0.4117  0.5092
 5577SOL    HW128367   0.520   2.649   6.493  0.7771  1.0184  0.1139
 5577SOL    HW228368   0.475   2.784   6.523  1.4848 -1.4053 -1.6516
 5578SOL     OW28369   4.278   3.722   2.113  0.3139  0.4424 -0.1088
 5578SOL    HW128370   4.243   3.713   2.024  0.4788  0.3511 -0.1634
 5578SOL    HW228371   4.347   3.785   2.092  0.2058  1.1128  1.5032
 5579SOL     OW28372   0.979   1.378   3.778  0.2644 -0.1920  0.3363
 5579SOL    HW128373   0.966   1.320   3.853 -1.9404 -0.8474 -0.5641
 5579SOL    HW228374   1.070   1.399   3.802  0.7944 -1.5276 -0.5194
 5580SOL     OW28375   2.783   0.545   8.351  0.0472 -0.4117  0.1452
 5580SOL    HW128376   2.794   0.591   8.435 -0.3405  2.0852 -1.1877
 5580SOL    HW228377   2.777   0.613   8.285 -0.5272  1.6480  2.3360
 5581SOL     OW28378   0.653   0.564   4.325 -0.1463  0.1584 -0.0377
 5581SOL    HW128379   0.629   0.651   4.358  0.9976  1.5383 -2.8607
 5581SOL    HW228380   0.582   0.545   4.263  0.6389 -0.3749 -0.7795
 5582SOL     OW28381   0.559   2.221   3.669  0.2917  0.6626  1.0037
 5582SOL    HW128382   0.604   2.266   3.597  0.2796 -1.1306 -0.1325
 5582SOL    HW228383   0.629   2.164   3.700 -0.4406 -0.1105  1.2249
 5583SOL     OW28384   3.392   4.139   4.887  0.1546 -0.3107  0.1419
 5583SOL    HW128385   3.382   4.229   4.919 -2.6915 -0.6184  0.0827
 5583SOL    HW228386   3.417   4.164   4.798  0.0593 -0.5382  0.0514
 5584SOL     OW28387   0.872   4.298  12.151  0.4964  0.7945 -0.4759
 5584SOL    HW128388   0.908   4.283  12.063  2.1628  0.2621  0.3094
 5584SOL    HW228389   0.927   4.372  12.179  0.5780  0.4767  0.1850
 5585SOL     OW28390   2.679   0.737  16.420 -0.6584 -0.5474 -0.0189
 5585SOL    HW128391   2.591   0.708  16.395 -0.0830 -0.8459 -1.6622
 5585SOL    HW228392   2.702   0.685  16.497 -1.5240 -1.7313 -0.5597
 5586SOL     OW28393   3.777   4.661   3.142 -0.0316  1.0615 -0.1683
 5586SOL    HW128394   3.824   0.008   3.150 -0.0272  1.1893 -1.6369
 5586SOL    HW228395   3.830   4.607   3.201  0.4682  2.2689  0.4978
 5587SOL     OW28396   4.265   0.078   9.676  0.3078  0.0547 -0.0457
 5587SOL    HW128397   4.298   0.040   9.595 -0.3367 -1.1828  0.2740
 5587SOL    HW228398   4.318   0.034   9.741 -0.3865 -0.2711  0.3008
 5588SOL     OW28399   4.284   2.566   2.318 -0.1133  0.2130 -0.2912
 5588SOL    HW128400   4.348   2.635   2.338 -1.3518  0.8448  1.4498
 5588SOL    HW228401   4.200   2.610   2.305 -0.6512 -0.2586  1.5414
 5589SOL     OW28402   1.762   1.989   7.881  0.2830 -0.3321  0.1149
 5589SOL    HW128403   1.715   2.059   7.925 -2.3884 -0.5025 -2.4693
 5589SOL    HW228404   1.842   1.975   7.932  1.0998  0.4232 -0.9620
 5590SOL     OW28405   4.069   2.240   4.736  0.1033  0.3950  0.4735
 5590SOL    HW128406   4.134   2.301   4.772  0.7878  0.6989 -1.2920
 5590SOL    HW228407   4.104   2.221   4.649 -1.0697 -2.3516  0.6218
 5591SOL     OW28408   4.263   3.274   3.343 -0.4269 -0.1695  0.2342
 5591SOL    HW128409   4.279   3.365   3.319  0.2976 -0.6958 -1.2948
 5591SOL    HW228410   4.189   3.250   3.288  2.1665 -2.0486 -2.3848
 5592SOL     OW28411   4.153   3.605   3.311  0.1436 -0.1504 -0.2896
 5592SOL    HW128412   4.177   3.578   3.222  0.2870  0.7687 -0.5363
 5592SOL    HW228413   4.129   3.696   3.296  0.8578 -0.0457 -0.8153
 5593SOL     OW28414   1.687   4.597   1.793  0.0836  0.1962 -0.2230
 5593SOL    HW128415   1.636   4.674   1.770 -2.1799 -1.5917 -1.1934
 5593SOL    HW228416   1.777   4.627   1.788  0.8008 -2.3114 -2.3275
 5594SOL     OW28417   0.337   1.468   3.773  0.0059  0.3759 -0.3685
 5594SOL    HW128418   0.389   1.388   3.779 -0.5223  0.0160 -0.6340
 5594SOL    HW228419   0.349   1.509   3.859 -4.0880 -0.3625  0.5553
 5595SOL     OW28420   1.510   0.212   0.368  0.2369  0.3625  0.5795
 5595SOL    HW128421   1.570   0.138   0.355  1.2487  1.2283  0.2675
 5595SOL    HW228422   1.545   0.278   0.307  2.3340 -0.5503  0.7648
 5596SOL     OW28423   2.489   1.539   7.278 -0.0212  0.1112 -0.1341
 5596SOL    HW128424   2.508   1.447   7.298  3.2511  1.0217  0.9544
 5596SOL    HW228425   2.577   1.577   7.281  0.2071 -0.5056  0.9633
 5597SOL     OW28426   0.808   1.631  15.671 -0.3584 -0.0369 -0.4219
 5597SOL    HW128427   0.784   1.719  15.642 -0.7776 -0.3156 -0.9030
 5597SOL    HW228428   0.904   1.632  15.667 -0.3373 -0.2461  0.0148
 5598SOL     OW28429   1.808   0.804  15.377 -0.4257  0.2857  0.3323
 5598SOL    HW128430   1.876   0.742  15.351 -1.1222  0.1471 -1.1533
 5598SOL    HW228431   1.750   0.749  15.430  2.3478 -2.5313  0.4674
 5599SOL     OW28432   3.181   2.032   4.717  0.7526  0.3566  0.1761
 5599SOL    HW128433   3.216   2.082   4.790  1.1691  0.0506  0.1904
 5599SOL    HW228434   3.101   2.082   4.701  0.5185 -1.0785 -3.1960
 5600SOL     OW28435   4.075   3.199   4.267  1.1685  0.3382  0.0222
 5600SOL    HW128436   4.128   3.132   4.223 -1.2101 -1.3710 -0.2306
 5600SOL    HW228437   3.984   3.177   4.247  2.1853  0.0457 -4.3994
 5601SOL     OW28438   3.234   3.685   8.456  0.6222 -0.1737 -0.0596
 5601SOL    HW128439   3.175   3.750   8.419  1.8166  0.3968 -0.9494
 5601SOL    HW228440   3.297   3.740   8.502 -4.0301  3.1242  2.4467
 5602SOL     OW28441   4.498   3.434   3.684  0.1047  0.4565  0.0690
 5602SOL    HW128442   4.432   3.396   3.742  0.5190  0.5296  0.5898
 5602SOL    HW228443   4.455   3.479   3.611  1.0435  1.4764  0.1526
 5603SOL     OW28444   0.489   1.140   5.023 -0.2329 -0.4505  0.3760
 5603SOL    HW128445   0.487   1.044   5.030 -2.0849 -0.4939 -0.6213
 5603SOL    HW228446   0.399   1.160   5.050  0.1596  1.7521  0.0515
 5604SOL     OW28447   1.786   3.806   1.648 -0.0741 -0.6762 -0.6414
 5604SOL    HW128448   1.771   3.785   1.555  2.8385  0.2834 -1.3316
 5604SOL    HW228449   1.708   3.762   1.683  1.4680 -0.0033  3.5236
 5605SOL     OW28450   0.681   2.903  10.866 -0.3309  0.0342  0.1645
 5605SOL    HW128451   0.625   2.980  10.875  0.8522  1.0381 -1.0378
 5605SOL    HW228452   0.730   2.897  10.948  0.0475 -1.5683 -0.1732
 5606SOL     OW28453   3.389   0.661   5.874  0.6422  0.6416 -0.1129
 5606SOL    HW128454   3.445   0.632   5.946  0.8902 -1.7304 -1.2415
 5606SOL    HW228455   3.336   0.584   5.854 -0.7063  1.3070  0.9663
 5607SOL     OW28456   4.174   2.963   6.839 -0.3745 -0.1833  0.3465
 5607SOL    HW128457   4.178   2.894   6.773  1.2370  0.4672 -0.2386
 5607SOL    HW228458   4.191   2.912   6.918 -0.6241  0.7717  1.0183
 5608SOL     OW28459   4.487   3.455   7.740  0.2426  0.6410  0.3884
 5608SOL    HW128460   4.475   3.361   7.752 -0.1096  0.7388  0.7888
 5608SOL    HW228461   4.437   3.496   7.810  1.3498 -0.3548  1.7558
 5609SOL     OW28462   1.443   4.018   5.127  0.0991 -0.1553 -0.4267
 5609SOL    HW128463   1.534   4.047   5.131 -0.0612  0.3634 -0.5505
 5609SOL    HW228464   1.441   3.923   5.139 -2.2913 -0.1671 -0.9133
 5610SOL     OW28465   3.804   0.596   1.476  0.1238 -0.4061 -0.4448
 5610SOL    HW128466   3.862   0.633   1.543 -0.0259 -0.6573 -0.1762
 5610SOL    HW228467   3.846   0.632   1.398 -1.9053  1.4891 -0.6593
 5611SOL     OW28468   4.104   3.869   3.236  0.2905 -0.4146 -0.5417
 5611SOL    HW128469   4.109   3.898   3.145 -0.2997  0.2958 -0.3500
 5611SOL    HW228470   4.174   3.919   3.276 -1.1928  2.0071 -0.9586
 5612SOL     OW28471   3.360   4.477  17.618  0.8013 -0.3580  0.1844
 5612SOL    HW128472   3.300   4.480  17.544  2.4525  4.0552 -1.0137
 5612SOL    HW228473   3.450   4.472  17.585  1.1500 -1.8109  1.3617
 5613SOL     OW28474   3.833   1.574   7.037  1.4095  0.1449 -0.4041
 5613SOL    HW128475   3.798   1.505   6.980  1.8984 -1.5783  1.3840
 5613SOL    HW228476   3.845   1.650   6.980  0.4458  1.2837  0.9361
 5614SOL     OW28477   2.491   4.356   6.751  0.8354 -0.0947  0.7242
 5614SOL    HW128478   2.558   4.338   6.818  0.4127  1.1196  1.4710
 5614SOL    HW228479   2.422   4.397   6.804 -0.8311 -2.5532  0.4508
 5615SOL     OW28480   3.592   2.262   2.164  0.0114  0.5433  0.6121
 5615SOL    HW128481   3.524   2.205   2.200 -0.9889  2.0854  1.1106
 5615SOL    HW228482   3.655   2.197   2.131  0.5020  1.4586 -0.2333
 5616SOL     OW28483   0.281   1.907   5.170 -0.0643  0.3711  0.7439
 5616SOL    HW128484   0.193   1.870   5.159  0.5407 -0.9077  0.2211
 5616SOL    HW228485   0.271   1.997   5.138  0.9546 -0.0395 -0.7726
 5617SOL     OW28486   4.523   2.241  10.716 -0.1528 -0.1431 -0.0950
 5617SOL    HW128487   4.610   2.213  10.743 -0.7997 -1.4118  0.6946
 5617SOL    HW228488   4.473   2.228  10.796 -0.8454 -0.5000 -0.5859
 5618SOL     OW28489   3.821   2.043   9.415  0.3903 -0.2904 -0.9583
 5618SOL    HW128490   3.906   2.087   9.410 -0.0271  0.7131  1.0006
 5618SOL    HW228491   3.763   2.108   9.455  0.1821 -1.2421  0.2740
 5619SOL     OW28492   4.345   3.013   9.101  0.2260 -0.2164  0.4203
 5619SOL    HW128493   4.352   2.920   9.122  1.3706  0.2161  1.9167
 5619SOL    HW228494   4.307   3.009   9.013 -0.3596  4.7393  0.4123
 5620SOL     OW28495   2.491   1.511   4.213  0.2247 -0.1425  0.0265
 5620SOL    HW128496   2.542   1.490   4.134  0.3142  1.4229 -0.3339
 5620SOL    HW228497   2.502   1.606   4.211 -3.4093  0.2828  0.4524
 5621SOL     OW28498   3.252   3.008  13.237  0.0727  0.8482 -0.6316
 5621SOL    HW128499   3.224   2.920  13.264 -0.0610  0.6547 -1.4129
 5621SOL    HW228500   3.301   2.993  13.156  1.8806  3.3992 -0.0278
 5622SOL     OW28501   1.655   1.912  11.557 -0.0340  0.1498 -0.6223
 5622SOL    HW128502   1.720   1.949  11.497 -0.6187  3.0414  0.5198
 5622SOL    HW228503   1.706   1.915  11.637 -0.5507  0.7998 -0.3161
 5623SOL     OW28504   0.561   3.382  13.213  0.1560  0.0886 -0.2819
 5623SOL    HW128505   0.526   3.396  13.125 -0.6588 -0.0501  0.0172
 5623SOL    HW228506   0.578   3.473  13.237  3.0687 -0.2072 -1.1431
 5624SOL     OW28507   4.562   3.597   0.170 -0.1688 -0.0512 -0.4049
 5624SOL    HW128508   4.554   3.543   0.091 -1.5440 -1.9489  1.0352
 5624SOL    HW228509   4.619   3.662   0.128  0.6502 -0.9003 -0.5992
 5625SOL     OW28510   2.822   3.471   5.597  0.1848  0.3696 -0.0925
 5625SOL    HW128511   2.882   3.396   5.603  0.9971  1.0527  0.2626
 5625SOL    HW228512   2.764   3.447   5.670  1.2850  0.3266  0.7590
 5626SOL     OW28513   0.146   0.533  10.184  0.2336 -0.0140  0.2737
 5626SOL    HW128514   0.155   0.553  10.277 -1.0343 -1.1051  0.6465
 5626SOL    HW228515   0.134   0.617  10.140 -0.0249  1.5781  3.4285
 5627SOL     OW28516   0.651   1.237   8.477  0.0004 -0.9302 -0.1532
 5627SOL    HW128517   0.563   1.273   8.491  1.1286  2.1136 -0.8297
 5627SOL    HW228518   0.692   1.282   8.552  1.1484  0.3665 -1.5421
 5628SOL     OW28519   3.366   2.310   5.752  0.7482  0.2300 -0.1984
 5628SOL    HW128520   3.397   2.224   5.722  0.2850  0.1377 -0.4056
 5628SOL    HW228521   3.383   2.318   5.846  0.1965 -5.2088  0.3843
 5629SOL     OW28522   2.294   1.277   0.293 -0.0687 -0.8016 -0.4712
 5629SOL    HW128523   2.365   1.256   0.354 -0.5511  0.9556  0.6863
 5629SOL    HW228524   2.341   1.341   0.239  1.2621 -1.6748 -0.3445
 5630SOL     OW28525   0.458   4.258   1.837 -0.0111 -0.1960  0.4010
 5630SOL    HW128526   0.455   4.229   1.929  0.5568 -1.3734  0.0505
 5630SOL    HW228527   0.401   4.194   1.796  0.1406  0.9507 -1.5774
 5631SOL     OW28528   0.105   2.826   4.196 -0.1650 -0.0186 -0.0651
 5631SOL    HW128529   0.104   2.914   4.234 -2.5973  0.4634 -1.2190
 5631SOL    HW228530   0.178   2.783   4.241  1.8114  1.7674 -1.5655
 5632SOL     OW28531   2.801   1.901   8.150  0.5314 -0.1492 -0.0024
 5632SOL    HW128532   2.790   1.921   8.057  0.3315 -1.0252 -0.1680
 5632SOL    HW228533   2.894   1.877   8.153 -0.0561 -2.3110  1.4271
 5633SOL     OW28534   1.233   0.897   0.552  0.6560 -0.2607  0.2786
 5633SOL    HW128535   1.194   0.927   0.470 -1.7293  0.8654  1.8050
 5633SOL    HW228536   1.198   0.809   0.563 -0.7887  0.0298 -1.8625
 5634SOL     OW28537   2.751   0.520  17.000  0.1505 -0.5256  0.1020
 5634SOL    HW128538   2.832   0.516  16.949  1.7154  0.0440  2.5587
 5634SOL    HW228539   2.762   0.593  17.060 -0.2234 -0.4971  0.1394
 5635SOL     OW28540   3.623   2.550   7.555  0.4896 -0.7345  0.3422
 5635SOL    HW128541   3.651   2.567   7.465 -0.1765 -0.2299  0.2305
 5635SOL    HW228542   3.530   2.573   7.553  0.1742 -2.1985 -1.6421
 5636SOL     OW28543   3.940   4.614   9.249  0.4432  0.1048 -0.2719
 5636SOL    HW128544   3.984   4.602   9.333 -0.5298  0.8372  0.3487
 5636SOL    HW228545   3.878   4.685   9.267 -0.2975 -0.4894 -0.4421
 5637SOL     OW28546   1.394   3.644  16.728 -0.1934  0.1459 -0.4133
 5637SOL    HW128547   1.486   3.645  16.753 -0.4731 -0.5675  0.6353
 5637SOL    HW228548   1.405   3.612  16.638 -0.1820  0.1461 -0.4119
 5638SOL     OW28549   2.030   0.619   2.184 -0.2819  0.0807 -0.2902
 5638SOL    HW128550   2.086   0.585   2.254 -1.2416 -1.8386 -0.4344
 5638SOL    HW228551   1.981   0.674   2.245  0.6062  1.9707 -1.2818
 5639SOL     OW28552   0.913   1.241  14.390 -0.6271 -0.0766 -0.6852
 5639SOL    HW128553   0.851   1.292  14.338 -0.9751 -0.3081 -0.5013
 5639SOL    HW228554   0.985   1.239  14.327 -0.4496  2.6771 -0.5784
 5640SOL     OW28555   2.375   2.077   3.374 -0.3327 -0.5224 -0.1398
 5640SOL    HW128556   2.374   2.165   3.412 -1.3261 -1.3474  1.7420
 5640SOL    HW228557   2.469   2.071   3.361 -0.2957  1.6067 -0.8643
 5641SOL     OW28558   2.152   1.220   1.972  0.6712  0.1223 -0.0417
 5641SOL    HW128559   2.247   1.229   1.969  0.8463 -1.0061  2.1409
 5641SOL    HW228560   2.144   1.174   2.056 -0.0195 -3.4290 -2.0394
 5642SOL     OW28561   1.830   3.359   2.344 -0.7342  0.3957  0.2144
 5642SOL    HW128562   1.816   3.344   2.250 -0.0103 -1.2572  0.3572
 5642SOL    HW228563   1.882   3.438   2.334 -0.4093  0.4005  1.9472
 5643SOL     OW28564   0.165   1.203   1.754 -0.7346  0.3309 -0.1993
 5643SOL    HW128565   0.225   1.131   1.774 -1.3164 -0.2184 -0.4511
 5643SOL    HW228566   0.083   1.164   1.781  0.4305 -2.8060 -1.2248
 5644SOL     OW28567   0.030   3.631   9.042 -0.6463 -0.5102 -0.1651
 5644SOL    HW128568   0.049   3.663   9.130 -0.0307 -1.7696  0.1666
 5644SOL    HW228569   0.110   3.660   8.999 -1.7815  0.2456 -1.7622
 5645SOL     OW28570   0.434   3.408  17.707 -0.1967  0.4370  0.4437
 5645SOL    HW128571   0.399   3.394   0.050 -1.0153 -0.6371 -0.0570
 5645SOL    HW228572   0.521   3.367  17.704 -0.9414 -1.0309 -1.0314
 5646SOL     OW28573   4.440   2.689  17.475 -0.0639  0.6657 -0.5445
 5646SOL    HW128574   4.499   2.763  17.482 -1.7092  2.0633 -1.3168
 5646SOL    HW228575   4.365   2.709  17.531 -0.6347  0.9936 -1.4239
 5647SOL     OW28576   0.575   2.374   9.654 -0.3151 -0.1929  0.1063
 5647SOL    HW128577   0.529   2.335   9.579  0.0131 -0.1667 -0.1116
 5647SOL    HW228578   0.625   2.446   9.615 -1.1351  0.6577  0.6332
 5648SOL     OW28579   3.948   4.076   1.151  0.5457  0.1028  0.3554
 5648SOL    HW128580   3.905   4.157   1.178  2.3436  1.7345 -1.6465
 5648SOL    HW228581   4.013   4.112   1.091 -0.1380 -2.4702 -1.9039
 5649SOL     OW28582   2.624   2.169   3.250 -0.0444  0.1976 -0.1390
 5649SOL    HW128583   2.714   2.159   3.281  0.3844 -1.1804 -1.8363
 5649SOL    HW228584   2.642   2.230   3.179  1.7010 -2.0030 -1.6010
 5650SOL     OW28585   2.683   3.417   7.863  0.3261 -0.4583  0.0308
 5650SOL    HW128586   2.702   3.471   7.786  1.7109 -0.8507  0.0849
 5650SOL    HW228587   2.658   3.333   7.825 -0.9489  0.0142 -0.1722
 5651SOL     OW28588   4.727   2.874  10.640  0.4894  0.1094 -0.1743
 5651SOL    HW128589   0.074   2.918  10.623 -0.5473  2.4778  0.9363
 5651SOL    HW228590   0.013   2.788  10.676 -0.8971  0.2074  0.9103
 5652SOL     OW28591   3.239   1.974   1.244 -0.1102  0.8735  0.0165
 5652SOL    HW128592   3.324   2.006   1.275 -0.7720  2.2267  0.3963
 5652SOL    HW228593   3.239   1.995   1.151 -3.6268 -0.8509 -0.3850
 5653SOL     OW28594   2.617   4.640   8.289  0.4137  0.1704 -0.2137
 5653SOL    HW128595   2.631   4.725   8.246 -0.6604  1.0383  1.1446
 5653SOL    HW228596   2.705   4.604   8.279  0.0595 -0.6099 -0.5284
 5654SOL     OW28597   3.731   0.916   7.881 -0.4021 -0.0351 -0.0518
 5654SOL    HW128598   3.799   0.851   7.860 -0.5136  0.1375 -0.9588
 5654SOL    HW228599   3.749   0.934   7.973  0.7994  1.6519 -0.6148
 5655SOL     OW28600   4.366   4.493   2.063 -0.1326  0.3315 -0.5171
 5655SOL    HW128601   4.404   4.448   1.987 -2.0482 -0.9491 -0.6800
 5655SOL    HW228602   4.430   4.468   2.130  1.8300  1.3392 -1.9865
 5656SOL     OW28603   0.216   1.647   4.612 -0.0612 -0.2352 -0.0849
 5656SOL    HW128604   0.166   1.570   4.641  2.4232 -1.7642  0.1475
 5656SOL    HW228605   0.301   1.608   4.591  0.9226  2.8346 -1.7752
 5657SOL     OW28606   4.676   3.632   6.372 -0.0035  0.0181 -0.2381
 5657SOL    HW128607   4.657   3.586   6.453  0.8094 -1.9962 -1.1956
 5657SOL    HW228608   0.007   3.584   6.325  0.5218  0.2534  0.2772
 5658SOL     OW28609   4.502   4.046   1.198  0.8244 -0.0422 -0.4939
 5658SOL    HW128610   4.559   4.029   1.123  0.5130  0.2373 -0.7936
 5658SOL    HW228611   4.438   4.110   1.167  1.1686  0.3444 -0.3997
 5659SOL     OW28612   0.838   2.239  13.001  0.7526  0.0182 -0.3939
 5659SOL    HW128613   0.774   2.242  13.071  0.9811 -3.0806 -0.0488
 5659SOL    HW228614   0.778   2.208  12.933 -1.2586 -1.3569  2.0170
 5660SOL     OW28615   2.861   0.534   3.839  0.6054 -0.1979  0.1424
 5660SOL    HW128616   2.926   0.465   3.839 -0.8166 -1.5414  1.5687
 5660SOL    HW228617   2.811   0.509   3.917 -0.4885 -0.1260 -0.5239
 5661SOL     OW28618   2.052   1.116   9.674 -0.7803 -0.1709  0.8334
 5661SOL    HW128619   2.094   1.144   9.593 -0.5044  0.9911  1.3648
 5661SOL    HW228620   1.983   1.065   9.631  0.4037  0.1315 -1.4400
 5662SOL     OW28621   0.439   0.644   6.653 -0.3318 -0.3581  0.3817
 5662SOL    HW128622   0.358   0.597   6.635 -0.2579  1.0538 -3.5886
 5662SOL    HW228623   0.452   0.689   6.569 -1.9411  2.7514  1.7745
 5663SOL     OW28624   0.641   3.351   6.695 -0.0749 -0.5593 -0.3347
 5663SOL    HW128625   0.676   3.322   6.780 -1.2826  2.1234  1.0860
 5663SOL    HW228626   0.724   3.381   6.656 -0.4207 -0.7101 -1.1723
 5664SOL     OW28627   2.870   4.694   1.257 -0.3043 -0.1095  0.2891
 5664SOL    HW128628   2.786   4.697   1.212 -0.4833  1.0228  0.7026
 5664SOL    HW228629   2.883   4.599   1.265 -1.2672 -0.1844  1.0195
 5665SOL     OW28630   0.573   0.447  10.904 -0.2689  0.5690  0.2228
 5665SOL    HW128631   0.605   0.362  10.935  0.9291  0.5475 -1.0301
 5665SOL    HW228632   0.527   0.479  10.981  0.7363  0.3144  0.9225
 5666SOL     OW28633   3.623   3.071   7.199 -0.3121  0.4877 -0.0609
 5666SOL    HW128634   3.681   3.018   7.255  2.8362  1.5439 -2.3248
 5666SOL    HW228635   3.660   3.043   7.116 -1.3291  0.5784 -0.5346
 5667SOL     OW28636   3.160   4.577   6.151 -0.5254  0.3392  0.1211
 5667SOL    HW128637   3.102   4.504   6.128 -4.2599  3.6756 -1.0530
 5667SOL    HW228638   3.227   4.577   6.082 -1.0307  0.4129 -0.3738
 5668SOL     OW28639   3.786   2.379   1.419  0.2999 -0.0804 -0.2269
 5668SOL    HW128640   3.734   2.439   1.365 -2.0442  1.0607  3.3350
 5668SOL    HW228641   3.717   2.326   1.459  0.0143 -1.1328 -2.0975
 5669SOL     OW28642   3.951   3.064  16.428 -0.2457 -0.0816  0.0818
 5669SOL    HW128643   3.997   2.983  16.408  2.7722  1.5892  0.2490
 5669SOL    HW228644   4.014   3.101  16.490 -1.5622  0.7805  0.9099
 5670SOL     OW28645   1.328   2.441  10.323  0.2995  0.0794  0.0545
 5670SOL    HW128646   1.369   2.354  10.324  0.3991  0.1445  0.9616
 5670SOL    HW228647   1.355   2.491  10.399 -1.3097  1.0581 -0.0094
 5671SOL     OW28648   2.529   1.287   0.466  0.0977 -0.3953  0.1978
 5671SOL    HW128649   2.569   1.333   0.540  3.1527 -1.8478 -0.5330
 5671SOL    HW228650   2.552   1.350   0.398 -1.6636  0.2751  0.2315
 5672SOL     OW28651   0.052   1.511  14.952  0.0577 -0.0829  0.4467
 5672SOL    HW128652   0.118   1.442  14.940 -0.8068 -0.4605 -2.1569
 5672SOL    HW228653   4.724   1.457  14.997  1.2570 -1.8736  0.0240
 5673SOL     OW28654   0.366   1.429   5.090  0.4541 -0.2449  0.4935
 5673SOL    HW128655   0.425   1.383   5.149  3.3183  2.7521 -0.0328
 5673SOL    HW228656   0.383   1.522   5.108  2.0557 -0.6312  0.9955
 5674SOL     OW28657   3.516   2.426   0.612 -0.1062 -0.4866 -0.0991
 5674SOL    HW128658   3.515   2.433   0.707 -0.0037  0.2470 -0.1480
 5674SOL    HW228659   3.508   2.332   0.601 -0.7811 -0.6526  1.8256
 5675SOL     OW28660   1.445   1.379   2.544  0.4654  0.3427 -0.3740
 5675SOL    HW128661   1.467   1.390   2.637 -0.9967 -0.1021  0.0437
 5675SOL    HW228662   1.415   1.466   2.519 -1.2441 -0.1838 -0.1710
 5676SOL     OW28663   0.505   0.598   9.076 -0.2652  0.1458  0.2443
 5676SOL    HW128664   0.555   0.675   9.103 -0.7701  1.5016 -2.6516
 5676SOL    HW228665   0.543   0.540   9.142 -0.9356 -2.5794 -1.7423
 5677SOL     OW28666   2.103   4.662   3.812  0.2858  0.1452  0.0035
 5677SOL    HW128667   2.062   4.586   3.853 -0.5362  0.3864 -0.3850
 5677SOL    HW228668   2.158   4.620   3.745  2.4875  0.3586  1.6849
 5678SOL     OW28669   3.919   4.158   4.382 -1.0084  0.3569  0.2163
 5678SOL    HW128670   3.996   4.181   4.434 -0.1128 -0.5849 -0.6831
 5678SOL    HW228671   3.933   4.063   4.384  0.5287  0.5348 -1.5602
 5679SOL     OW28672   2.200   1.001   8.884  0.1382 -0.4304  0.2575
 5679SOL    HW128673   2.239   0.948   8.954  0.8375 -0.5937 -0.2598
 5679SOL    HW228674   2.234   1.088   8.907 -1.6347  0.5376 -0.7996
 5680SOL     OW28675   2.657   2.600  10.587 -0.2990 -0.0873  0.5392
 5680SOL    HW128676   2.592   2.633  10.649  0.0242  0.2315  0.7097
 5680SOL    HW228677   2.651   2.663  10.515  1.0345  0.6952  1.1063
 5681SOL     OW28678   1.478   3.110   5.205 -0.7406 -0.2299  0.1232
 5681SOL    HW128679   1.488   3.052   5.281 -0.8664  1.2724  1.3004
 5681SOL    HW228680   1.384   3.105   5.191 -0.7050  1.2135 -0.5485
 5682SOL     OW28681   4.308   1.414  17.260 -1.3636 -0.8967  0.6062
 5682SOL    HW128682   4.253   1.492  17.268 -0.0874 -0.1017  1.5018
 5682SOL    HW228683   4.243   1.343  17.265 -1.0518 -1.2255  0.0362
 5683SOL     OW28684   2.568   1.800   7.701  0.1610  0.0528 -0.9036
 5683SOL    HW128685   2.539   1.799   7.792  0.5508 -1.0192 -0.7882
 5683SOL    HW228686   2.615   1.716   7.701  0.4995  0.2649  1.8016
 5684SOL     OW28687   3.932   1.863   8.005 -0.1496 -0.1433 -0.1411
 5684SOL    HW128688   4.015   1.901   7.976 -0.7403  1.5885  0.4097
 5684SOL    HW228689   3.934   1.905   8.092  0.2161 -0.6923  0.1183
 5685SOL     OW28690   4.004   3.287   0.888  0.1233 -0.6393  0.3683
 5685SOL    HW128691   4.086   3.280   0.936 -0.0849 -0.6349  0.7315
 5685SOL    HW228692   4.007   3.376   0.855  0.0118 -0.6548  0.3153
 5686SOL     OW28693   3.047   4.362   6.035  0.0763  0.1194 -0.3344
 5686SOL    HW128694   3.052   4.324   5.948 -0.1424  0.6264 -0.5652
 5686SOL    HW228695   2.953   4.365   6.050  0.3141 -0.6130  1.3167
 5687SOL     OW28696   3.811   0.035   6.464  0.4195  0.1329 -0.1506
 5687SOL    HW128697   3.862   0.092   6.408  1.3827 -0.0259  0.5537
 5687SOL    HW228698   3.870   0.016   6.537 -0.3535  1.0447  0.7078
 5688SOL     OW28699   3.901   0.375   1.986 -0.4123  0.0692 -0.1769
 5688SOL    HW128700   3.918   0.338   1.900 -1.1153  1.4690 -0.9032
 5688SOL    HW228701   3.805   0.373   1.985 -0.4361  0.7766  0.4546
 5689SOL     OW28702   2.864   2.441  10.719 -0.0420 -0.4757  0.0548
 5689SOL    HW128703   2.815   2.502  10.664  0.9812  0.1819 -0.1152
 5689SOL    HW228704   2.869   2.486  10.803  0.9385  0.8786 -0.7467
 5690SOL     OW28705   1.882   0.241   3.955  0.2012  0.1783 -0.6407
 5690SOL    HW128706   1.889   0.213   4.047 -0.5074  1.0698 -0.3108
 5690SOL    HW228707   1.882   0.337   3.962  1.8423  0.0533  1.1003
 5691SOL     OW28708   1.740   2.603  13.597 -0.4304  0.3804 -0.0043
 5691SOL    HW128709   1.793   2.529  13.626 -1.7042 -0.4866  0.1472
 5691SOL    HW228710   1.658   2.600  13.647  1.7003  0.7831  3.4989
 5692SOL     OW28711   2.617   4.187   5.630  0.2717 -0.6035  0.2566
 5692SOL    HW128712   2.558   4.115   5.603 -1.0635 -0.2135  2.1448
 5692SOL    HW228713   2.559   4.259   5.605  1.4200  0.5497  0.9480
 5693SOL     OW28714   4.034   2.436   1.309  0.1602 -0.4260  0.3526
 5693SOL    HW128715   3.944   2.440   1.339 -0.4030  0.4462 -1.4348
 5693SOL    HW228716   4.084   2.390   1.376  0.1092 -0.3078  0.4709
 5694SOL     OW28717   1.582   2.861   8.147  0.3388  0.1754  0.3233
 5694SOL    HW128718   1.509   2.799   8.145 -0.6717  1.3726  0.1096
 5694SOL    HW228719   1.576   2.873   8.242 -1.4732  0.5049  0.1586
 5695SOL     OW28720   2.287   0.665  13.378 -0.5571  0.2266 -0.0303
 5695SOL    HW128721   2.275   0.760  13.377 -1.6184  0.1217  1.9375
 5695SOL    HW228722   2.359   0.661  13.315  1.1116  0.6345  1.8304
 5696SOL     OW28723   2.722   1.582  14.636 -0.2148 -0.0468  0.2348
 5696SOL    HW128724   2.688   1.505  14.683  1.4929 -1.3267 -0.6166
 5696SOL    HW228725   2.674   1.581  14.554  0.4716 -1.4579 -0.1538
 5697SOL     OW28726   4.605   2.119   6.968  0.4086  0.3893  0.6557
 5697SOL    HW128727   4.559   2.038   6.993  2.0950  0.1060  2.8714
 5697SOL    HW228728   4.637   2.143   7.055 -0.8259  1.3032  0.8481
 5698SOL     OW28729   3.353   0.377   3.178  0.2546 -0.0907 -0.0314
 5698SOL    HW128730   3.262   0.393   3.203  0.5130  1.0261  0.1726
 5698SOL    HW228731   3.355   0.327   3.097  2.1411 -0.2689  0.1149
 5699SOL     OW28732   2.921   2.599   5.570 -0.4694  0.1320  0.3195
 5699SOL    HW128733   2.864   2.669   5.539  0.8883  1.1410  0.0946
 5699SOL    HW228734   2.861   2.543   5.620  0.2610 -0.3170  0.7041
 5700SOL     OW28735   4.197   1.510   5.501 -0.6149  0.1849  0.3165
 5700SOL    HW128736   4.200   1.560   5.419 -4.1053 -2.1575 -1.2435
 5700SOL    HW228737   4.106   1.512   5.529 -0.1748  0.6945  1.6992
 5701SOL     OW28738   4.140   2.728  12.203 -0.4610  0.5521 -0.3511
 5701SOL    HW128739   4.214   2.671  12.183 -0.8713  0.4050 -1.4574
 5701SOL    HW228740   4.098   2.691  12.281 -0.5080  0.5501 -0.3776
 5702SOL     OW28741   3.218   0.223   9.150 -0.1470 -0.0825 -0.4633
 5702SOL    HW128742   3.190   0.193   9.237  1.1016 -0.1728 -0.0781
 5702SOL    HW228743   3.272   0.152   9.116 -0.8988 -0.5670 -0.6266
 5703SOL     OW28744   1.928   2.551   0.124  0.2875 -0.2203  0.2486
 5703SOL    HW128745   1.837   2.525   0.140  0.4577  0.1610  1.8102
 5703SOL    HW228746   1.924   2.604   0.045  0.6108  0.0693  0.4274
 5704SOL     OW28747   3.581   0.944  12.337 -0.1556 -0.0217 -0.5036
 5704SOL    HW128748   3.650   1.008  12.319 -1.2414  1.2869  0.0134
 5704SOL    HW228749   3.516   0.950  12.267 -1.1202  3.6915  0.7458
 5705SOL     OW28750   3.750   1.758   6.786  0.5454 -0.6503 -0.6809
 5705SOL    HW128751   3.737   1.711   6.704 -0.9466  3.2710 -2.6773
 5705SOL    HW228752   3.668   1.755   6.835  0.7368  1.1571 -0.2629
 5706SOL     OW28753   3.185   0.464   7.801  0.2658 -0.0116 -0.7498
 5706SOL    HW128754   3.195   0.384   7.748 -3.0191 -0.4281 -0.7237
 5706SOL    HW228755   3.266   0.509   7.777  1.0459 -1.4829 -0.9059
 5707SOL     OW28756   2.876   4.381   1.646 -0.4815  0.4681  0.0176
 5707SOL    HW128757   2.928   4.454   1.681  0.6039  0.2957 -1.2085
 5707SOL    HW228758   2.913   4.383   1.557 -1.1662  0.2990 -0.2664
 5708SOL     OW28759   0.707   4.624   2.821  0.1264 -0.3765 -0.1286
 5708SOL    HW128760   0.678   4.710   2.790  0.4317  0.2246  1.2621
 5708SOL    HW228761   0.657   4.568   2.761 -0.4696 -0.6023  0.5802
 5709SOL     OW28762   0.143   0.258   3.498 -0.3377 -0.1677 -0.3597
 5709SOL    HW128763   0.207   0.202   3.454 -0.7878 -2.0738  1.3801
 5709SOL    HW228764   0.067   0.243   3.442 -1.8731  0.0451  1.6562
 5710SOL     OW28765   3.753   1.850   4.481 -0.4955 -0.0884  0.3683
 5710SOL    HW128766   3.704   1.906   4.421  0.0515 -4.3739 -4.0546
 5710SOL    HW228767   3.813   1.912   4.523  0.3445  0.4549 -1.6242
 5711SOL     OW28768   1.125   0.211   1.852  0.0161  0.0781  0.2273
 5711SOL    HW128769   1.137   0.119   1.877 -1.7553  0.4266  2.3695
 5711SOL    HW228770   1.034   0.201   1.823 -0.9792  2.8222  2.4601
 5712SOL     OW28771   4.155   3.931  15.689  0.6073  0.1316  0.5384
 5712SOL    HW128772   4.176   3.846  15.651 -3.2057 -0.2249 -0.7481
 5712SOL    HW228773   4.139   3.902  15.779 -2.2807 -0.5469 -0.2094
 5713SOL     OW28774   0.155   0.538   5.624 -0.6162 -0.2052 -0.0878
 5713SOL    HW128775   0.083   0.486   5.659  0.2232 -3.1479 -2.7054
 5713SOL    HW228776   0.147   0.610   5.686 -0.7132  1.1365 -1.6476
 5714SOL     OW28777   1.018   4.203   7.822  0.2110  0.0046  0.3937
 5714SOL    HW128778   1.025   4.297   7.807  4.3215 -0.5840 -1.3581
 5714SOL    HW228779   0.925   4.191   7.838  0.0598 -0.8236 -1.1097
 5715SOL     OW28780   1.026   2.774   1.552  0.0883 -0.1405 -0.5293
 5715SOL    HW128781   1.009   2.684   1.579  3.4605 -1.2331 -1.9927
 5715SOL    HW228782   0.965   2.812   1.616  1.0448 -1.7915  1.3780
 5716SOL     OW28783   0.741   3.837   6.146 -0.3709 -0.2318  0.0258
 5716SOL    HW128784   0.739   3.742   6.158  2.8507 -0.1521  1.1658
 5716SOL    HW228785   0.659   3.859   6.190 -1.0320 -0.6561 -0.9972
 5717SOL     OW28786   4.693   2.338   2.214  0.3213  0.2551 -0.1470
 5717SOL    HW128787   4.605   2.327   2.251  1.1372 -0.8755  1.4479
 5717SOL    HW228788   4.676   2.337   2.120  0.0952  0.8768 -0.1147
 5718SOL     OW28789   3.102   0.443   4.951  0.7381  0.1619  0.4582
 5718SOL    HW128790   3.154   0.434   4.871 -0.2702 -2.4405  0.0661
 5718SOL    HW228791   3.027   0.385   4.933  0.9114  0.3387 -0.8124
 5719SOL     OW28792   3.366   3.568   7.731 -0.3616 -0.3983 -0.5897
 5719SOL    HW128793   3.271   3.561   7.743 -0.8065  0.8343 -3.3912
 5719SOL    HW228794   3.355   3.619   7.651 -1.5726  0.6782  0.2374
 5720SOL     OW28795   2.523   1.299   7.405 -0.3089 -0.1606  0.2378
 5720SOL    HW128796   2.456   1.238   7.372 -1.3107  0.3275  1.3916
 5720SOL    HW228797   2.494   1.333   7.489  0.1523  0.9507 -0.0632
 5721SOL     OW28798   0.139   4.495  13.246  0.3001 -0.5685  0.2360
 5721SOL    HW128799   0.105   4.481  13.158  1.2342  2.9872 -0.6935
 5721SOL    HW228800   0.205   4.560  13.222  1.5747 -1.6876  0.7074
 5722SOL     OW28801   3.110   1.461   8.553 -0.2040 -0.3919 -0.3233
 5722SOL    HW128802   3.025   1.431   8.521 -0.8161 -0.7760  1.6718
 5722SOL    HW228803   3.149   1.500   8.474 -1.9509  0.7437 -0.6269
 5723SOL     OW28804   3.844   1.900  16.449  0.1512 -0.0541  0.3686
 5723SOL    HW128805   3.850   1.955  16.527  0.6127 -0.7947  0.8547
 5723SOL    HW228806   3.781   1.832  16.473 -0.1813  0.5876  1.3006
 5724SOL     OW28807   0.514   3.023   2.062 -0.3642 -1.0471  0.1894
 5724SOL    HW128808   0.544   3.078   2.133  1.3010  1.7051 -2.6418
 5724SOL    HW228809   0.474   2.950   2.109 -1.4112 -0.3356  0.3850
 5725SOL     OW28810   0.101   1.900   6.243  0.2076 -0.0293  1.0034
 5725SOL    HW128811   0.108   1.862   6.331  0.2718  1.3261  1.5844
 5725SOL    HW228812   0.098   1.993   6.267 -2.4258 -0.2014  1.3761
 5726SOL     OW28813   4.048   3.053   5.008  0.1345  0.4231  0.6611
 5726SOL    HW128814   4.041   3.077   4.915 -0.8745 -0.8937  0.3962
 5726SOL    HW228815   4.121   3.110   5.033  0.3665  0.8449 -0.9689
 5727SOL     OW28816   0.159   2.036   2.851  0.6370 -0.1210 -0.8736
 5727SOL    HW128817   0.149   1.941   2.854 -1.6777  0.2238  2.2094
 5727SOL    HW228818   0.081   2.065   2.898  0.6397  1.3333 -1.7698
 5728SOL     OW28819   3.333   0.307   8.133  0.3787 -0.2620  0.3504
 5728SOL    HW128820   3.356   0.386   8.181 -2.0828 -0.8620  2.5582
 5728SOL    HW228821   3.420   0.268   8.133 -0.0279 -1.1420 -3.6252
 5729SOL     OW28822   0.863   2.841   8.086  0.6075 -0.2575 -0.3780
 5729SOL    HW128823   0.932   2.892   8.043 -0.3708  0.8724 -0.6111
 5729SOL    HW228824   0.871   2.863   8.179 -0.7312  0.5100 -0.4480
 5730SOL     OW28825   3.140   0.176   9.394  0.4546  0.3458  0.6790
 5730SOL    HW128826   3.133   0.272   9.400  1.1030  0.4114  0.3733
 5730SOL    HW228827   3.206   0.172   9.464 -0.1367 -2.4801  1.0573
 5731SOL     OW28828   2.489   0.361   0.218 -0.5532  0.2802 -0.1112
 5731SOL    HW128829   2.454   0.393   0.135  0.7812  1.3062 -0.2841
 5731SOL    HW228830   2.516   0.440   0.265  0.1760 -0.4262  0.6702
 5732SOL     OW28831   1.713   0.948  10.456  0.0008  0.4546  0.1102
 5732SOL    HW128832   1.666   1.029  10.435 -1.7460 -0.3260  0.9557
 5732SOL    HW228833   1.794   0.982  10.419  0.4221 -2.0251 -1.2175
 5733SOL     OW28834   2.647   2.915   6.140 -0.1361 -0.6070 -0.4503
 5733SOL    HW128835   2.564   2.959   6.124  1.1561  1.6423 -0.9392
 5733SOL    HW228836   2.658   2.979   6.211 -3.7612  1.1838 -1.5118
 5734SOL     OW28837   0.493   0.634   1.699  0.1207  0.2839  0.5513
 5734SOL    HW128838   0.421   0.573   1.715  0.5519 -0.0957  1.0322
 5734SOL    HW228839   0.508   0.640   1.605 -1.3771  1.2085  0.3814
 5735SOL     OW28840   0.094   2.475   3.993  0.2663  0.1877  0.4269
 5735SOL    HW128841   0.043   2.515   4.063  0.4985  0.8085  0.2357
 5735SOL    HW228842   0.109   2.385   4.024 -0.0901  0.8119  2.3960
 5736SOL     OW28843   0.454   2.997   6.935  0.6728 -0.0037  0.3004
 5736SOL    HW128844   0.494   2.919   6.974  2.3787  2.0886  2.7553
 5736SOL    HW228845   0.417   3.044   7.010  0.0951  0.5401 -0.3334
 5737SOL     OW28846   3.966   2.183  10.828  0.9510  0.4931  0.0064
 5737SOL    HW128847   4.010   2.151  10.907 -0.2026 -2.3752 -0.5281
 5737SOL    HW228848   3.880   2.202  10.867  1.1648 -0.3909  0.9243
 5738SOL     OW28849   2.888   4.285   8.648 -0.1088  0.1171  0.1697
 5738SOL    HW128850   2.891   4.216   8.714  2.6128  0.4888  0.4206
 5738SOL    HW228851   2.904   4.229   8.572  0.0918 -0.2463  0.4845
 5739SOL     OW28852   0.472   2.081   9.213  0.5933  0.2190 -0.3009
 5739SOL    HW128853   0.388   2.072   9.258 -0.3432  2.8072 -1.5155
 5739SOL    HW228854   0.461   2.045   9.125  2.6580  1.8523 -1.2316
 5740SOL     OW28855   2.800   0.143   5.519  0.2767  0.2358 -0.1937
 5740SOL    HW128856   2.883   0.112   5.553 -0.8039 -0.3087  1.9324
 5740SOL    HW228857   2.832   0.194   5.445 -1.5414  1.3053 -0.2390
 5741SOL     OW28858   0.327   4.608  15.807  0.6866  0.5791  0.7992
 5741SOL    HW128859   0.310   4.650  15.723 -4.5689 -2.5493  0.2706
 5741SOL    HW228860   0.253   4.646  15.855  1.8297  0.2195  2.8550
 5742SOL     OW28861   0.702   4.230   6.530 -0.1252  0.3518  0.9647
 5742SOL    HW128862   0.765   4.197   6.594  0.9183  0.9516  0.2478
 5742SOL    HW228863   0.737   4.319   6.531  3.7294 -1.2191  5.1820
 5743SOL     OW28864   3.423   2.899   9.448  0.1334  0.4153 -0.0796
 5743SOL    HW128865   3.406   2.822   9.502  1.3414 -0.5880 -1.1447
 5743SOL    HW228866   3.371   2.969   9.489  0.9689  0.4298  0.9489
 5744SOL     OW28867   0.324   2.668   1.334 -0.3766  0.0367 -0.1734
 5744SOL    HW128868   0.334   2.757   1.299 -0.0531 -0.9762 -2.6703
 5744SOL    HW228869   0.417   2.646   1.335 -0.6309 -0.9884  0.5009
 5745SOL     OW28870   3.004   1.155  12.525  0.0631 -0.5102  0.0442
 5745SOL    HW128871   3.037   1.245  12.522 -0.6272 -0.2850 -0.8667
 5745SOL    HW228872   3.011   1.127  12.616 -0.3205  0.4104  0.3502
 5746SOL     OW28873   3.741   0.365   1.579  0.6314  0.5775  0.1447
 5746SOL    HW128874   3.726   0.321   1.495  0.2303  1.1221 -0.0684
 5746SOL    HW228875   3.754   0.455   1.551  0.2478  0.3385 -0.7827
 5747SOL     OW28876   3.093   2.604   3.534  0.3527  0.1108  0.1092
 5747SOL    HW128877   3.095   2.521   3.582  0.2098  0.6948  1.1215
 5747SOL    HW228878   3.059   2.578   3.449 -0.6022 -0.5343  0.6934
 5748SOL     OW28879   4.161   1.785  11.480  0.0655 -0.0412  0.5619
 5748SOL    HW128880   4.252   1.812  11.463 -0.3037  2.5695  2.8368
 5748SOL    HW228881   4.148   1.704  11.431 -0.4097 -0.3183  1.1461
 5749SOL     OW28882   2.774   0.999   2.281  0.4628  0.1074 -0.0701
 5749SOL    HW128883   2.707   1.013   2.347  1.1926  1.5919  0.3427
 5749SOL    HW228884   2.831   0.932   2.320  0.5299  0.2032 -0.0048
 5750SOL     OW28885   3.447   1.050   3.069  0.4243  0.6759 -0.0518
 5750SOL    HW128886   3.433   0.958   3.045 -2.0384  1.3201 -0.9917
 5750SOL    HW228887   3.504   1.041   3.146  0.4918  0.8150 -0.0856
 5751SOL     OW28888   4.121   0.782   1.952 -0.1978 -0.1251 -0.1100
 5751SOL    HW128889   4.210   0.749   1.940 -0.6993 -1.1504 -0.9432
 5751SOL    HW228890   4.128   0.815   2.042  0.0804 -0.1497 -0.1225
 5752SOL     OW28891   3.511   3.650   1.211 -0.0782  0.0245  0.3604
 5752SOL    HW128892   3.473   3.618   1.293  0.7684 -0.9024  0.3857
 5752SOL    HW228893   3.443   3.710   1.179 -0.2378 -1.7386 -2.5183
 5753SOL     OW28894   3.676   4.259   9.707  0.2753 -0.0708 -0.1082
 5753SOL    HW128895   3.625   4.262   9.788 -0.1830  0.0848 -0.3993
 5753SOL    HW228896   3.601   4.253   9.647  0.4283  0.4429 -0.3524
 5754SOL     OW28897   1.979   3.942   7.811  0.5169 -0.5395  0.1194
 5754SOL    HW128898   1.912   3.977   7.753 -0.0263  0.2728  1.2228
 5754SOL    HW228899   2.007   4.006   7.877 -2.3801  0.5852  0.2274
 5755SOL     OW28900   0.452   4.529   1.839 -0.0789 -0.4089 -0.5552
 5755SOL    HW128901   0.441   4.435   1.825 -3.1447  0.4264 -3.7250
 5755SOL    HW228902   0.369   4.563   1.807  0.1448  0.0791 -0.6214
 5756SOL     OW28903   0.414   2.099  16.629 -0.1186  0.1786 -0.2540
 5756SOL    HW128904   0.363   2.020  16.648 -0.9395  0.9472  0.7550
 5756SOL    HW228905   0.367   2.161  16.685  1.8053  2.0279 -0.7172
 5757SOL     OW28906   1.110   4.500   8.958  0.5754 -0.3765 -0.3041
 5757SOL    HW128907   1.141   4.529   9.044 -0.8147 -2.1463  0.7919
 5757SOL    HW228908   1.035   4.444   8.977  0.4117  0.0171  0.2414
 5758SOL     OW28909   2.422   0.285   7.580 -0.0904 -0.4668 -0.1558
 5758SOL    HW128910   2.409   0.200   7.622 -1.5260 -0.4825 -0.6338
 5758SOL    HW228911   2.383   0.346   7.643  3.4222  2.5557 -0.8794
 5759SOL     OW28912   4.127   0.689   4.832  0.1681 -0.3085 -0.0908
 5759SOL    HW128913   4.034   0.673   4.817  0.2745 -0.8568 -0.1828
 5759SOL    HW228914   4.153   0.722   4.746  1.0736 -0.3514  0.1742
 5760SOL     OW28915   4.035   4.617   5.321  0.0820  0.0974  0.3735
 5760SOL    HW128916   4.000   4.546   5.267  0.9423 -1.0730  1.3561
 5760SOL    HW228917   4.004   4.690   5.267  0.6922  0.7839  0.9430
 5761SOL     OW28918   1.703   0.296   7.613 -0.7816 -0.0443 -0.4145
 5761SOL    HW128919   1.695   0.240   7.690  0.1643  0.5106  0.0754
 5761SOL    HW228920   1.628   0.351   7.634  0.1459  1.3079 -0.6800
 5762SOL     OW28921   0.886   3.551   6.576 -0.1621  0.4303 -1.1158
 5762SOL    HW128922   0.930   3.486   6.521 -3.0065 -0.7425 -2.0093
 5762SOL    HW228923   0.948   3.580   6.642 -1.8603 -2.7909  1.8967
 5763SOL     OW28924   1.524   1.641   8.088 -0.0306  0.4797  0.2816
 5763SOL    HW128925   1.439   1.662   8.049 -0.4522 -0.1718  0.8543
 5763SOL    HW228926   1.505   1.561   8.138  1.0934 -0.7266 -1.1985
 5764SOL     OW28927   3.012   4.168   7.572  0.0298 -0.3331  0.1905
 5764SOL    HW128928   3.087   4.109   7.583 -1.4901 -2.0765  1.3738
 5764SOL    HW228929   3.046   4.257   7.570 -0.7978 -0.0157  0.5666
 5765SOL     OW28930   2.596   0.877   6.940  0.3607 -0.4457 -0.3327
 5765SOL    HW128931   2.615   0.967   6.968  1.9151 -0.7693 -0.3192
 5765SOL    HW228932   2.680   0.839   6.965  0.2621 -0.2130  0.3547
 5766SOL     OW28933   2.532   4.219  12.405  0.0423  0.5835  0.0380
 5766SOL    HW128934   2.446   4.210  12.445  0.6734 -0.9020  1.0602
 5766SOL    HW228935   2.586   4.209  12.483 -0.1475 -2.2068 -0.1625
 5767SOL     OW28936   0.871   3.684   7.883 -0.6510  0.0446  0.0406
 5767SOL    HW128937   0.932   3.665   7.954  0.0231 -1.1069 -0.8596
 5767SOL    HW228938   0.934   3.708   7.815  0.4799 -1.2072  0.6709
 5768SOL     OW28939   3.031   2.907  10.109 -0.1409  0.0567 -0.5053
 5768SOL    HW128940   2.998   2.868  10.028 -0.3680  1.0497 -0.8896
 5768SOL    HW228941   3.048   2.827  10.159  0.7077  0.4888 -0.1043
 5769SOL     OW28942   0.620   0.640   2.818 -0.0339 -0.6958  0.0844
 5769SOL    HW128943   0.681   0.582   2.864  2.8029  1.2843 -1.1326
 5769SOL    HW228944   0.652   0.724   2.853  0.8981 -1.6286  1.4822
 5770SOL     OW28945   1.543   2.090   6.949  0.2299  0.0255 -0.5073
 5770SOL    HW128946   1.480   2.148   6.906 -0.4958 -0.0555  0.4416
 5770SOL    HW228947   1.551   2.126   7.037  0.1434  0.6436 -0.7547
 5771SOL     OW28948   3.778   0.475  16.318  0.2206  0.1570 -0.1321
 5771SOL    HW128949   3.814   0.515  16.397  1.7829 -0.6777 -0.4239
 5771SOL    HW228950   3.823   0.509  16.241  0.8378 -1.7983 -0.6194
 5772SOL     OW28951   1.759   4.178   5.743 -0.0837  0.0486  0.1698
 5772SOL    HW128952   1.728   4.088   5.740  1.6253 -0.5577  0.8035
 5772SOL    HW228953   1.845   4.156   5.778  0.5962  1.1238 -0.8519
 5773SOL     OW28954   2.206   1.583   7.657  0.6229 -0.6048  0.5601
 5773SOL    HW128955   2.228   1.658   7.600  6.0023 -1.3513  1.6777
 5773SOL    HW228956   2.148   1.521   7.613 -0.6919  1.4770 -0.6880
 5774SOL     OW28957   0.265   1.166  13.484 -0.6579 -0.3312 -0.4108
 5774SOL    HW128958   0.355   1.139  13.504 -1.0348 -0.7373  0.7232
 5774SOL    HW228959   0.283   1.224  13.410  1.3411 -0.9654 -0.4345
 5775SOL     OW28960   4.212   2.997   8.588 -0.3575  0.0576  0.0671
 5775SOL    HW128961   4.187   3.044   8.509  2.3151  1.1604 -0.0991
 5775SOL    HW228962   4.290   2.952   8.557 -0.0943 -1.1577  2.4671
 5776SOL     OW28963   0.956   0.820   6.954  0.3055 -0.0351  0.2493
 5776SOL    HW128964   1.017   0.894   6.947 -0.9138  1.0290  1.0285
 5776SOL    HW228965   0.969   0.802   7.048  1.5582  1.0539  0.2943
 5777SOL     OW28966   2.336   1.412   3.682  0.5062  0.1604  0.3675
 5777SOL    HW128967   2.375   1.346   3.740 -0.2741  1.0950  1.9573
 5777SOL    HW228968   2.246   1.380   3.685  0.7250 -0.2642  2.7672
 5778SOL     OW28969   0.712   4.376   2.667 -0.6209 -0.4157  0.9574
 5778SOL    HW128970   0.744   4.416   2.587 -1.2618 -2.0838 -0.1279
 5778SOL    HW228971   0.795   4.351   2.706 -0.8382 -1.5848  0.6724
 5779SOL     OW28972   1.190   0.462   3.672  0.4357  0.5157 -0.1644
 5779SOL    HW128973   1.114   0.518   3.687 -0.5860 -0.9719  0.1797
 5779SOL    HW228974   1.251   0.532   3.644 -0.0046  0.5443 -1.0694
 5780SOL     OW28975   1.440   0.583   2.864 -0.2034 -0.0255 -0.5058
 5780SOL    HW128976   1.434   0.548   2.952  1.8597  1.1214  0.0943
 5780SOL    HW228977   1.476   0.671   2.875  1.4554 -0.7269 -0.4376
 5781SOL     OW28978   4.297   2.566  16.101 -0.2707 -0.5103 -0.5347
 5781SOL    HW128979   4.383   2.556  16.060  0.1800  3.8449 -0.7132
 5781SOL    HW228980   4.310   2.656  16.133  0.9412 -0.9275  0.1300
 5782SOL     OW28981   0.272   3.180   8.313  0.0278 -0.7636  0.1781
 5782SOL    HW128982   0.323   3.212   8.239  1.7084 -1.4076  1.0564
 5782SOL    HW228983   0.348   3.186   8.370  2.1311 -1.6656 -2.5321
 5783SOL     OW28984   2.775   3.434   6.282  0.2081 -0.0531  0.0903
 5783SOL    HW128985   2.786   3.443   6.377  1.3187  0.6462 -0.1142
 5783SOL    HW228986   2.821   3.514   6.257 -0.6093  1.6894  4.1837
 5784SOL     OW28987   2.559   0.280   3.764 -0.3443  0.0762  0.2106
 5784SOL    HW128988   2.597   0.331   3.836  0.8071  0.4670 -0.6851
 5784SOL    HW228989   2.575   0.330   3.684  1.5238  0.2294  0.6844
 5785SOL     OW28990   4.649   1.485   7.912  0.6137  0.1728  0.3316
 5785SOL    HW128991   4.581   1.524   7.965 -1.3277 -3.1564  0.3227
 5785SOL    HW228992   4.680   1.423   7.979  0.4995  1.7024  1.7859
 5786SOL     OW28993   2.786   0.932   5.160  0.2165  0.6059  0.3214
 5786SOL    HW128994   2.769   0.984   5.081  2.9161  0.7323 -0.1832
 5786SOL    HW228995   2.697   0.922   5.194  0.4660 -0.1216  0.7616
 5787SOL     OW28996   3.256   2.707   6.561 -0.1809  0.1544  0.3025
 5787SOL    HW128997   3.303   2.787   6.539 -1.0277  1.0027  1.5645
 5787SOL    HW228998   3.309   2.673   6.633 -1.0290 -0.4800  0.6288
 5788SOL     OW28999   2.752   4.669   5.351  0.2538  0.3181 -0.1693
 5788SOL    HW129000   2.752   4.596   5.413  1.0064  1.1021  0.7586
 5788SOL    HW229001   2.749   0.006   5.413 -2.1177 -2.9762  3.5976
 5789SOL     OW29002   2.979   2.755   8.336  0.1219  0.1722 -0.1690
 5789SOL    HW129003   3.036   2.680   8.321  0.3540  0.3748 -0.2982
 5789SOL    HW229004   2.900   2.702   8.342  0.0350  0.3279  0.0427
 5790SOL     OW29005   0.977   3.163   7.726 -0.0263 -0.2299  0.6235
 5790SOL    HW129006   0.957   3.254   7.705 -0.6811  0.0650  2.5594
 5790SOL    HW229007   1.053   3.148   7.670 -3.0564  0.0903 -3.5464
 5791SOL     OW29008   1.745   2.066   2.160  0.0725  0.2431  0.1295
 5791SOL    HW129009   1.825   2.016   2.181 -0.4802  0.3310  2.5165
 5791SOL    HW229010   1.735   2.112   2.244  2.9774  0.6288  0.2692
 5792SOL     OW29011   2.291   4.490   0.679  0.2116  0.2554 -0.4045
 5792SOL    HW129012   2.331   4.460   0.760  0.3058 -0.1183 -0.5867
 5792SOL    HW229013   2.266   4.580   0.701 -0.9774 -0.1575 -0.0370
 5793SOL     OW29014   4.704   2.683  12.164  0.2915  0.1067 -0.5601
 5793SOL    HW129015   4.719   2.697  12.257  0.4286  1.6288 -0.8194
 5793SOL    HW229016   4.638   2.750  12.145 -0.2385  0.1803  1.5501
 5794SOL     OW29017   3.904   4.082  14.811  0.0636 -0.6379 -0.3108
 5794SOL    HW129018   3.917   4.174  14.832  2.0002 -0.8896 -0.4210
 5794SOL    HW229019   3.923   4.043  14.897  0.6771  0.8513  0.2245
 5795SOL     OW29020   2.109   3.670   8.480 -0.8305 -0.1157 -0.5792
 5795SOL    HW129021   2.191   3.682   8.527 -0.8299 -2.8736  0.1127
 5795SOL    HW229022   2.118   3.581   8.446  2.4219  0.1726 -0.4735
 5796SOL     OW29023   3.670   3.654  13.926  0.1852 -0.0743 -0.2014
 5796SOL    HW129024   3.689   3.561  13.935 -4.3589 -0.8011  1.8091
 5796SOL    HW229025   3.756   3.685  13.897  0.2859  2.3341  2.6466
 5797SOL     OW29026   4.069   4.040   3.681 -0.0764 -0.1119  0.1018
 5797SOL    HW129027   4.102   4.124   3.648 -1.5140 -0.1499 -1.4372
 5797SOL    HW229028   4.104   4.043   3.770  2.0121  1.4569 -0.7458
 5798SOL     OW29029   0.292   1.124   3.999  0.0784 -0.1027 -0.1502
 5798SOL    HW129030   0.270   1.033   4.021 -1.2690  0.3356  0.2830
 5798SOL    HW229031   0.361   1.112   3.934  0.6384 -2.0242  0.7788
 5799SOL     OW29032   1.131   0.025  10.314  0.2105 -0.1990 -0.4694
 5799SOL    HW129033   1.143   0.084  10.389  0.5469  0.4499 -1.0410
 5799SOL    HW229034   1.151   4.681  10.362 -0.2056  0.7839  1.3702
 5800SOL     OW29035   0.754   4.206   1.507  0.0370 -0.0960  0.5893
 5800SOL    HW129036   0.755   4.124   1.556 -2.0854 -0.5542 -0.1190
 5800SOL    HW229037   0.843   4.241   1.495 -1.2538  3.7051  2.0847
 5801SOL     OW29038   2.716   2.363   4.769 -0.9093  0.5776 -0.0335
 5801SOL    HW129039   2.663   2.301   4.719  0.8300 -0.6434 -0.3695
 5801SOL    HW229040   2.687   2.354   4.860  0.0355 -1.9816  0.0111
 5802SOL     OW29041   2.438   4.582   6.245 -0.0104  0.5469  0.0236
 5802SOL    HW129042   2.497   4.594   6.320 -1.4769  1.0550  1.1061
 5802SOL    HW229043   2.359   4.572   6.298 -1.1013  2.0222 -1.3328
 5803SOL     OW29044   3.088   2.192  14.092 -0.7052  0.7603 -0.4199
 5803SOL    HW129045   3.079   2.237  14.008  1.1213  0.2542 -0.8894
 5803SOL    HW229046   3.147   2.120  14.071  0.4643  1.3766  0.7442
 5804SOL     OW29047   4.007   3.998   1.843 -0.4933 -0.1346 -0.1042
 5804SOL    HW129048   3.953   3.928   1.806 -1.5200  0.5159  0.1390
 5804SOL    HW229049   3.998   3.991   1.938  1.6125 -2.5790 -0.0910
 5805SOL     OW29050   0.633   2.877   3.920 -0.8688  0.3266 -0.5965
 5805SOL    HW129051   0.606   2.967   3.937  1.9520  1.3258 -1.3838
 5805SOL    HW229052   0.721   2.890   3.884 -0.5573 -1.9587 -0.6772
 5806SOL     OW29053   2.247   2.663   7.706  0.1389 -0.2575  0.2845
 5806SOL    HW129054   2.257   2.591   7.768 -1.7777 -0.2089  0.6369
 5806SOL    HW229055   2.194   2.727   7.753 -0.0320 -0.8720  0.9213
 5807SOL     OW29056   0.829   2.050   0.265  0.0478  0.3910  0.1937
 5807SOL    HW129057   0.814   1.991   0.339 -0.3555  0.9048  0.5182
 5807SOL    HW229058   0.865   1.987   0.202  1.6467  1.9224 -0.3987
 5808SOL     OW29059   1.097   3.007   7.128  0.7462 -0.6359  0.4900
 5808SOL    HW129060   1.187   2.999   7.095 -0.0248 -2.1745 -1.2221
 5808SOL    HW229061   1.094   3.101   7.145  2.8540 -0.5426  0.3298
 5809SOL     OW29062   3.749   0.718  15.126  0.1233 -0.0358 -0.0178
 5809SOL    HW129063   3.811   0.781  15.162  0.5501 -1.5692  1.9491
 5809SOL    HW229064   3.810   0.649  15.101 -0.4591  0.1832 -1.9876
 5810SOL     OW29065   3.928   3.149   2.001 -0.8963 -0.0604 -0.6882
 5810SOL    HW129066   3.880   3.176   2.079  1.6123 -0.0201  0.8324
 5810SOL    HW229067   3.935   3.237   1.964  2.3592 -0.1312 -0.1704
 5811SOL     OW29068   0.892   0.128   4.598 -0.2938  0.0194  0.3051
 5811SOL    HW129069   0.887   0.221   4.577  0.6302 -0.3555 -1.5931
 5811SOL    HW229070   0.974   0.108   4.552 -0.2306  0.9905  0.0061
 5812SOL     OW29071   4.197   2.764   5.119 -0.3585 -0.2879 -0.0407
 5812SOL    HW129072   4.247   2.777   5.038 -1.1675  0.8089 -0.3638
 5812SOL    HW229073   4.178   2.671   5.110 -0.5696 -0.1441 -1.1029
 5813SOL     OW29074   2.809   1.936   4.490  0.1521  1.0131 -0.3137
 5813SOL    HW129075   2.727   1.983   4.477 -1.3505 -2.0560 -1.8747
 5813SOL    HW229076   2.861   2.001   4.536  1.2794 -0.6035  0.6951
 5814SOL     OW29077   1.489   3.233   5.561 -0.3749 -0.3271 -0.5296
 5814SOL    HW129078   1.443   3.150   5.573 -2.0933  0.9450  1.6867
 5814SOL    HW229079   1.568   3.193   5.524 -1.7877 -2.7971 -0.7970
 5815SOL     OW29080   4.227   1.737   4.639  0.4198  0.1307 -0.2224
 5815SOL    HW129081   4.186   1.813   4.597  2.1579  0.6686 -0.9354
 5815SOL    HW229082   4.153   1.676   4.639  1.4048 -1.0341  2.5669
 5816SOL     OW29083   4.186   3.446   4.204  0.2668  0.1876 -0.1761
 5816SOL    HW129084   4.160   3.358   4.230 -0.2549  0.3856 -0.0429
 5816SOL    HW229085   4.220   3.471   4.289  1.1051 -0.4139 -0.3271
 5817SOL     OW29086   1.298   4.169   4.087  0.3566  0.1193  0.1998
 5817SOL    HW129087   1.356   4.112   4.138 -1.2547 -1.8091 -0.1623
 5817SOL    HW229088   1.321   4.252   4.129  0.2489  1.3752 -2.2075
 5818SOL     OW29089   2.151   3.350   9.004  0.4820  0.7821 -0.2667
 5818SOL    HW129090   2.159   3.368   8.910  0.3186 -2.4930 -0.8858
 5818SOL    HW229091   2.201   3.272   9.026  1.0360  0.8533 -1.2672
 5819SOL     OW29092   1.959   1.090   8.657  0.3422 -0.2462 -0.0419
 5819SOL    HW129093   1.913   1.013   8.624 -0.2409  0.2243 -0.3342
 5819SOL    HW229094   2.037   1.080   8.604  1.0326 -0.2640  0.9775
 5820SOL     OW29095   1.236   3.560   1.392 -0.2788 -0.2570 -0.4303
 5820SOL    HW129096   1.187   3.600   1.464  0.3368  0.0671 -0.1877
 5820SOL    HW229097   1.266   3.639   1.348  1.1158  0.1464  1.2198
 5821SOL     OW29098   0.259   2.055   9.362 -0.7644 -0.7400  0.9069
 5821SOL    HW129099   0.176   2.087   9.327 -0.5985  0.3076  1.4677
 5821SOL    HW229100   0.218   1.989   9.419 -2.4856 -0.0126  0.5067
 5822SOL     OW29101   1.963   2.534   4.129  0.0885  0.1337 -0.3528
 5822SOL    HW129102   2.050   2.567   4.148  0.5457 -1.4084  0.3006
 5822SOL    HW229103   1.958   2.560   4.037  0.1256 -1.7634 -0.8888
 5823SOL     OW29104   4.514   0.635   5.896  0.4926  0.0400  0.3031
 5823SOL    HW129105   4.458   0.572   5.941 -0.4428  0.0690 -0.8195
 5823SOL    HW229106   4.589   0.649   5.954  0.5417 -1.6684  0.6419
 5824SOL     OW29107   2.196   0.007   9.180 -0.3867  0.1795 -0.5224
 5824SOL    HW129108   2.271   4.694   9.212 -0.8831 -0.7593 -0.7911
 5824SOL    HW229109   2.122   4.698   9.221  0.7810 -0.5239  0.7762
 5825SOL     OW29110   1.018   2.298   6.927 -0.1493  0.6866  0.1372
 5825SOL    HW129111   0.927   2.286   6.957  0.8723 -0.7990  2.6819
 5825SOL    HW229112   1.033   2.206   6.906  0.8575  0.9028 -0.1039
 5826SOL     OW29113   3.399   1.428   6.885 -0.1182  0.4830  0.1571
 5826SOL    HW129114   3.331   1.361   6.886 -0.3029  0.6651 -0.6093
 5826SOL    HW229115   3.429   1.442   6.975 -0.3025 -1.4878  0.5037
 5827SOL     OW29116   3.283   4.455   6.378  0.0590  0.0888 -0.3922
 5827SOL    HW129117   3.337   4.386   6.339 -2.2320 -2.5598  1.1141
 5827SOL    HW229118   3.235   4.498   6.308 -0.0612  0.0431 -0.3374
 5828SOL     OW29119   4.234   4.663   8.094 -0.4021 -0.2760  0.1716
 5828SOL    HW129120   4.295   4.613   8.148  1.8238  1.2090 -0.9476
 5828SOL    HW229121   4.280   4.679   8.012  0.7439  0.1596  0.9036
 5829SOL     OW29122   2.736   2.335   6.843 -0.2195 -0.3486  0.8059
 5829SOL    HW129123   2.686   2.415   6.857  0.9011  0.2452  1.3476
 5829SOL    HW229124   2.696   2.313   6.759  0.5086  0.7010  0.1895
 5830SOL     OW29125   1.544   4.685   4.633 -0.7733  0.0060 -0.2918
 5830SOL    HW129126   1.601   4.711   4.705  0.5194  1.2689 -1.7523
 5830SOL    HW229127   1.460   4.714   4.668  0.2725  1.5791  0.9416
 5831SOL     OW29128   2.542   0.063   5.870 -0.0332  0.0124 -0.2319
 5831SOL    HW129129   2.621   0.099   5.910  0.1552 -0.4334 -0.1943
 5831SOL    HW229130   2.526   0.132   5.806  1.4936  1.0486  0.4941
 5832SOL     OW29131   1.212   2.819  15.196  0.4044  0.3754  0.5387
 5832SOL    HW129132   1.256   2.902  15.178 -0.5634  1.1935  1.9401
 5832SOL    HW229133   1.239   2.772  15.117 -1.9077  0.6871 -0.4693
 5833SOL     OW29134   1.372   4.096   7.441  0.7972  0.0769 -0.0923
 5833SOL    HW129135   1.308   4.087   7.512  0.0632  1.4199 -0.6021
 5833SOL    HW229136   1.444   4.040   7.471 -0.3874 -1.9693 -1.0524
 5834SOL     OW29137   3.606   2.048   2.936  0.1960  0.4098  0.0463
 5834SOL    HW129138   3.699   2.046   2.914 -0.3256  0.1897 -2.0824
 5834SOL    HW229139   3.574   2.025   2.849 -1.6271  1.2507  0.4945
 5835SOL     OW29140   2.562   2.931   4.414 -0.2395 -0.5630  0.1191
 5835SOL    HW129141   2.509   2.976   4.348 -1.7005  1.2931  2.5224
 5835SOL    HW229142   2.498   2.874   4.457 -0.6496 -0.9597 -1.0170
 5836SOL     OW29143   3.262   0.804   2.969  0.5822 -0.8188  0.3502
 5836SOL    HW129144   3.312   0.774   2.893 -0.4338  0.7621 -0.9414
 5836SOL    HW229145   3.309   0.764   3.042 -1.0071 -0.5613  1.5190
 5837SOL     OW29146   2.756   4.434   1.228  0.5237 -0.3165 -0.3016
 5837SOL    HW129147   2.664   4.445   1.206  0.6572 -0.2503 -0.8103
 5837SOL    HW229148   2.742   4.419   1.322 -3.2717 -1.0295 -0.9648
 5838SOL     OW29149   2.847   1.829   3.682 -0.1200  0.1951  0.6628
 5838SOL    HW129150   2.938   1.853   3.700  0.1978  0.6471 -1.5699
 5838SOL    HW229151   2.861   1.817   3.588 -0.5784 -1.2559  0.7709
 5839SOL     OW29152   1.456   1.335  11.494 -0.2246  0.2905  0.3098
 5839SOL    HW129153   1.454   1.260  11.554  0.5743 -2.0533 -2.5932
 5839SOL    HW229154   1.383   1.387  11.528  0.7372  0.7820  1.6228
 5840SOL     OW29155   1.477   0.092   4.128 -0.2675  0.0023 -0.2900
 5840SOL    HW129156   1.505   0.038   4.201 -0.6519  0.8073  0.4573
 5840SOL    HW229157   1.533   0.169   4.141 -1.2319  0.3959  1.4972
 5841SOL     OW29158   0.628   1.664   1.289  0.0240 -0.0243 -0.1734
 5841SOL    HW129159   0.618   1.744   1.340 -0.5521  0.3825 -0.9270
 5841SOL    HW229160   0.637   1.698   1.200  0.8436 -0.6562 -0.3351
 5842SOL     OW29161   2.983   3.051   6.264  0.0923  0.1730  0.1203
 5842SOL    HW129162   2.953   3.140   6.245  0.1898 -0.1100 -1.3686
 5842SOL    HW229163   3.048   3.035   6.195  1.4224  0.6159  1.2810
 5843SOL     OW29164   2.236   1.339  17.716  0.6570  0.2203  0.3821
 5843SOL    HW129165   2.268   1.347  17.627 -0.1364  0.7133  0.1436
 5843SOL    HW229166   2.317   1.325   0.020  0.4774 -2.2822 -0.0047
 5844SOL     OW29167   3.505   0.317   1.681  0.1084 -0.3326  0.6712
 5844SOL    HW129168   3.480   0.408   1.665  1.7543 -0.3868 -2.0718
 5844SOL    HW229169   3.597   0.327   1.658  0.1507 -0.6277  0.7071
 5845SOL     OW29170   1.571   3.742   4.966  0.5251  0.2700  0.1628
 5845SOL    HW129171   1.615   3.796   4.900  1.2213  1.2926  1.4606
 5845SOL    HW229172   1.596   3.657   4.929 -1.2653 -0.2388  0.1265
 5846SOL     OW29173   2.224   0.214   9.383  0.2209 -0.6360  0.2321
 5846SOL    HW129174   2.219   0.156   9.307  1.3634 -0.1283 -0.2271
 5846SOL    HW229175   2.318   0.233   9.384  0.2377 -0.7366  1.4395
 5847SOL     OW29176   2.422   0.461   8.545  0.1496 -0.0662  0.4293
 5847SOL    HW129177   2.333   0.436   8.570 -0.1081  0.5804  0.1619
 5847SOL    HW229178   2.398   0.551   8.521 -3.2621 -1.0499  0.2086
 5848SOL     OW29179   1.520   3.280   7.236  0.5023  0.4661  0.0888
 5848SOL    HW129180   1.481   3.255   7.152 -0.7417  1.9848  0.2221
 5848SOL    HW229181   1.613   3.280   7.214  0.6203  0.9393  0.5834
 5849SOL     OW29182   3.308   0.026   8.799  0.0229  0.3559  0.2286
 5849SOL    HW129183   3.240   0.092   8.814  0.8919  0.9417  1.5686
 5849SOL    HW229184   3.259   4.684   8.824 -2.4716  1.9670  0.4559
 5850SOL     OW29185   3.733   2.498  15.755 -0.2692  0.4729  0.2164
 5850SOL    HW129186   3.713   2.470  15.844  0.3132 -0.5308  0.0235
 5850SOL    HW229187   3.663   2.446  15.715 -0.0552  0.8330 -0.6294
 5851SOL     OW29188   0.199   3.467   5.319 -0.5330  0.4018  0.0155
 5851SOL    HW129189   0.245   3.388   5.291 -0.1372  1.2832 -1.8181
 5851SOL    HW229190   0.276   3.519   5.343  0.1030 -1.0728  1.1288
 5852SOL     OW29191   2.909   2.517   7.819  0.2733 -0.1983  0.2834
 5852SOL    HW129192   2.946   2.429   7.814  2.0543  0.6804 -2.1137
 5852SOL    HW229193   2.973   2.582   7.846 -0.5767  1.5044 -1.7600
 5853SOL     OW29194   3.859   1.691  12.377  0.7680  0.3569  0.4571
 5853SOL    HW129195   3.860   1.771  12.324 -0.5786  0.4724  0.6009
 5853SOL    HW229196   3.848   1.624  12.309  0.3510  1.5505 -0.6512
 5854SOL     OW29197   3.939   0.173   5.428  0.5102  0.5584  0.3534
 5854SOL    HW129198   3.866   0.233   5.441 -2.2850 -2.5120 -1.2664
 5854SOL    HW229199   3.922   0.127   5.346 -0.0694  1.4323 -0.0140
 5855SOL     OW29200   3.529   3.645  14.297  0.0244 -0.6985 -0.1610
 5855SOL    HW129201   3.462   3.578  14.310 -0.9348  0.5997  1.6265
 5855SOL    HW229202   3.515   3.649  14.202  0.5130  0.4330 -0.1810
 5856SOL     OW29203   0.401   4.237  15.782  0.1298 -0.2860 -0.1836
 5856SOL    HW129204   0.325   4.179  15.783  0.6748 -0.9886  0.5423
 5856SOL    HW229205   0.385   4.293  15.706  2.6150 -1.1028 -1.3293
 5857SOL     OW29206   1.281   1.661   4.320  0.5343 -0.2972 -0.0929
 5857SOL    HW129207   1.259   1.572   4.346  1.2875  0.0158  1.6250
 5857SOL    HW229208   1.226   1.673   4.243  2.9145 -0.3486 -1.8243
 5858SOL     OW29209   3.534   4.287  13.438 -0.3944 -0.1258  0.2017
 5858SOL    HW129210   3.619   4.310  13.475  0.1535  2.2478 -2.5704
 5858SOL    HW229211   3.538   4.192  13.452 -1.1853 -0.4045 -1.4300
 5859SOL     OW29212   3.592   4.167   5.805  0.6670  0.1557 -0.0578
 5859SOL    HW129213   3.671   4.149   5.856  0.8805  2.8583  0.5562
 5859SOL    HW229214   3.538   4.106   5.854  2.9078 -1.3567  0.5537
 5860SOL     OW29215   0.482   2.819  13.166  0.1469  0.6714 -0.2358
 5860SOL    HW129216   0.418   2.852  13.229  1.0716 -1.0995  1.6335
 5860SOL    HW229217   0.528   2.896  13.132  2.1550  0.5646  2.2241
 5861SOL     OW29218   1.387   0.453   4.305  0.0607  0.3389 -0.3940
 5861SOL    HW129219   1.374   0.455   4.211  0.1648 -2.0993 -0.4591
 5861SOL    HW229220   1.458   0.516   4.300  0.4960 -0.1613 -0.5516
 5862SOL     OW29221   3.636   3.935   2.658 -0.4220 -0.3932 -0.6424
 5862SOL    HW129222   3.721   3.957   2.697 -0.8955 -0.9097  0.7124
 5862SOL    HW229223   3.568   3.979   2.710  2.1212 -1.0290  3.2615
 5863SOL     OW29224   0.397   3.621   5.425  0.2802  0.0936  0.0109
 5863SOL    HW129225   0.411   3.709   5.459 -0.4328  1.0396 -2.1592
 5863SOL    HW229226   0.422   3.570   5.502 -1.9787 -2.4135 -0.8960
 5864SOL     OW29227   2.754   2.321   3.564 -0.1347  0.3194  0.5955
 5864SOL    HW129228   2.748   2.345   3.656 -0.5855 -0.2618  0.7116
 5864SOL    HW229229   2.690   2.250   3.564  1.6897 -1.3205 -1.3231
 5865SOL     OW29230   2.453   3.305   8.634  0.2679  0.0654  0.3360
 5865SOL    HW129231   2.525   3.247   8.609  0.1731 -0.7924  2.0403
 5865SOL    HW229232   2.380   3.259   8.593  0.8572 -0.9163  0.3826
 5866SOL     OW29233   3.775   4.722   4.235  0.0082  0.2308 -0.1079
 5866SOL    HW129234   3.863   0.005   4.266 -0.7201 -0.6311  2.4474
 5866SOL    HW229235   3.795   4.649   4.176 -1.0540 -1.0440  1.1303
 5867SOL     OW29236   3.228   2.686   7.840 -0.1321  0.7907 -0.7090
 5867SOL    HW129237   3.279   2.637   7.905  1.8159  1.4741 -1.7494
 5867SOL    HW229238   3.245   2.772   7.878  1.9800 -1.1019  2.6243
 5868SOL     OW29239   2.341   0.252   6.258 -0.1350  0.3422 -0.3284
 5868SOL    HW129240   2.335   0.184   6.325 -1.6421 -0.5019 -1.3432
 5868SOL    HW229241   2.383   0.315   6.317  1.1334  1.2654 -2.2116
 5869SOL     OW29242   2.122   3.438   6.713 -0.0199  0.2816 -0.8224
 5869SOL    HW129243   2.045   3.399   6.671 -0.9794 -0.4553  1.5991
 5869SOL    HW229244   2.077   3.488   6.781 -0.9662  1.7138 -2.5062
 5870SOL     OW29245   3.967   4.031  10.963 -0.0414 -0.3459  0.3337
 5870SOL    HW129246   4.040   4.089  10.983 -0.9604  0.9291  0.0626
 5870SOL    HW229247   4.013   3.950  10.944 -0.5259 -1.2181  2.9657
 5871SOL     OW29248   2.693   0.871   3.110 -0.2109  0.2010 -0.7645
 5871SOL    HW129249   2.617   0.901   3.160  1.8114  1.8938  1.3166
 5871SOL    HW229250   2.760   0.867   3.179 -0.0341 -0.0663 -0.9523
 5872SOL     OW29251   4.249   0.837  11.681 -0.0626  0.3170 -0.0818
 5872SOL    HW129252   4.289   0.767  11.628  2.8976  2.3965 -0.5848
 5872SOL    HW229253   4.283   0.914  11.637  0.2252  0.1595 -0.1366
 5873SOL     OW29254   4.076   3.574   0.809  0.1616 -0.1086 -0.8785
 5873SOL    HW129255   4.164   3.589   0.843 -1.0700  1.5431  1.6312
 5873SOL    HW229256   4.014   3.581   0.882  1.7618  2.4752  0.2413
 5874SOL     OW29257   0.635   2.329   3.933  0.3123  0.6067 -0.2104
 5874SOL    HW129258   0.627   2.424   3.923 -0.7272  0.3405 -1.9756
 5874SOL    HW229259   0.613   2.292   3.847  0.8532 -0.7843  0.2429
 5875SOL     OW29260   3.198   3.048  10.269 -0.0447  0.0948 -0.0747
 5875SOL    HW129261   3.199   3.144  10.261  0.7587  0.0973  0.0442
 5875SOL    HW229262   3.131   3.025  10.204  0.9033  1.4212 -1.5245
 5876SOL     OW29263   2.069   0.644   8.215 -0.2727  0.2803  0.3825
 5876SOL    HW129264   1.989   0.696   8.212  0.2181  1.0882  1.1646
 5876SOL    HW229265   2.066   0.615   8.306  1.0885  1.9748  0.9672
 5877SOL     OW29266   0.465   2.544   6.198  0.2537 -0.4650  0.1826
 5877SOL    HW129267   0.544   2.575   6.242  0.0837 -2.3316  1.8364
 5877SOL    HW229268   0.429   2.481   6.261  1.3488 -0.7923  0.4788
 5878SOL     OW29269   1.705   2.484  16.683  0.3607 -0.2316 -0.4001
 5878SOL    HW129270   1.637   2.485  16.751 -1.3579 -0.2517 -2.1357
 5878SOL    HW229271   1.779   2.533  16.720 -0.8751  0.7792  0.7333
 5879SOL     OW29272   4.184   1.753   8.866  0.1449  0.0500  0.6162
 5879SOL    HW129273   4.197   1.661   8.843  0.9294  0.4252 -0.4906
 5879SOL    HW229274   4.219   1.744   8.955 -0.5624 -0.9078  0.7985
 5880SOL     OW29275   0.345   0.908   3.732 -0.0333 -0.4885 -0.1584
 5880SOL    HW129276   0.416   0.848   3.752  0.8916 -0.1661 -2.4686
 5880SOL    HW229277   0.293   0.897   3.811 -1.3202 -1.5925 -1.1633
 5881SOL     OW29278   0.755   3.084   9.169  0.5818 -0.0666  0.4343
 5881SOL    HW129279   0.777   3.174   9.142 -1.3183  0.4925  0.7754
 5881SOL    HW229280   0.839   3.041   9.149 -0.6009 -1.5519 -1.3264
 5882SOL     OW29281   3.308   1.091  15.021 -0.6194 -0.4961  0.3229
 5882SOL    HW129282   3.322   1.019  15.083  0.0471 -1.4363 -0.9422
 5882SOL    HW229283   3.338   1.046  14.943 -3.6032 -0.4668 -0.8291
 5883SOL     OW29284   1.141   3.209   8.863  0.6151 -0.2385  0.0839
 5883SOL    HW129285   1.171   3.161   8.940 -0.5191 -1.1085 -0.0081
 5883SOL    HW229286   1.223   3.241   8.826  0.2509 -1.2936 -1.6517
 5884SOL     OW29287   2.714   2.495   1.409  0.0479 -0.0398  0.0745
 5884SOL    HW129288   2.755   2.466   1.328 -2.3073 -4.4114  0.4495
 5884SOL    HW229289   2.753   2.445   1.480  0.4489  0.6893  0.3697
 5885SOL     OW29290   3.242   4.404   4.990 -0.5298 -0.1416 -0.1456
 5885SOL    HW129291   3.312   4.469   4.995  0.7783 -1.4879 -0.8042
 5885SOL    HW229292   3.164   4.452   5.016 -0.3977 -0.8637  1.5939
 5886SOL     OW29293   3.494   1.553   2.912  0.5445 -0.0736  0.4435
 5886SOL    HW129294   3.574   1.507   2.937 -0.1201 -1.0613  0.7228
 5886SOL    HW229295   3.429   1.483   2.911 -0.6626  1.0353  1.5039
 5887SOL     OW29296   3.785   0.493  15.406 -0.2506 -0.6553  0.7810
 5887SOL    HW129297   3.801   0.585  15.428  1.5544 -1.0771  1.2419
 5887SOL    HW229298   3.846   0.483  15.333  2.9836  0.0113  3.3917
 5888SOL     OW29299   2.340   4.178   5.763  0.1257  0.1237 -0.1346
 5888SOL    HW129300   2.335   4.093   5.807 -0.2964  0.5675  0.6784
 5888SOL    HW229301   2.364   4.233   5.838 -2.1214  1.0298 -0.0793
 5889SOL     OW29302   4.159   3.237   2.967  0.4207 -0.5695 -0.2644
 5889SOL    HW129303   4.100   3.224   3.041 -0.5219 -0.8683 -1.0608
 5889SOL    HW229304   4.218   3.307   2.995 -1.1922  1.2379 -1.4371
 5890SOL     OW29305   1.452   4.002   5.647  0.4979  0.3933  0.0271
 5890SOL    HW129306   1.476   3.926   5.594  3.0199  1.9995 -1.1295
 5890SOL    HW229307   1.358   4.006   5.628  0.4794  0.5707  0.1543
 5891SOL     OW29308   0.604   3.416   8.655 -0.2022  0.4142  0.2090
 5891SOL    HW129309   0.659   3.452   8.725 -0.8167  0.9830  0.3989
 5891SOL    HW229310   0.674   3.398   8.593 -1.5204 -1.2470 -0.7937
 5892SOL     OW29311   4.071   4.326  15.149  0.9916 -0.1465 -0.1201
 5892SOL    HW129312   4.074   4.422  15.142  3.4556 -0.2471 -0.7265
 5892SOL    HW229313   4.145   4.325  15.210  0.4832 -1.0312  0.4714
 5893SOL     OW29314   4.345   3.389   2.673  0.0921 -0.0948 -0.2917
 5893SOL    HW129315   4.375   3.361   2.587  0.0297 -2.1302  0.3505
 5893SOL    HW229316   4.252   3.407   2.656  1.1679  2.4402 -3.5156
 5894SOL     OW29317   0.240   0.892   7.968 -0.3665  0.0390  0.2310
 5894SOL    HW129318   0.210   0.855   7.885  0.6263 -2.8133  1.1530
 5894SOL    HW229319   0.281   0.969   7.928  2.9174 -0.8548  1.8639
 5895SOL     OW29320   0.776   3.783   8.168 -0.7470 -0.0326 -0.1570
 5895SOL    HW129321   0.849   3.791   8.229 -2.1337 -1.3055  1.6642
 5895SOL    HW229322   0.809   3.726   8.099 -0.8449  1.4326 -1.4229
 5896SOL     OW29323   4.488   4.384   9.903  0.2497  0.4142 -0.0960
 5896SOL    HW129324   4.571   4.341   9.923  0.4112  0.9633  0.4009
 5896SOL    HW229325   4.520   4.465   9.864  0.9269 -0.3071 -1.0371
 5897SOL     OW29326   0.667   3.104  12.913 -0.2305 -0.5548 -0.4715
 5897SOL    HW129327   0.744   3.156  12.887  0.4105 -1.2945 -0.0377
 5897SOL    HW229328   0.693   3.072  12.999  0.3862  0.7711 -0.1627
 5898SOL     OW29329   4.303   2.395   9.724  0.4022  0.2238 -0.2888
 5898SOL    HW129330   4.275   2.310   9.758 -1.0530  0.6710 -0.3787
 5898SOL    HW229331   4.220   2.442   9.729 -0.2462 -0.9544 -0.0189
 5899SOL     OW29332   0.277   1.134   8.421 -0.9905  0.3475  0.9052
 5899SOL    HW129333   0.303   1.190   8.494  0.3779  1.2407 -0.2662
 5899SOL    HW229334   0.183   1.146   8.406 -0.5581  0.4581 -1.7420
 5900SOL     OW29335   1.568   1.709   4.125  0.1617  0.2807 -0.3980
 5900SOL    HW129336   1.506   1.748   4.187 -0.8178 -1.4024 -0.3192
 5900SOL    HW229337   1.523   1.666   4.052  0.0847  0.4528 -0.4516
 5901SOL     OW29338   4.391   0.790   5.433  0.1695 -0.1861  0.1904
 5901SOL    HW129339   4.400   0.737   5.513  0.8259  2.1465  1.6625
 5901SOL    HW229340   4.425   0.735   5.362  0.1015  1.3895 -1.0475
 5902SOL     OW29341   2.986   3.363   3.516  0.5254  0.0522  0.2158
 5902SOL    HW129342   3.065   3.411   3.493  1.4638 -1.8195 -0.4494
 5902SOL    HW229343   2.975   3.300   3.445 -1.7962  0.8404 -0.1369
 5903SOL     OW29344   4.320   3.563   6.703  0.0842  0.3719  0.5237
 5903SOL    HW129345   4.412   3.540   6.711 -0.0584 -0.5091 -0.4672
 5903SOL    HW229346   4.296   3.562   6.796 -1.0311  1.0781  0.2497
 5904SOL     OW29347   4.516   1.712   5.058  0.2726 -0.4375 -0.2683
 5904SOL    HW129348   4.451   1.709   4.988  1.1977 -1.0308 -1.0987
 5904SOL    HW229349   4.511   1.629   5.107  1.1673 -0.4186 -0.1553
 5905SOL     OW29350   4.669   3.311   3.521 -0.0885  0.3253  0.0652
 5905SOL    HW129351   4.609   3.338   3.592  0.4195 -1.3551  1.1253
 5905SOL    HW229352   4.619   3.281   3.446  1.8489 -0.2386 -0.9947
 5906SOL     OW29353   0.522   1.024   6.368 -0.6558  0.7172  0.3170
 5906SOL    HW129354   0.446   1.082   6.355 -2.0482 -1.5998 -1.8481
 5906SOL    HW229355   0.525   1.003   6.461  1.4566  0.4188  0.1661
 5907SOL     OW29356   0.696   0.017   2.484 -0.5621 -0.0165 -0.0697
 5907SOL    HW129357   0.691   4.725   2.393  1.8755 -0.8259  0.0580
 5907SOL    HW229358   0.627   0.083   2.485  0.6131  1.2519 -0.8334
 5908SOL     OW29359   1.677   2.801   7.295  0.1283 -0.0837  0.2044
 5908SOL    HW129360   1.582   2.805   7.288  0.0984 -2.5300 -0.8080
 5908SOL    HW229361   1.723   2.816   7.213  1.3925 -3.5960  0.2729
 5909SOL     OW29362   0.312   1.728   1.789  0.0922  0.2380 -0.1782
 5909SOL    HW129363   0.396   1.715   1.834 -0.4972  2.4425  1.5853
 5909SOL    HW229364   0.295   1.634   1.784  0.5324  0.2717 -2.0407
 5910SOL     OW29365   3.452   3.901   7.114 -0.2852 -0.3938  0.5915
 5910SOL    HW129366   3.488   3.980   7.156 -0.0028 -0.6367  0.8023
 5910SOL    HW229367   3.515   3.830   7.125  0.0596  0.1100  1.8821
 5911SOL     OW29368   1.294   1.430   2.289 -0.1841 -0.4319  0.2573
 5911SOL    HW129369   1.272   1.337   2.296  0.5684 -0.5699  0.7856
 5911SOL    HW229370   1.218   1.454   2.236  0.2157  0.8031  0.2384
 5912SOL     OW29371   1.960   3.599   1.721  0.2224 -0.2089 -0.2237
 5912SOL    HW129372   1.926   3.688   1.727  1.8322  0.2629  1.9366
 5912SOL    HW229373   2.004   3.596   1.636  1.1268  2.2701  0.1612
 5913SOL     OW29374   2.195   3.348  10.286 -0.1228 -0.4029  0.3620
 5913SOL    HW129375   2.180   3.313  10.198  0.6628 -0.6771  0.3454
 5913SOL    HW229376   2.109   3.385  10.307  0.0492 -0.0801  0.5060
 5914SOL     OW29377   2.305   4.079   1.881  0.0227  0.0137 -0.1726
 5914SOL    HW129378   2.328   4.162   1.838  3.2797 -0.2045  1.1561
 5914SOL    HW229379   2.350   4.014   1.827 -1.0896 -1.2674  0.4491
 5915SOL     OW29380   2.760   2.238   7.125 -0.3849 -0.0362  0.0539
 5915SOL    HW129381   2.740   2.317   7.175  0.9765 -0.1060  0.6996
 5915SOL    HW229382   2.758   2.269   7.035 -0.1547  2.3394  0.8823
 5916SOL     OW29383   2.576   1.495  10.797  0.6458  0.4497 -0.2030
 5916SOL    HW129384   2.500   1.514  10.742 -0.8446  4.3839  3.1927
 5916SOL    HW229385   2.630   1.442  10.739  0.2428 -1.6234  1.3396
 5917SOL     OW29386   2.360   3.269   5.062  0.1950  0.5803  0.3001
 5917SOL    HW129387   2.450   3.256   5.032 -0.1759  2.5754 -1.6828
 5917SOL    HW229388   2.371   3.236   5.151  2.8868  0.0212 -0.2508
 5918SOL     OW29389   0.105   1.771   2.841 -0.3173 -0.2103 -0.0279
 5918SOL    HW129390   0.115   1.736   2.753  1.1741  0.8099 -0.2564
 5918SOL    HW229391   0.036   1.709   2.867 -0.8547  0.2445 -0.3615
 5919SOL     OW29392   1.985   4.362   9.763 -0.0155  0.3194 -0.1399
 5919SOL    HW129393   1.945   4.429   9.817 -1.4143  1.5480 -2.7506
 5919SOL    HW229394   1.949   4.280   9.797 -0.0506  0.4822  0.2124
 5920SOL     OW29395   4.399   1.983   0.885 -0.0295  0.2175 -0.2306
 5920SOL    HW129396   4.456   2.059   0.899  0.2599 -0.3370  1.5820
 5920SOL    HW229397   4.318   2.009   0.930 -0.0550 -0.2522 -0.0030
 5921SOL     OW29398   1.511   4.516  17.010  0.2172  0.4073 -0.0172
 5921SOL    HW129399   1.533   4.594  17.061  2.3570 -0.1487 -0.0850
 5921SOL    HW229400   1.468   4.550  16.931  2.0563 -0.5058 -1.3906
 5922SOL     OW29401   3.492   0.498   8.242  0.0573  0.2050 -0.0361
 5922SOL    HW129402   3.569   0.452   8.274  0.9177  0.8448 -1.2239
 5922SOL    HW229403   3.514   0.591   8.245 -0.2304  0.1742  2.8561
 5923SOL     OW29404   0.877   0.022  17.559 -0.9696 -0.1071 -0.7031
 5923SOL    HW129405   0.949   0.069  17.601 -0.6307 -0.9105 -0.3775
 5923SOL    HW229406   0.812   0.088  17.537 -1.0474  0.3987  1.0788
 5924SOL     OW29407   0.480   2.893   1.496 -0.5829  0.7480 -0.7178
 5924SOL    HW129408   0.526   2.954   1.553  0.3603 -2.7669  2.3126
 5924SOL    HW229409   0.400   2.945   1.496  0.2988  2.0823 -1.4309
 5925SOL     OW29410   0.335   4.703   6.700 -0.3366 -0.1508  0.0219
 5925SOL    HW129411   0.252   0.012   6.689 -1.5667 -2.1283  1.0524
 5925SOL    HW229412   0.307   4.614   6.683 -2.0167  0.5074 -0.6258
 5926SOL     OW29413   4.154   1.399  11.717 -0.1984 -0.2141  0.1223
 5926SOL    HW129414   4.158   1.380  11.623 -3.0327  0.7897 -0.2009
 5926SOL    HW229415   4.147   1.319  11.768  2.2780 -1.5321 -1.6329
 5927SOL     OW29416   1.203   3.142   7.577  0.6560 -0.3037  0.2471
 5927SOL    HW129417   1.249   3.066   7.613 -1.2401 -2.4626 -1.8522
 5927SOL    HW229418   1.281   3.194   7.555  1.6970 -2.3177 -0.8748
 5928SOL     OW29419   3.304   3.811  14.427  0.6751  0.0149  0.2013
 5928SOL    HW129420   3.389   3.771  14.409  0.4494 -0.9708  1.2984
 5928SOL    HW229421   3.330   3.837  14.515  3.0880  1.0161 -0.8060
 5929SOL     OW29422   2.055   1.708   7.850 -0.3709  0.3170  0.3379
 5929SOL    HW129423   1.983   1.657   7.813  0.9577 -2.3595  1.4089
 5929SOL    HW229424   2.124   1.650   7.817 -3.4084 -2.6684 -0.6840
 5930SOL     OW29425   1.468   0.130   7.323  0.0076 -0.1009  0.0882
 5930SOL    HW129426   1.412   0.176   7.385 -0.6175  1.6089 -1.7490
 5930SOL    HW229427   1.467   0.045   7.368 -2.1149  1.4657  2.9756
 5931SOL     OW29428   3.651   2.205   7.190  0.0400  0.2087  0.6976
 5931SOL    HW129429   3.603   2.136   7.145 -0.3574  0.6539  0.4331
 5931SOL    HW229430   3.730   2.191   7.138  0.1284  2.3091  0.2326
 5932SOL     OW29431   0.706   0.776  16.258 -0.0308  0.6402 -0.2337
 5932SOL    HW129432   0.625   0.801  16.215 -0.1378 -2.1875 -1.6641
 5932SOL    HW229433   0.732   0.861  16.294 -0.2125  0.4716  0.2977
 5933SOL     OW29434   0.413   3.927   3.222  0.5919 -0.0431  0.2719
 5933SOL    HW129435   0.430   3.893   3.309 -0.0250  3.3975  1.7433
 5933SOL    HW229436   0.318   3.916   3.215  0.8858 -1.7191 -1.1714
 5934SOL     OW29437   4.009   4.080   8.042 -0.3917  0.2421 -0.4746
 5934SOL    HW129438   3.950   4.073   8.117  0.1062  0.5279 -0.0500
 5934SOL    HW229439   4.072   4.144   8.075  0.4736 -0.5289 -0.6369
 5935SOL     OW29440   1.951   3.434   8.674  0.1039 -0.2686 -0.0494
 5935SOL    HW129441   1.932   3.342   8.690 -1.6629 -0.1861 -1.6676
 5935SOL    HW229442   2.043   3.428   8.699  0.6544  0.3938 -1.8982
 5936SOL     OW29443   4.736   4.473   1.917 -0.2173 -0.1461 -0.4784
 5936SOL    HW129444   4.730   4.406   1.849 -1.0674 -0.2000 -0.3479
 5936SOL    HW229445   4.661   4.531   1.905  0.3700 -0.0770 -3.6139
 5937SOL     OW29446   2.784   1.643   6.304 -0.6299  0.1269 -0.2907
 5937SOL    HW129447   2.808   1.642   6.211 -2.5390 -0.1191 -0.7855
 5937SOL    HW229448   2.868   1.626   6.345 -1.2869  1.5589  1.6865
 5938SOL     OW29449   4.016   1.853   9.403 -0.0677 -0.1477 -0.5054
 5938SOL    HW129450   3.941   1.910   9.423  1.1768  0.8357  1.3102
 5938SOL    HW229451   4.066   1.878   9.481 -0.3364 -2.5677  0.4398
 5939SOL     OW29452   2.683   2.771   1.483  0.0144  0.4062  0.0004
 5939SOL    HW129453   2.596   2.783   1.520  0.1618 -0.0197  0.4862
 5939SOL    HW229454   2.685   2.675   1.475  0.9363  0.4684 -0.6077
 5940SOL     OW29455   2.694   0.769   1.892 -0.4730 -0.2192  0.3652
 5940SOL    HW129456   2.700   0.717   1.813 -2.5620  0.7176 -0.4160
 5940SOL    HW229457   2.606   0.742   1.920 -0.6619  0.2131  0.1904
 5941SOL     OW29458   4.147   2.347  12.149  0.1096 -0.0491 -0.7093
 5941SOL    HW129459   4.056   2.318  12.161 -1.0176  2.8902 -2.0362
 5941SOL    HW229460   4.177   2.293  12.076 -0.1073 -0.0735 -0.7824
 5942SOL     OW29461   0.300   1.390  15.135 -0.1084  0.1563  0.1524
 5942SOL    HW129462   0.320   1.355  15.221 -2.6241 -1.5566  0.0375
 5942SOL    HW229463   0.214   1.349  15.126  1.1380 -2.6945  1.5742
 5943SOL     OW29464   4.038   1.252   4.096 -0.9311  0.2408 -0.6605
 5943SOL    HW129465   3.996   1.315   4.155 -0.5310  1.2705 -1.4580
 5943SOL    HW229466   4.131   1.254   4.122 -0.9504  2.4586 -0.7608
 5944SOL     OW29467   3.977   4.199   0.694  0.1964 -0.1090 -0.0914
 5944SOL    HW129468   3.971   4.110   0.730 -2.1852 -0.4472 -1.3620
 5944SOL    HW229469   3.884   4.219   0.690  0.2419  0.3455  1.0664
 5945SOL     OW29470   2.324   3.675   8.626 -0.1400  0.1141 -0.0915
 5945SOL    HW129471   2.384   3.632   8.686  0.6441  0.5874 -0.5308
 5945SOL    HW229472   2.367   3.761   8.622  0.6890 -0.2570  0.8561
 5946SOL     OW29473   3.939   1.003   9.117  0.6025 -0.0935 -0.4114
 5946SOL    HW129474   3.903   0.918   9.092  0.6200  0.0467 -0.9103
 5946SOL    HW229475   3.868   1.051   9.074 -0.8010 -1.9294 -0.1322
 5947SOL     OW29476   0.615   2.757   5.005 -0.4350 -0.4579  0.3908
 5947SOL    HW129477   0.693   2.710   5.035 -0.2510 -1.0655 -1.0649
 5947SOL    HW229478   0.578   2.702   4.936  0.2509 -0.4042 -0.0194
 5948SOL     OW29479   2.326   2.707   6.672  0.0573 -0.2877 -0.1226
 5948SOL    HW129480   2.243   2.689   6.629  0.1848 -0.0909 -0.4471
 5948SOL    HW229481   2.306   2.677   6.761 -0.1515 -1.2001 -0.4781
 5949SOL     OW29482   2.273   1.856   5.507  0.4384  0.2577  0.0728
 5949SOL    HW129483   2.252   1.858   5.600 -0.6174 -3.5895 -0.0674
 5949SOL    HW229484   2.221   1.931   5.478  1.3651  1.9939  2.9773
 5950SOL     OW29485   4.118   2.232   7.196  0.4279 -0.3166 -0.2486
 5950SOL    HW129486   4.182   2.220   7.266 -0.6643 -2.8229  0.3077
 5950SOL    HW229487   4.168   2.276   7.127  1.2535  0.3053  0.7537
 5951SOL     OW29488   2.506   2.586   8.284  0.1663 -0.2442 -1.1415
 5951SOL    HW129489   2.482   2.504   8.242  1.2317 -0.5421 -1.1788
 5951SOL    HW229490   2.481   2.650   8.218 -1.0085 -0.3594 -0.8075
 5952SOL     OW29491   3.077   3.032   7.537  0.0487 -0.5535 -0.0967
 5952SOL    HW129492   3.135   2.956   7.545  0.1882 -0.5993 -1.4499
 5952SOL    HW229493   3.060   3.039   7.443  1.3529  1.5531 -0.1716
 5953SOL     OW29494   1.820   4.682  16.632 -0.1489 -0.0793 -0.0042
 5953SOL    HW129495   1.797   4.646  16.718 -2.1518  3.8227  1.0570
 5953SOL    HW229496   1.914   4.697  16.639  0.1959 -2.1543 -0.1273
 5954SOL     OW29497   4.734   0.364   4.298  0.0502  0.0483  0.0786
 5954SOL    HW129498   4.665   0.320   4.348 -0.0622  1.4318  1.1488
 5954SOL    HW229499   0.011   0.312   4.219  0.1738 -0.3420  0.3585
 5955SOL     OW29500   0.644   2.896   5.762 -0.0180 -0.2104 -0.2459
 5955SOL    HW129501   0.550   2.914   5.760  0.2857  1.3834 -0.2539
 5955SOL    HW229502   0.651   2.871   5.670 -2.6361  1.4014 -0.8567
 5956SOL     OW29503   1.614   0.995  11.501 -0.2924 -0.3963 -0.0379
 5956SOL    HW129504   1.615   0.931  11.572  0.4048 -1.1972 -0.7782
 5956SOL    HW229505   1.592   0.940  11.426 -0.6525  0.3370 -0.4731
 5957SOL     OW29506   3.909   0.030   5.944 -0.3793 -0.1703  0.1256
 5957SOL    HW129507   3.848   0.054   5.873  1.6655  0.6359 -1.3573
 5957SOL    HW229508   3.905   4.671   5.940  0.6164 -0.2494  1.2940
 5958SOL     OW29509   1.545   1.377  12.051  0.4180  0.1600 -0.0598
 5958SOL    HW129510   1.460   1.393  12.092  0.7292 -0.1812  0.7165
 5958SOL    HW229511   1.551   1.282  12.059 -0.8273  0.1305  0.5690
 5959SOL     OW29512   2.228   1.990  17.560  0.0795  0.0028 -0.0570
 5959SOL    HW129513   2.192   1.916  17.609  0.5384 -0.3174 -0.2070
 5959SOL    HW229514   2.207   2.060  17.621 -0.7843  0.8918 -1.3665
 5960SOL     OW29515   1.585   3.771   2.776  0.4983 -0.6648 -0.2164
 5960SOL    HW129516   1.639   3.714   2.831  0.2915  0.0060  0.6955
 5960SOL    HW229517   1.494   3.747   2.797  0.3270  0.3476  0.1777
 5961SOL     OW29518   4.437   2.132   8.015 -0.5657  0.0986  0.0929
 5961SOL    HW129519   4.373   2.093   7.955  1.1703 -0.2097 -1.5892
 5961SOL    HW229520   4.508   2.150   7.953 -2.3905  2.6491 -1.2471
 5962SOL     OW29521   4.243   0.226   6.932 -0.0263  0.0833 -0.3498
 5962SOL    HW129522   4.180   0.161   6.962 -0.2285 -0.2448 -1.5121
 5962SOL    HW229523   4.193   0.307   6.940 -0.5605 -0.2266 -0.5184
 5963SOL     OW29524   0.148   0.759   9.552 -0.2942 -0.3786 -0.2298
 5963SOL    HW129525   0.090   0.808   9.493  0.1317 -1.0904 -1.2203
 5963SOL    HW229526   0.086   0.699   9.595 -1.3041  0.2771 -0.7727
 5964SOL     OW29527   4.117   4.417  16.460  0.3303 -0.1221 -0.0940
 5964SOL    HW129528   4.030   4.416  16.421  0.5594 -0.7197 -0.5861
 5964SOL    HW229529   4.107   4.481  16.530 -0.3476 -0.7303  0.3718
 5965SOL     OW29530   2.688   3.380   8.997 -0.4568  0.5941 -0.4226
 5965SOL    HW129531   2.728   3.467   8.993 -0.4555  0.7419  2.3504
 5965SOL    HW229532   2.748   3.335   8.938 -1.8295 -0.3743 -1.0968
 5966SOL     OW29533   3.564   0.453  14.406  0.3058 -0.5048 -0.2908
 5966SOL    HW129534   3.509   0.506  14.349  1.5932 -0.4152 -1.4715
 5966SOL    HW229535   3.628   0.517  14.436 -2.0922  1.3246  0.8860
 5967SOL     OW29536   2.146   3.269   9.444  0.0743 -0.0749  0.2576
 5967SOL    HW129537   2.144   3.342   9.382  1.0825  0.2202  0.5653
 5967SOL    HW229538   2.172   3.201   9.382 -2.3588  0.7919 -1.7124
 5968SOL     OW29539   2.248   4.675  12.142  0.6376  0.1434 -0.2826
 5968SOL    HW129540   2.168   4.648  12.097 -0.1771 -1.1489  1.9561
 5968SOL    HW229541   2.249   0.031  12.119 -1.4535  0.3806  0.6119
 5969SOL     OW29542   3.022   4.502   5.484 -0.6072  0.3896  0.7886
 5969SOL    HW129543   2.980   4.467   5.563  1.1111 -2.1502  0.6018
 5969SOL    HW229544   2.983   4.454   5.410  0.0164 -1.3415  1.5644
 5970SOL     OW29545   3.498   2.363  13.535  0.3156 -0.5233 -0.4672
 5970SOL    HW129546   3.564   2.337  13.472  2.0219 -2.0173  1.9635
 5970SOL    HW229547   3.546   2.405  13.606 -0.4671 -2.4808  1.1998
 5971SOL     OW29548   1.789   1.771   6.341  0.0159  0.1323 -0.2235
 5971SOL    HW129549   1.861   1.708   6.335 -0.8544 -0.9320  0.4705
 5971SOL    HW229550   1.816   1.842   6.284 -2.0198 -0.9947 -2.5905
 5972SOL     OW29551   3.819   3.047   1.443  0.2646  0.4570  0.5959
 5972SOL    HW129552   3.821   3.111   1.515  1.7924  1.1549 -0.0709
 5972SOL    HW229553   3.842   2.967   1.491  0.4059  1.6029  2.4435
 5973SOL     OW29554   3.298   1.680  17.140  0.2293 -0.1179  0.0145
 5973SOL    HW129555   3.320   1.655  17.050  2.3805  0.2519  0.4502
 5973SOL    HW229556   3.378   1.730  17.154 -0.3098  0.6292  0.4818
 5974SOL     OW29557   2.985   0.551   2.387 -0.7610 -0.2722  0.6870
 5974SOL    HW129558   3.069   0.597   2.383  0.9237 -3.4300 -0.3960
 5974SOL    HW229559   2.948   0.575   2.472 -2.3697 -1.3087  0.2787
 5975SOL     OW29560   2.475   1.123   9.255 -0.3259  0.4093  0.3916
 5975SOL    HW129561   2.489   1.099   9.346  2.4524  1.6053  0.2774
 5975SOL    HW229562   2.497   1.216   9.252 -0.9130  0.5028 -1.3540
 5976SOL     OW29563   3.121   3.673   5.611 -0.1321 -0.0197  0.0367
 5976SOL    HW129564   3.039   3.668   5.659 -0.7401  2.8615 -0.7000
 5976SOL    HW229565   3.176   3.634   5.679  0.4292  0.3896 -0.1793
 5977SOL     OW29566   4.081   2.299   2.403 -0.1704 -0.3996  0.6356
 5977SOL    HW129567   4.119   2.378   2.441  1.7740 -0.6554 -0.7967
 5977SOL    HW229568   4.152   2.235   2.400  0.6226  0.4174  1.7846
 5978SOL     OW29569   3.896   4.398   2.021  0.0989 -0.6693 -0.3925
 5978SOL    HW129570   3.985   4.426   1.999 -0.7482  0.7103 -2.1006
 5978SOL    HW229571   3.863   4.476   2.065 -0.2694 -0.0972 -1.6800
 5979SOL     OW29572   0.218   0.160   2.267  0.0363  0.2761  0.5472
 5979SOL    HW129573   0.151   0.202   2.213  1.0873  1.1310 -0.0879
 5979SOL    HW229574   0.296   0.214   2.259 -0.0953  0.7653  2.5739
 5980SOL     OW29575   4.221   2.220  11.893  0.1898  0.3889  0.2071
 5980SOL    HW129576   4.181   2.150  11.841 -0.4335  1.3895 -0.6641
 5980SOL    HW229577   4.311   2.190  11.891 -0.2481 -1.0278  2.0321
 5981SOL     OW29578   1.428   3.819   8.226 -0.4471  0.4153 -0.6815
 5981SOL    HW129579   1.409   3.859   8.142  0.5383  1.1111 -0.5713
 5981SOL    HW229580   1.438   3.898   8.280 -0.1694 -0.1421  0.0929
 5982SOL     OW29581   2.677   2.599   3.103 -0.0960 -0.2687  0.0543
 5982SOL    HW129582   2.698   2.586   3.195 -0.5115  0.9602  0.3152
 5982SOL    HW229583   2.666   2.693   3.090  0.9118 -0.3437 -1.3996
 5983SOL     OW29584   4.484   0.286   5.877  0.7137 -0.1115  0.0075
 5983SOL    HW129585   4.481   0.199   5.918  1.2356  0.9607  2.2822
 5983SOL    HW229586   4.446   0.339   5.947 -0.2393  0.6038 -1.0558
 5984SOL     OW29587   3.976   1.171   8.280 -0.4028  0.5092  0.2730
 5984SOL    HW129588   3.886   1.184   8.308 -0.9764 -0.9666 -0.8951
 5984SOL    HW229589   4.002   1.262   8.267  0.7836  0.0951 -0.2768
 5985SOL     OW29590   0.229   0.147  14.509  1.0130  0.7913 -0.0217
 5985SOL    HW129591   0.187   0.063  14.489 -2.9750  2.4563  1.4919
 5985SOL    HW229592   0.238   0.181  14.420  2.2427 -1.8007 -0.9005
 5986SOL     OW29593   3.809   4.325   7.786  0.6415  0.8114  0.7601
 5986SOL    HW129594   3.851   4.318   7.700 -0.0513 -0.9481  0.5573
 5986SOL    HW229595   3.854   4.397   7.830 -1.0202  0.8634  2.3601
 5987SOL     OW29596   1.386   4.411   4.352  0.0717  0.3111  0.2661
 5987SOL    HW129597   1.434   4.427   4.271 -0.6201 -0.8415 -0.3685
 5987SOL    HW229598   1.449   4.434   4.420  0.0139 -0.4159  0.5627
 5988SOL     OW29599   3.143   0.729   7.878  0.0428  0.3547  0.0253
 5988SOL    HW129600   3.134   0.634   7.877  1.9441  0.1845  0.8243
 5988SOL    HW229601   3.234   0.746   7.901  0.4963 -0.9188 -0.8323
 5989SOL     OW29602   0.312   3.211   0.505  0.7085  0.3529  0.2014
 5989SOL    HW129603   0.391   3.158   0.498  0.0769 -0.3214 -1.7279
 5989SOL    HW229604   0.282   3.204   0.415 -0.8980 -0.6329  0.8228
 5990SOL     OW29605   0.142   4.654   2.417  0.2233  0.1227 -0.1530
 5990SOL    HW129606   0.129   4.735   2.368  3.9841  1.9599  1.8650
 5990SOL    HW229607   0.238   4.645   2.415  0.0857 -0.7091 -3.7895
 5991SOL     OW29608   0.029   1.452   2.978  0.4169 -0.4035 -0.1433
 5991SOL    HW129609   4.714   1.446   2.897 -2.0017 -1.2497  1.4695
 5991SOL    HW229610   0.001   1.528   3.028  1.1928 -0.0560 -0.2394
 5992SOL     OW29611   0.770   2.644  11.414  0.0343 -0.1298  0.0170
 5992SOL    HW129612   0.724   2.672  11.493  0.9546 -0.2950  0.6048
 5992SOL    HW229613   0.858   2.658  11.449  0.0429 -2.8896  1.1688
 5993SOL     OW29614   3.586   1.856   9.342 -0.3779  0.0943 -0.1257
 5993SOL    HW129615   3.663   1.910   9.326  0.8861 -1.5189  0.4673
 5993SOL    HW229616   3.512   1.916   9.347  0.2958  0.9782 -0.8142
 5994SOL     OW29617   3.980   0.174  15.132 -0.0084  0.1966  0.1598
 5994SOL    HW129618   3.892   0.210  15.118 -0.0082  1.0569  2.2950
 5994SOL    HW229619   4.006   0.132  15.050 -2.3153  0.6154 -0.7900
 5995SOL     OW29620   0.901   0.394   3.440  0.0971  0.1063  0.1467
 5995SOL    HW129621   0.896   0.451   3.364 -1.1873  0.5783  0.5873
 5995SOL    HW229622   0.882   0.311   3.398 -2.3356  0.3632  0.7412
 5996SOL     OW29623   1.301   2.344  10.649  0.2668  0.2347  0.3485
 5996SOL    HW129624   1.382   2.394  10.637 -0.6078  1.5214 -0.1766
 5996SOL    HW229625   1.241   2.410  10.613  0.5486  0.2015 -0.1751
 5997SOL     OW29626   0.390   3.842   7.951 -0.6656  0.2089  0.2643
 5997SOL    HW129627   0.466   3.783   7.946 -0.5967  0.5695 -2.5934
 5997SOL    HW229628   0.339   3.812   7.876 -1.0029 -0.3631  0.7242
 5998SOL     OW29629   4.366   2.699  14.606  0.3177 -0.2821 -0.3189
 5998SOL    HW129630   4.408   2.613  14.602 -0.5851 -0.6975 -0.9877
 5998SOL    HW229631   4.271   2.684  14.600  0.0706  1.7712 -1.5009
 5999SOL     OW29632   0.789   1.928  14.808  0.0898 -0.0111  0.3523
 5999SOL    HW129633   0.799   1.832  14.803 -0.4795  0.0747 -2.1920
 5999SOL    HW229634   0.870   1.959  14.848  0.2845  0.8704 -0.7354
 6000SOL     OW29635   0.546   3.044  13.485 -0.4387  0.0267  0.7630
 6000SOL    HW129636   0.480   2.977  13.502  2.0449 -2.2757  1.2338
 6000SOL    HW229637   0.487   3.113  13.455  0.9046  0.2929 -1.2516
 6001SOL     OW29638   2.298   3.434   9.803 -0.2589  0.1698  0.2359
 6001SOL    HW129639   2.333   3.384   9.878  1.5586 -0.0756 -0.7874
 6001SOL    HW229640   2.378   3.478   9.775 -0.3889 -0.8359 -1.6944
 6002SOL     OW29641   1.950   1.743   3.006  0.5920 -0.2625  0.0818
 6002SOL    HW129642   2.005   1.682   3.054  1.4574 -0.3386 -0.9958
 6002SOL    HW229643   1.895   1.777   3.076 -1.8220 -1.1115 -1.4174
 6003SOL     OW29644   3.058   3.151   3.844  0.4624 -0.0367  0.7883
 6003SOL    HW129645   3.108   3.176   3.922  0.7384 -1.0221  0.9287
 6003SOL    HW229646   3.123   3.155   3.774  1.3367 -2.6704  1.4443
 6004SOL     OW29647   3.481   4.526   3.606  0.3781  0.0751 -0.0683
 6004SOL    HW129648   3.559   4.485   3.569  0.1701 -0.1839 -0.2177
 6004SOL    HW229649   3.413   4.501   3.544 -0.6332 -1.2828  1.6004
 6005SOL     OW29650   2.043   3.617   6.922 -0.1115 -0.0280  0.1030
 6005SOL    HW129651   1.993   3.615   7.004  0.8845  0.7773  0.7278
 6005SOL    HW229652   1.996   3.688   6.879 -1.6358 -0.9570  0.2472
 6006SOL     OW29653   0.443   1.046  16.878 -0.0966  0.4100  0.6185
 6006SOL    HW129654   0.521   1.078  16.833  0.6480 -0.0256  1.6038
 6006SOL    HW229655   0.387   1.018  16.805  1.9489 -1.3618 -0.2547
 6007SOL     OW29656   4.433   1.826   3.858 -0.1442  0.2500  0.3318
 6007SOL    HW129657   4.484   1.897   3.896  0.6252 -0.7755  1.2437
 6007SOL    HW229658   4.398   1.802   3.943  1.9163 -0.0239  1.1099
 6008SOL     OW29659   0.693   4.321   0.027 -0.2754 -0.5469 -0.4390
 6008SOL    HW129660   0.788   4.331   0.028 -0.4954  1.5705 -1.1731
 6008SOL    HW229661   0.684   4.321  17.677 -0.9091 -1.7368 -0.3780
 6009SOL     OW29662   0.266   3.142   4.384 -0.1148  0.4754  0.7208
 6009SOL    HW129663   0.297   3.212   4.441 -0.7575  1.9250 -0.7342
 6009SOL    HW229664   0.265   3.191   4.303  0.5478  0.1507  0.5203
 6010SOL     OW29665   0.625   2.896   2.679 -0.0396  0.1466  0.0120
 6010SOL    HW129666   0.614   2.802   2.664 -0.5791  0.2385 -0.1724
 6010SOL    HW229667   0.719   2.898   2.693 -0.2415 -2.8414  1.6121
 6011SOL     OW29668   1.180   0.647   4.409 -0.6059 -1.2330 -0.4351
 6011SOL    HW129669   1.245   0.584   4.377 -2.4825 -3.0244 -0.6862
 6011SOL    HW229670   1.097   0.603   4.394 -0.3974 -1.4466 -0.9802
 6012SOL     OW29671   1.836   1.720   1.711  0.8852  0.3632 -0.1730
 6012SOL    HW129672   1.795   1.806   1.724  0.4535  0.1454 -0.1082
 6012SOL    HW229673   1.775   1.677   1.651  1.0819 -0.6188  0.3364
 6013SOL     OW29674   1.798   4.599   3.728 -0.0631  0.6941  0.6498
 6013SOL    HW129675   1.812   4.693   3.718 -1.2148  0.8935  1.0104
 6013SOL    HW229676   1.846   4.577   3.808  1.8643  0.3372 -0.5883
 6014SOL     OW29677   4.708   2.157   5.238  0.3743  0.1073 -0.1534
 6014SOL    HW129678   4.623   2.126   5.205 -0.2960  1.1052  0.6040
 6014SOL    HW229679   4.686   2.159   5.331  1.4043 -0.8589  0.0927
 6015SOL     OW29680   0.793   1.359   8.663  0.2417 -0.0776  0.1530
 6015SOL    HW129681   0.803   1.424   8.733 -0.8313 -0.4325  0.6393
 6015SOL    HW229682   0.880   1.320   8.661 -0.0133 -0.7098  1.2237
 6016SOL     OW29683   1.929   1.609  17.566 -0.0099  0.4359 -0.1274
 6016SOL    HW129684   1.959   1.523  17.596 -1.7433  0.1931  0.8782
 6016SOL    HW229685   1.846   1.617  17.612 -1.2066  0.7239 -2.3553
 6017SOL     OW29686   3.929   3.600   8.461  0.0681 -0.3759 -0.0581
 6017SOL    HW129687   3.927   3.513   8.501 -0.2247 -0.2088  0.2884
 6017SOL    HW229688   3.952   3.651   8.539  0.5077  2.6080 -2.1614
 6018SOL     OW29689   1.246   4.264   0.169  0.1007  0.4578 -0.5552
 6018SOL    HW129690   1.305   4.189   0.178 -0.5188  0.2114  1.5237
 6018SOL    HW229691   1.295   4.331   0.122  1.3396 -0.7096 -0.9431
 6019SOL     OW29692   1.030   3.275   7.042  0.0316 -0.1027  0.0073
 6019SOL    HW129693   0.940   3.307   7.050 -0.0735 -0.3671 -0.1159
 6019SOL    HW229694   1.078   3.356   7.024  0.2730 -0.4183 -0.7872
 6020SOL     OW29695   2.705   1.551   7.677  0.0394  0.1455 -0.0998
 6020SOL    HW129696   2.773   1.618   7.690 -0.2705  0.2882  0.8213
 6020SOL    HW229697   2.744   1.474   7.719  0.3526 -0.1019 -0.8442
 6021SOL     OW29698   0.755   0.813   5.862 -0.1838  0.4611 -0.3494
 6021SOL    HW129699   0.798   0.728   5.852  1.2595  1.3011 -1.3426
 6021SOL    HW229700   0.828   0.870   5.886 -0.1200  0.3937 -0.3841
 6022SOL     OW29701   2.274   4.463   8.815 -0.0131  0.4337  0.0216
 6022SOL    HW129702   2.347   4.402   8.815 -0.4409 -0.0903  0.7976
 6022SOL    HW229703   2.313   4.547   8.840 -0.1674 -1.0447  5.1596
 6023SOL     OW29704   2.436   3.910   5.128  0.1617  0.1582  0.1441
 6023SOL    HW129705   2.387   3.978   5.174  1.7744  0.9979  0.6012
 6023SOL    HW229706   2.438   3.935   5.035  0.3411  1.5843  0.5311
 6024SOL     OW29707   4.177   1.289   8.615  0.4309  0.0456 -0.9360
 6024SOL    HW129708   4.082   1.289   8.626  0.5333  1.3363 -0.1267
 6024SOL    HW229709   4.191   1.365   8.557 -0.7559  0.5261 -0.5873
 6025SOL     OW29710   0.352   0.558   5.182 -0.9084  0.1285 -0.3342
 6025SOL    HW129711   0.338   0.504   5.260  1.0853 -0.7358 -0.5880
 6025SOL    HW229712   0.314   0.502   5.115 -1.8235  0.5856 -0.2060
 6026SOL     OW29713   4.248   4.473   4.869 -0.4040  0.7335  0.1430
 6026SOL    HW129714   4.316   4.425   4.822  0.2652 -0.7877  2.6687
 6026SOL    HW229715   4.298   4.497   4.946 -0.4770 -1.2450  0.8239
 6027SOL     OW29716   2.953   4.436   6.374 -0.0305 -0.2856  0.3831
 6027SOL    HW129717   3.045   4.423   6.353  0.0056  3.4074 -1.7725
 6027SOL    HW229718   2.904   4.360   6.344  0.0795  0.3800 -1.4411
 6028SOL     OW29719   2.947   3.220  13.636 -0.8700  0.0500 -0.5059
 6028SOL    HW129720   2.947   3.314  13.616 -1.6670  0.3086  0.6706
 6028SOL    HW229721   2.956   3.216  13.732 -1.4753 -0.9427 -0.4931
 6029SOL     OW29722   4.157   1.480   3.232 -0.1192  0.1702  0.4843
 6029SOL    HW129723   4.177   1.474   3.325 -0.3917  2.5068  0.7065
 6029SOL    HW229724   4.076   1.429   3.225 -0.9383  1.1108  3.1702
 6030SOL     OW29725   1.173   2.129   8.207 -0.4429  0.2048 -0.2849
 6030SOL    HW129726   1.199   2.202   8.263  0.1295 -0.9435  0.9644
 6030SOL    HW229727   1.185   2.173   8.123 -1.8691  1.1204  0.0013
 6031SOL     OW29728   2.832   4.256   0.602 -0.4564 -0.2015 -0.6925
 6031SOL    HW129729   2.896   4.195   0.568  0.3077  0.1041  0.1973
 6031SOL    HW229730   2.753   4.233   0.552 -1.3393 -0.8802  0.9892
 6032SOL     OW29731   0.057   1.678  16.023 -0.3600 -0.2496 -0.5402
 6032SOL    HW129732   0.082   1.727  16.102 -0.7087 -0.9425 -0.0001
 6032SOL    HW229733   4.701   1.701  16.015 -0.0763  0.5395 -1.5902
 6033SOL     OW29734   4.092   4.127   1.409 -0.1643 -0.1162  0.4571
 6033SOL    HW129735   4.053   4.177   1.481  1.6366 -0.7411  1.8767
 6033SOL    HW229736   4.012   4.112   1.358  0.0578 -0.1061  0.1063
 6034SOL     OW29737   2.857   1.793  16.360 -0.1790  0.8554  0.3025
 6034SOL    HW129738   2.852   1.798  16.456 -0.8817  1.7314  0.2148
 6034SOL    HW229739   2.834   1.884  16.343 -1.0423  0.3938 -0.9647
 6035SOL     OW29740   2.053   4.529  15.805 -0.1781 -0.5017  1.0465
 6035SOL    HW129741   2.098   4.586  15.867  0.6567 -1.2098  1.0919
 6035SOL    HW229742   2.097   4.537  15.720  2.0050  0.2168  2.2507
 6036SOL     OW29743   3.601   1.721   8.093  0.2999 -0.1871 -0.4741
 6036SOL    HW129744   3.555   1.768   8.162 -0.8624 -1.4146 -0.4092
 6036SOL    HW229745   3.689   1.757   8.103  1.1490 -1.7599 -2.1995
 6037SOL     OW29746   1.523   2.631  16.833  0.1002 -0.4684  0.0773
 6037SOL    HW129747   1.486   2.592  16.912 -0.7906 -0.3997 -0.3065
 6037SOL    HW229748   1.457   2.695  16.808  1.3682  1.0740  0.6578
 6038SOL     OW29749   0.961   4.646   0.187  0.2742 -0.0862  0.0414
 6038SOL    HW129750   1.011   4.646   0.269  0.2978 -1.4458  0.0375
 6038SOL    HW229751   1.019   4.705   0.139 -0.0558 -1.0124 -1.5089
 6039SOL     OW29752   4.105   1.105   2.578  0.3463  0.2121  0.0112
 6039SOL    HW129753   4.066   1.138   2.659 -1.1920  2.1370 -1.5361
 6039SOL    HW229754   4.098   1.171   2.510 -2.8163  0.0436  0.1672
 6040SOL     OW29755   4.625   4.105  11.844 -0.3881  0.2622  0.0204
 6040SOL    HW129756   4.666   4.095  11.758  0.4042  1.6283  0.2397
 6040SOL    HW229757   4.605   4.199  11.841 -0.8135  0.2153  1.4042
 6041SOL     OW29758   0.615   1.641   6.481  0.2503 -0.1141 -0.2390
 6041SOL    HW129759   0.680   1.668   6.546  1.2167  0.6669 -1.5156
 6041SOL    HW229760   0.622   1.546   6.485  3.6168  0.1260 -0.6963
 6042SOL     OW29761   2.294   2.963   5.009  0.1400 -0.3954  0.0046
 6042SOL    HW129762   2.341   3.011   4.941  0.0836 -0.8328 -0.3408
 6042SOL    HW229763   2.230   3.030   5.033  0.8259 -0.7330  2.7836
 6043SOL     OW29764   0.092   1.452  13.425 -0.2832 -0.1766 -0.1862
 6043SOL    HW129765   0.172   1.475  13.472  0.9617  0.5536 -2.6411
 6043SOL    HW229766   0.127   1.389  13.362 -0.0326  0.9708 -1.1953
 6044SOL     OW29767   1.932   3.988   6.388 -0.5402  0.1938  0.0575
 6044SOL    HW129768   1.955   4.078   6.410  0.0382  0.2625 -0.8045
 6044SOL    HW229769   2.021   3.956   6.403 -0.8878 -0.8193 -0.0105
 6045SOL     OW29770   4.099   0.325  12.542 -0.3891 -0.4425 -0.0896
 6045SOL    HW129771   4.137   0.373  12.615  0.2686 -0.5107 -0.3807
 6045SOL    HW229772   4.155   0.349  12.467 -2.8832 -1.0921 -2.1457
 6046SOL     OW29773   2.091   1.824   1.701 -0.4605  0.1191 -0.0716
 6046SOL    HW129774   1.997   1.802   1.704 -0.5875  0.5920 -0.5051
 6046SOL    HW229775   2.133   1.739   1.685  0.2631  0.7924 -1.7604
 6047SOL     OW29776   0.586   2.569   1.399 -0.1250  0.0120 -0.0495
 6047SOL    HW129777   0.577   2.609   1.485  2.1010 -2.3218  1.2605
 6047SOL    HW229778   0.600   2.479   1.429  0.1519  0.4755  1.1929
 6048SOL     OW29779   0.857   1.553  10.170  0.0248 -0.4750 -0.6007
 6048SOL    HW129780   0.800   1.536  10.246 -1.0608 -0.2934 -1.3769
 6048SOL    HW229781   0.792   1.585  10.107 -1.7855 -1.1684  0.8901
 6049SOL     OW29782   1.703   3.072  14.512  0.0866  0.4667 -0.3064
 6049SOL    HW129783   1.773   3.025  14.467  0.9701  1.0422  0.4762
 6049SOL    HW229784   1.715   3.155  14.467  0.2613  0.5393 -0.1273
 6050SOL     OW29785   1.106   0.924   9.132  0.3283 -0.4965 -0.1402
 6050SOL    HW129786   1.147   0.968   9.058  1.8111 -0.9849  0.4011
 6050SOL    HW229787   1.067   0.991   9.188  1.7123 -2.1643  2.8184
 6051SOL     OW29788   2.317   2.029   7.761  0.1991  0.5302  0.0885
 6051SOL    HW129789   2.325   1.936   7.779 -0.2952  0.8483  2.0762
 6051SOL    HW229790   2.406   2.063   7.770  0.4580  0.2840 -1.5768
 6052SOL     OW29791   2.986   1.921  16.037  0.1393 -0.3137  0.1136
 6052SOL    HW129792   3.025   1.863  15.972 -0.2778 -1.1664  0.6234
 6052SOL    HW229793   2.897   1.893  16.018 -0.6941  1.1077  2.0134
 6053SOL     OW29794   0.090   3.482   4.458 -0.0914 -0.2811  0.3148
 6053SOL    HW129795   0.048   3.537   4.524  0.2150 -0.7200  0.8744
 6053SOL    HW229796   0.124   3.423   4.525 -0.4373  0.5684  1.2289
 6054SOL     OW29797   3.570   3.573  15.850 -0.7521 -0.1924 -0.1618
 6054SOL    HW129798   3.611   3.508  15.793  1.0913 -0.1762  1.1533
 6054SOL    HW229799   3.523   3.638  15.798 -1.0928  0.8766  1.4948
 6055SOL     OW29800   2.582   2.481   9.337 -0.5333 -0.0364 -0.5264
 6055SOL    HW129801   2.657   2.459   9.392  0.4476 -0.3205 -1.9866
 6055SOL    HW229802   2.625   2.543   9.278 -1.0028  1.3829  0.6445
 6056SOL     OW29803   1.056   3.339   8.003 -0.2687 -0.2667  0.4038
 6056SOL    HW129804   1.078   3.402   7.934 -2.8286 -1.5829 -1.6150
 6056SOL    HW229805   1.109   3.263   7.979 -0.6311 -1.2204  2.7256
 6057SOL     OW29806   1.935   1.006   2.420  0.6700 -0.0032  0.4684
 6057SOL    HW129807   1.946   1.052   2.503  2.4293  0.4798 -0.0311
 6057SOL    HW229808   1.881   1.064   2.366 -1.8750 -1.7903  1.1001
 6058SOL     OW29809   2.084   4.016  11.438 -0.0347  0.1539 -0.7962
 6058SOL    HW129810   2.149   4.019  11.509 -0.2623 -1.4289 -0.5292
 6058SOL    HW229811   2.004   4.049  11.480  0.3016 -1.5233  1.1757
 6059SOL     OW29812   1.131   0.699  13.840  0.0144  0.1860  0.0298
 6059SOL    HW129813   1.096   0.697  13.751  0.8651 -1.1020 -0.2735
 6059SOL    HW229814   1.222   0.730  13.830 -0.0292  0.6781  1.1870
 6060SOL     OW29815   2.417   3.379   9.080  0.6082  0.2196 -0.6995
 6060SOL    HW129816   2.504   3.389   9.042 -0.1842  0.9254 -2.3287
 6060SOL    HW229817   2.378   3.466   9.082 -3.2804 -1.4972 -0.8704
 6061SOL     OW29818   0.271   4.638   7.225 -0.5697  1.1034 -0.4117
 6061SOL    HW129819   0.192   4.603   7.183 -0.5333  0.3911  0.1080
 6061SOL    HW229820   0.319   4.675   7.151  0.2391  0.4931 -0.1874
 6062SOL     OW29821   4.385   4.065   3.585  0.4112 -0.1863  0.1797
 6062SOL    HW129822   4.394   4.045   3.679 -1.1017  0.2073  0.4086
 6062SOL    HW229823   4.409   4.157   3.597 -0.0971 -0.0410  0.0517
 6063SOL     OW29824   2.780   3.442  12.640  0.1169  0.1954  0.1251
 6063SOL    HW129825   2.783   3.536  12.660  0.2807  0.0694  0.7057
 6063SOL    HW229826   2.793   3.404  12.727 -1.0831  0.0749  0.2441
 6064SOL     OW29827   4.299   2.783   4.062 -0.3685  0.3068 -0.8363
 6064SOL    HW129828   4.240   2.709   4.074 -2.5657  2.2204  0.1703
 6064SOL    HW229829   4.362   2.742   4.004 -0.8033  0.5398 -1.4734
 6065SOL     OW29830   4.203   1.240   9.490 -0.3453  0.3608 -0.1651
 6065SOL    HW129831   4.143   1.259   9.562 -1.9125  0.8368 -1.5894
 6065SOL    HW229832   4.136   1.241   9.421 -0.4229  2.0443 -0.0629
 6066SOL     OW29833   0.364   3.304   8.569 -0.1695 -0.2984  0.3338
 6066SOL    HW129834   0.336   3.382   8.522  1.8218  1.8198  2.6679
 6066SOL    HW229835   0.448   3.328   8.609 -0.3731  1.4267 -0.3108
 6067SOL     OW29836   2.967   2.670   8.067 -0.3815  0.3350 -0.2915
 6067SOL    HW129837   3.004   2.624   8.142  0.8170  1.6029 -0.1076
 6067SOL    HW229838   2.957   2.756   8.108 -1.8237  0.3192 -0.6077
 6068SOL     OW29839   2.760   1.844   5.343 -0.3988  0.2546  0.1520
 6068SOL    HW129840   2.851   1.816   5.346 -0.5590 -0.2886  0.0492
 6068SOL    HW229841   2.753   1.885   5.257  0.6741 -1.6952 -0.8462
 6069SOL     OW29842   2.048   4.587   2.462 -0.4864 -0.1204  0.5471
 6069SOL    HW129843   2.130   4.632   2.483  0.7776 -2.0359 -0.2393
 6069SOL    HW229844   2.049   4.521   2.531 -0.9043 -0.8208 -0.1115
 6070SOL     OW29845   1.432   1.599  17.408 -0.6427 -0.2215 -0.2678
 6070SOL    HW129846   1.481   1.670  17.449 -0.0287 -0.9512  0.2698
 6070SOL    HW229847   1.437   1.635  17.320  0.0128  0.3816  0.0209
 6071SOL     OW29848   4.676   3.693   4.597 -0.0342 -0.3770  0.3535
 6071SOL    HW129849   4.600   3.751   4.604  1.0870  0.7823  3.1268
 6071SOL    HW229850   0.003   3.729   4.658  0.6794  0.6010 -0.9567
 6072SOL     OW29851   1.739   2.352  14.861  0.1708 -0.5283 -0.5437
 6072SOL    HW129852   1.730   2.400  14.943  0.7952  0.4047 -1.0259
 6072SOL    HW229853   1.807   2.407  14.823 -1.4720  0.7807 -1.6087
 6073SOL     OW29854   1.492   1.273   5.839  0.2773 -0.0732  0.4103
 6073SOL    HW129855   1.442   1.299   5.916 -1.2147 -0.7139 -0.3468
 6073SOL    HW229856   1.577   1.244   5.874 -0.1175  0.9033  2.1727
 6074SOL     OW29857   4.247   3.956   5.247  0.0762  0.6246 -0.2208
 6074SOL    HW129858   4.175   4.002   5.204 -0.0634 -1.8983 -2.6938
 6074SOL    HW229859   4.303   4.031   5.270  0.1609  0.9053 -1.3234
 6075SOL     OW29860   2.100   3.401  15.358  0.6215 -0.5549 -0.7551
 6075SOL    HW129861   2.083   3.333  15.293 -1.0887  0.0175 -0.9137
 6075SOL    HW229862   2.184   3.423  15.319  0.6067 -0.5658 -0.7929
 6076SOL     OW29863   1.404   2.431  16.449 -0.1593  0.7134 -0.0462
 6076SOL    HW129864   1.322   2.435  16.499  0.4588  2.4637  0.8087
 6076SOL    HW229865   1.454   2.498  16.495 -0.5308 -0.4061  1.9857
 6077SOL     OW29866   4.634   3.287  11.253  0.2850  0.6198  0.0471
 6077SOL    HW129867   4.620   3.222  11.322 -1.5727  3.1508  2.0460
 6077SOL    HW229868   4.548   3.306  11.215 -0.3586 -2.6690 -0.1996
 6078SOL     OW29869   0.706   3.689  10.438  0.5147  0.2510  0.3095
 6078SOL    HW129870   0.657   3.615  10.474  1.3705 -1.0850 -1.2828
 6078SOL    HW229871   0.687   3.686  10.344  0.6898 -0.6687  0.3055
 6079SOL     OW29872   1.428   3.028  13.663 -0.6093  0.4730 -0.2606
 6079SOL    HW129873   1.477   2.956  13.703 -0.0747 -0.7897 -3.2121
 6079SOL    HW229874   1.374   3.043  13.741 -0.0456  0.4078  0.1431
 6080SOL     OW29875   0.938   3.445   5.056  0.2174  0.5330  0.2267
 6080SOL    HW129876   0.956   3.405   5.141 -1.0879 -2.9181 -1.1243
 6080SOL    HW229877   1.022   3.484   5.033  1.1448 -0.1679  2.4685
 6081SOL     OW29878   1.760   3.494   4.171 -0.8037 -0.4499  0.3131
 6081SOL    HW129879   1.744   3.553   4.097  0.4443  0.7539  0.9972
 6081SOL    HW229880   1.681   3.447   4.196 -2.0871  1.4073 -0.2704
 6082SOL     OW29881   4.234   1.435   4.980 -0.3047 -0.2576 -0.3883
 6082SOL    HW129882   4.322   1.412   4.949 -0.0135  1.3512 -0.7946
 6082SOL    HW229883   4.245   1.528   5.000 -0.5345 -0.2722 -0.1957
 6083SOL     OW29884   2.438   1.805   7.951 -0.0410  0.3996 -0.1549
 6083SOL    HW129885   2.426   1.736   8.016 -0.1660  0.9827  0.4386
 6083SOL    HW229886   2.424   1.882   8.006 -1.0554 -1.3529  2.0315
 6084SOL     OW29887   0.202   1.432   4.313  0.2239  0.2350  0.4837
 6084SOL    HW129888   0.265   1.383   4.260 -1.0716  0.8211 -1.5871
 6084SOL    HW229889   0.201   1.372   4.388  1.0274 -1.3674 -0.7790
 6085SOL     OW29890   0.609   0.916  16.631  0.0924 -0.2934  0.2614
 6085SOL    HW129891   0.612   0.948  16.541  0.6893  1.9441  1.0745
 6085SOL    HW229892   0.648   0.987  16.681  0.8215 -0.3899 -0.1635
 6086SOL     OW29893   3.151   0.930   7.067  0.1746 -0.3355  0.2082
 6086SOL    HW129894   3.164   1.003   7.128  0.0406 -1.2462  1.3350
 6086SOL    HW229895   3.124   0.977   6.989  0.3822 -0.1372  0.2566
 6087SOL     OW29896   4.208   1.996  11.274  0.0717 -0.5310  0.0202
 6087SOL    HW129897   4.266   1.999  11.350 -1.1044 -0.9717  0.9313
 6087SOL    HW229898   4.142   1.931  11.299 -0.7234  0.6735  1.0369
 6088SOL     OW29899   2.534   0.679   2.982  0.0246 -1.0295  0.8219
 6088SOL    HW129900   2.506   0.668   2.892  0.9822  1.5898  0.1771
 6088SOL    HW229901   2.585   0.761   2.978 -0.9499 -0.4458  0.3928
 6089SOL     OW29902   3.707   2.574   7.298 -0.3490 -0.0185  0.5579
 6089SOL    HW129903   3.797   2.607   7.293 -0.7580  1.4504  2.6250
 6089SOL    HW229904   3.692   2.596   7.206  0.4272 -1.1923  0.1489
 6090SOL     OW29905   0.659   0.210   5.994  0.6903 -0.3296  0.1357
 6090SOL    HW129906   0.634   0.125   5.956  0.1777 -1.0327  2.0262
 6090SOL    HW229907   0.749   0.194   6.023  0.1368  0.5434  2.2898
 6091SOL     OW29908   3.751   3.635   4.788  0.1743  0.5035 -0.1803
 6091SOL    HW129909   3.666   3.646   4.830  0.3826 -0.3411  0.4840
 6091SOL    HW229910   3.759   3.540   4.800  2.1592  0.9099  1.8113
 6092SOL     OW29911   3.068   0.937   2.675 -0.2095 -0.8175 -0.3260
 6092SOL    HW129912   3.074   0.885   2.755  0.4156 -0.1549  0.0603
 6092SOL    HW229913   3.147   0.911   2.627  0.8617  0.8579  0.5185
 6093SOL     OW29914   1.938   2.757  16.513 -0.6225  0.4971  0.2316
 6093SOL    HW129915   2.032   2.767  16.495 -0.5462  0.7765  0.7841
 6093SOL    HW229916   1.934   2.720  16.601  0.1117 -0.0925  0.0152
 6094SOL     OW29917   1.706   0.189  11.768  0.0080 -1.2546 -0.0232
 6094SOL    HW129918   1.763   0.265  11.760 -0.3676 -0.7234  2.2706
 6094SOL    HW229919   1.639   0.227  11.825 -0.7354 -1.4984 -0.7284
 6095SOL     OW29920   0.138   2.216   4.078  0.4702  0.2832 -0.2993
 6095SOL    HW129921   0.163   2.135   4.034  2.8385 -1.3867  4.0141
 6095SOL    HW229922   0.089   2.180   4.153 -0.1816  0.8501 -0.4580
 6096SOL     OW29923   3.624   4.379  17.100 -0.6156  0.4504 -0.0181
 6096SOL    HW129924   3.666   4.306  17.054 -1.5958 -1.0802  1.5431
 6096SOL    HW229925   3.633   4.359  17.193  1.3874  0.2843 -0.2583
 6097SOL     OW29926   2.879   0.826  10.141  0.4866  0.1822 -0.3406
 6097SOL    HW129927   2.842   0.909  10.172 -2.3194 -0.7057 -1.2728
 6097SOL    HW229928   2.832   0.772  10.205 -1.5617  0.1850 -1.8356
 6098SOL     OW29929   0.181   0.846   3.521 -0.6900  0.7277  0.0850
 6098SOL    HW129930   0.130   0.912   3.568  0.9069  3.1561 -1.5505
 6098SOL    HW229931   0.245   0.827   3.590 -2.1951 -1.1933  0.9415
 6099SOL     OW29932   0.607   0.335   6.929 -0.7141 -0.2095  0.1461
 6099SOL    HW129933   0.596   0.373   6.842 -1.5009  0.9327  0.7394
 6099SOL    HW229934   0.658   0.257   6.909 -0.7171  0.1476 -1.2413
 6100SOL     OW29935   1.476   2.340   8.215  0.5642 -0.1581  0.7800
 6100SOL    HW129936   1.541   2.366   8.280  1.5384 -2.2267  0.6350
 6100SOL    HW229937   1.397   2.340   8.270  0.0116  0.4776 -0.0155
 6101SOL     OW29938   4.100   3.607   5.852 -0.5623 -0.2945 -0.4351
 6101SOL    HW129939   4.096   3.650   5.766  1.2699 -0.3162 -0.5327
 6101SOL    HW229940   4.005   3.596   5.863 -0.7198  1.0153 -0.3921
 6102SOL     OW29941   4.728   1.171   9.408 -0.2984 -0.3454  0.6783
 6102SOL    HW129942   4.648   1.172   9.460 -0.4849  1.8060  0.3521
 6102SOL    HW229943   0.007   1.076   9.411  3.6880  0.2836 -1.7505
 6103SOL     OW29944   3.471   2.138   4.465  0.5406  0.4043 -0.5193
 6103SOL    HW129945   3.530   2.134   4.540 -2.1283  1.0814  1.5691
 6103SOL    HW229946   3.534   2.115   4.396  0.6688 -0.5692 -0.0620
 6104SOL     OW29947   3.205   2.748  13.286 -0.8183  0.1764  0.7160
 6104SOL    HW129948   3.261   2.696  13.343  0.1677 -0.5213 -0.8862
 6104SOL    HW229949   3.189   2.693  13.209  1.8909  2.2128 -1.3032
 6105SOL     OW29950   3.971   3.249   3.455  0.4074 -0.2576 -0.2418
 6105SOL    HW129951   3.929   3.163   3.451 -3.0002  1.3907 -0.0087
 6105SOL    HW229952   4.036   3.241   3.524 -1.5556 -2.4566  1.3244
 6106SOL     OW29953   3.882   3.087   6.825 -0.0122 -0.4209 -0.3343
 6106SOL    HW129954   3.964   3.041   6.840  1.7411  2.6085 -0.7259
 6106SOL    HW229955   3.889   3.149   6.897  0.0763 -0.5013 -0.2737
 6107SOL     OW29956   3.349   3.558   4.371 -0.0001  0.4903 -0.2303
 6107SOL    HW129957   3.411   3.485   4.362  1.0753  1.3515  0.0988
 6107SOL    HW229958   3.411   3.627   4.396 -0.9376  1.5160 -0.7945
 6108SOL     OW29959   2.588   2.371   6.026  0.2331  0.3879  0.6745
 6108SOL    HW129960   2.620   2.294   6.073 -1.6741  0.4568  2.0743
 6108SOL    HW229961   2.583   2.436   6.095  1.6025 -1.0898  2.1734
 6109SOL     OW29962   1.186   2.704   6.801  0.5886 -0.3506  0.0958
 6109SOL    HW129963   1.159   2.721   6.891 -2.7674 -1.2497 -0.7373
 6109SOL    HW229964   1.176   2.610   6.786 -2.4504  0.3186 -2.0033
 6110SOL     OW29965   1.956   3.450  10.349 -0.4025 -0.7097 -0.0540
 6110SOL    HW129966   1.929   3.535  10.384 -1.6266  0.1425 -3.0038
 6110SOL    HW229967   1.896   3.392  10.396 -0.4256 -1.2588 -0.7466
 6111SOL     OW29968   3.206   2.058   1.743 -0.1780  0.5812  0.1646
 6111SOL    HW129969   3.234   2.120   1.811  1.2258  2.3768 -2.0504
 6111SOL    HW229970   3.130   2.105   1.709 -1.0767  0.0505  1.4187
 6112SOL     OW29971   2.167   2.858   4.305 -0.0795 -0.4857 -0.1860
 6112SOL    HW129972   2.097   2.878   4.242  1.4881 -0.9427 -2.0512
 6112SOL    HW229973   2.171   2.762   4.302 -1.4329 -0.5193 -1.1499
 6113SOL     OW29974   1.325   1.306   6.774  0.0140  0.2795  0.5997
 6113SOL    HW129975   1.339   1.239   6.706 -0.0452  0.0509  0.8137
 6113SOL    HW229976   1.308   1.265   6.858  0.6169  1.6853  1.3999
 6114SOL     OW29977   2.164   3.596   7.668  0.2515 -0.8373  0.3781
 6114SOL    HW129978   2.210   3.526   7.715 -1.4848 -2.6448 -0.5668
 6114SOL    HW229979   2.157   3.668   7.731 -0.9727 -3.2324  2.9998
 6115SOL     OW29980   4.060   1.885  12.840  0.5371 -0.4039  0.0842
 6115SOL    HW129981   4.132   1.823  12.836  1.2377  0.4531 -0.7566
 6115SOL    HW229982   4.022   1.852  12.921  1.0788  0.2134  0.5859
 6116SOL     OW29983   1.760   0.144   5.484 -0.4680 -0.4199 -0.0451
 6116SOL    HW129984   1.800   0.099   5.558  0.0102 -0.3709 -0.2691
 6116SOL    HW229985   1.671   0.172   5.503  0.1234  2.2559 -1.1949
 6117SOL     OW29986   2.344   2.721  11.965 -0.6006  0.1343  0.1663
 6117SOL    HW129987   2.424   2.686  12.004  0.7675  2.8779 -0.1834
 6117SOL    HW229988   2.376   2.809  11.950 -0.8478  0.0350 -0.9223
 6118SOL     OW29989   4.403   2.767  13.781 -0.4559 -0.5300 -0.5384
 6118SOL    HW129990   4.454   2.701  13.828 -0.3337  1.2584  1.8302
 6118SOL    HW229991   4.423   2.844  13.834 -0.1119 -1.8844  1.2955
 6119SOL     OW29992   1.227   3.788   5.657 -0.0609  0.1070 -0.3101
 6119SOL    HW129993   1.199   3.874   5.688  2.4662  0.2860  1.4714
 6119SOL    HW229994   1.145   3.763   5.615  0.3082  1.4992 -1.8713
 6120SOL     OW29995   3.626   2.526   5.853  0.3092 -0.1133 -0.0607
 6120SOL    HW129996   3.559   2.478   5.903  0.9930  0.0444  1.0148
 6120SOL    HW229997   3.615   2.617   5.881 -1.0770 -0.8703  1.8578
 6121SOL     OW29998   4.440   4.346  11.120 -0.2969 -0.2609  0.7786
 6121SOL    HW129999   4.439   4.253  11.139 -1.3200 -0.5254 -0.6106
 6121SOL    HW230000   4.487   4.344  11.036  0.5448  0.4706  1.2293
 6122SOL     OW30001   1.679   2.756   5.062  0.3133  0.0503 -0.2169
 6122SOL    HW130002   1.669   2.661   5.050 -0.2325 -0.0736  1.2060
 6122SOL    HW230003   1.592   2.783   5.089  0.0744 -0.0681 -0.8834
 6123SOL     OW30004   0.041   3.514  17.477 -0.2675 -0.6680 -0.3093
 6123SOL    HW130005   0.119   3.563  17.504  1.9503 -3.0714 -2.3967
 6123SOL    HW230006   0.017   3.557  17.394 -1.7244  0.2483  0.5834
 6124SOL     OW30007   2.823   3.824   4.946 -0.5410 -0.1237  0.5924
 6124SOL    HW130008   2.820   3.837   5.041 -0.6333 -2.1951  0.8702
 6124SOL    HW230009   2.918   3.835   4.941 -0.7843  2.8662  2.4374
 6125SOL     OW30010   0.018   3.569   3.590  0.6753 -0.6072 -0.1162
 6125SOL    HW130011   0.002   3.479   3.563 -1.1124 -0.1004 -0.7468
 6125SOL    HW230012   4.674   3.609   3.559  0.4076 -0.6959  0.4652
 6126SOL     OW30013   0.838   2.568   1.670 -0.2269 -0.6281  0.1371
 6126SOL    HW130014   0.881   2.588   1.753 -0.9593 -0.3930  0.4603
 6126SOL    HW230015   0.752   2.607   1.686  0.2529  0.1626  0.7796
 6127SOL     OW30016   1.812   0.186  10.176  0.3833 -0.8727  0.2364
 6127SOL    HW130017   1.810   0.262  10.118 -1.7133 -1.8530 -1.0061
 6127SOL    HW230018   1.843   0.115  10.119 -0.4415 -0.2883 -0.9430
 6128SOL     OW30019   3.860   1.546   2.839 -0.9164  0.0806  0.3613
 6128SOL    HW130020   3.855   1.464   2.887 -0.0360 -0.1030  0.1523
 6128SOL    HW230021   3.942   1.574   2.880  0.1075  1.9482 -2.9244
 6129SOL     OW30022   1.064   3.977  12.920 -0.2047  0.3395 -0.3243
 6129SOL    HW130023   1.025   3.902  12.876  1.6517 -1.6996  1.5101
 6129SOL    HW230024   1.156   3.957  12.901 -0.0472  2.5302 -1.9435
 6130SOL     OW30025   3.457   0.229   0.132  0.7316  0.3797 -0.4400
 6130SOL    HW130026   3.532   0.281   0.159  3.5233 -2.3988 -2.8900
 6130SOL    HW230027   3.497   0.158   0.082 -0.2374  0.4977 -1.3865
 6131SOL     OW30028   4.098   3.128   1.607  0.5076  0.1610  0.0184
 6131SOL    HW130029   4.050   3.189   1.551 -1.0590 -0.6552  0.4855
 6131SOL    HW230030   4.028   3.097   1.664  0.8401  0.6528  0.6927
 6132SOL     OW30031   2.681   2.424   4.140  0.2254  0.4436  0.1778
 6132SOL    HW130032   2.719   2.419   4.052 -1.8830  1.6538 -0.8152
 6132SOL    HW230033   2.648   2.514   4.132 -2.7885 -0.5808  1.1183
 6133SOL     OW30034   0.275   1.324  10.990  0.4707  1.0884  0.1772
 6133SOL    HW130035   0.298   1.242  11.033 -2.9610 -0.0135 -0.0903
 6133SOL    HW230036   0.278   1.390  11.060  1.1374 -0.9971  2.1164
 6134SOL     OW30037   0.314   1.228   7.432  0.4387 -0.6161  0.2375
 6134SOL    HW130038   0.261   1.244   7.510  0.4138 -0.2956  0.1527
 6134SOL    HW230039   0.260   1.160   7.392 -1.6212  1.1716 -0.0108
 6135SOL     OW30040   1.056   1.089   8.136 -0.1676  0.6430  0.1564
 6135SOL    HW130041   0.991   1.096   8.065  0.1088 -2.6708 -0.4081
 6135SOL    HW230042   1.124   1.146   8.099 -1.2619  1.7814 -0.0961
 6136SOL     OW30043   1.524   4.024   6.382  0.0577 -0.2420 -0.0004
 6136SOL    HW130044   1.586   3.953   6.399 -1.6395 -1.1704  2.1772
 6136SOL    HW230045   1.546   4.047   6.291 -2.4417  0.6890 -0.3587
 6137SOL     OW30046   3.051   2.728  10.303 -0.2748  0.1836 -0.1071
 6137SOL    HW130047   3.017   2.644  10.272  2.1464 -0.6767 -0.4572
 6137SOL    HW230048   3.118   2.698  10.365 -1.3363  0.3723  1.1257
 6138SOL     OW30049   1.244   3.388   6.613  0.2604 -0.0368 -0.1737
 6138SOL    HW130050   1.179   3.385   6.542  0.6557  0.4696 -0.5561
 6138SOL    HW230051   1.245   3.296   6.638 -0.4898  0.3087  1.1500
 6139SOL     OW30052   4.672   3.040   4.267 -0.4771 -0.3925  0.4417
 6139SOL    HW130053   4.626   3.060   4.186 -0.8155 -0.2498  0.6664
 6139SOL    HW230054   4.659   3.114   4.326 -0.5748 -0.7468  0.8616
 6140SOL     OW30055   4.373   1.460   7.765 -0.0678 -0.0503 -0.2973
 6140SOL    HW130056   4.465   1.457   7.740 -0.4400  1.8526 -1.8980
 6140SOL    HW230057   4.347   1.542   7.725 -0.2755  0.6890  1.3571
 6141SOL     OW30058   3.348   1.648   3.354 -0.2243 -0.1998  0.4320
 6141SOL    HW130059   3.397   1.684   3.280 -1.0849  1.5161  0.6875
 6141SOL    HW230060   3.370   1.557   3.333 -1.5391 -0.8576  1.9577
 6142SOL     OW30061   2.145   3.822  17.650  0.0302  0.3455  0.1980
 6142SOL    HW130062   2.177   3.808  17.561  2.4407  1.4121  0.9191
 6142SOL    HW230063   2.187   3.744  17.687 -1.7123  0.0891  1.6118
 6143SOL     OW30064   2.354   3.263   2.605  0.2264 -0.5946 -0.5097
 6143SOL    HW130065   2.299   3.301   2.675  1.6309 -2.1084  1.3987
 6143SOL    HW230066   2.430   3.243   2.659  0.3031 -0.3820 -0.5365
 6144SOL     OW30067   1.424   4.455   8.989  0.4538  0.4115 -0.1719
 6144SOL    HW130068   1.428   4.367   8.953 -0.1164  1.4753 -2.8137
 6144SOL    HW230069   1.445   4.514   8.917  0.5248  1.4168  0.6786
 6145SOL     OW30070   1.238   3.144   5.979 -0.4272 -0.1651 -0.0462
 6145SOL    HW130071   1.143   3.146   5.990 -0.2994 -0.1917  1.0936
 6145SOL    HW230072   1.244   3.060   5.932  2.7298  0.3491 -0.5456
 6146SOL     OW30073   4.462   1.620  13.916  0.3701  0.4490  0.6917
 6146SOL    HW130074   4.383   1.575  13.888  0.4993  0.3075  0.5575
 6146SOL    HW230075   4.479   1.675  13.840  1.1949 -0.5351  0.1727
 6147SOL     OW30076   2.569   2.948   2.105 -0.1089 -0.6060 -0.7226
 6147SOL    HW130077   2.650   2.933   2.057 -0.9344  0.1527 -2.3975
 6147SOL    HW230078   2.544   2.860   2.131 -1.6421 -0.7164 -2.5141
 6148SOL     OW30079   0.116   3.018   8.515 -0.9329  0.0295 -0.3590
 6148SOL    HW130080   0.182   3.027   8.446  2.6604 -1.6752  2.8685
 6148SOL    HW230081   0.078   3.105   8.502  1.0376  0.6177 -2.1148
 6149SOL     OW30082   1.374   4.542  14.920  0.4207 -0.2672  0.2870
 6149SOL    HW130083   1.319   4.607  14.965  0.6267  0.3149 -0.3045
 6149SOL    HW230084   1.320   4.474  14.881  2.3978 -0.7039 -1.6718
 6150SOL     OW30085   1.643   2.332  13.781 -0.2085  0.3857  0.2820
 6150SOL    HW130086   1.715   2.357  13.838 -0.9644 -1.1666  1.9205
 6150SOL    HW230087   1.639   2.237  13.792  0.3755 -0.0593 -3.2714
 6151SOL     OW30088   1.732   0.711   8.882 -0.3890  0.4121 -0.2242
 6151SOL    HW130089   1.693   0.776   8.824  0.4777  1.5569  0.4622
 6151SOL    HW230090   1.819   0.752   8.877 -0.5005  0.8754  1.4266
 6152SOL     OW30091   0.339   3.456   0.691  0.1561  0.0355 -0.1707
 6152SOL    HW130092   0.315   3.379   0.640 -2.0984 -0.6605  1.9625
 6152SOL    HW230093   0.283   3.515   0.641  0.4571 -1.1314 -1.8785
 6153SOL     OW30094   2.805   2.670  12.511  0.3865 -0.0934  0.0368
 6153SOL    HW130095   2.758   2.621  12.444 -1.5599  1.7873  0.0228
 6153SOL    HW230096   2.805   2.605  12.582  1.6699  1.0642  1.1064
 6154SOL     OW30097   1.608   1.368   4.083  0.4751  0.3144 -0.2134
 6154SOL    HW130098   1.548   1.411   4.022 -0.6223 -0.5002  0.3045
 6154SOL    HW230099   1.585   1.424   4.157  2.3393 -0.0572  0.6691
 6155SOL     OW30100   2.977   1.869   4.809  0.4976 -0.8775  0.1837
 6155SOL    HW130101   3.053   1.909   4.766  1.3386 -1.8817  0.7215
 6155SOL    HW230102   3.020   1.810   4.872  0.6938 -1.1542 -0.2119
 6156SOL     OW30103   4.241   4.518   9.888  0.1030 -0.1616 -0.1400
 6156SOL    HW130104   4.326   4.475   9.900 -0.0393 -0.2860  0.4304
 6156SOL    HW230105   4.260   4.609   9.912  4.4541 -1.1523  0.2672
 6157SOL     OW30106   0.348   3.259  16.103  0.2046  0.0752 -0.0616
 6157SOL    HW130107   0.359   3.248  16.197  0.4786 -0.0503 -0.1069
 6157SOL    HW230108   0.409   3.191  16.073 -0.6898 -0.8325  0.2024
 6158SOL     OW30109   3.584   2.946  10.559  0.4110  0.0951 -0.0913
 6158SOL    HW130110   3.491   2.927  10.547  0.4748 -0.0662 -0.3454
 6158SOL    HW230111   3.613   2.931  10.469 -0.9760 -0.9891 -0.3646
 6159SOL     OW30112   4.094   0.586   8.555  1.1329 -0.3536  0.4240
 6159SOL    HW130113   4.145   0.647   8.608  1.2265  1.3072 -1.5726
 6159SOL    HW230114   4.091   0.649   8.483 -0.3704 -0.5478  0.3258
 6160SOL     OW30115   0.048   2.603   3.271 -0.0828 -0.1801 -0.1613
 6160SOL    HW130116   0.005   2.608   3.356 -0.6741 -2.1684 -0.3630
 6160SOL    HW230117   0.137   2.633   3.286 -0.5726  0.6942  0.9935
 6161SOL     OW30118   2.922   2.895   2.374  0.0607 -0.5412 -0.5667
 6161SOL    HW130119   2.920   2.957   2.301 -0.2154 -2.5400 -2.2537
 6161SOL    HW230120   2.967   2.818   2.339  1.6218 -0.3093  0.9645
 6162SOL     OW30121   2.437   2.691   8.044 -0.3246 -0.2087 -0.5874
 6162SOL    HW130122   2.525   2.663   8.020 -1.1027 -2.0347 -1.3463
 6162SOL    HW230123   2.452   2.785   8.040  0.3803 -0.3420 -1.2253
 6163SOL     OW30124   3.760   4.653   9.679  0.3091 -0.5999 -0.2431
 6163SOL    HW130125   3.839   4.706   9.684 -0.1167 -0.0634  0.8029
 6163SOL    HW230126   3.806   4.570   9.689 -0.7549 -1.1365  0.1895
 6164SOL     OW30127   3.615   1.304   1.635  0.0103  0.1228  0.2993
 6164SOL    HW130128   3.623   1.241   1.563 -0.7016  2.3999 -1.7947
 6164SOL    HW230129   3.523   1.289   1.658 -0.7028 -0.8831 -3.1309
 6165SOL     OW30130   0.841   1.279  12.669 -0.6339 -0.3738 -0.2601
 6165SOL    HW130131   0.851   1.336  12.592  1.7220 -2.3420 -1.4111
 6165SOL    HW230132   0.802   1.335  12.736  2.7182  1.7939 -0.1249
 6166SOL     OW30133   4.510   4.236   5.995  0.1117 -0.8637  0.4936
 6166SOL    HW130134   4.450   4.166   6.019 -2.0790  0.3121 -1.6237
 6166SOL    HW230135   4.590   4.214   6.043  0.2914 -0.2079  0.5014
 6167SOL     OW30136   2.606   3.856  15.371  0.1894 -0.0064  0.4960
 6167SOL    HW130137   2.700   3.842  15.378  0.4186  0.3372 -1.9705
 6167SOL    HW230138   2.593   3.820  15.283 -1.1490  0.7228  0.3920
 6168SOL     OW30139   1.895   0.507   3.993  0.0693  0.0510 -0.6663
 6168SOL    HW130140   1.989   0.519   3.978 -0.2624  0.6889 -2.1915
 6168SOL    HW230141   1.853   0.593   3.990  0.3921  0.2695  0.8870
 6169SOL     OW30142   3.646   4.658   1.305 -0.7938 -0.3732 -0.1700
 6169SOL    HW130143   3.639   4.603   1.227  1.9038  0.5008 -1.0393
 6169SOL    HW230144   3.564   4.630   1.346  0.9017 -2.7184  1.6428
 6170SOL     OW30145   3.191   1.584  12.668 -1.2463  0.3979 -0.2587
 6170SOL    HW130146   3.264   1.531  12.636 -2.2217 -1.3284  0.3874
 6170SOL    HW230147   3.182   1.544  12.754  0.3452  0.7810  0.0843
 6171SOL     OW30148   1.878   4.312   7.693 -0.2828  0.2299  0.0295
 6171SOL    HW130149   1.941   4.375   7.727 -0.3446 -0.8808  2.2040
 6171SOL    HW230150   1.851   4.355   7.613  0.4251  0.3519 -0.1448
 6172SOL     OW30151   0.567   0.830  14.644  0.2766  0.1140 -0.0438
 6172SOL    HW130152   0.524   0.774  14.579 -1.0180  3.0612 -1.7366
 6172SOL    HW230153   0.657   0.800  14.652  1.1993  3.0134  0.3587
 6173SOL     OW30154   3.073   1.438   8.839  0.2881 -0.0640  0.2312
 6173SOL    HW130155   3.096   1.470   8.751 -2.0820  0.1790 -0.2956
 6173SOL    HW230156   2.989   1.395   8.821  1.2476 -1.4517 -0.9330
 6174SOL     OW30157   2.161   1.777   4.631  0.1838 -0.2201 -0.4030
 6174SOL    HW130158   2.176   1.847   4.695  0.2610 -0.7041  0.1124
 6174SOL    HW230159   2.108   1.826   4.568 -1.3150 -1.8208 -0.3865
 6175SOL     OW30160   2.280   4.090   2.723  0.1947  0.1121 -0.0817
 6175SOL    HW130161   2.186   4.081   2.708  0.0375  0.8148  0.4932
 6175SOL    HW230162   2.315   4.056   2.640  2.3554  1.5472  0.2329
 6176SOL     OW30163   1.072   2.932   9.385 -0.0902  0.5147 -0.5921
 6176SOL    HW130164   1.164   2.958   9.390  0.6771 -2.1421 -0.5143
 6176SOL    HW230165   1.051   2.940   9.478 -1.4606  0.3792 -0.8904
 6177SOL     OW30166   4.659   2.735  17.095  0.1069 -0.1106 -0.6035
 6177SOL    HW130167   0.001   2.681  17.085  0.4323 -0.0507  1.7128
 6177SOL    HW230168   4.704   2.817  17.116 -1.7158  0.9535 -0.9069
 6178SOL     OW30169   2.218   3.782   8.104  0.2201  0.9757  0.3844
 6178SOL    HW130170   2.144   3.811   8.156  0.6796  1.2310  0.8988
 6178SOL    HW230171   2.298   3.827   8.132  1.1450 -0.3397 -0.1555
 6179SOL     OW30172   4.176   4.429  11.089  0.1240  0.5493 -0.1843
 6179SOL    HW130173   4.267   4.415  11.113  0.4200  0.8823 -1.0978
 6179SOL    HW230174   4.142   4.339  11.086 -0.3261  0.7031  0.4178
 6180SOL     OW30175   4.181   1.022   5.010 -0.2211  0.0485 -0.6459
 6180SOL    HW130176   4.149   0.952   4.953 -0.0291 -2.1618  1.9369
 6180SOL    HW230177   4.251   1.055   4.953  0.4344  1.8029  1.2109
 6181SOL     OW30178   3.936   0.894   7.404 -0.3684 -0.0707 -0.0910
 6181SOL    HW130179   3.959   0.861   7.491  1.8841  1.4063 -0.1337
 6181SOL    HW230180   3.994   0.969   7.400  0.4317 -0.5975  1.4161
 6182SOL     OW30181   2.734   0.004   2.845  0.0007 -0.3965 -0.0336
 6182SOL    HW130182   2.644   4.720   2.871 -0.7022  3.3572  0.4657
 6182SOL    HW230183   2.758   0.079   2.899 -0.1755  0.4755 -1.1663
 6183SOL     OW30184   3.616   2.708   5.447 -0.4960  0.1778  0.0395
 6183SOL    HW130185   3.692   2.650   5.452 -0.9220 -0.5402 -1.8307
 6183SOL    HW230186   3.546   2.644   5.459 -1.2860  0.6576 -1.9650
 6184SOL     OW30187   0.944   1.057  10.628 -0.2230  0.1705 -0.2159
 6184SOL    HW130188   0.862   1.104  10.614 -1.6673 -1.8042  1.5158
 6184SOL    HW230189   0.998   1.132  10.652 -0.3310 -0.3699  1.6825
 6185SOL     OW30190   2.264   4.639   0.989  0.2887  0.2334  0.0136
 6185SOL    HW130191   2.308   4.553   0.989  0.9966  0.5947 -0.2856
 6185SOL    HW230192   2.314   4.696   1.047 -1.0964  0.1805  1.2400
 6186SOL     OW30193   3.414   2.415   6.011  0.1029  0.3662  0.3829
 6186SOL    HW130194   3.408   2.336   6.065  3.3258  2.0027  3.1113
 6186SOL    HW230195   3.434   2.483   6.075  1.3770 -1.4231  1.8974
 6187SOL     OW30196   2.403   0.695   7.054 -0.1218  0.1429 -0.0225
 6187SOL    HW130197   2.466   0.755   7.013 -0.6439  2.1753  2.0857
 6187SOL    HW230198   2.466   0.624   7.066 -1.7088 -0.8103  2.6350
 6188SOL     OW30199   0.686   2.840   5.500 -0.1490  0.2112 -0.1977
 6188SOL    HW130200   0.775   2.828   5.469 -0.2785 -0.6327 -0.2248
 6188SOL    HW230201   0.630   2.804   5.431 -0.0740 -0.5856  0.1624
 6189SOL     OW30202   1.809   3.286   6.118  0.1623 -0.1957 -0.6370
 6189SOL    HW130203   1.733   3.280   6.176 -1.3783  2.0750 -2.4152
 6189SOL    HW230204   1.870   3.231   6.167 -0.0803  0.0846 -0.0239
 6190SOL     OW30205   2.382   3.000   2.998 -0.2661  0.5589  0.3236
 6190SOL    HW130206   2.409   2.958   2.916  0.5385  0.9982  0.3677
 6190SOL    HW230207   2.449   2.977   3.062 -1.2918  0.5045  1.3789
 6191SOL     OW30208   1.094   0.530  10.266  0.0669  0.8701  0.3103
 6191SOL    HW130209   1.103   0.515  10.172 -2.0849  0.8376  0.1182
 6191SOL    HW230210   1.072   0.623  10.259  2.8288  1.5902  1.2116
 6192SOL     OW30211   0.680   2.658   6.294  0.3674 -0.3082 -0.1442
 6192SOL    HW130212   0.757   2.600   6.297 -0.0748 -0.7520  3.2549
 6192SOL    HW230213   0.708   2.749   6.278 -1.2903  0.3475  0.6954
 6193SOL     OW30214   3.223   4.726  12.461 -0.5109  0.6250 -0.1822
 6193SOL    HW130215   3.184   4.683  12.385 -0.4750 -0.6268  0.5066
 6193SOL    HW230216   3.309   0.007  12.422 -0.0735 -1.2357 -0.0862
 6194SOL     OW30217   0.873   2.780   2.443 -0.2315 -0.2355  0.2989
 6194SOL    HW130218   0.960   2.751   2.416 -0.8626 -1.4100 -0.4768
 6194SOL    HW230219   0.822   2.721   2.388 -0.2589  1.7954 -1.8285
 6195SOL     OW30220   4.146   4.198   9.594 -0.5599  0.0555 -0.1016
 6195SOL    HW130221   4.125   4.236   9.679 -0.4295 -1.0158  0.4021
 6195SOL    HW230222   4.117   4.107   9.601  0.0387 -0.1535 -0.2603
 6196SOL     OW30223   3.392   4.510   4.532 -0.2617 -0.1222 -0.7662
 6196SOL    HW130224   3.339   4.530   4.609  1.7358 -1.5561  0.9679
 6196SOL    HW230225   3.475   4.513   4.579 -0.7245  0.5901  0.0017
 6197SOL     OW30226   0.627   3.121   3.043  0.0825  0.1546 -0.1252
 6197SOL    HW130227   0.719   3.121   3.071 -0.8881  0.8823  3.1441
 6197SOL    HW230228   0.602   3.029   3.052  0.0354 -0.0420 -2.2660
 6198SOL     OW30229   3.243   2.482   1.859  0.4120  0.4503  0.4303
 6198SOL    HW130230   3.173   2.479   1.923  1.0615 -1.4331  1.0424
 6198SOL    HW230231   3.282   2.569   1.866  1.0441  0.1948  0.1815
 6199SOL     OW30232   4.284   1.738   4.912  0.3173 -0.4640  0.0574
 6199SOL    HW130233   4.215   1.801   4.934  0.7274  0.1645 -0.4442
 6199SOL    HW230234   4.276   1.725   4.818 -0.9071 -3.3800  0.5707
 6200SOL     OW30235   3.258   1.945   5.145  0.2272  0.3366  0.0293
 6200SOL    HW130236   3.337   1.910   5.186  0.4187  0.4989 -0.2024
 6200SOL    HW230237   3.302   1.986   5.071 -0.1588 -0.6938 -0.7617
 6201SOL     OW30238   2.813   1.224   2.830 -0.5932 -0.2465 -0.2335
 6201SOL    HW130239   2.841   1.133   2.823 -0.7254 -0.3257  0.2605
 6201SOL    HW230240   2.830   1.248   2.921  0.1465  0.0596 -0.4562
 6202SOL     OW30241   4.310   0.656   3.672 -0.3136  0.0568  0.2218
 6202SOL    HW130242   4.398   0.621   3.683 -0.4372 -0.2201  0.3108
 6202SOL    HW230243   4.320   0.710   3.593  0.7297  1.0067  0.9984
 6203SOL     OW30244   4.155   0.592   5.468  0.2767  0.3448 -0.4099
 6203SOL    HW130245   4.212   0.668   5.456  0.6300  0.2465  0.6256
 6203SOL    HW230246   4.151   0.609   5.562  1.1435  0.3135 -0.3693
 6204SOL     OW30247   3.282   2.149   3.743 -0.4171 -0.3209 -0.2372
 6204SOL    HW130248   3.300   2.071   3.690  0.3473 -0.4049  0.1456
 6204SOL    HW230249   3.201   2.111   3.775  1.4880 -3.9565  0.2258
 6205SOL     OW30250   3.932   1.780   8.446  0.1110 -0.3061 -1.0197
 6205SOL    HW130251   3.913   1.847   8.512  0.7078  0.6982 -1.8796
 6205SOL    HW230252   3.990   1.733   8.507 -1.0039 -0.3337  0.0388
 6206SOL     OW30253   4.316   3.526   8.880  0.7028  0.0332  0.2922
 6206SOL    HW130254   4.356   3.585   8.944 -0.3118 -1.4142  2.2637
 6206SOL    HW230255   4.291   3.451   8.935 -0.2265 -0.0416 -0.2494
 6207SOL     OW30256   4.663   3.336   0.324 -0.0878 -0.1214 -0.4844
 6207SOL    HW130257   4.611   3.318   0.402 -1.4891 -1.8377 -1.7989
 6207SOL    HW230258   4.640   3.428   0.312  1.8112  0.3237 -0.7612
 6208SOL     OW30259   2.591   3.160  10.667 -0.3081 -0.0713 -0.5308
 6208SOL    HW130260   2.626   3.230  10.611 -0.7888  1.3846  0.9747
 6208SOL    HW230261   2.631   3.187  10.751  0.4031  0.9378 -1.1885
 6209SOL     OW30262   2.851   0.331   8.471 -0.0974 -0.5208 -0.1088
 6209SOL    HW130263   2.762   0.301   8.492  0.1453 -0.0265  1.5860
 6209SOL    HW230264   2.829   0.397   8.404  1.0485 -0.2065 -0.1638
 6210SOL     OW30265   1.479   0.092   1.008 -0.5480  0.1040 -0.1637
 6210SOL    HW130266   1.455   0.016   1.062 -1.9749  0.7572  0.1160
 6210SOL    HW230267   1.543   0.057   0.945 -0.5100  0.7256 -0.4645
 6211SOL     OW30268   4.231   3.045   4.116  0.8757  0.5499 -0.0510
 6211SOL    HW130269   4.175   3.047   4.039  2.8213 -0.5933 -1.4852
 6211SOL    HW230270   4.280   2.964   4.108 -0.8829 -0.4662 -0.4617
 6212SOL     OW30271   0.287   3.725   8.220  0.1087 -0.5899 -0.2897
 6212SOL    HW130272   0.277   3.692   8.131 -1.1330 -1.8104  0.2974
 6212SOL    HW230273   0.381   3.714   8.232  0.0908  1.7050  1.9655
 6213SOL     OW30274   4.337   0.349  11.543 -0.2370  0.7343 -0.1296
 6213SOL    HW130275   4.416   0.312  11.583 -0.9985  0.9510  1.5589
 6213SOL    HW230276   4.325   0.416  11.610  0.3594 -0.1727  0.8807
 6214SOL     OW30277   1.846   1.456   8.187  0.4220  0.4250  0.2333
 6214SOL    HW130278   1.795   1.383   8.152  1.9895  0.1483 -1.5295
 6214SOL    HW230279   1.915   1.454   8.120  0.1305 -0.2674 -0.0484
 6215SOL     OW30280   4.160   2.152  11.067 -0.8561  0.4463 -0.1996
 6215SOL    HW130281   4.181   2.102  11.146  0.1614 -1.5954 -1.7496
 6215SOL    HW230282   4.242   2.166  11.018 -0.7318  1.8294  0.4145
 6216SOL     OW30283   0.384   2.535  13.346  0.1193  0.2097 -0.6815
 6216SOL    HW130284   0.321   2.468  13.370 -2.6248  3.7208  1.8086
 6216SOL    HW230285   0.412   2.507  13.259  1.9886  0.6854 -0.2404
 6217SOL     OW30286   3.523   0.735  17.315 -0.2130  0.0540  0.2627
 6217SOL    HW130287   3.442   0.727  17.366 -0.5639 -0.5989 -0.4000
 6217SOL    HW230288   3.588   0.683  17.361  1.0649 -0.4293 -2.0966
 6218SOL     OW30289   1.140   4.193   8.684 -1.3225  0.4711  0.1079
 6218SOL    HW130290   1.075   4.199   8.755 -0.3356 -1.2263  1.1494
 6218SOL    HW230291   1.113   4.261   8.622 -1.3386  1.7420  1.5035
 6219SOL     OW30292   4.279   0.238  13.618 -0.0216 -0.4046  0.1498
 6219SOL    HW130293   4.220   0.227  13.692  0.8845  1.9209  1.2127
 6219SOL    HW230294   4.259   0.324  13.581  0.2706 -0.5429 -0.3303
 6220SOL     OW30295   2.192   0.314   9.631  0.0621 -0.0308 -0.6077
 6220SOL    HW130296   2.192   0.273   9.544 -0.5264  0.1365 -0.6835
 6220SOL    HW230297   2.227   0.400   9.608  0.8952 -0.6128 -1.5618
 6221SOL     OW30298   0.634   1.821   2.138 -0.1934 -0.0403  0.6194
 6221SOL    HW130299   0.588   1.903   2.151 -0.5349 -0.2323  0.6059
 6221SOL    HW230300   0.569   1.763   2.177 -1.6888  1.2027 -0.0635
 6222SOL     OW30301   4.385   3.832  12.221 -0.1091  0.3474 -0.3004
 6222SOL    HW130302   4.458   3.887  12.191  0.6534 -1.2150 -1.3151
 6222SOL    HW230303   4.382   3.760  12.157 -0.8673 -0.4915  0.6877
 6223SOL     OW30304   3.936   3.519   8.200  0.2261  0.0747  0.1213
 6223SOL    HW130305   3.857   3.570   8.216 -0.4759  0.3307 -4.2762
 6223SOL    HW230306   3.963   3.525   8.292  2.8288 -2.5339 -0.4566
 6224SOL     OW30307   1.245   4.097   5.412  0.5516  0.6117 -0.1804
 6224SOL    HW130308   1.226   4.174   5.358  2.6940  1.6379  0.5363
 6224SOL    HW230309   1.317   4.068   5.356 -0.7782 -0.6379 -1.2222
 6225SOL     OW30310   0.733   2.108   3.270 -0.4473  0.7177 -0.0888
 6225SOL    HW130311   0.688   2.077   3.348 -2.6664 -1.7063 -2.3485
 6225SOL    HW230312   0.657   2.119   3.213  0.2307 -1.3719 -1.3916
 6226SOL     OW30313   3.138   1.553  17.297  0.3449 -0.6223 -0.7433
 6226SOL    HW130314   3.173   1.556  17.386 -0.7346 -1.9853 -0.2664
 6226SOL    HW230315   3.207   1.587  17.241  1.6099  1.5972  2.1522
 6227SOL     OW30316   4.616   1.786   9.089 -0.6744  0.0293  0.3363
 6227SOL    HW130317   4.595   1.745   9.005  0.9541 -0.0587 -0.0255
 6227SOL    HW230318   4.585   1.876   9.077 -0.5570 -0.1383 -1.2811
 6228SOL     OW30319   1.587   3.597   7.709 -0.2034  0.2848  0.2544
 6228SOL    HW130320   1.663   3.612   7.764  1.5014  0.9969 -2.3365
 6228SOL    HW230321   1.625   3.587   7.622 -1.9015 -0.8824 -0.3689
 6229SOL     OW30322   0.181   2.363   3.761 -0.0605  0.3685 -0.4434
 6229SOL    HW130323   0.138   2.412   3.831 -0.0330  2.7457 -2.0954
 6229SOL    HW230324   0.111   2.352   3.697 -2.4540 -1.4176  2.4863
 6230SOL     OW30325   1.244   2.263   5.989  0.4275 -0.2672  0.0651
 6230SOL    HW130326   1.205   2.246   6.075  0.0026 -0.2653 -0.1274
 6230SOL    HW230327   1.322   2.208   5.989  0.4831 -0.1793 -1.4274
 6231SOL     OW30328   1.962   2.468  12.410  0.6056  0.7405  0.0076
 6231SOL    HW130329   1.871   2.478  12.381  1.5489  1.2213 -2.8186
 6231SOL    HW230330   1.955   2.486  12.504  1.8578  0.1615  0.2212
 6232SOL     OW30331   2.446   2.707   9.028  0.8706 -0.2886  0.8013
 6232SOL    HW130332   2.377   2.667   9.082  1.0229 -1.6018  0.0231
 6232SOL    HW230333   2.413   2.672   8.945  0.5286  1.5095  0.1866
 6233SOL     OW30334   3.693   4.379   3.475  0.2524 -0.1971  0.2238
 6233SOL    HW130335   3.733   4.306   3.522 -2.6228 -1.4155  0.7507
 6233SOL    HW230336   3.767   4.439   3.475  0.1563 -0.0512  2.8225
 6234SOL     OW30337   3.992   0.760   0.136 -0.1076 -0.5272 -0.2000
 6234SOL    HW130338   3.928   0.780   0.204 -1.0138 -1.2995 -0.8266
 6234SOL    HW230339   4.042   0.842   0.132 -0.0321 -0.5066  1.3130
 6235SOL     OW30340   2.635   1.589   5.315  0.4284  0.4343 -0.2547
 6235SOL    HW130341   2.701   1.659   5.315  1.1376 -0.2339 -0.2619
 6235SOL    HW230342   2.573   1.620   5.381  1.1686 -0.3454  0.8010
 6236SOL     OW30343   4.435   0.565   2.460  0.6664  0.0673 -0.8633
 6236SOL    HW130344   4.363   0.556   2.397 -2.6504  0.1346  2.8491
 6236SOL    HW230345   4.444   0.471   2.477  0.3251  0.0834 -0.5916
 6237SOL     OW30346   1.369   1.912   5.218 -0.4642  0.2424  0.6612
 6237SOL    HW130347   1.351   1.826   5.179  1.6132  0.7850 -1.4667
 6237SOL    HW230348   1.455   1.917   5.177 -0.6892 -0.4274  0.1117
 6238SOL     OW30349   1.346   4.126   3.395 -0.6415 -0.3706 -0.6491
 6238SOL    HW130350   1.264   4.152   3.437 -0.1626 -0.6336  0.4777
 6238SOL    HW230351   1.386   4.074   3.465  1.1236 -0.2515 -1.5639
 6239SOL     OW30352   0.253   0.282   6.098  0.5231 -0.3021 -0.7440
 6239SOL    HW130353   0.172   0.295   6.050 -0.5949  0.5056  1.3453
 6239SOL    HW230354   0.286   0.370   6.082 -1.2093  0.5887  0.6392
 6240SOL     OW30355   0.621   4.246   3.952  0.0346 -0.4271 -0.0593
 6240SOL    HW130356   0.594   4.155   3.943  2.4720 -1.2433  0.8394
 6240SOL    HW230357   0.534   4.288   3.954 -0.7846 -2.1147 -0.3119
 6241SOL     OW30358   0.922   1.352   6.533 -0.3302  0.1481 -0.3969
 6241SOL    HW130359   0.939   1.275   6.479 -1.7870 -0.0065 -0.6368
 6241SOL    HW230360   0.934   1.422   6.469  1.8154  0.8702  0.7675
 6242SOL     OW30361   4.574   0.947   5.592  0.2053 -0.1103 -0.0391
 6242SOL    HW130362   4.489   0.930   5.550 -1.3693  0.9690  2.7030
 6242SOL    HW230363   4.556   0.963   5.685  0.8352 -1.2127  0.2625
 6243SOL     OW30364   2.651   3.621   7.344  0.3467  0.0889 -0.6723
 6243SOL    HW130365   2.654   3.610   7.249  0.4731  1.3045 -0.8104
 6243SOL    HW230366   2.704   3.701   7.345 -0.5844  0.6788  0.8550
 6244SOL     OW30367   2.037   2.536   1.974 -0.3592 -0.2791 -0.4940
 6244SOL    HW130368   2.028   2.455   1.924 -1.5364  0.5527 -1.6165
 6244SOL    HW230369   2.132   2.544   1.961 -0.1906 -0.8488  0.3330
 6245SOL     OW30370   4.724   4.482   2.916 -0.1095 -0.2978 -0.4355
 6245SOL    HW130371   4.657   4.479   2.847 -2.8350  2.7456  2.0552
 6245SOL    HW230372   0.061   4.525   2.873  0.2092 -0.5323 -0.1256
 6246SOL     OW30373   2.013   2.942   6.024 -0.4490  0.5692 -0.1932
 6246SOL    HW130374   1.945   2.953   5.956  0.7158  1.0179 -1.2927
 6246SOL    HW230375   2.004   2.850   6.048  0.0881  1.2979  2.7176
 6247SOL     OW30376   2.731   4.226  15.254 -0.6701 -0.1089 -0.2457
 6247SOL    HW130377   2.761   4.145  15.212  3.0667  2.2629 -2.1176
 6247SOL    HW230378   2.781   4.294  15.209 -1.0914  2.5331  3.3739
 6248SOL     OW30379   1.883   1.204   5.397 -0.2056 -0.1850  0.6468
 6248SOL    HW130380   1.823   1.134   5.422 -0.1629 -0.5208 -0.1811
 6248SOL    HW230381   1.873   1.270   5.466  1.5807  4.1850 -3.2455
 6249SOL     OW30382   1.430   2.982   4.171  0.3135 -0.3071  0.2983
 6249SOL    HW130383   1.337   2.960   4.180 -0.1183  1.9635  1.2166
 6249SOL    HW230384   1.452   2.902   4.123  1.8850 -1.1524  2.4231
 6250SOL     OW30385   4.305   2.901   4.348  0.1197 -1.3252 -0.5454
 6250SOL    HW130386   4.325   2.982   4.301 -1.4908 -1.9606 -2.3121
 6250SOL    HW230387   4.218   2.878   4.316 -0.2717 -0.3940 -0.1719
 6251SOL     OW30388   1.847   1.744   4.125 -0.4535 -0.2574  0.0166
 6251SOL    HW130389   1.753   1.725   4.126 -0.6500  0.8340  1.5240
 6251SOL    HW230390   1.887   1.684   4.188 -0.1479 -0.2652 -0.1814
 6252SOL     OW30391   3.013   4.101   8.014 -0.1167  0.1832 -0.1755
 6252SOL    HW130392   3.063   4.155   7.952  0.3888  1.2018  1.1316
 6252SOL    HW230393   3.068   4.092   8.092  0.0563  2.5513 -0.0021
 6253SOL     OW30394   2.982   4.095   8.814  0.1117 -0.2624  0.5790
 6253SOL    HW130395   3.012   4.015   8.770  0.7031  0.1486  0.2305
 6253SOL    HW230396   2.971   4.065   8.904  0.7166 -1.5024  0.2417
 6254SOL     OW30397   0.037   2.577   7.839 -0.5668  0.4067  0.2346
 6254SOL    HW130398   0.018   2.518   7.912 -1.5186  0.4648  0.0309
 6254SOL    HW230399   0.089   2.515   7.787 -0.7680 -1.5303  2.3600
 6255SOL     OW30400   0.955   0.298   3.174 -0.4486  0.3374 -0.2314
 6255SOL    HW130401   1.028   0.243   3.201  0.7402  2.9844  1.8483
 6255SOL    HW230402   0.938   0.259   3.088  1.5151 -2.1390  0.5174
 6256SOL     OW30403   2.845   2.834   8.662  0.7701  0.3519 -0.3628
 6256SOL    HW130404   2.870   2.924   8.683  0.9833 -0.1795  1.6797
 6256SOL    HW230405   2.916   2.792   8.710  0.7877  0.5840 -0.1836
 6257SOL     OW30406   4.003   1.169   7.815  0.1709  0.9782  1.2600
 6257SOL    HW130407   4.058   1.239   7.779 -0.6375  1.3094  0.6741
 6257SOL    HW230408   3.931   1.168   7.752  0.3683  0.1657  1.0362
 6258SOL     OW30409   1.045   2.200   3.591  0.7364  0.1505  0.5035
 6258SOL    HW130410   1.115   2.141   3.620  1.5559  1.6416  1.5582
 6258SOL    HW230411   0.974   2.151   3.632  1.1013 -0.6184  0.2283
 6259SOL     OW30412   2.868   3.671   6.225 -0.3879  0.3987 -0.5580
 6259SOL    HW130413   2.914   3.707   6.150 -0.0606  3.2548  0.9744
 6259SOL    HW230414   2.837   3.754   6.263 -0.7222 -1.0276  2.3470
 6260SOL     OW30415   2.844   1.500   1.912  0.2619  0.0426  0.1001
 6260SOL    HW130416   2.771   1.543   1.956 -0.3602 -0.1826 -0.7090
 6260SOL    HW230417   2.797   1.424   1.879 -1.7786  1.4237 -0.1657
 6261SOL     OW30418   1.327   3.732   4.215 -0.2679 -0.5830 -0.3632
 6261SOL    HW130419   1.391   3.687   4.271 -1.8068 -0.0139  1.8113
 6261SOL    HW230420   1.273   3.659   4.185 -1.4205  0.9159 -1.8901
 6262SOL     OW30421   1.393   1.312   4.905 -0.6708 -0.0159  0.1615
 6262SOL    HW130422   1.434   1.389   4.943 -0.1906  0.5295 -1.4449
 6262SOL    HW230423   1.344   1.270   4.976 -0.2971 -1.1244 -0.2355
 6263SOL     OW30424   1.957   4.230   4.840  0.2315  0.0437  0.6602
 6263SOL    HW130425   1.927   4.215   4.929 -0.5148  2.2656  0.7785
 6263SOL    HW230426   1.899   4.174   4.789  0.7809 -1.3677  1.5943
 6264SOL     OW30427   3.319   3.132  16.151  0.3041 -0.0817  0.6787
 6264SOL    HW130428   3.282   3.066  16.093  0.1700  2.2520 -1.9007
 6264SOL    HW230429   3.411   3.110  16.136 -0.1945 -1.8221  0.2171
 6265SOL     OW30430   2.606   1.351   0.708 -0.0648 -0.7789 -0.1597
 6265SOL    HW130431   2.675   1.371   0.771 -0.1234 -0.2684 -0.2577
 6265SOL    HW230432   2.551   1.287   0.755 -2.0913  0.0034 -1.4706
 6266SOL     OW30433   1.390   3.941  16.783 -0.2986  0.0590 -0.3215
 6266SOL    HW130434   1.370   3.851  16.808  2.5677 -0.5975 -0.4224
 6266SOL    HW230435   1.464   3.925  16.725  0.3616 -0.3715  0.6343
 6267SOL     OW30436   2.932   2.261  15.029 -0.2210  0.1378  0.2486
 6267SOL    HW130437   2.862   2.197  15.014  0.9618 -0.6569 -1.8837
 6267SOL    HW230438   3.006   2.208  15.058 -1.3879 -1.0186  1.1226
 6268SOL     OW30439   4.125   2.840   0.639  0.3024  0.1852  0.2044
 6268SOL    HW130440   4.118   2.933   0.661 -0.7558  0.5204 -1.5521
 6268SOL    HW230441   4.163   2.806   0.720  0.6511 -2.8336 -1.2205
 6269SOL     OW30442   3.466   2.187   2.600 -0.3533 -0.3811  0.1259
 6269SOL    HW130443   3.395   2.205   2.661 -0.1617 -0.3547  0.3401
 6269SOL    HW230444   3.467   2.093   2.619  0.5514 -0.5744 -0.8751
 6270SOL     OW30445   3.491   2.697   9.053  0.0331  0.1313 -0.2611
 6270SOL    HW130446   3.584   2.708   9.073 -0.7459 -0.2500  3.6327
 6270SOL    HW230447   3.464   2.622   9.106  0.0193 -1.8673 -3.1551
 6271SOL     OW30448   0.059   1.780   0.875  0.3438  0.1329  0.6581
 6271SOL    HW130449   4.729   1.724   0.913 -0.3718 -0.3118 -1.2580
 6271SOL    HW230450   0.037   1.770   0.783 -0.4130 -0.7964  0.9450
 6272SOL     OW30451   0.989   4.468   2.328 -0.1989 -0.2464  0.7418
 6272SOL    HW130452   0.896   4.449   2.336 -0.0491 -1.0265  0.6441
 6272SOL    HW230453   1.011   4.453   2.236 -1.9933 -2.8881  0.7360
 6273SOL     OW30454   3.450   3.592   7.252  0.1198  0.1181  0.1464
 6273SOL    HW130455   3.488   3.520   7.201 -3.4444 -1.0899 -0.7907
 6273SOL    HW230456   3.532   3.632   7.283 -0.9894  1.1968  1.6809
 6274SOL     OW30457   1.043   1.251   0.550 -0.3558  0.5035 -0.3668
 6274SOL    HW130458   1.071   1.188   0.484  0.8841  1.9072 -1.1711
 6274SOL    HW230459   1.100   1.220   0.620  0.2544 -0.5262 -1.3175
 6275SOL     OW30460   1.900   2.863  12.995  0.3940 -0.9521 -0.7556
 6275SOL    HW130461   1.955   2.938  13.016  0.5960 -0.9501 -1.3032
 6275SOL    HW230462   1.817   2.909  12.981  0.5295 -0.5920 -0.3644
 6276SOL     OW30463   4.569   4.090   4.190 -0.2810 -0.3946 -0.1225
 6276SOL    HW130464   4.586   4.084   4.096 -1.0061 -1.1484 -0.2117
 6276SOL    HW230465   4.632   4.023   4.219 -1.6061 -2.5577 -2.1960
 6277SOL     OW30466   2.504   4.081   6.688  0.7326 -0.6326  0.0491
 6277SOL    HW130467   2.487   4.174   6.675  2.5929 -0.2536  0.4141
 6277SOL    HW230468   2.517   4.081   6.783  3.3942  2.3926 -0.3326
 6278SOL     OW30469   3.383   0.657   3.171  0.7007  0.2140  0.2039
 6278SOL    HW130470   3.391   0.660   3.267 -2.0588 -0.1115  0.4324
 6278SOL    HW230471   3.397   0.563   3.158  0.7679  0.0413  1.5092
 6279SOL     OW30472   1.979   0.152   6.663  0.4582 -0.6796  0.0897
 6279SOL    HW130473   1.886   0.175   6.656  0.8467  0.2763 -2.0085
 6279SOL    HW230474   1.972   0.115   6.751  0.0688  0.6536  0.6131
 6280SOL     OW30475   0.586   2.834  11.237  0.3478  0.1579  0.0369
 6280SOL    HW130476   0.667   2.856  11.191 -0.1588  2.7616  0.3955
 6280SOL    HW230477   0.599   2.900  11.306  1.4146 -0.0317  0.0218
 6281SOL     OW30478   0.027   2.069   2.306 -0.5813  0.1851  0.3225
 6281SOL    HW130479   4.709   2.147   2.309  0.2286  0.8338 -2.3316
 6281SOL    HW230480   0.065   2.073   2.219  1.1279  0.2582  1.0768
 6282SOL     OW30481   3.301   4.673   9.128  0.5124  0.1566 -0.4279
 6282SOL    HW130482   3.382   4.623   9.124  0.8890  0.8283 -1.2239
 6282SOL    HW230483   3.262   4.649   9.043  2.4478  1.9925 -1.8281
 6283SOL     OW30484   3.383   0.700   1.077  0.0698  0.5686 -0.2162
 6283SOL    HW130485   3.465   0.689   1.126  1.1384  0.4667 -2.0389
 6283SOL    HW230486   3.333   0.637   1.129  0.2479  0.0472 -0.6741
 6284SOL     OW30487   0.744   4.099  13.790  0.2135 -0.4851  0.1152
 6284SOL    HW130488   0.653   4.094  13.763 -0.3541 -1.3290  2.1692
 6284SOL    HW230489   0.755   4.187  13.753 -1.4870  0.3158  1.5436
 6285SOL     OW30490   3.603   2.768   2.077 -0.4920  0.1424  0.6361
 6285SOL    HW130491   3.615   2.822   2.155 -0.8156  0.5950  0.3706
 6285SOL    HW230492   3.607   2.684   2.121  1.5573 -0.1310 -0.0444
 6286SOL     OW30493   2.186   0.201  12.096 -0.0464  0.3219  0.0168
 6286SOL    HW130494   2.241   0.279  12.094 -0.9208  0.9889  2.3737
 6286SOL    HW230495   2.145   0.199  12.183 -1.1672  0.8041 -0.4978
 6287SOL     OW30496   0.263   4.406  13.952 -0.3818  0.4277 -0.7611
 6287SOL    HW130497   0.263   4.501  13.959 -1.3355  0.2292  1.9431
 6287SOL    HW230498   0.203   4.380  14.022  1.1105  1.7366  0.9941
 6288SOL     OW30499   4.646   2.043   8.152  0.2816  0.1086 -0.1595
 6288SOL    HW130500   4.617   1.962   8.194 -1.5530  0.4253 -0.7963
 6288SOL    HW230501   4.563   2.060   8.106 -0.1847 -1.0145  0.2664
 6289SOL     OW30502   0.123   4.220   6.169 -0.2143  0.2836 -0.1848
 6289SOL    HW130503   0.102   4.302   6.124 -1.6110 -0.0902 -0.2203
 6289SOL    HW230504   0.179   4.171   6.108  1.7555  1.6439  0.5331
 6290SOL     OW30505   1.733   0.536   3.021 -0.2475 -0.3359  0.5179
 6290SOL    HW130506   1.807   0.539   3.083 -0.0047  0.6908  0.1828
 6290SOL    HW230507   1.668   0.504   3.083  1.0362 -2.0394  0.9874
 6291SOL     OW30508   4.475   4.295   2.935 -0.0878  0.3710 -0.1503
 6291SOL    HW130509   4.544   4.361   2.927  1.3798 -0.9108  2.1952
 6291SOL    HW230510   4.461   4.277   2.842  2.1603  0.2918 -0.4601
 6292SOL     OW30511   3.373   1.305   1.794 -1.0287 -0.5031  0.2719
 6292SOL    HW130512   3.361   1.337   1.883 -2.0337  0.5556 -0.2467
 6292SOL    HW230513   3.384   1.211   1.810 -0.3982 -0.4323  0.2628
 6293SOL     OW30514   1.549   2.984   8.855 -0.2330  0.3734 -0.0430
 6293SOL    HW130515   1.559   2.955   8.764  0.3528  0.0022  0.1405
 6293SOL    HW230516   1.487   2.918   8.885 -0.4508  0.6997  0.2305
 6294SOL     OW30517   4.240   2.523   0.691  0.1162  0.0166 -0.0490
 6294SOL    HW130518   4.288   2.588   0.639 -0.7637  1.8217  1.3697
 6294SOL    HW230519   4.215   2.470   0.615  0.5699  1.9942 -1.5753
 6295SOL     OW30520   0.192   1.252   7.927  0.2842  0.0332  0.3415
 6295SOL    HW130521   0.125   1.301   7.975  0.0276  1.6697 -1.7162
 6295SOL    HW230522   0.240   1.211   7.999  0.1920  0.5222  0.6773
 6296SOL     OW30523   0.792   4.194   5.665  0.3265 -0.2659  0.7282
 6296SOL    HW130524   0.827   4.151   5.743 -1.8196 -1.1351  1.2106
 6296SOL    HW230525   0.846   4.161   5.593 -0.9274 -1.6572  0.4112
 6297SOL     OW30526   4.067   4.402   2.464 -0.1677 -0.5887 -0.0593
 6297SOL    HW130527   3.978   4.402   2.500 -0.4530  0.5877 -0.7620
 6297SOL    HW230528   4.080   4.492   2.434  0.1965 -0.9795 -1.0863
 6298SOL     OW30529   2.209   4.317   7.227  0.9845 -0.1544 -0.1144
 6298SOL    HW130530   2.162   4.305   7.310  2.7186 -2.2787  0.5560
 6298SOL    HW230531   2.297   4.292   7.254  0.1974 -2.5950  0.2695
 6299SOL     OW30532   3.449   0.120   9.336 -0.1471  0.0845  0.3088
 6299SOL    HW130533   3.378   0.065   9.305 -0.7549  0.5702  0.8417
 6299SOL    HW230534   3.509   0.059   9.378  0.3322 -0.7378 -1.5567
 6300SOL     OW30535   3.925   0.973   4.848 -0.1548 -0.3064  0.0313
 6300SOL    HW130536   3.957   1.049   4.897  3.0259 -2.6739  1.6165
 6300SOL    HW230537   3.987   0.977   4.775  0.2103  0.1983  0.3741
 6301SOL     OW30538   4.276   1.480   8.428  0.1909  0.0695 -0.1274
 6301SOL    HW130539   4.365   1.452   8.448  0.3065  1.4581  1.2934
 6301SOL    HW230540   4.290   1.562   8.382  2.5877 -0.6136 -0.6318
 6302SOL     OW30541   0.969   2.515   6.519  0.6661  0.1995  0.2933
 6302SOL    HW130542   0.901   2.477   6.574 -0.1942  1.4863  0.1322
 6302SOL    HW230543   0.937   2.496   6.431  0.4004 -2.0073  0.8817
 6303SOL     OW30544   4.122   4.041   4.166  0.7646 -0.0466 -0.2464
 6303SOL    HW130545   4.201   4.081   4.201  1.3793 -0.8432 -0.7251
 6303SOL    HW230546   4.052   4.101   4.192  0.7058  0.1510 -0.8644
 6304SOL     OW30547   0.322   0.788   6.430 -0.0819 -0.6005  0.7013
 6304SOL    HW130548   0.267   0.835   6.493  0.0974  0.4976  0.0360
 6304SOL    HW230549   0.350   0.868   6.384  2.0464 -0.4190  2.3010
 6305SOL     OW30550   1.374   0.396   2.196 -0.2917  0.2279  0.2724
 6305SOL    HW130551   1.467   0.414   2.211 -0.0839 -0.5222 -0.0972
 6305SOL    HW230552   1.335   0.420   2.280  0.5070 -0.4103  0.8289
 6306SOL     OW30553   1.020   3.750  12.817 -0.3029 -0.0994  0.1524
 6306SOL    HW130554   0.969   3.680  12.859  0.9980 -0.5316  0.9851
 6306SOL    HW230555   1.092   3.694  12.788  1.0603  0.9133  1.6387
 6307SOL     OW30556   1.370   3.955  10.273 -0.0058  0.1864  0.5440
 6307SOL    HW130557   1.306   3.930  10.339  0.3766  0.5074  1.0336
 6307SOL    HW230558   1.453   3.927  10.311  0.3984 -0.0725 -0.5107
 6308SOL     OW30559   3.636   1.939  14.158  0.2341  0.3424  0.2969
 6308SOL    HW130560   3.648   2.033  14.166 -1.1076  0.5972 -0.6487
 6308SOL    HW230561   3.708   1.921  14.218 -1.1244 -2.9071  0.9559
 6309SOL     OW30562   1.197   4.021  14.780  0.0483 -0.0319  0.0013
 6309SOL    HW130563   1.188   4.063  14.866 -0.5592 -0.6046  0.2185
 6309SOL    HW230564   1.288   4.041  14.759 -0.0605 -0.0333 -0.4819
 6310SOL     OW30565   0.848   3.259   3.962  0.3137  0.1903 -0.1734
 6310SOL    HW130566   0.907   3.303   3.901 -0.8450  0.8877 -0.7888
 6310SOL    HW230567   0.850   3.171   3.924  1.1053  0.4307 -0.6894
 6311SOL     OW30568   0.132   2.054   2.070  0.4159  0.1406  0.1662
 6311SOL    HW130569   0.116   1.989   2.001  1.4545  1.5959 -1.4442
 6311SOL    HW230570   0.208   2.098   2.031  0.4648  2.7567  3.1892
 6312SOL     OW30571   2.434   1.201  11.058 -0.1405  0.4183 -0.0069
 6312SOL    HW130572   2.391   1.116  11.068  1.9726 -0.5269  0.9239
 6312SOL    HW230573   2.410   1.249  11.137 -1.0964  0.0779 -0.0871
 6313SOL     OW30574   1.376   3.969   7.175 -0.1858  0.7010 -0.3630
 6313SOL    HW130575   1.355   4.016   7.256  0.0614  0.8392 -0.3785
 6313SOL    HW230576   1.345   4.025   7.104  0.3002  0.2822 -0.9015
 6314SOL     OW30577   2.168   2.862   3.981 -0.1311 -0.4293 -0.0153
 6314SOL    HW130578   2.114   2.804   3.927  0.3974 -1.9637  1.1106
 6314SOL    HW230579   2.258   2.831   3.969  0.7572  1.5387  1.5579
 6315SOL     OW30580   3.424   1.395   8.942  0.9294 -0.1778  0.9398
 6315SOL    HW130581   3.420   1.420   9.035 -0.9003  1.9167  0.2925
 6315SOL    HW230582   3.492   1.456   8.912  0.1286  0.9618  1.4087
 6316SOL     OW30583   2.546   1.633   6.897 -0.2763 -0.8179 -0.2740
 6316SOL    HW130584   2.569   1.543   6.920 -0.6954 -1.0154 -0.6202
 6316SOL    HW230585   2.453   1.634   6.920  0.2688 -1.9393  1.9691
 6317SOL     OW30586   4.616   1.743   2.628 -0.1035  0.4855 -0.2082
 6317SOL    HW130587   4.548   1.713   2.568 -0.3705 -2.2295  1.4804
 6317SOL    HW230588   4.557   1.758   2.702 -0.5189  1.1971 -0.6809
 6318SOL     OW30589   4.478   1.125   9.214  0.0435 -0.2595 -0.6516
 6318SOL    HW130590   4.387   1.122   9.186  0.6816 -2.4722 -2.4374
 6318SOL    HW230591   4.500   1.034   9.233  1.1641  0.8543  3.3909
 6319SOL     OW30592   4.258   4.683   2.884  0.7545 -0.0732 -0.8095
 6319SOL    HW130593   4.246   4.654   2.793  0.5853  0.4263 -0.9457
 6319SOL    HW230594   4.292   4.602   2.922 -0.4674 -0.5271 -0.6752
 6320SOL     OW30595   3.731   4.427  11.418  0.3688 -0.3044 -0.3391
 6320SOL    HW130596   3.783   4.357  11.459 -0.8469  0.5324  2.6294
 6320SOL    HW230597   3.801   4.487  11.393 -0.3311  1.2650  1.5254
 6321SOL     OW30598   1.168   2.831   7.388  0.2717  0.0401 -0.6548
 6321SOL    HW130599   1.096   2.785   7.430  1.2769  0.1824  1.2396
 6321SOL    HW230600   1.117   2.902   7.350 -0.2211  0.0285 -0.0247
 6322SOL     OW30601   2.051   3.599   3.747  0.0326  0.0170 -0.5211
 6322SOL    HW130602   2.037   3.689   3.718  0.0021  1.1550  2.9518
 6322SOL    HW230603   2.094   3.571   3.667 -0.3535 -0.5860 -0.5240
 6323SOL     OW30604   2.859   2.775   1.252  0.2075  0.3176 -0.3443
 6323SOL    HW130605   2.927   2.713   1.277 -0.3907 -0.2758 -0.1841
 6323SOL    HW230606   2.812   2.770   1.335  0.9395 -0.1242  0.0389
 6324SOL     OW30607   3.680   2.838   2.755  0.1192  0.8325 -0.1709
 6324SOL    HW130608   3.712   2.919   2.715 -2.0799  2.6887  1.8638
 6324SOL    HW230609   3.766   2.813   2.789 -0.7039 -0.1545  1.1834
 6325SOL     OW30610   3.716   3.758   4.410  0.3318 -1.2795 -0.2845
 6325SOL    HW130611   3.660   3.820   4.364  2.1262 -1.3473 -2.5715
 6325SOL    HW230612   3.764   3.719   4.336 -0.0412 -2.3651  0.0396
 6326SOL     OW30613   2.459   4.733  10.271 -0.3108 -0.4980  0.4481
 6326SOL    HW130614   2.454   0.080  10.317 -1.7619 -0.6808  0.6438
 6326SOL    HW230615   2.516   4.683  10.328  1.6998  0.0720 -1.0670
 6327SOL     OW30616   4.415   1.814   6.852  0.4910  0.4453 -0.3130
 6327SOL    HW130617   4.438   1.722   6.867  2.4141  1.1471  1.1518
 6327SOL    HW230618   4.428   1.847   6.941  0.0362 -1.8250  0.5877
 6328SOL     OW30619   0.815   2.086   7.256 -0.4246  0.8033  0.2813
 6328SOL    HW130620   0.824   2.139   7.177  1.0745 -0.0842 -0.1398
 6328SOL    HW230621   0.814   1.993   7.236  0.3601  0.6149  1.1091
 6329SOL     OW30622   0.821   2.608   5.136 -0.2310  0.1984 -0.0989
 6329SOL    HW130623   0.903   2.562   5.114 -1.9967 -0.6813 -4.6927
 6329SOL    HW230624   0.825   2.624   5.230 -3.5482  1.0961 -0.1184
 6330SOL     OW30625   4.670   2.684   6.901 -0.0901 -0.1108 -0.2003
 6330SOL    HW130626   4.706   2.618   6.843 -0.4450 -0.7144  0.2690
 6330SOL    HW230627   0.006   2.746   6.905 -2.2229  2.5385 -1.8090
 6331SOL     OW30628   3.900   3.796   6.547 -0.1956 -0.4191 -0.6419
 6331SOL    HW130629   3.867   3.790   6.457 -1.6153 -0.7996 -0.1063
 6331SOL    HW230630   3.952   3.716   6.546  0.5703  0.1107 -3.4826
 6332SOL     OW30631   1.643   0.790   5.268 -0.0103 -0.1180 -0.9137
 6332SOL    HW130632   1.558   0.774   5.227 -0.8895  0.1475  0.8439
 6332SOL    HW230633   1.622   0.862   5.328 -1.7031  1.3135 -3.2297
 6333SOL     OW30634   0.518   2.579   4.182 -0.3476  0.1313  0.6090
 6333SOL    HW130635   0.531   2.668   4.151  1.1178 -0.2961 -0.0090
 6333SOL    HW230636   0.494   2.527   4.105 -0.5724  0.5769  0.3794
 6334SOL     OW30637   1.447   1.746   9.508 -0.7520 -0.0613 -0.4955
 6334SOL    HW130638   1.485   1.675   9.560 -0.3548  0.9591  0.6223
 6334SOL    HW230639   1.451   1.819   9.570 -1.7926 -0.1200 -0.3602
 6335SOL     OW30640   3.478   3.401   8.094 -0.4687  0.9557  0.1729
 6335SOL    HW130641   3.508   3.487   8.065  1.9177 -0.2397 -0.9277
 6335SOL    HW230642   3.400   3.420   8.146 -0.6968  0.6400 -0.0579
 6336SOL     OW30643   4.446   2.305  12.313 -0.2453  0.2164 -0.4136
 6336SOL    HW130644   4.537   2.274  12.311 -0.4031 -0.2729  0.1770
 6336SOL    HW230645   4.405   2.236  12.365 -1.2633 -0.4761 -2.1452
 6337SOL     OW30646   1.038   2.908   6.667  0.5589 -0.0922  0.1164
 6337SOL    HW130647   1.071   2.832   6.715  0.8273 -0.7106 -1.0458
 6337SOL    HW230648   0.971   2.946   6.724  3.6303  2.3001  2.1638
 6338SOL     OW30649   0.509   2.674   3.267 -0.4920  0.7765 -0.0174
 6338SOL    HW130650   0.528   2.750   3.321  1.2801  0.9353 -0.8593
 6338SOL    HW230651   0.432   2.643   3.314  1.1965  0.4878  2.5124
 6339SOL     OW30652   0.048   0.164   7.054  0.1882 -0.0231  0.2591
 6339SOL    HW130653   0.114   0.202   7.111 -1.2737  0.5264  1.5840
 6339SOL    HW230654   4.702   0.209   7.075  1.7178  2.4469  1.0649
 6340SOL     OW30655   1.392   1.000   9.008 -0.5103  0.0774  0.7380
 6340SOL    HW130656   1.470   1.003   8.954 -0.9473  0.6384  0.1354
 6340SOL    HW230657   1.402   0.913   9.045  0.9796  0.0652  0.3056
 6341SOL     OW30658   4.149   2.161   5.492  0.3572  0.2170  0.0013
 6341SOL    HW130659   4.091   2.197   5.559  0.2859  0.8033 -0.3737
 6341SOL    HW230660   4.093   2.134   5.419 -0.4612  2.2835 -0.1343
 6342SOL     OW30661   1.262   0.547   6.210 -0.3957 -0.9494  0.7285
 6342SOL    HW130662   1.213   0.467   6.227 -0.7127 -0.3987  2.3976
 6342SOL    HW230663   1.323   0.505   6.149  0.2610  1.4981 -0.3065
 6343SOL     OW30664   1.418   1.442  10.275  1.0000  0.0932  0.3783
 6343SOL    HW130665   1.471   1.520  10.257  2.8253 -1.1526  0.3209
 6343SOL    HW230666   1.440   1.414  10.364 -1.3920  2.3938  1.7131
 6344SOL     OW30667   1.602   1.981   6.301  0.7676  0.4438  0.1727
 6344SOL    HW130668   1.585   1.899   6.347  0.2024  0.9706  0.9090
 6344SOL    HW230669   1.675   2.019   6.350 -0.1953  0.1941  1.8097
 6345SOL     OW30670   3.116   1.648  13.510 -0.5707 -0.2464  0.3631
 6345SOL    HW130671   3.054   1.717  13.485  0.1408 -0.0717 -0.8915
 6345SOL    HW230672   3.194   1.680  13.464  0.4001 -0.8241  1.6271
 6346SOL     OW30673   3.638   1.302   2.999 -0.6359  0.0741  0.1916
 6346SOL    HW130674   3.630   1.206   2.996 -0.0433  0.0313 -0.0147
 6346SOL    HW230675   3.731   1.305   3.019 -0.9364 -1.3621  1.8992
 6347SOL     OW30676   4.571   4.207  16.069 -0.1993  0.4332 -0.0718
 6347SOL    HW130677   4.529   4.236  16.150  2.7439  0.7421  1.3380
 6347SOL    HW230678   4.648   4.157  16.098 -0.7060  0.1876  0.8491
 6348SOL     OW30679   2.302   4.637   4.302  0.0705  0.0164  0.2078
 6348SOL    HW130680   2.219   4.665   4.263  0.1080 -0.7786 -0.4262
 6348SOL    HW230681   2.369   4.669   4.242  0.9998  0.8188  1.6608
 6349SOL     OW30682   3.828   2.576   5.674 -0.4115 -0.5072  0.3207
 6349SOL    HW130683   3.746   2.573   5.723  1.1345 -2.4564  2.7554
 6349SOL    HW230684   3.871   2.495   5.702  2.8712  0.9786 -0.4018
 6350SOL     OW30685   4.345   1.823   7.971  0.0827  0.0052  0.5759
 6350SOL    HW130686   4.402   1.866   7.908 -0.5291 -0.8526 -0.5647
 6350SOL    HW230687   4.265   1.869   7.945  0.3319  0.8614  1.3178
 6351SOL     OW30688   0.421   3.407  11.533  0.2498  0.1766  0.5969
 6351SOL    HW130689   0.469   3.479  11.573  1.2827 -0.4947  0.5818
 6351SOL    HW230690   0.411   3.355  11.613 -1.3057  0.7868  0.7857
 6352SOL     OW30691   1.248   4.586   7.502 -0.1031  0.3436  0.8278
 6352SOL    HW130692   1.211   4.629   7.579  1.2130  4.3787 -0.8094
 6352SOL    HW230693   1.313   4.522   7.533  0.3372  1.5731  2.4585
 6353SOL     OW30694   2.387   3.627   3.046  0.4446 -0.0449  0.0613
 6353SOL    HW130695   2.399   3.571   2.969 -0.1656  1.9622 -1.4968
 6353SOL    HW230696   2.293   3.645   3.057  0.1238 -2.0519  0.6704
 6354SOL     OW30697   1.673   1.186   0.297 -0.2624 -0.4363 -0.0754
 6354SOL    HW130698   1.733   1.114   0.275 -0.2125  0.0623 -1.6290
 6354SOL    HW230699   1.624   1.205   0.216  0.0340  1.9822  0.3273
 6355SOL     OW30700   1.391   2.744   3.667  0.2069 -0.4008  0.1274
 6355SOL    HW130701   1.366   2.794   3.590 -2.9684 -0.8897  0.8692
 6355SOL    HW230702   1.468   2.702   3.628 -0.1352 -0.4463 -0.4946
 6356SOL     OW30703   4.295   1.851   5.391  0.2062  0.0490  0.3692
 6356SOL    HW130704   4.330   1.783   5.449  0.4632 -1.9639 -2.1427
 6356SOL    HW230705   4.202   1.854   5.414  0.3734 -1.5902  1.2559
 6357SOL     OW30706   0.976   2.800   5.679 -0.5514 -0.5600  0.3004
 6357SOL    HW130707   1.052   2.800   5.621  0.2971  1.4670  1.4135
 6357SOL    HW230708   0.935   2.883   5.653 -0.5773 -0.2582  1.3036
 6358SOL     OW30709   1.030   3.037   8.687 -0.1196  0.2243  0.0493
 6358SOL    HW130710   0.976   2.985   8.746  1.0263 -0.9283  0.0805
 6358SOL    HW230711   1.057   3.100   8.754  2.6385  1.3928 -2.1769
 6359SOL     OW30712   4.287   0.038  11.588 -0.2316  0.7391  0.1922
 6359SOL    HW130713   4.349   0.025  11.516 -0.2916 -3.7043  0.8956
 6359SOL    HW230714   4.267   4.682  11.601  0.9953  0.3780 -0.4341
 6360SOL     OW30715   2.021   3.993   5.064 -0.1521 -1.3035  0.1033
 6360SOL    HW130716   2.015   3.899   5.048  1.7464 -1.8826  2.8503
 6360SOL    HW230717   1.935   4.020   5.095  0.0449 -0.6940  0.1269
 6361SOL     OW30718   0.773   1.851  17.040 -0.0720  0.3262 -0.0286
 6361SOL    HW130719   0.836   1.923  17.049 -0.4683  0.2485  3.4493
 6361SOL    HW230720   0.697   1.909  17.042 -0.5875 -0.3657  0.3938
 6362SOL     OW30721   1.234   1.281   3.265  0.2606  0.6101  0.0709
 6362SOL    HW130722   1.276   1.365   3.280  1.3030  0.1157 -0.0567
 6362SOL    HW230723   1.186   1.276   3.347  0.5586 -0.1499  0.2069
 6363SOL     OW30724   0.292   0.193   1.887  0.1870 -0.5386  0.0809
 6363SOL    HW130725   0.249   0.249   1.822  0.7985  0.3142  0.4262
 6363SOL    HW230726   0.224   0.138   1.927  0.7715  0.3171  2.2644
 6364SOL     OW30727   1.418   2.181  10.910  0.7160  0.3626  0.4083
 6364SOL    HW130728   1.361   2.214  10.840  1.6968  0.7268 -0.2306
 6364SOL    HW230729   1.433   2.261  10.961  0.5548  0.1565  0.7720
 6365SOL     OW30730   1.622   0.289  15.747 -0.6183 -0.5106  0.2495
 6365SOL    HW130731   1.702   0.325  15.709  1.2864 -0.7578  4.0502
 6365SOL    HW230732   1.633   0.195  15.733 -0.7225 -0.0898 -2.7641
 6366SOL     OW30733   3.097   4.188  10.074  0.3320 -0.1218 -0.2323
 6366SOL    HW130734   3.011   4.147  10.073 -0.3023  1.2436 -0.6552
 6366SOL    HW230735   3.154   4.111  10.083 -0.2353 -0.5648 -0.4756
 6367SOL     OW30736   1.908   0.129   5.996  0.1618  0.5027  0.0730
 6367SOL    HW130737   1.987   0.106   5.948  0.1120 -0.5878  0.5088
 6367SOL    HW230738   1.933   0.080   6.075  0.1526  0.8304  0.2804
 6368SOL     OW30739   4.267   0.269   1.174  0.3828 -0.3229  0.0447
 6368SOL    HW130740   4.202   0.334   1.201  0.1918 -0.8664  0.9068
 6368SOL    HW230741   4.327   0.321   1.120 -1.0001  1.6791  0.4375
 6369SOL     OW30742   4.303   3.480   3.109  0.3052 -0.6862 -0.1852
 6369SOL    HW130743   4.274   3.547   3.047 -0.7119 -1.2636 -0.3392
 6369SOL    HW230744   4.396   3.477   3.087  0.4788 -1.6282  0.6514
 6370SOL     OW30745   1.276   0.437   1.829 -0.1063 -0.6452 -0.1686
 6370SOL    HW130746   1.249   0.345   1.823  1.1156 -1.0164  0.0378
 6370SOL    HW230747   1.369   0.426   1.807 -0.7171 -0.1113 -3.0236
 6371SOL     OW30748   2.841   3.413   2.558  0.1397 -0.2272 -0.3099
 6371SOL    HW130749   2.827   3.326   2.523  0.8510 -0.3540 -0.2918
 6371SOL    HW230750   2.750   3.438   2.572  0.3804  0.6457 -0.2299
 6372SOL     OW30751   0.967   4.230   0.736  0.3686 -0.1388 -0.0378
 6372SOL    HW130752   0.935   4.219   0.647  2.7922  0.0245 -0.8964
 6372SOL    HW230753   0.971   4.138   0.763 -0.3190 -0.9158 -2.6384
 6373SOL     OW30754   0.111   4.138  16.080  0.3239 -0.2053  0.5366
 6373SOL    HW130755   0.130   4.134  16.174 -0.9288  0.8089  0.8195
 6373SOL    HW230756   0.115   4.234  16.076  1.2868 -0.1607  2.3131
 6374SOL     OW30757   2.389   4.038  15.606 -0.0095 -0.1859  0.4272
 6374SOL    HW130758   2.430   4.122  15.585 -1.6261  1.0952  2.2959
 6374SOL    HW230759   2.452   4.002  15.669  1.4243  1.1848 -0.2302
 6375SOL     OW30760   3.710   3.959   2.019  0.0183  0.4512 -0.2907
 6375SOL    HW130761   3.693   3.989   1.930 -0.2431 -1.3917 -0.8736
 6375SOL    HW230762   3.779   3.896   1.995 -0.9207 -0.1964 -1.2942
 6376SOL     OW30763   4.348   2.107   8.276  0.2919  0.5537  0.1572
 6376SOL    HW130764   4.268   2.058   8.257  0.3075  0.5258  0.1622
 6376SOL    HW230765   4.381   2.117   8.187  0.1399 -1.3976 -0.1146
 6377SOL     OW30766   1.377   2.132   3.054 -0.5517 -0.2347  0.2436
 6377SOL    HW130767   1.289   2.156   3.081 -0.4668 -0.2971  0.5737
 6377SOL    HW230768   1.366   2.066   2.986 -1.5522  1.8526 -1.5997
 6378SOL     OW30769   2.514   2.513   5.626  0.1761  0.7225 -0.4197
 6378SOL    HW130770   2.588   2.518   5.686  0.5499 -0.1015 -0.8200
 6378SOL    HW230771   2.497   2.420   5.640 -1.2010  0.9068 -0.8472
 6379SOL     OW30772   3.872   2.742   3.732 -0.6376 -0.3893 -0.0794
 6379SOL    HW130773   3.963   2.741   3.701 -0.3561  1.8601  0.6772
 6379SOL    HW230774   3.868   2.810   3.799 -2.5933  1.3108 -1.9004
 6380SOL     OW30775   4.570   2.410  11.870 -0.3970  0.0758  0.3194
 6380SOL    HW130776   4.508   2.372  11.808  0.2240 -0.1053 -0.1921
 6380SOL    HW230777   4.515   2.467  11.923 -1.1960 -1.3334  0.9918
 6381SOL     OW30778   2.808   2.735  10.832  0.2609  0.2624 -0.1279
 6381SOL    HW130779   2.858   2.728  10.750  1.5789 -2.0902  0.8882
 6381SOL    HW230780   2.731   2.783  10.803  1.7968  0.8229 -3.3218
 6382SOL     OW30781   1.466   1.148   7.240 -0.0512 -0.2114  0.1230
 6382SOL    HW130782   1.483   1.091   7.315 -1.4482 -1.2790 -0.3789
 6382SOL    HW230783   1.480   1.074   7.181  1.9579  0.7070 -0.5462
 6383SOL     OW30784   0.388   2.240   7.972 -0.2763  0.3838  0.0692
 6383SOL    HW130785   0.305   2.214   7.932  0.2582 -0.1095 -0.7214
 6383SOL    HW230786   0.372   2.229   8.065 -0.9113 -1.3760 -0.2459
 6384SOL     OW30787   0.405   0.623   3.609  0.1127  0.5253 -0.4592
 6384SOL    HW130788   0.349   0.575   3.548 -0.8191  0.8932  0.0948
 6384SOL    HW230789   0.483   0.621   3.554  0.5119  2.2741  0.0502
 6385SOL     OW30790   0.028   2.053   9.229  0.0855  0.0743 -0.1950
 6385SOL    HW130791   0.012   2.129   9.173  0.3391  1.0780  1.0796
 6385SOL    HW230792   4.672   2.028   9.239  0.3164 -0.2735  1.0637
 6386SOL     OW30793   3.579   0.268   9.751  0.0698  1.0242 -0.0826
 6386SOL    HW130794   3.549   0.321   9.676  0.2810  0.6401 -0.4369
 6386SOL    HW230795   3.509   0.206   9.768  1.5397 -0.9384 -1.2280
 6387SOL     OW30796   0.231   4.199   9.284 -0.1138 -0.4371 -0.0386
 6387SOL    HW130797   0.304   4.185   9.344  2.0990  2.4220 -2.0808
 6387SOL    HW230798   0.177   4.241   9.351 -0.0795  0.7731 -0.7614
 6388SOL     OW30799   0.179   1.680   7.626 -0.1029  0.7865 -0.1924
 6388SOL    HW130800   0.261   1.641   7.654 -1.6904 -0.9661  2.0376
 6388SOL    HW230801   0.131   1.693   7.708 -0.4241 -1.3119 -0.0525
 6389SOL     OW30802   2.744   4.118   8.015 -0.0391  0.5801 -0.0683
 6389SOL    HW130803   2.723   4.101   7.923  0.3727 -0.5419  0.0441
 6389SOL    HW230804   2.839   4.124   8.000  0.1431  2.4409  1.8993
 6390SOL     OW30805   0.497   2.056   7.665  0.3732  0.0913  0.5504
 6390SOL    HW130806   0.574   2.001   7.681  0.2443 -1.0382 -2.6966
 6390SOL    HW230807   0.437   2.020   7.731  1.3347 -2.2287  0.1540
 6391SOL     OW30808   4.582   1.610   1.748  0.4632  0.3067 -0.0843
 6391SOL    HW130809   4.609   1.573   1.664  1.7409  1.6559 -0.2591
 6391SOL    HW230810   4.553   1.697   1.721 -0.5725  0.3588  1.1912
 6392SOL     OW30811   4.432   1.849   3.096 -0.4377 -0.1826 -0.4387
 6392SOL    HW130812   4.341   1.877   3.108 -0.2322 -0.2113  1.2210
 6392SOL    HW230813   4.459   1.812   3.180 -0.9140  0.6186  0.0627
 6393SOL     OW30814   1.330   0.279  13.332  0.0217 -0.6103  0.1435
 6393SOL    HW130815   1.268   0.209  13.352 -1.9351  1.0783  0.0136
 6393SOL    HW230816   1.357   0.250  13.245  0.1839  1.3398 -0.4498
 6394SOL     OW30817   3.392   0.426   2.164  0.5347  0.4788 -0.1111
 6394SOL    HW130818   3.433   0.350   2.124 -0.5823  0.1569 -0.6573
 6394SOL    HW230819   3.408   0.488   2.093 -0.3260  1.0440  0.1894
 6395SOL     OW30820   0.045   4.733  13.351 -0.1624 -0.1508  0.3601
 6395SOL    HW130821   0.083   4.652  13.318  0.7475  0.9004 -1.1674
 6395SOL    HW230822   0.006   4.703  13.433  0.8687  0.9049  1.2363
 6396SOL     OW30823   3.986   1.984  11.843 -0.4503  0.0058 -0.2702
 6396SOL    HW130824   4.024   2.000  11.757  1.0098 -0.7291  0.2478
 6396SOL    HW230825   4.024   1.899  11.864  0.1771  0.5157  0.6329
 6397SOL     OW30826   2.188   3.404   7.277  0.1834  0.3326 -0.1755
 6397SOL    HW130827   2.274   3.436   7.307 -0.2023 -0.1454  1.4279
 6397SOL    HW230828   2.198   3.405   7.182  2.6075  0.7297  0.0773
 6398SOL     OW30829   0.162   1.212  15.280 -0.0383 -0.2527 -0.4941
 6398SOL    HW130830   0.073   1.191  15.251  0.6737  0.9050 -3.5094
 6398SOL    HW230831   0.179   1.132  15.331 -0.6067 -0.7852 -1.1332
 6399SOL     OW30832   3.397   1.822   7.202  0.0517  0.2917  0.5626
 6399SOL    HW130833   3.352   1.740   7.181 -0.7988  0.8085  0.3678
 6399SOL    HW230834   3.487   1.791   7.212  0.4037  2.0912  3.0002
 6400SOL     OW30835   2.779   4.477   7.878  0.5478 -0.3996  0.3917
 6400SOL    HW130836   2.694   4.447   7.909 -0.8303  0.7572 -2.2229
 6400SOL    HW230837   2.830   4.444   7.951 -0.3927  0.8353  1.6010
 6401SOL     OW30838   2.451   1.997   8.133  0.1851  0.7885 -0.2265
 6401SOL    HW130839   2.489   1.933   8.193  1.7948  1.6918 -0.2658
 6401SOL    HW230840   2.456   2.074   8.190  0.2857  2.3954 -2.3679
 6402SOL     OW30841   0.046   2.330   8.630  0.0171 -0.4041 -0.1103
 6402SOL    HW130842   0.010   2.255   8.677 -1.1986 -0.2493 -0.7795
 6402SOL    HW230843   0.032   2.397   8.697  2.3683  1.1281 -1.1836
 6403SOL     OW30844   0.471   4.029   1.273  0.1057 -0.1914  0.1186
 6403SOL    HW130845   0.379   4.004   1.264 -0.1473  0.8134 -0.1280
 6403SOL    HW230846   0.465   4.120   1.244 -0.9910  0.0112  0.9713
 6404SOL     OW30847   2.294   3.613   1.791  0.2232 -0.2107 -0.1149
 6404SOL    HW130848   2.263   3.625   1.881 -1.1208  2.6049 -0.9500
 6404SOL    HW230849   2.238   3.671   1.741  0.7890  1.7682  1.5630
 6405SOL     OW30850   2.252   2.498   1.812 -0.4880  0.6509  0.0490
 6405SOL    HW130851   2.210   2.414   1.792 -1.3747  0.5118  2.4316
 6405SOL    HW230852   2.241   2.547   1.731  0.3784 -0.0630 -0.5075
 6406SOL     OW30853   3.753   2.599   0.968 -0.0373 -0.0699  1.0540
 6406SOL    HW130854   3.795   2.677   1.005 -1.3922  0.2240  1.9647
 6406SOL    HW230855   3.809   2.536   1.013  0.3830 -1.2929 -1.1541
 6407SOL     OW30856   1.684   3.375  16.432 -0.1996  0.1099 -0.1383
 6407SOL    HW130857   1.753   3.419  16.381 -0.8102 -0.1682 -1.2006
 6407SOL    HW230858   1.731   3.297  16.462  1.8033  1.5998  0.5768
 6408SOL     OW30859   1.917   2.713  17.647 -0.1888 -0.2441  0.3767
 6408SOL    HW130860   2.005   2.749  17.663  0.2420 -1.3863  0.5585
 6408SOL    HW230861   1.873   2.788  17.606  3.3951  1.7767  0.2065
 6409SOL     OW30862   1.042   3.630   2.292  0.2616 -0.1521 -0.3534
 6409SOL    HW130863   1.026   3.637   2.386  0.1735 -0.5858 -0.3358
 6409SOL    HW230864   0.952   3.644   2.264  0.3418  2.3139  0.5912
 6410SOL     OW30865   4.273   3.052   2.795 -1.0858 -0.0351  0.1191
 6410SOL    HW130866   4.277   3.122   2.731  1.9180 -0.1783  0.1482
 6410SOL    HW230867   4.273   3.101   2.878 -0.3453  1.1925 -0.6152
 6411SOL     OW30868   4.013   1.315   7.337 -0.6319  0.1565  0.5322
 6411SOL    HW130869   3.986   1.372   7.408 -0.6783 -0.6744  1.1753
 6411SOL    HW230870   4.034   1.385   7.275  2.1811  0.6071  2.0104
 6412SOL     OW30871   4.720   1.474   7.563 -0.5598 -0.2744 -0.1675
 6412SOL    HW130872   0.042   1.548   7.580 -0.0022 -0.6781 -0.3573
 6412SOL    HW230873   0.023   1.414   7.625 -0.3543 -0.9065 -0.9190
 6413SOL     OW30874   2.232   4.045  11.684  0.4998  0.2093 -0.5117
 6413SOL    HW130875   2.222   4.031  11.778 -0.2833  1.0518 -0.4712
 6413SOL    HW230876   2.200   4.135  11.692 -0.4450 -0.1739 -0.0002
 6414SOL     OW30877   4.310   0.726   6.955 -0.1315  0.0104 -0.5515
 6414SOL    HW130878   4.288   0.691   7.042  0.4183  1.2811  0.0871
 6414SOL    HW230879   4.299   0.819   6.971 -0.6427  0.1920 -1.9799
 6415SOL     OW30880   1.373   3.428   1.938 -0.3909  0.5987  0.4197
 6415SOL    HW130881   1.282   3.454   1.927 -0.0147  1.0037 -1.7316
 6415SOL    HW230882   1.379   3.356   2.001 -1.3539  0.7994  0.7294
 6416SOL     OW30883   2.600   1.036   1.644  0.1446 -0.4904  0.5101
 6416SOL    HW130884   2.622   0.963   1.587  2.0542  1.0068 -0.6725
 6416SOL    HW230885   2.506   1.029   1.660 -0.0461 -0.0858 -0.4364
 6417SOL     OW30886   4.149   0.421  15.172 -0.5898 -0.2525  0.6872
 6417SOL    HW130887   4.149   0.333  15.210  1.4300 -0.0403  1.1806
 6417SOL    HW230888   4.147   0.474  15.252  1.5242  0.0530  0.5382
 6418SOL     OW30889   0.151   4.080  11.211 -0.2675  0.3486  0.1712
 6418SOL    HW130890   0.200   4.104  11.133 -1.3671 -0.6899 -0.8358
 6418SOL    HW230891   0.139   3.985  11.208  1.0041  0.1599  0.7457
 6419SOL     OW30892   3.560   2.145   6.420  0.2339  0.4233 -0.1058
 6419SOL    HW130893   3.574   2.139   6.325  0.1165 -0.0337 -0.0949
 6419SOL    HW230894   3.557   2.050   6.437 -2.0637  0.7405  1.2040
 6420SOL     OW30895   0.784   1.448   2.042  0.3414 -0.7014  0.2160
 6420SOL    HW130896   0.743   1.362   2.038 -1.8553  0.2727  2.1017
 6420SOL    HW230897   0.747   1.481   2.123  1.1142  0.6539  0.0210
 6421SOL     OW30898   1.740   2.782   5.777 -0.7333 -0.7361  0.5589
 6421SOL    HW130899   1.686   2.703   5.781 -0.9793 -0.6109 -0.5114
 6421SOL    HW230900   1.683   2.840   5.827  0.8937  1.6177 -0.3619
 6422SOL     OW30901   4.548   4.289  14.456  0.3252  0.1342  0.7241
 6422SOL    HW130902   4.509   4.259  14.538  1.4825 -0.4583  1.0519
 6422SOL    HW230903   4.555   4.205  14.411 -1.3918  0.8499 -0.8999
 6423SOL     OW30904   0.198   3.136   5.050  0.1602  0.6522 -0.1459
 6423SOL    HW130905   0.189   3.043   5.033  0.8042  0.3172  1.3793
 6423SOL    HW230906   0.162   3.169   4.967  0.2611 -0.1824 -0.5177
 6424SOL     OW30907   4.149   3.728   2.528 -0.1035 -0.0850  0.5650
 6424SOL    HW130908   4.137   3.751   2.621  0.7889  0.6931  0.4837
 6424SOL    HW230909   4.224   3.783   2.504 -0.3559 -0.5588 -1.2591
 6425SOL     OW30910   4.590   1.906   6.154 -0.1299 -0.2261  0.5004
 6425SOL    HW130911   4.576   1.997   6.127  1.2277 -0.0666  0.2918
 6425SOL    HW230912   4.685   1.903   6.169  0.0038 -1.1557 -0.5569
 6426SOL     OW30913   4.072   0.375   8.735 -0.2073 -0.4702 -0.4955
 6426SOL    HW130914   4.132   0.331   8.675 -0.5687  2.3513 -2.8759
 6426SOL    HW230915   4.066   0.459   8.690  2.1305  1.0927  2.1076
 6427SOL     OW30916   1.585   0.998   5.433 -0.6227 -0.4978  0.3679
 6427SOL    HW130917   1.503   1.033   5.467 -1.7984 -0.6335 -2.3078
 6427SOL    HW230918   1.638   0.972   5.508 -1.0035  2.4221  1.6338
 6428SOL     OW30919   1.358   3.492   4.819 -0.4046  0.4732  0.2663
 6428SOL    HW130920   1.446   3.515   4.849 -0.3419  1.1318 -0.4129
 6428SOL    HW230921   1.360   3.403   4.784 -0.6575  1.1848 -1.5564
 6429SOL     OW30922   0.820   4.258   1.896  0.1737 -0.1355  0.4167
 6429SOL    HW130923   0.887   4.206   1.850 -2.4652 -0.8093 -2.6757
 6429SOL    HW230924   0.746   4.202   1.875  0.6204 -0.3456 -0.6182
 6430SOL     OW30925   0.226   3.729  14.490 -0.3716 -0.1995 -0.1127
 6430SOL    HW130926   0.230   3.804  14.431  3.7641 -0.6863 -0.4367
 6430SOL    HW230927   0.151   3.769  14.535 -0.5727 -0.0091 -0.6235
 6431SOL     OW30928   0.482   4.524  17.559  0.7475 -0.4033  0.5755
 6431SOL    HW130929   0.417   4.590  17.534 -1.6312 -3.5484 -1.5410
 6431SOL    HW230930   0.539   4.578  17.614  2.1812 -1.9076  0.5744
 6432SOL     OW30931   4.097   3.686   8.747  0.5209 -0.1128 -0.0800
 6432SOL    HW130932   4.134   3.764   8.706  0.0321  0.5176  0.6679
 6432SOL    HW230933   4.180   3.651   8.779  1.2366  2.7768  1.2224
 6433SOL     OW30934   4.085   1.031   0.127  0.8523 -0.4121  0.0891
 6433SOL    HW130935   4.172   1.044   0.088  1.1087  2.5458  1.6816
 6433SOL    HW230936   4.095   1.033   0.222  0.9933  0.4793  0.0559
 6434SOL     OW30937   4.529   4.625  11.844 -0.0386  0.1543  0.2479
 6434SOL    HW130938   4.559   4.569  11.773 -0.3274 -0.5604  0.6871
 6434SOL    HW230939   4.542   4.711  11.804  1.7778  0.5124  1.6127
 6435SOL     OW30940   4.195   0.055   8.861 -0.3220 -0.6807 -0.2779
 6435SOL    HW130941   4.151   0.022   8.783  0.6581 -0.9055 -0.7249
 6435SOL    HW230942   4.128   0.067   8.928  0.2619 -2.1310  0.5509
 6436SOL     OW30943   3.180   4.012   4.256 -0.3603 -0.0790 -0.4263
 6436SOL    HW130944   3.139   4.068   4.189 -1.5442  1.4287  1.5494
 6436SOL    HW230945   3.152   4.051   4.339 -0.6766  0.1452 -0.6358
 6437SOL     OW30946   1.168   3.561  16.863  0.6388  0.0026 -0.4556
 6437SOL    HW130947   1.241   3.596  16.811  0.5039  2.7883  1.2236
 6437SOL    HW230948   1.194   3.609  16.941  0.2784  2.1749 -1.6625
 6438SOL     OW30949   3.538   4.367   7.778  0.1037  0.2872  0.3906
 6438SOL    HW130950   3.622   4.333   7.809  0.1023 -1.6153 -1.6472
 6438SOL    HW230951   3.580   4.433   7.722  0.4316 -0.2844 -0.0492
 6439SOL     OW30952   0.788   1.778   7.196  0.2850  0.0401  0.9283
 6439SOL    HW130953   0.840   1.723   7.137 -1.2159 -0.8100  0.3911
 6439SOL    HW230954   0.820   1.745   7.280  0.3916 -2.2732 -0.0273
 6440SOL     OW30955   3.941   3.181  16.896  0.5456  0.0411  0.2799
 6440SOL    HW130956   3.925   3.090  16.922 -1.9805  0.0160 -1.3449
 6440SOL    HW230957   4.011   3.163  16.833  0.0206 -1.5269  0.1262
 6441SOL     OW30958   3.018   1.311   8.241 -0.3772  0.3075 -0.2663
 6441SOL    HW130959   2.967   1.312   8.322  2.6869  0.8385  1.6439
 6441SOL    HW230960   3.053   1.400   8.239  0.6366 -0.0944 -0.6448
 6442SOL     OW30961   3.570   1.106   6.964 -0.5156  0.2787  0.4168
 6442SOL    HW130962   3.644   1.054   6.936 -2.1173 -0.9291 -1.5571
 6442SOL    HW230963   3.517   1.105   6.884  1.0322  0.8465 -0.5959
 6443SOL     OW30964   4.622   2.358   9.540  0.2540 -0.5472  0.4324
 6443SOL    HW130965   4.614   2.452   9.525  1.1130 -0.6999 -0.8853
 6443SOL    HW230966   4.680   2.336   9.468  1.3478 -0.0144  1.1535
 6444SOL     OW30967   4.106   1.884   2.259 -0.2015 -0.2542  0.5417
 6444SOL    HW130968   4.107   1.973   2.294 -0.4676 -0.5737  1.3449
 6444SOL    HW230969   4.187   1.877   2.208  1.2580  3.2287  2.4257
 6445SOL     OW30970   2.913   1.877   1.591 -0.1837 -0.0525 -0.3334
 6445SOL    HW130971   2.977   1.821   1.546 -0.4516 -0.6339  0.0179
 6445SOL    HW230972   2.899   1.836   1.676 -1.5522 -2.1423 -1.5772
 6446SOL     OW30973   3.223   0.628   8.769  0.1018 -0.0278  0.0759
 6446SOL    HW130974   3.177   0.700   8.727 -1.2236 -0.2483  1.1657
 6446SOL    HW230975   3.152   0.564   8.780  0.6733 -0.6999 -0.0753
 6447SOL     OW30976   0.985   2.624   2.786 -0.6621 -0.3515 -0.1529
 6447SOL    HW130977   0.917   2.574   2.742  0.0575 -0.7722 -0.8012
 6447SOL    HW230978   1.059   2.612   2.727 -2.4600  1.3131 -2.7143
 6448SOL     OW30979   0.181   3.406   2.453 -0.4775 -0.4161 -0.0428
 6448SOL    HW130980   0.243   3.401   2.380  0.2176  2.1391  0.3633
 6448SOL    HW230981   0.145   3.491   2.429 -2.6800 -0.8052  1.8816
 6449SOL     OW30982   2.944   0.626  13.907  0.6727 -0.2293 -0.1511
 6449SOL    HW130983   2.952   0.564  13.980  3.7374 -3.2932 -3.0933
 6449SOL    HW230984   2.908   0.699  13.959  1.7295  1.3529 -1.6443
 6450SOL     OW30985   0.636   1.659  12.686 -0.1951  0.2784  0.7094
 6450SOL    HW130986   0.673   1.630  12.769  0.8716 -0.7573 -0.1375
 6450SOL    HW230987   0.558   1.604  12.686  0.3469 -0.4890 -2.9244
 6451SOL     OW30988   4.026   0.398   3.076  0.2310  0.2652  0.2104
 6451SOL    HW130989   3.981   0.442   3.149 -0.9010  3.9322 -2.6972
 6451SOL    HW230990   4.117   0.410   3.102  0.4092 -1.0736  0.1914
 6452SOL     OW30991   1.311   4.108   4.469  0.0150 -0.0573 -0.2348
 6452SOL    HW130992   1.332   4.198   4.444  0.6990 -0.5094 -1.2755
 6452SOL    HW230993   1.301   4.119   4.564  4.2701  0.1644  0.1884
 6453SOL     OW30994   4.595   1.826   8.288 -0.7719 -0.8867 -0.2345
 6453SOL    HW130995   4.551   1.785   8.362  1.7190 -1.7232  0.8166
 6453SOL    HW230996   4.683   1.794   8.310 -0.1651  2.0216  1.4996
 6454SOL     OW30997   4.049   0.764   7.652  0.9186 -0.7193 -0.5001
 6454SOL    HW130998   4.134   0.781   7.694  0.0637 -0.6324  1.1701
 6454SOL    HW230999   4.082   0.763   7.562  1.9737 -0.9773 -0.1117
 6455SOL     OW31000   2.579   0.733  11.755 -0.0369  0.2731 -0.6156
 6455SOL    HW131001   2.657   0.690  11.791 -0.6740 -0.7312 -0.4334
 6455SOL    HW231002   2.588   0.723  11.661 -0.5567 -0.6764 -0.5626
 6456SOL     OW31003   1.104   0.530   1.584  0.4596  0.3488 -0.7537
 6456SOL    HW131004   1.092   0.611   1.635 -1.5179 -0.7182  0.4689
 6456SOL    HW231005   1.170   0.484   1.635 -1.3607 -0.2595  1.0585
 6457SOL     OW31006   3.825   0.872   0.750  0.0306  0.3001 -0.3650
 6457SOL    HW131007   3.736   0.852   0.780 -0.8102  0.6897 -2.6603
 6457SOL    HW231008   3.827   0.844   0.659 -0.2941 -1.0822  0.0540
 6458SOL     OW31009   4.394   2.378   8.113 -0.1982 -0.1282 -0.7615
 6458SOL    HW131010   4.413   2.287   8.089 -1.5389 -0.9641  1.3860
 6458SOL    HW231011   4.299   2.385   8.117  0.2297  2.7393  4.1747
 6459SOL     OW31012   3.518   2.308  16.862 -0.5170 -0.3162  0.0738
 6459SOL    HW131013   3.534   2.371  16.792  2.2187 -3.0353 -1.7875
 6459SOL    HW231014   3.601   2.307  16.909  0.9585 -0.1257 -2.5089
 6460SOL     OW31015   2.448   0.500   3.998 -0.0296 -0.0655 -0.0016
 6460SOL    HW131016   2.369   0.476   3.948  1.0169  0.9406 -2.1105
 6460SOL    HW231017   2.417   0.468   4.083  1.3147  1.0577  0.9043
 6461SOL     OW31018   0.592   3.133   3.994  0.0909  0.0227 -0.4668
 6461SOL    HW131019   0.561   3.146   4.084  0.4265  0.0804 -0.3608
 6461SOL    HW231020   0.653   3.206   3.986 -0.6331  0.6850  0.0242
 6462SOL     OW31021   4.454   2.164   5.476  0.3650  0.2521  0.6255
 6462SOL    HW131022   4.358   2.165   5.478  0.3146 -0.2951 -1.8585
 6462SOL    HW231023   4.469   2.224   5.549 -1.2914  1.2596  0.1379
 6463SOL     OW31024   3.912   2.447   9.347  0.3235  0.2042  0.0850
 6463SOL    HW131025   3.980   2.384   9.373  0.5935  0.0384 -1.0442
 6463SOL    HW231026   3.902   2.441   9.252  0.5855 -1.9819  0.1939
 6464SOL     OW31027   1.194   0.297   8.511 -0.4778 -0.7922 -0.0174
 6464SOL    HW131028   1.138   0.353   8.565 -1.1186 -0.9646 -0.5072
 6464SOL    HW231029   1.192   0.210   8.552  1.2975 -1.1644 -0.7258
 6465SOL     OW31030   4.436   3.824   5.084  0.2269 -0.3870  0.0657
 6465SOL    HW131031   4.400   3.752   5.032 -0.6484  0.2403 -0.2046
 6465SOL    HW231032   4.364   3.843   5.144 -0.2683 -1.5050 -0.1722
 6466SOL     OW31033   1.614   1.346  15.504 -0.4454  0.2047 -0.0201
 6466SOL    HW131034   1.606   1.439  15.522  0.1862 -0.1907  2.1774
 6466SOL    HW231035   1.569   1.348  15.419 -2.2350 -1.6841  0.8629
 6467SOL     OW31036   2.193   4.403   4.469  0.1978 -0.1954  0.1367
 6467SOL    HW131037   2.146   4.413   4.551 -0.9629  1.4099 -0.7323
 6467SOL    HW231038   2.215   4.492   4.444 -3.2907 -0.0157 -2.2174
 6468SOL     OW31039   4.277   1.999   7.653 -0.0677  0.4750  0.5775
 6468SOL    HW131040   4.346   2.063   7.637  0.9425 -1.2721 -2.1861
 6468SOL    HW231041   4.294   1.941   7.578  0.3475  1.4840 -0.1039
 6469SOL     OW31042   3.623   3.052   8.410  0.3654  0.3810  0.0673
 6469SOL    HW131043   3.640   3.146   8.404 -2.3152  0.9306  0.9322
 6469SOL    HW231044   3.535   3.046   8.373 -0.8616  4.0185  2.3066
 6470SOL     OW31045   2.231   4.624   3.000  0.2488  0.1059 -0.4658
 6470SOL    HW131046   2.150   4.580   3.024  1.5274 -1.6371  0.6248
 6470SOL    HW231047   2.278   4.550   2.963 -0.1772 -0.6685  0.5234
 6471SOL     OW31048   0.975   4.732   8.422 -0.4974 -0.0163  0.5143
 6471SOL    HW131049   0.912   0.067   8.413  1.0298  1.4574  1.5245
 6471SOL    HW231050   1.030   0.040   8.487 -1.0379  0.8997  0.3395
 6472SOL     OW31051   1.536   4.470   4.123  0.2817  0.9315 -0.4610
 6472SOL    HW131052   1.571   4.459   4.035  2.8019  1.1787  0.5187
 6472SOL    HW231053   1.532   4.565   4.127  2.5771  0.9485  1.4305
 6473SOL     OW31054   2.627   0.795   8.863 -0.4220 -1.1435 -0.3504
 6473SOL    HW131055   2.708   0.750   8.888  0.4033  1.2613  1.1905
 6473SOL    HW231056   2.604   0.850   8.937  0.0787 -0.8699 -0.4028
 6474SOL     OW31057   0.617   2.028  10.348  0.2488  0.4454 -0.7069
 6474SOL    HW131058   0.652   1.941  10.368  2.9030  0.8081 -3.7516
 6474SOL    HW231059   0.685   2.057  10.287 -1.6800  2.2288 -2.0164
 6475SOL     OW31060   2.469   4.643  10.014 -0.2489  0.4175 -0.0345
 6475SOL    HW131061   2.441   4.669  10.101  0.2373  3.2703 -0.7367
 6475SOL    HW231062   2.524   4.568  10.036 -0.1463  0.5166  0.0429
 6476SOL     OW31063   0.975   3.935   2.461 -0.4654  0.7897  0.0252
 6476SOL    HW131064   1.051   3.991   2.445  1.1904 -1.9364 -1.6060
 6476SOL    HW231065   0.960   3.942   2.555 -0.6393  0.9449 -0.0159
 6477SOL     OW31066   1.267   2.947   4.711  0.1924 -0.0259 -0.6415
 6477SOL    HW131067   1.205   3.004   4.666 -1.0006 -1.7479 -1.1956
 6477SOL    HW231068   1.302   3.004   4.779 -0.5606 -1.0197  0.5732
 6478SOL     OW31069   2.931   1.993   2.497 -0.3112  0.4889  0.7639
 6478SOL    HW131070   2.893   1.968   2.581  2.7552  1.0159  2.3077
 6478SOL    HW231071   2.931   1.909   2.452  1.3773  1.9345 -1.8932
 6479SOL     OW31072   4.363   3.914   0.806 -0.3607 -0.0346 -0.2116
 6479SOL    HW131073   4.404   3.922   0.721 -0.0129  0.5422  0.0139
 6479SOL    HW231074   4.343   4.005   0.829 -0.0333  0.2667 -1.1573
 6480SOL     OW31075   0.713   1.948   5.098 -0.0174 -0.1400 -0.4800
 6480SOL    HW131076   0.697   1.934   5.005  0.6946  0.3674 -0.6693
 6480SOL    HW231077   0.647   2.011   5.129 -0.7929 -1.7017  1.0760
 6481SOL     OW31078   2.384   2.539  12.455  0.4787 -0.3031 -0.6478
 6481SOL    HW131079   2.398   2.519  12.548  1.5401  1.5184 -0.4134
 6481SOL    HW231080   2.332   2.463  12.428  0.6181 -0.4998 -0.3743
 6482SOL     OW31081   0.369   1.148   8.116  0.2220  0.1589  0.5075
 6482SOL    HW131082   0.372   1.077   8.180 -1.7439 -1.0168 -0.6943
 6482SOL    HW231083   0.462   1.169   8.121  0.7496 -2.0792  0.0333
 6483SOL     OW31084   4.493   4.707   4.298 -0.0402 -0.0155 -0.1797
 6483SOL    HW131085   4.505   4.732   4.206  0.5795 -1.7527 -0.5838
 6483SOL    HW231086   4.504   4.612   4.303  1.7672  0.2067  0.0433
 6484SOL     OW31087   1.052   4.007   6.715 -0.0357  0.0127  0.1426
 6484SOL    HW131088   1.124   4.037   6.660 -0.0439  1.4778  0.9601
 6484SOL    HW231089   1.072   3.915   6.695 -0.0308  0.1483 -0.4946
 6485SOL     OW31090   4.334   3.432   1.529  0.4873  0.0846 -0.4237
 6485SOL    HW131091   4.299   3.415   1.617 -0.6031 -2.0045 -1.2640
 6485SOL    HW231092   4.389   3.354   1.517  0.3379 -0.4636  2.4088
 6486SOL     OW31093   2.318   3.858   4.834  0.2172  0.3017 -0.5919
 6486SOL    HW131094   2.304   3.806   4.755  0.7832 -2.2127  0.9561
 6486SOL    HW231095   2.354   3.940   4.799  1.4602 -0.4240 -1.0110
 6487SOL     OW31096   0.063   1.041   8.977 -0.5293 -0.4179 -0.0880
 6487SOL    HW131097   0.016   1.120   9.005  0.7629  0.7271 -1.1801
 6487SOL    HW231098   0.055   1.036   8.882 -2.2004  2.0718 -0.0858
 6488SOL     OW31099   4.338   3.527  10.411 -0.2518 -0.6583  0.2472
 6488SOL    HW131100   4.312   3.530  10.319 -0.1535 -0.3467  0.2291
 6488SOL    HW231101   4.256   3.543  10.457  0.8493 -1.2741  2.3915
 6489SOL     OW31102   1.825   0.940   5.560  0.1497 -0.5205  0.2701
 6489SOL    HW131103   1.830   0.850   5.528  0.1134 -0.4894  0.1761
 6489SOL    HW231104   1.889   0.934   5.632  0.9342  0.0742 -0.3767
 6490SOL     OW31105   2.353   3.772  11.906  0.0419  0.6490 -0.3770
 6490SOL    HW131106   2.306   3.755  11.825 -0.6721  0.4728  0.0803
 6490SOL    HW231107   2.301   3.841  11.947  1.1507 -0.3971  2.7662
 6491SOL     OW31108   1.007   2.140  15.184  0.3609  0.0630  0.3352
 6491SOL    HW131109   1.059   2.061  15.179 -0.8692 -0.7520  0.4228
 6491SOL    HW231110   1.048   2.182  15.260  1.0207 -1.4376  0.8006
 6492SOL     OW31111   4.345   1.521  13.195 -0.2523 -0.4633  0.5009
 6492SOL    HW131112   4.396   1.598  13.168 -0.8493  0.7431  2.8361
 6492SOL    HW231113   4.414   1.455  13.189 -1.3334 -1.6074  0.8030
 6493SOL     OW31114   1.112   2.731   2.313  0.7352 -0.9055  0.4499
 6493SOL    HW131115   1.121   2.820   2.277 -1.8775 -0.1085  1.7357
 6493SOL    HW231116   1.166   2.682   2.251  0.2753 -1.5314  0.5543
 6494SOL     OW31117   2.538   1.777   3.472 -0.2158  0.5974 -0.7249
 6494SOL    HW131118   2.575   1.815   3.392 -0.4194 -0.6443 -1.4111
 6494SOL    HW231119   2.619   1.781   3.523 -0.0127  0.0358 -1.0091
 6495SOL     OW31120   3.644   2.786   6.148 -0.0735 -0.1156  0.1706
 6495SOL    HW131121   3.580   2.815   6.083  1.2401  0.0530 -1.0350
 6495SOL    HW231122   3.652   2.691   6.133  0.6209  0.1637 -1.1722
 6496SOL     OW31123   0.525   0.913   8.859 -0.1669  0.0257  0.1005
 6496SOL    HW131124   0.466   0.910   8.934  0.5409 -4.2140  0.4532
 6496SOL    HW231125   0.537   1.007   8.846 -2.1517 -0.0913 -2.6068
 6497SOL     OW31126   2.063   4.687   9.542 -0.3354 -0.0879  0.2676
 6497SOL    HW131127   1.972   4.660   9.530 -0.9350  1.5463  1.0501
 6497SOL    HW231128   2.105   4.617   9.492 -1.9869 -0.4369 -0.6268
 6498SOL     OW31129   3.035   1.500   9.742  0.1461  0.2945  0.2952
 6498SOL    HW131130   3.019   1.417   9.698 -1.2135  0.4211  0.5505
 6498SOL    HW231131   3.113   1.473   9.791  1.1471  1.0028 -0.9075
 6499SOL     OW31132   1.196   3.125   5.156 -0.3419  0.1235  0.0363
 6499SOL    HW131133   1.140   3.130   5.079 -0.5101 -0.2336  0.1361
 6499SOL    HW231134   1.148   3.180   5.218 -0.8701  0.9451 -1.0889
 6500SOL     OW31135   2.694   0.551   4.212  0.1761 -0.3369 -0.2675
 6500SOL    HW131136   2.602   0.559   4.238 -0.4156 -1.1504 -2.1312
 6500SOL    HW231137   2.723   0.481   4.270  0.9246 -0.8758 -1.2990
 6501SOL     OW31138   0.345   0.951   5.900  0.5874 -0.3202 -0.0715
 6501SOL    HW131139   0.417   0.917   5.953 -0.3902  1.2549  2.2887
 6501SOL    HW231140   0.372   1.043   5.893 -0.2988  0.0245  1.0193
 6502SOL     OW31141   0.660   0.159   2.791 -0.8481 -0.2404  0.3700
 6502SOL    HW131142   0.704   0.203   2.718  1.1660  1.3168  2.5485
 6502SOL    HW231143   0.602   0.227   2.826 -1.2045 -1.4161  2.0233
 6503SOL     OW31144   0.408   1.355   8.562 -0.3390  0.1477 -0.4225
 6503SOL    HW131145   0.425   1.449   8.558 -2.9615  0.6166 -0.9143
 6503SOL    HW231146   0.321   1.351   8.602 -0.8700 -1.8768 -1.7837
 6504SOL     OW31147   4.198   1.306   7.635 -0.6217  0.2888 -0.2514
 6504SOL    HW131148   4.145   1.382   7.614 -1.3269 -0.1849 -0.1819
 6504SOL    HW231149   4.267   1.345   7.689 -1.5605 -0.9555  1.8408
 6505SOL     OW31150   3.504   3.636   7.934  0.1954 -0.2360 -0.0920
 6505SOL    HW131151   3.537   3.718   7.898 -3.5001  1.5018  0.4084
 6505SOL    HW231152   3.456   3.597   7.861  1.7191 -0.4046 -1.0042
 6506SOL     OW31153   0.346   0.561   6.272  0.5739 -0.1362 -0.2465
 6506SOL    HW131154   0.338   0.638   6.328  0.7941  0.3184 -0.8530
 6506SOL    HW231155   0.275   0.509   6.311  0.6765 -0.1766 -0.1112
 6507SOL     OW31156   1.567   1.203   4.417 -0.1920 -0.9177 -0.6665
 6507SOL    HW131157   1.657   1.181   4.392  0.6826 -0.5643  2.2441
 6507SOL    HW231158   1.573   1.197   4.512 -1.0096  1.5250 -0.4688
 6508SOL     OW31159   3.245   0.011  17.661 -0.2248 -0.5601 -0.3529
 6508SOL    HW131160   3.320   4.695  17.690  0.7722  0.7709 -0.5036
 6508SOL    HW231161   3.177   4.681  17.662 -2.2186  1.4497 -1.0116
 6509SOL     OW31162   2.541   2.609  13.801 -0.0745 -0.3227 -0.5621
 6509SOL    HW131163   2.574   2.519  13.802  1.3157  0.1808 -1.1042
 6509SOL    HW231164   2.607   2.652  13.855  1.0337 -0.9300 -1.4211
 6510SOL     OW31165   2.187   0.762  12.015  0.0851 -0.5664  0.4178
 6510SOL    HW131166   2.176   0.719  11.931  0.2020 -1.4066  0.8275
 6510SOL    HW231167   2.276   0.737  12.040  0.9456  2.5822  0.5200
 6511SOL     OW31168   2.526   4.169  10.133 -0.0489  0.1484  0.1566
 6511SOL    HW131169   2.516   4.137  10.044 -1.1931  1.9348 -0.3337
 6511SOL    HW231170   2.509   4.088  10.183  1.4260 -0.9876 -1.1927
 6512SOL     OW31171   0.454   3.320  13.483  0.8790 -0.3829  0.6239
 6512SOL    HW131172   0.502   3.376  13.421 -0.8811  0.3870 -0.0446
 6512SOL    HW231173   0.364   3.352  13.482  1.4505  1.2278 -1.6963
 6513SOL     OW31174   0.384   3.550  17.499  0.7402 -0.0603  0.2854
 6513SOL    HW131175   0.400   3.500  17.579  1.8216 -0.7478 -0.3695
 6513SOL    HW231176   0.347   3.621  17.552  0.8080 -0.3693  0.7502
 6514SOL     OW31177   2.636   3.713   2.120  0.4090 -0.1287 -0.5450
 6514SOL    HW131178   2.620   3.806   2.101 -3.4043 -0.5753  0.4988
 6514SOL    HW231179   2.560   3.671   2.080 -1.1094  2.8034 -0.7258
 6515SOL     OW31180   3.936   4.472   5.116  0.0550  0.2722  0.0984
 6515SOL    HW131181   3.915   4.397   5.062 -0.5557 -0.0700  0.8093
 6515SOL    HW231182   3.988   4.533   5.064  1.5043  0.0457  1.2964
 6516SOL     OW31183   3.386   3.880   5.592  0.0312  0.0106 -0.6422
 6516SOL    HW131184   3.292   3.896   5.583 -0.1894 -0.7621  0.2562
 6516SOL    HW231185   3.397   3.910   5.682 -0.4192 -1.5533 -0.0689
 6517SOL     OW31186   1.031   0.870  13.249 -0.1912  0.3342 -0.0349
 6517SOL    HW131187   1.109   0.816  13.234 -1.6646 -2.0371  0.9064
 6517SOL    HW231188   0.972   0.803  13.283  0.3717  0.0256  0.3335
 6518SOL     OW31189   2.550   1.035   5.848  0.0564  0.2592 -0.5651
 6518SOL    HW131190   2.541   1.124   5.883  2.9072  0.7486 -1.0864
 6518SOL    HW231191   2.646   1.032   5.845  0.0843  2.6677 -2.4529
 6519SOL     OW31192   1.319   4.099  14.024 -0.0681 -0.1575  0.0950
 6519SOL    HW131193   1.254   4.030  14.042 -0.3320 -0.1717 -0.9047
 6519SOL    HW231194   1.265   4.178  14.030  2.3863  1.4999  0.2135
 6520SOL     OW31195   4.723   2.956  14.571  0.3061  0.3960  0.1235
 6520SOL    HW131196   0.078   2.937  14.548 -0.4875 -1.9554 -1.1235
 6520SOL    HW231197   4.731   3.017  14.644 -2.2587  0.8059  0.0371
 6521SOL     OW31198   1.851   0.013   8.048 -0.3700  0.0694 -0.0435
 6521SOL    HW131199   1.900   4.732   8.128  2.2288  0.6382 -1.5157
 6521SOL    HW231200   1.777   4.695   8.074 -0.7425 -0.1360 -1.5589
 6522SOL     OW31201   3.576   2.436   5.197 -0.7819 -0.3462  0.4877
 6522SOL    HW131202   3.521   2.501   5.153 -1.4277 -1.0851  0.2080
 6522SOL    HW231203   3.637   2.424   5.124 -0.6090 -0.2692  0.6176
 6523SOL     OW31204   1.001   0.026   3.985  0.6377 -0.1707  0.3743
 6523SOL    HW131205   1.014   4.719   4.069 -0.6800 -0.0797  0.6273
 6523SOL    HW231206   0.988   4.686   3.930 -0.0415  0.1716  0.0525
 6524SOL     OW31207   2.062   4.449   8.102 -0.2301 -0.8838 -0.2783
 6524SOL    HW131208   2.065   4.514   8.172 -1.4080 -1.2131  0.0855
 6524SOL    HW231209   2.128   4.478   8.040 -0.6040 -0.4585 -0.4806
 6525SOL     OW31210   2.456   4.348  16.720 -0.0086  0.2247  0.2711
 6525SOL    HW131211   2.482   4.380  16.807  1.2623  0.1451 -0.0751
 6525SOL    HW231212   2.440   4.257  16.743 -1.0206  0.3769  0.1735
 6526SOL     OW31213   1.215   0.706   3.930 -0.3739  0.2983 -0.3222
 6526SOL    HW131214   1.205   0.800   3.918 -2.2618  0.1827  0.3274
 6526SOL    HW231215   1.138   0.683   3.878  0.5990  1.9918 -2.5459
 6527SOL     OW31216   3.277   3.429   3.346  0.1386 -0.0787  0.0818
 6527SOL    HW131217   3.293   3.499   3.282 -1.2072  1.0822  1.0088
 6527SOL    HW231218   3.288   3.478   3.428 -0.6074 -2.4970  1.6293
 6528SOL     OW31219   3.994   3.002   2.297  0.2721  0.0242  0.5166
 6528SOL    HW131220   3.933   3.074   2.280  0.3178 -0.3590 -1.3023
 6528SOL    HW231221   4.033   3.045   2.373  0.3679  0.2964  0.3132
 6529SOL     OW31222   4.165   3.206   9.697  0.4532 -0.0349  0.0173
 6529SOL    HW131223   4.206   3.255   9.626 -0.9030  0.0558 -0.7102
 6529SOL    HW231224   4.107   3.152   9.643  1.3320 -0.2871 -0.6647
 6530SOL     OW31225   2.759   3.208   6.136  0.0383  0.8579 -0.3919
 6530SOL    HW131226   2.772   3.290   6.183  1.6596  1.3363 -1.6860
 6530SOL    HW231227   2.664   3.214   6.139  0.1069  0.6208  2.1303
 6531SOL     OW31228   3.951   1.931   5.697  0.3710 -0.1660 -0.3118
 6531SOL    HW131229   4.029   1.979   5.725  1.3773 -1.9363 -0.1097
 6531SOL    HW231230   3.984   1.887   5.619  3.0870  2.2708 -0.5549
 6532SOL     OW31231   3.718   0.680   5.089 -0.2645 -0.2161 -0.3817
 6532SOL    HW131232   3.672   0.762   5.071  0.3279 -0.0099 -0.9294
 6532SOL    HW231233   3.807   0.715   5.095  0.9417 -3.3898  0.1089
 6533SOL     OW31234   4.234   1.903   3.582 -0.2701  0.4679 -0.5603
 6533SOL    HW131235   4.256   1.987   3.541 -1.9137  0.9578 -0.4230
 6533SOL    HW231236   4.318   1.890   3.626  0.1309  0.4987 -1.3248
 6534SOL     OW31237   4.496   2.714   2.323 -0.6159  0.0244 -0.2159
 6534SOL    HW131238   4.560   2.776   2.290  0.2063 -0.5832  0.2293
 6534SOL    HW231239   4.525   2.696   2.412 -1.7892 -2.9166 -0.4177
 6535SOL     OW31240   0.238   1.123   2.980  0.4629  0.1231  0.0084
 6535SOL    HW131241   0.179   1.149   3.051  0.8484 -1.3131  0.8603
 6535SOL    HW231242   0.179   1.072   2.925 -0.8154  2.3520 -0.6855
 6536SOL     OW31243   0.294   2.132   4.959  0.4977  0.3622  0.7230
 6536SOL    HW131244   0.323   2.055   4.909 -0.7515  0.0190  0.5247
 6536SOL    HW231245   0.346   2.195   4.909 -2.2475  1.3696 -0.8793
 6537SOL     OW31246   2.824   3.088   9.713 -0.5041  0.0264 -0.6324
 6537SOL    HW131247   2.878   3.040   9.650  0.1384 -1.1796  0.8410
 6537SOL    HW231248   2.788   3.019   9.768  2.9366  0.1952  1.8185
 6538SOL     OW31249   0.909   0.962   2.119 -0.1301 -0.6404  0.5447
 6538SOL    HW131250   0.961   0.961   2.199  1.3656 -0.7406 -0.4300
 6538SOL    HW231251   0.962   0.925   2.049 -2.9796 -0.5412 -1.6506
 6539SOL     OW31252   0.742   4.501   6.198 -0.1844  0.1415  0.0876
 6539SOL    HW131253   0.700   4.550   6.269  1.6367 -0.8826  1.9032
 6539SOL    HW231254   0.670   4.438   6.191  0.1269 -0.4579  2.1830
 6540SOL     OW31255   2.294   1.085  15.939 -0.0875  0.3524  0.7363
 6540SOL    HW131256   2.336   1.162  15.977 -1.7037  0.8237  1.6050
 6540SOL    HW231257   2.351   1.012  15.961 -0.3250  0.6468  2.3809
 6541SOL     OW31258   2.870   2.876  17.043 -1.0285 -1.0792  0.0288
 6541SOL    HW131259   2.924   2.797  17.046  1.3599  0.4295 -2.6405
 6541SOL    HW231260   2.882   2.892  16.949  0.6202 -0.6596  0.3043
 6542SOL     OW31261   1.011   2.779  11.210 -0.1409  0.0197  0.4125
 6542SOL    HW131262   1.011   2.799  11.303  1.5598  0.2946  0.3508
 6542SOL    HW231263   0.994   2.685  11.209  2.6639 -0.4740 -1.6112
 6543SOL     OW31264   2.955   0.867   1.846  0.2692  0.3772 -0.1335
 6543SOL    HW131265   2.956   0.859   1.751 -1.3522  3.1267 -0.3866
 6543SOL    HW231266   2.865   0.835   1.852  0.5255  0.5007  4.2068
 6544SOL     OW31267   2.828   3.478   4.323  0.3456  0.0049 -0.3448
 6544SOL    HW131268   2.871   3.560   4.349  2.2343 -0.8769 -0.6929
 6544SOL    HW231269   2.794   3.450   4.408  3.7090 -0.5942  0.8021
 6545SOL     OW31270   0.448   1.063   6.911  0.5087 -0.0475  0.0054
 6545SOL    HW131271   0.533   1.069   6.955  2.4962 -0.6938 -3.7761
 6545SOL    HW231272   0.430   0.971   6.894 -1.2166  0.3859 -0.5121
 6546SOL     OW31273   2.057   3.625   4.497 -0.0179  0.3734 -0.0039
 6546SOL    HW131274   1.972   3.650   4.533  0.1869 -1.8069  2.0193
 6546SOL    HW231275   2.027   3.559   4.434  1.4086  2.2941 -2.7134
 6547SOL     OW31276   4.003   2.194   5.844  0.2291 -0.5599  0.5523
 6547SOL    HW131277   3.946   2.208   5.768 -1.2851  0.2598  1.8506
 6547SOL    HW231278   3.941   2.198   5.917  0.9039 -0.8805  1.1434
 6548SOL     OW31279   4.278   1.287   4.189  0.9719  0.1602  0.5069
 6548SOL    HW131280   4.264   1.248   4.275  1.0945  1.3446  1.0617
 6548SOL    HW231281   4.361   1.251   4.156  0.3602  0.5756 -1.4796
 6549SOL     OW31282   4.121   4.269   5.481  0.4753  0.4171  0.4612
 6549SOL    HW131283   4.117   4.290   5.388  0.2511  2.0406  0.8365
 6549SOL    HW231284   4.027   4.253   5.487  0.8901 -1.6671  1.7114
 6550SOL     OW31285   0.988   1.530   0.610  0.0662 -0.9797 -0.0484
 6550SOL    HW131286   0.908   1.550   0.562 -0.6623 -0.2656  1.4718
 6550SOL    HW231287   0.999   1.443   0.573 -0.7078 -0.5495 -1.2787
 6551SOL     OW31288   0.930   2.086  17.003 -0.3847 -0.1130  0.0345
 6551SOL    HW131289   0.930   2.092  16.908 -0.4931  3.9694  0.2574
 6551SOL    HW231290   1.025   2.083  17.014 -0.4005  0.7726  0.4837
 6552SOL     OW31291   4.133   4.426   3.569  0.5650  0.4553  0.5501
 6552SOL    HW131292   4.106   4.515   3.548 -1.1980 -0.3641 -0.6730
 6552SOL    HW231293   4.099   4.431   3.659  0.3346  1.5493  0.4077
 6553SOL     OW31294   4.653   3.972   5.534  0.6677  0.3631  0.5263
 6553SOL    HW131295   4.712   3.908   5.494  0.0977  0.4330 -0.4319
 6553SOL    HW231296   4.703   4.048   5.502  1.3868 -1.2261 -2.0836
 6554SOL     OW31297   1.885   1.047  15.269 -0.3532 -0.3771  0.5612
 6554SOL    HW131298   1.893   0.966  15.319  1.3649  0.4283  1.6047
 6554SOL    HW231299   1.963   1.038  15.214 -0.7322 -1.1185  0.1393
 6555SOL     OW31300   2.061   2.381   3.246  0.5562  0.0440 -0.2222
 6555SOL    HW131301   2.083   2.312   3.184 -1.7679 -1.4101  0.6173
 6555SOL    HW231302   2.063   2.339   3.331  0.3080  2.6094  1.0576
 6556SOL     OW31303   2.371   3.100   5.608 -0.1510  0.0090  0.1439
 6556SOL    HW131304   2.366   3.155   5.686 -2.0875  2.1017 -1.4724
 6556SOL    HW231305   2.328   3.023   5.646 -3.4419  0.9175 -1.7452
 6557SOL     OW31306   4.289   2.157  12.505 -0.2298 -0.1053 -0.3830
 6557SOL    HW131307   4.210   2.107  12.526  0.5140 -0.8559  0.6061
 6557SOL    HW231308   4.332   2.160  12.591  4.3998  1.9431 -2.7989
 6558SOL     OW31309   4.629   1.132   0.570  0.1139 -0.0812  0.1581
 6558SOL    HW131310   4.647   1.204   0.631 -2.1125 -0.4497  1.2259
 6558SOL    HW231311   4.618   1.182   0.489 -2.8258 -1.7339 -0.4487
 6559SOL     OW31312   3.776   3.816   5.788 -0.0765 -0.2522 -0.1965
 6559SOL    HW131313   3.831   3.754   5.835  0.7742 -1.0895 -2.3011
 6559SOL    HW231314   3.815   3.801   5.702  1.0591  0.4483  0.2026
 6560SOL     OW31315   2.966   4.202   2.835 -0.0547  0.0624  0.7377
 6560SOL    HW131316   2.871   4.216   2.834 -0.3498 -2.0278 -0.8272
 6560SOL    HW231317   2.972   4.133   2.901  0.2468 -2.2860 -1.7909
 6561SOL     OW31318   2.201   4.183   4.953  0.7599 -0.0195  0.4006
 6561SOL    HW131319   2.160   4.104   4.989 -0.3347  0.0718 -0.6348
 6561SOL    HW231320   2.130   4.224   4.904  1.4147  0.4187 -0.1835
 6562SOL     OW31321   0.380   1.678  10.656 -0.1216 -0.5321 -0.0077
 6562SOL    HW131322   0.384   1.663  10.750  0.5210  0.8478  0.1850
 6562SOL    HW231323   0.373   1.774  10.663  3.2351 -0.3117  0.4905
 6563SOL     OW31324   2.420   4.530  12.487  0.1684 -0.1619  0.0960
 6563SOL    HW131325   2.367   4.508  12.410  0.3963 -1.1898  0.2348
 6563SOL    HW231326   2.473   4.600  12.447 -1.3184 -0.2579 -2.0403
 6564SOL     OW31327   2.071   4.548   4.928 -0.7285 -0.4869 -0.2655
 6564SOL    HW131328   2.162   4.540   4.955 -1.1064 -1.1969  0.7727
 6564SOL    HW231329   2.039   4.558   5.017  0.7478 -0.3113  0.2345
 6565SOL     OW31330   0.591   1.676   4.037 -0.0583  0.3517 -0.2483
 6565SOL    HW131331   0.592   1.640   3.949  1.4161  0.5913 -0.3331
 6565SOL    HW231332   0.498   1.675   4.062 -0.4932 -0.9121 -1.9445
 6566SOL     OW31333   2.359   1.972   0.931 -0.3953 -0.1227  0.5334
 6566SOL    HW131334   2.423   1.964   1.002 -0.1247 -0.7724  0.2107
 6566SOL    HW231335   2.303   2.036   0.976  1.9311  2.1593  0.2591
 6567SOL     OW31336   1.020   2.146  11.865 -0.5024 -0.5899 -0.3780
 6567SOL    HW131337   0.970   2.190  11.934  1.5553  0.0127  0.7291
 6567SOL    HW231338   1.052   2.216  11.808  1.9813 -2.5882 -1.4651
 6568SOL     OW31339   0.079   0.199   9.194 -0.2114 -0.4540  0.4440
 6568SOL    HW131340   0.161   0.230   9.158 -1.2583  1.5082 -0.2450
 6568SOL    HW231341   0.118   0.122   9.235 -0.9379 -1.0732 -0.0138
 6569SOL     OW31342   3.326   0.319   6.884 -0.3136 -0.2569  0.5205
 6569SOL    HW131343   3.296   0.382   6.950  1.1563  0.7354  0.2377
 6569SOL    HW231344   3.366   0.372   6.814 -0.8852  0.8828  1.0552
 6570SOL     OW31345   3.699   2.331   3.994 -0.6453 -0.6085  0.2646
 6570SOL    HW131346   3.616   2.341   3.947 -0.5400  0.0650  0.2196
 6570SOL    HW231347   3.721   2.423   4.010  0.9931 -0.4936 -2.5261
 6571SOL     OW31348   1.990   3.124   3.867 -0.3844  0.1809  0.2481
 6571SOL    HW131349   1.945   3.208   3.870  1.4217  1.0964  1.8280
 6571SOL    HW231350   2.052   3.135   3.939 -1.0777  2.6455  0.4515
 6572SOL     OW31351   4.608   1.810   5.399  0.3524 -0.3218  1.0235
 6572SOL    HW131352   4.580   1.718   5.397  2.1453 -0.8603  0.8024
 6572SOL    HW231353   4.581   1.833   5.488  0.6653 -0.0614  1.0510
 6573SOL     OW31354   1.196   0.323   7.981  0.7519  0.5016 -0.0356
 6573SOL    HW131355   1.207   0.295   8.071  0.5305  1.8252  0.4136
 6573SOL    HW231356   1.101   0.318   7.967  1.0082 -0.1609 -1.5565
 6574SOL     OW31357   2.422   4.287   1.725 -0.3793  0.0349  0.0323
 6574SOL    HW131358   2.463   4.267   1.641  0.4166 -0.5340  0.5661
 6574SOL    HW231359   2.349   4.346   1.706  1.3662  1.3751 -2.3979
 6575SOL     OW31360   1.704   0.079   4.816 -0.0071  0.2598 -0.2968
 6575SOL    HW131361   1.793   0.055   4.791 -0.1951 -0.7699  0.0104
 6575SOL    HW231362   1.701   0.158   4.761  1.9441  1.7211  1.6910
 6576SOL     OW31363   2.701   3.530   7.096  0.2071 -0.0579 -0.5072
 6576SOL    HW131364   2.632   3.553   7.034 -0.9708 -1.0625  0.4366
 6576SOL    HW231365   2.782   3.531   7.045  0.5159 -1.9627 -0.0728
 6577SOL     OW31366   0.979   3.528  13.206 -0.5818  0.7078  0.1595
 6577SOL    HW131367   0.996   3.622  13.203 -0.8278  0.8271  2.3565
 6577SOL    HW231368   1.055   3.496  13.254 -0.4611  1.0185  0.1753
 6578SOL     OW31369   3.694   1.828   6.021 -0.0505 -0.6749  0.3219
 6578SOL    HW131370   3.668   1.909   5.978  0.5944 -0.3384  0.5630
 6578SOL    HW231371   3.616   1.820   6.075 -2.0998 -0.0503 -2.5274
 6579SOL     OW31372   0.421   0.005   2.732 -0.3750  0.2685  0.4957
 6579SOL    HW131373   0.469   0.042   2.805 -0.3929 -0.0798  0.6850
 6579SOL    HW231374   0.412   0.077   2.670  2.1637  1.5416  1.6215
 6580SOL     OW31375   0.412   2.609   4.866 -0.3259 -0.1053 -0.2684
 6580SOL    HW131376   0.396   2.654   4.783 -3.4517  1.2485  1.0761
 6580SOL    HW231377   0.321   2.603   4.898  1.1066 -1.5927  3.5193
 6581SOL     OW31378   2.986   2.084   1.285  0.4528  0.2503  0.1448
 6581SOL    HW131379   3.071   2.039   1.287 -1.0226 -2.6316 -3.0116
 6581SOL    HW231380   3.015   2.164   1.329  1.8742 -0.1269 -0.1059
 6582SOL     OW31381   0.595   2.608   7.266  0.6087  0.8799  0.0922
 6582SOL    HW131382   0.571   2.663   7.340  0.8072  3.5257 -1.8361
 6582SOL    HW231383   0.557   2.526   7.297  1.9302  0.7426  1.3878
 6583SOL     OW31384   0.454   4.573   1.112  0.1227  0.2215 -0.0221
 6583SOL    HW131385   0.475   4.563   1.204 -1.5463  0.7452  0.4168
 6583SOL    HW231386   0.536   4.618   1.089 -0.6038  1.5159 -0.0696
 6584SOL     OW31387   3.882   2.759   9.585  0.1247 -0.3398 -0.2274
 6584SOL    HW131388   3.943   2.738   9.515 -0.1368 -3.7450  0.5307
 6584SOL    HW231389   3.819   2.816   9.542 -0.0038  1.4562  2.3686
 6585SOL     OW31390   2.232   1.675  10.856  0.1328  0.1316  0.3422
 6585SOL    HW131391   2.260   1.604  10.914 -1.0092 -0.4232  0.2178
 6585SOL    HW231392   2.291   1.663  10.781  0.8043 -2.5133  1.2932
 6586SOL     OW31393   0.464   2.233  11.459 -0.1076 -0.1663 -0.2034
 6586SOL    HW131394   0.456   2.200  11.549  0.6080 -0.8666 -0.3972
 6586SOL    HW231395   0.478   2.323  11.486 -0.8638  0.2456 -1.1765
 6587SOL     OW31396   0.273   3.412   1.714 -0.3626  0.3711  0.3843
 6587SOL    HW131397   0.324   3.389   1.636 -0.5014  3.0772 -0.4953
 6587SOL    HW231398   0.192   3.446   1.675 -0.8303 -3.6212 -2.1841
 6588SOL     OW31399   2.777   3.304  12.878  0.2080  0.0749  0.3403
 6588SOL    HW131400   2.751   3.241  12.811  0.8461 -1.4091  1.4906
 6588SOL    HW231401   2.860   3.262  12.900  0.7095  1.8590  1.9360
 6589SOL     OW31402   4.483   1.494  14.837  0.0516  0.0057  0.4631
 6589SOL    HW131403   4.511   1.464  14.924  1.4207  0.2021  0.0875
 6589SOL    HW231404   4.403   1.445  14.817  0.4698 -0.4941  0.0386
 6590SOL     OW31405   2.636   4.545   5.820  0.4708  0.1466  0.3014
 6590SOL    HW131406   2.568   4.501   5.871 -1.5394  2.2286 -0.5324
 6590SOL    HW231407   2.603   4.635   5.820 -0.6807 -0.2758 -0.5844
 6591SOL     OW31408   1.577   2.529   5.756  0.2111  0.7489  0.6381
 6591SOL    HW131409   1.484   2.528   5.733  0.0437  1.7020  1.2793
 6591SOL    HW231410   1.587   2.466   5.827  0.8787 -0.7641 -0.7797
 6592SOL     OW31411   2.739   4.201  16.017 -0.5338  0.2397  0.0538
 6592SOL    HW131412   2.767   4.111  16.036  1.3463  0.9010  0.4246
 6592SOL    HW231413   2.690   4.222  16.097 -0.9521  1.4714 -0.5333
 6593SOL     OW31414   2.525   1.566   8.954  0.1169  0.4249  0.0848
 6593SOL    HW131415   2.465   1.494   8.972  0.5527  0.4073  1.5025
 6593SOL    HW231416   2.611   1.524   8.956 -0.7234 -1.2877  0.4107
 6594SOL     OW31417   3.589   4.443   5.720 -0.2362 -0.1686  0.0208
 6594SOL    HW131418   3.665   4.429   5.777 -0.7478 -2.7015  0.0632
 6594SOL    HW231419   3.539   4.361   5.716 -3.7743  2.0992 -2.1014
 6595SOL     OW31420   2.059   2.832   8.221 -0.8893  0.1190  0.0474
 6595SOL    HW131421   2.143   2.870   8.245 -1.4802  1.4029  0.0390
 6595SOL    HW231422   2.081   2.742   8.247  0.4369  1.4921  3.6339
 6596SOL     OW31423   1.648   3.403   4.601  0.3749 -0.3368  0.4202
 6596SOL    HW131424   1.565   3.360   4.622  0.6787 -0.2284  1.8770
 6596SOL    HW231425   1.683   3.315   4.583 -0.6772 -0.6616 -0.0084
 6597SOL     OW31426   2.221   3.408   8.732 -0.3562  0.1481  0.3454
 6597SOL    HW131427   2.298   3.356   8.709 -0.5812 -0.2167  0.4322
 6597SOL    HW231428   2.255   3.485   8.686  0.2584  0.2801  1.0356
 6598SOL     OW31429   4.255   4.374   8.588  0.1834  0.2126 -0.6548
 6598SOL    HW131430   4.266   4.426   8.667 -1.2519  1.2945 -1.1599
 6598SOL    HW231431   4.188   4.425   8.542 -0.5424  0.5475  0.7675
 6599SOL     OW31432   3.347   2.151  13.438 -0.2786 -0.0686 -0.2337
 6599SOL    HW131433   3.409   2.220  13.461 -0.1498 -0.8207  1.6676
 6599SOL    HW231434   3.272   2.196  13.478  0.8163  1.9096 -0.3729
 6600SOL     OW31435   3.887   3.816  10.275  0.4409  0.4227  0.4172
 6600SOL    HW131436   3.838   3.876  10.331  2.0026  2.4962 -0.4364
 6600SOL    HW231437   3.847   3.733  10.300 -0.2312  0.4693 -0.5160
 6601SOL     OW31438   3.492   3.728   2.563 -0.2169  0.0840 -0.2555
 6601SOL    HW131439   3.531   3.815   2.552  3.0896 -0.9071  3.4050
 6601SOL    HW231440   3.399   3.748   2.550 -0.0941  0.4299 -0.5768
 6602SOL     OW31441   1.430   2.511   5.257 -0.0978  0.4829  0.4728
 6602SOL    HW131442   1.426   2.450   5.183  1.8565  2.4350 -1.2345
 6602SOL    HW231443   1.494   2.479   5.321  0.7539 -2.8287 -2.0571
 6603SOL     OW31444   1.194   4.695   7.759 -0.2555  0.1192 -1.0516
 6603SOL    HW131445   1.123   0.022   7.746 -0.3554 -0.0962 -1.5850
 6603SOL    HW231446   1.255   0.022   7.796  0.8643 -0.5565 -1.7359
 6604SOL     OW31447   0.159   2.079   8.528 -0.5167 -0.3097 -0.0304
 6604SOL    HW131448   0.226   2.053   8.466 -0.4733  0.9214 -0.5012
 6604SOL    HW231449   0.099   2.134   8.478  2.0689  2.4476 -0.1072
 6605SOL     OW31450   0.928   1.261   8.292 -0.6256  0.4063 -0.2082
 6605SOL    HW131451   0.927   1.239   8.385 -1.2855 -1.8101 -0.7504
 6605SOL    HW231452   0.977   1.188   8.255 -0.4449  0.5095 -0.1750
 6606SOL     OW31453   1.946   3.545   6.261  0.5899 -0.0506 -0.2493
 6606SOL    HW131454   1.925   3.509   6.174  1.2113  1.6472 -1.1011
 6606SOL    HW231455   1.905   3.477   6.315 -2.6126  1.6407 -0.5424
 6607SOL     OW31456   4.292   0.349   9.652 -0.4295  0.4470 -1.2658
 6607SOL    HW131457   4.264   0.259   9.667 -0.1176  0.3412 -1.3170
 6607SOL    HW231458   4.243   0.364   9.571  0.8628  0.9130 -1.9672
 6608SOL     OW31459   3.122   2.276  16.880  0.2302 -0.0446  0.3815
 6608SOL    HW131460   3.148   2.252  16.969 -1.2912  0.1288  0.8669
 6608SOL    HW231461   3.102   2.369  16.888  0.3994  0.1330 -1.2330
 6609SOL     OW31462   4.675   3.359   8.754 -0.6797  0.2384  0.2250
 6609SOL    HW131463   0.018   3.318   8.721 -0.1027  1.4335  0.1124
 6609SOL    HW231464   4.635   3.293   8.810 -0.4501  0.2206  0.3689
 6610SOL     OW31465   0.805   1.008   8.522 -0.3295 -0.3176 -0.4994
 6610SOL    HW131466   0.735   0.942   8.531  0.0531 -0.1754  3.3872
 6610SOL    HW231467   0.753   1.087   8.537  2.6206  1.4474  0.2669
 6611SOL     OW31468   4.088   2.117  15.665  0.2861  0.1037  0.8399
 6611SOL    HW131469   4.006   2.147  15.705 -0.4593 -1.0870  0.2069
 6611SOL    HW231470   4.136   2.199  15.678  1.7676 -0.6987  0.3815
 6612SOL     OW31471   4.144   1.765   1.968  0.2305 -0.3494  0.1685
 6612SOL    HW131472   4.174   1.683   1.928  4.1796  1.5709 -0.7497
 6612SOL    HW231473   4.193   1.754   2.049  2.2918 -0.9370 -1.1726
 6613SOL     OW31474   1.613   1.647  11.551 -0.1731 -0.2122 -0.7353
 6613SOL    HW131475   1.563   1.638  11.632 -0.9228 -0.6018 -1.2428
 6613SOL    HW231476   1.624   1.742  11.548 -1.4724 -0.0324  0.2707
 6614SOL     OW31477   0.326   0.798   2.399  0.2985  0.4444 -0.3376
 6614SOL    HW131478   0.419   0.782   2.417  0.4028  0.6982 -0.6490
 6614SOL    HW231479   0.296   0.707   2.402 -0.6095  0.6743 -2.2608
 6615SOL     OW31480   4.038   0.784   8.337 -0.0741  0.4818 -0.2240
 6615SOL    HW131481   4.127   0.819   8.343 -0.0231  0.1916  0.6162
 6615SOL    HW231482   3.996   0.845   8.276 -1.1042  1.0875  1.1024
 6616SOL     OW31483   3.604   3.373   5.815 -0.6629  0.5076 -0.0268
 6616SOL    HW131484   3.579   3.420   5.736  0.1981 -3.1921 -2.4655
 6616SOL    HW231485   3.599   3.442   5.882 -2.2131 -1.3007  1.7137
 6617SOL     OW31486   4.048   0.414   6.995  0.0006 -0.0315  0.0398
 6617SOL    HW131487   3.955   0.402   7.014  0.3801  1.2407  2.7002
 6617SOL    HW231488   4.049   0.473   6.920  0.6595 -0.5225 -0.3357
 6618SOL     OW31489   0.326   2.398   4.311 -1.0043  0.4856  0.1550
 6618SOL    HW131490   0.355   2.489   4.303  0.5895  0.0600  1.0337
 6618SOL    HW231491   0.319   2.367   4.221  1.4794  1.2848 -0.3290
 6619SOL     OW31492   3.865   2.561   7.790  0.7001  0.5479  0.3648
 6619SOL    HW131493   3.949   2.515   7.797 -0.5767 -1.6190  1.2476
 6619SOL    HW231494   3.844   2.561   7.697 -1.0140  1.0029  0.7437
 6620SOL     OW31495   1.948   0.583   1.527  0.2526  0.0821 -0.1411
 6620SOL    HW131496   1.999   0.658   1.558 -2.2156  0.5727  2.7400
 6620SOL    HW231497   1.861   0.618   1.508  1.1819  2.0550 -0.7779
 6621SOL     OW31498   4.031   0.558   3.545 -0.6834 -0.4165 -0.0121
 6621SOL    HW131499   3.989   0.476   3.570 -1.7441 -0.0709 -0.5968
 6621SOL    HW231500   4.051   0.591   3.632  1.0432  3.2206 -1.7758
 6622SOL     OW31501   3.424   1.081   4.074  0.2704  0.0179 -0.2282
 6622SOL    HW131502   3.464   0.994   4.081  0.4706  0.0948 -0.3846
 6622SOL    HW231503   3.362   1.080   4.146  0.4756 -3.2475 -0.1004
 6623SOL     OW31504   3.839   1.891   7.276 -0.5154  0.0321  0.0509
 6623SOL    HW131505   3.758   1.852   7.244 -0.1075  1.1988 -2.4094
 6623SOL    HW231506   3.830   1.895   7.372  2.8863  0.8503  0.3652
 6624SOL     OW31507   2.345   0.810   1.949  0.0691  0.6075  0.5147
 6624SOL    HW131508   2.347   0.840   2.040 -1.5405 -0.3673  0.8861
 6624SOL    HW231509   2.392   0.727   1.958 -2.7214 -0.9498  1.1132
 6625SOL     OW31510   2.553   2.806  15.189  0.1255  1.0193  0.5498
 6625SOL    HW131511   2.618   2.788  15.121  0.1702 -1.1109  1.1603
 6625SOL    HW231512   2.495   2.847  15.125  0.3542 -0.1675 -0.4147
 6626SOL     OW31513   0.558   1.137  13.436 -0.1501  0.2930  0.8485
 6626SOL    HW131514   0.581   1.071  13.501  1.1640 -1.8533 -1.7869
 6626SOL    HW231515   0.543   1.086  13.356 -1.8198  1.5779  0.3260
 6627SOL     OW31516   4.662   2.918   2.886  0.4703  0.0679  0.0640
 6627SOL    HW131517   4.583   2.964   2.857  0.7102 -0.0037 -0.6941
 6627SOL    HW231518   4.725   2.959   2.827  0.2055  0.7781  0.2749
 6628SOL     OW31519   2.766   1.121  15.210  0.2462  0.0882 -0.1419
 6628SOL    HW131520   2.844   1.128  15.155  0.6459  0.8417  0.5107
 6628SOL    HW231521   2.719   1.045  15.174  1.4996 -1.0946  0.7148
 6629SOL     OW31522   1.189   4.065   5.134 -0.1155 -0.5432  0.4430
 6629SOL    HW131523   1.283   4.057   5.114 -0.1933  0.3255 -0.2412
 6629SOL    HW231524   1.179   4.156   5.105  0.0979 -0.6167  0.1371
 6630SOL     OW31525   3.056   1.912   6.859 -0.0357  0.3716  0.2610
 6630SOL    HW131526   3.057   1.969   6.936 -0.2706 -1.0131  1.2987
 6630SOL    HW231527   2.976   1.947   6.820 -0.6593 -2.7471 -1.2450
 6631SOL     OW31528   2.665   1.286  17.491  0.1307  0.6651 -0.6953
 6631SOL    HW131529   2.737   1.255  17.547 -0.2217 -1.8507 -1.6441
 6631SOL    HW231530   2.710   1.294  17.407 -1.8127 -1.6791 -1.9854
 6632SOL     OW31531   4.184   2.089   6.149 -0.3705  0.6588 -0.3550
 6632SOL    HW131532   4.263   2.065   6.101 -0.3091 -0.2940  0.2143
 6632SOL    HW231533   4.137   2.006   6.161  1.5419 -0.1462  1.5210
 6633SOL     OW31534   3.281   3.137   3.338 -0.7894 -0.6591 -0.4044
 6633SOL    HW131535   3.256   3.124   3.247 -0.0389 -2.0944 -0.3982
 6633SOL    HW231536   3.279   3.233   3.348  0.3523 -0.4923 -1.7587
 6634SOL     OW31537   3.207   4.587   3.627 -0.1625 -0.2336  0.5149
 6634SOL    HW131538   3.119   4.622   3.637  0.7995  1.8814  1.8122
 6634SOL    HW231539   3.244   4.591   3.716 -1.5316  1.9265  0.9827
 6635SOL     OW31540   1.144   1.685  17.693 -0.7815  0.1314  0.4542
 6635SOL    HW131541   1.097   1.719  17.617 -2.6889 -3.0100  0.2443
 6635SOL    HW231542   1.178   1.607  17.650  0.0844  1.2760 -0.9449
 6636SOL     OW31543   1.964   1.457   4.651 -0.0801  0.4819  0.4373
 6636SOL    HW131544   2.023   1.395   4.607  1.4735  2.1535  0.1882
 6636SOL    HW231545   1.951   1.518   4.578  1.0154 -0.1840 -0.3243
 6637SOL     OW31546   3.671   3.804  16.133 -0.3407 -0.1413 -0.2192
 6637SOL    HW131547   3.726   3.858  16.077 -1.3866  0.0089 -1.1171
 6637SOL    HW231548   3.711   3.818  16.218  0.8971 -1.4446 -0.5942
 6638SOL     OW31549   0.921   0.203   9.007 -0.3476  0.0545 -0.4250
 6638SOL    HW131550   0.941   0.296   9.014 -1.1630  0.1667  0.3003
 6638SOL    HW231551   1.007   0.164   8.992 -0.0200  0.6020  0.0395
 6639SOL     OW31552   3.593   4.525   4.712  0.9031  0.0242  0.1156
 6639SOL    HW131553   3.622   4.434   4.713 -0.5906 -0.4345  0.9061
 6639SOL    HW231554   3.626   4.552   4.797 -1.6289  2.8241  0.2100
 6640SOL     OW31555   2.093   2.624  15.464 -0.3967  0.0333 -0.2349
 6640SOL    HW131556   2.096   2.711  15.424 -3.1258 -1.3666 -3.4569
 6640SOL    HW231557   2.042   2.577  15.397 -0.1659 -1.3286  0.5367
 6641SOL     OW31558   1.123   4.539   6.293  0.7665 -0.1037 -0.4127
 6641SOL    HW131559   1.180   4.615   6.305 -0.6072  0.6152  1.4455
 6641SOL    HW231560   1.105   4.539   6.199  2.0668 -2.2930 -0.6742
 6642SOL     OW31561   2.772   3.465  10.144  0.0407 -0.1080  0.0481
 6642SOL    HW131562   2.719   3.437  10.070 -4.1794 -0.6903  3.2637
 6642SOL    HW231563   2.784   3.391  10.204  1.5549  0.9362  1.0384
 6643SOL     OW31564   0.748   0.981   4.738 -0.0378  0.0711 -0.1463
 6643SOL    HW131565   0.662   1.013   4.712  0.4521  0.5073 -1.2093
 6643SOL    HW231566   0.725   0.889   4.749  1.7104 -0.2757  0.6761
 6644SOL     OW31567   4.306   4.357   3.848  0.0434 -0.5334 -0.2772
 6644SOL    HW131568   4.238   4.289   3.838  0.3007 -0.8238 -0.0704
 6644SOL    HW231569   4.253   4.418   3.900 -1.2963 -1.8957 -0.0370
 6645SOL     OW31570   2.787   0.689   0.227 -0.0192 -0.0206 -0.6241
 6645SOL    HW131571   2.845   0.752   0.269 -0.6791 -0.7121  1.3310
 6645SOL    HW231572   2.848   0.619   0.203 -0.8006 -0.7702 -0.3962
 6646SOL     OW31573   0.548   0.954   0.725  0.2484 -0.0471 -0.0235
 6646SOL    HW131574   0.553   1.044   0.757  3.4022 -0.0332 -0.5184
 6646SOL    HW231575   0.594   0.912   0.798  1.4443 -1.6449 -1.7087
 6647SOL     OW31576   3.708   3.322   8.440 -0.0474 -0.6119 -0.1046
 6647SOL    HW131577   3.670   3.405   8.411  0.3444  0.2309  1.8638
 6647SOL    HW231578   3.788   3.350   8.483 -1.4721  1.3453  1.2455
 6648SOL     OW31579   4.693   0.167   8.923  0.0528 -0.4054 -0.3502
 6648SOL    HW131580   4.605   0.153   8.958  0.9152 -1.5263  1.4367
 6648SOL    HW231581   4.726   0.244   8.970  1.7178 -1.9654  1.0680
 6649SOL     OW31582   4.229   2.815   5.892  0.8466  0.6592  0.4661
 6649SOL    HW131583   4.292   2.835   5.823  0.1748 -0.9541 -0.6053
 6649SOL    HW231584   4.155   2.779   5.843  0.8843 -0.9484  1.5785
 6650SOL     OW31585   3.799   4.129   9.475 -0.1191 -0.0269 -0.5670
 6650SOL    HW131586   3.709   4.098   9.462  0.3567 -2.6493  2.5225
 6650SOL    HW231587   3.775   4.192   9.543  2.2300  1.0409 -0.7413
 6651SOL     OW31588   2.799   3.922   5.594 -0.0894 -0.4159 -0.2629
 6651SOL    HW131589   2.820   3.914   5.687  0.4732 -0.6431 -0.4099
 6651SOL    HW231590   2.726   3.861   5.581  0.4775 -1.3435  0.8734
 6652SOL     OW31591   1.104   2.234   2.272 -0.6087  0.0825 -0.2603
 6652SOL    HW131592   1.110   2.154   2.219 -1.3645  0.4988 -0.9740
 6652SOL    HW231593   1.072   2.222   2.361 -0.5172  0.9005 -0.1207
 6653SOL     OW31594   1.620   1.657   1.545 -0.2347  0.1725 -0.3405
 6653SOL    HW131595   1.547   1.596   1.529 -0.0445  0.1369 -1.0995
 6653SOL    HW231596   1.612   1.713   1.468  0.0041  0.3190 -0.2578
 6654SOL     OW31597   3.538   1.096   6.659 -0.6188 -0.5113 -0.0754
 6654SOL    HW131598   3.445   1.100   6.636 -0.1783  1.0795 -1.6502
 6654SOL    HW231599   3.576   1.068   6.575  2.2830  3.5043 -0.0754
 6655SOL     OW31600   1.387   4.629   1.585  0.3149  0.0409 -0.0955
 6655SOL    HW131601   1.452   4.606   1.519  0.7909 -0.5163  0.5752
 6655SOL    HW231602   1.311   4.593   1.539  0.4667 -1.3762  0.7561
 6656SOL     OW31603   1.487   4.242   3.678  0.4953  0.2078 -0.3880
 6656SOL    HW131604   1.497   4.330   3.712  2.2682 -0.4151  0.6973
 6656SOL    HW231605   1.503   4.249   3.584 -0.1998 -0.9286 -0.5952
 6657SOL     OW31606   3.350   2.595   7.586 -0.3962 -0.2617  0.1109
 6657SOL    HW131607   3.330   2.627   7.674  1.0882  1.7027 -0.2821
 6657SOL    HW231608   3.293   2.518   7.589 -1.1821  0.3318  0.5528
 6658SOL     OW31609   0.332   1.677   9.422 -0.6393  0.7537 -0.0406
 6658SOL    HW131610   0.331   1.595   9.471 -1.0026  1.3521  0.9537
 6658SOL    HW231611   0.246   1.719   9.426 -0.7873  0.2675  1.8331
 6659SOL     OW31612   4.475   2.825   3.579 -0.2380  0.4741 -0.1561
 6659SOL    HW131613   4.448   2.917   3.574 -0.2330  0.6298  2.7676
 6659SOL    HW231614   4.570   2.826   3.591 -0.3361 -1.5938  0.8453
 6660SOL     OW31615   0.300   0.730   7.379  0.1772 -0.5916  0.2090
 6660SOL    HW131616   0.240   0.669   7.337  0.1956 -0.3198 -0.2087
 6660SOL    HW231617   0.247   0.809   7.391  0.7567  0.2709 -2.7843
 6661SOL     OW31618   3.948   1.883   6.495 -0.1019  0.2560 -0.6049
 6661SOL    HW131619   3.960   1.901   6.588  1.2220  0.3623 -0.8107
 6661SOL    HW231620   3.876   1.819   6.495 -0.0912  0.2363  1.1476
 6662SOL     OW31621   3.038   0.434   4.353  0.3910  0.1136 -0.4088
 6662SOL    HW131622   3.057   0.341   4.360 -0.0882  0.0354 -0.1689
 6662SOL    HW231623   2.965   0.425   4.414  0.2652  0.2188 -0.5479
 6663SOL     OW31624   2.687   4.542   5.111  0.2493 -0.1657  0.2026
 6663SOL    HW131625   2.682   4.497   5.196  0.1466 -2.9540 -1.3075
 6663SOL    HW231626   2.729   4.624   5.140  0.3468  0.3630 -1.4405
 6664SOL     OW31627   2.082   2.643   6.053 -0.3839  0.8493 -0.2273
 6664SOL    HW131628   2.070   2.664   5.960  0.5307 -0.7842 -0.7055
 6664SOL    HW231629   2.038   2.559   6.054  2.1016 -0.4936 -2.5157
 6665SOL     OW31630   1.721   0.953   3.542 -0.1601 -0.2313  0.0232
 6665SOL    HW131631   1.697   0.998   3.461 -3.4468 -0.4014  0.8682
 6665SOL    HW231632   1.811   0.982   3.555  0.1099 -0.2120 -1.9852
 6666SOL     OW31633   4.290   4.183  10.779 -0.3499  0.6072 -0.2173
 6666SOL    HW131634   4.330   4.096  10.780 -0.2126  0.6740  0.0361
 6666SOL    HW231635   4.291   4.188  10.683 -1.0065 -0.1266 -0.2682
 6667SOL     OW31636   2.235   2.547   4.167  0.1664  0.1428  0.8328
 6667SOL    HW131637   2.296   2.534   4.094  0.0936  0.4178  0.7235
 6667SOL    HW231638   2.286   2.558   4.247 -0.2070 -2.6608  1.4265
 6668SOL     OW31639   1.257   4.482  14.382 -0.5355 -0.6305 -0.5442
 6668SOL    HW131640   1.206   4.500  14.303 -1.7178 -2.6534 -0.2380
 6668SOL    HW231641   1.339   4.456  14.340 -0.1676  0.0010 -0.2190
 6669SOL     OW31642   2.569   2.993  13.024  0.1303  0.1840  0.1774
 6669SOL    HW131643   2.647   2.985  12.969 -3.2749  1.6278 -4.9121
 6669SOL    HW231644   2.579   3.079  13.064 -4.7604  0.6705  0.3632
 6670SOL     OW31645   3.399   4.594   4.087 -0.2903 -0.1525  0.2833
 6670SOL    HW131646   3.447   4.643   4.020 -0.2211  2.2840  2.0940
 6670SOL    HW231647   3.447   4.512   4.077 -0.7193 -0.2582 -0.9119
 6671SOL     OW31648   1.322   2.442   1.831 -0.4342 -0.0412 -0.1837
 6671SOL    HW131649   1.375   2.364   1.847 -2.8959 -1.8118 -0.5679
 6671SOL    HW231650   1.320   2.477   1.920 -0.0976 -0.6927  0.0761
 6672SOL     OW31651   0.834   4.227   4.948 -0.3633  0.1886  0.1009
 6672SOL    HW131652   0.760   4.286   4.964  0.4419  1.4722 -0.9431
 6672SOL    HW231653   0.905   4.291   4.946 -0.3179  0.1517  0.4426
 6673SOL     OW31654   0.592   1.348   6.481  0.0438 -0.5002  0.3919
 6673SOL    HW131655   0.646   1.278   6.516 -1.4755 -2.1137 -0.5104
 6673SOL    HW231656   0.592   1.320   6.389 -1.8974 -1.7732  0.7714
 6674SOL     OW31657   1.015   1.484   5.533  0.5563  0.4355 -0.3649
 6674SOL    HW131658   1.048   1.569   5.562  0.2959  0.7107 -0.8707
 6674SOL    HW231659   1.088   1.455   5.478 -0.9488 -2.7031 -0.6601
 6675SOL     OW31660   0.075   0.405   7.615  0.4416  0.3058 -0.3095
 6675SOL    HW131661   4.719   0.396   7.636  0.4315 -0.2818 -0.6069
 6675SOL    HW231662   0.104   0.319   7.645  1.0937  1.5527  2.5959
 6676SOL     OW31663   2.858   0.734   8.136 -0.1604 -0.5681  0.0562
 6676SOL    HW131664   2.779   0.687   8.109 -0.3424 -0.6747  0.7630
 6676SOL    HW231665   2.930   0.681   8.100  0.8378 -0.0072  1.2315
 6677SOL     OW31666   1.183   2.822   5.060 -0.4628  0.4189 -0.4293
 6677SOL    HW131667   1.151   2.906   5.028  0.7938  0.3150 -1.9306
 6677SOL    HW231668   1.261   2.856   5.105  0.4841 -1.5661 -0.5545
 6678SOL     OW31669   2.651   1.093   4.888 -0.3044 -0.2544  0.2681
 6678SOL    HW131670   2.728   1.043   4.863  0.4255 -0.2346  2.4253
 6678SOL    HW231671   2.634   1.147   4.810  0.7091  0.6574  0.6702
 6679SOL     OW31672   3.668   3.690   9.416  0.4607  0.1926 -0.0114
 6679SOL    HW131673   3.695   3.615   9.469 -0.4581 -0.5246 -0.5482
 6679SOL    HW231674   3.734   3.756   9.438  2.0196 -1.7815  1.3394
 6680SOL     OW31675   2.649   4.443   1.483 -0.1685  0.0459  0.2829
 6680SOL    HW131676   2.603   4.511   1.532  2.6513  2.0797  0.1042
 6680SOL    HW231677   2.714   4.415   1.548 -0.0980 -0.5527 -0.0461
 6681SOL     OW31678   3.201   2.387   4.030  0.1926 -0.0714 -0.3026
 6681SOL    HW131679   3.157   2.438   4.097  0.8608  2.4150 -1.7661
 6681SOL    HW231680   3.269   2.347   4.085  0.1854  1.3689  0.7376
 6682SOL     OW31681   2.697   3.140   5.648 -0.3117  0.2638 -0.3788
 6682SOL    HW131682   2.669   3.222   5.688 -1.2931 -0.4869  0.4706
 6682SOL    HW231683   2.632   3.087   5.693 -1.4740  1.0331 -1.1431
 6683SOL     OW31684   4.260   0.639   7.203 -0.1484  0.0966  0.3844
 6683SOL    HW131685   4.265   0.543   7.202 -2.0993 -0.0287  2.5858
 6683SOL    HW231686   4.167   0.653   7.220  0.3304  2.6049  0.9862
 6684SOL     OW31687   3.726   2.463  12.633 -0.1909 -0.1424 -0.2872
 6684SOL    HW131688   3.716   2.370  12.610 -0.8290 -0.2720  0.5162
 6684SOL    HW231689   3.807   2.471  12.682  0.6602  0.1465 -1.7356
 6685SOL     OW31690   2.365   0.800  17.543  0.5720 -0.1088 -0.0710
 6685SOL    HW131691   2.445   0.827  17.498  1.5867 -1.3525  0.9640
 6685SOL    HW231692   2.382   0.837  17.630  4.9322  1.5530 -1.6325
 6686SOL     OW31693   2.847   3.027   7.693 -0.0577  0.4977 -0.4321
 6686SOL    HW131694   2.879   2.937   7.694 -2.2729 -0.2929 -0.3998
 6686SOL    HW231695   2.931   3.061   7.663  0.8907  0.0536  1.7133
 6687SOL     OW31696   3.112   0.927   3.710  0.3669 -0.2618 -0.5540
 6687SOL    HW131697   3.145   0.957   3.795  1.0779 -4.3776  0.6011
 6687SOL    HW231698   3.043   0.993   3.708  0.6961  0.0714 -0.9399
 6688SOL     OW31699   2.398   3.257   5.361  0.0397 -0.3567 -0.0223
 6688SOL    HW131700   2.357   3.323   5.418 -0.8151  0.7733 -1.9235
 6688SOL    HW231701   2.366   3.178   5.405  2.0930 -0.4725  1.2634
 6689SOL     OW31702   2.539   3.609  17.453 -0.1109 -0.5718 -0.0678
 6689SOL    HW131703   2.551   3.515  17.445 -0.9632 -0.7552  0.8145
 6689SOL    HW231704   2.504   3.626  17.540  2.4999  3.3052  0.2497
 6690SOL     OW31705   1.467   4.493  14.212 -0.5257  0.2942  0.0634
 6690SOL    HW131706   1.557   4.474  14.184 -0.3504 -0.2359  0.9438
 6690SOL    HW231707   1.429   4.533  14.135 -0.7056  1.9206  0.9916
 6691SOL     OW31708   0.371   2.095   4.358  0.4490 -0.0719 -0.4008
 6691SOL    HW131709   0.377   2.172   4.301 -0.5077 -1.4215 -2.3421
 6691SOL    HW231710   0.440   2.097   4.424  0.1082 -0.2037 -0.0367
 6692SOL     OW31711   0.074   0.578   9.150  0.4218 -0.0238  0.1588
 6692SOL    HW131712   0.103   0.568   9.241  4.7119 -0.1911 -1.2206
 6692SOL    HW231713   0.044   0.669   9.137 -1.0453 -0.5022  0.1756
 6693SOL     OW31714   1.166   1.471   9.063  0.2351 -0.8933  0.4748
 6693SOL    HW131715   1.124   1.553   9.089  0.4604 -1.5260  2.9196
 6693SOL    HW231716   1.168   1.477   8.968  2.5634  0.1300  0.5913
 6694SOL     OW31717   0.010   1.181  13.072 -0.2362  0.8868 -0.1068
 6694SOL    HW131718   0.044   1.108  13.021 -2.2317  0.4680 -0.8496
 6694SOL    HW231719   4.658   1.186  13.036  0.5223  1.4713 -1.8707
 6695SOL     OW31720   3.723   3.350   3.167  0.0232  0.0441  0.3930
 6695SOL    HW131721   3.787   3.399   3.219  1.0034  1.2707 -1.9705
 6695SOL    HW231722   3.666   3.320   3.238 -1.0603  1.9138  0.2937
 6696SOL     OW31723   3.223   4.108  14.785 -0.1315  0.6390  0.5578
 6696SOL    HW131724   3.231   4.015  14.805  2.7781  0.0102 -3.4556
 6696SOL    HW231725   3.301   4.147  14.823  1.0505 -0.6949 -0.5110
 6697SOL     OW31726   0.015   2.613   5.641  0.1451  0.3055 -0.0093
 6697SOL    HW131727   4.685   2.650   5.700 -0.0838 -1.5103  0.8462
 6697SOL    HW231728   0.063   2.695   5.626  2.1913 -0.4566  2.4310
 6698SOL     OW31729   3.998   3.112   5.923  0.2656  0.1742 -0.3116
 6698SOL    HW131730   3.959   3.039   5.971  2.2941  0.5743  1.9580
 6698SOL    HW231731   3.925   3.132   5.864  1.4086 -1.0996 -2.1633
 6699SOL     OW31732   4.737   0.459   0.884 -0.5245 -0.5739  0.1205
 6699SOL    HW131733   4.677   0.491   0.952 -2.4471 -2.4638 -0.6942
 6699SOL    HW231734   4.679   0.412   0.824 -0.9061  0.0289  0.0158
 6700SOL     OW31735   2.767   0.810   7.436  0.2443  0.0299 -0.0725
 6700SOL    HW131736   2.741   0.880   7.377 -0.3961 -0.7688 -0.7494
 6700SOL    HW231737   2.742   0.729   7.390 -0.7381 -0.6614  1.6653
 6701SOL     OW31738   2.173   3.618  13.590 -0.0785 -0.4353 -0.2622
 6701SOL    HW131739   2.173   3.624  13.494  1.1780  0.5131 -0.2050
 6701SOL    HW231740   2.082   3.647  13.602  0.7294  1.6726  0.7616
 6702SOL     OW31741   3.351   2.581   4.224 -0.0083 -0.1447 -0.3298
 6702SOL    HW131742   3.271   2.633   4.216 -0.0021 -0.0045  0.4646
 6702SOL    HW231743   3.322   2.512   4.285  0.3942 -1.5904 -1.7709
 6703SOL     OW31744   1.321   4.164   6.960 -0.7169  0.1692  0.0105
 6703SOL    HW131745   1.336   4.213   6.879  1.0097  0.5694  0.5735
 6703SOL    HW231746   1.241   4.113   6.947  0.0904 -1.1218  0.0320
 6704SOL     OW31747   0.753   3.257   5.731 -0.1273 -0.0637 -0.3047
 6704SOL    HW131748   0.798   3.200   5.669 -1.7780 -1.5341 -0.1389
 6704SOL    HW231749   0.693   3.300   5.671 -1.2170 -0.9884  0.1208
 6705SOL     OW31750   0.476   0.141   6.531 -0.4577  0.0486  0.1708
 6705SOL    HW131751   0.400   0.173   6.481 -1.7925 -1.9045  0.9364
 6705SOL    HW231752   0.438   0.074   6.587 -1.7039  0.2153 -0.4578
 6706SOL     OW31753   3.567   0.205   6.496 -0.2195 -0.3668  0.0962
 6706SOL    HW131754   3.515   0.259   6.436 -0.0424  0.2856  0.5346
 6706SOL    HW231755   3.514   0.126   6.506 -0.7903 -0.1122 -0.8777
 6707SOL     OW31756   2.789   1.107   8.981 -0.1318 -0.6545  0.3139
 6707SOL    HW131757   2.705   1.072   9.009 -0.1172 -1.9601 -1.2548
 6707SOL    HW231758   2.842   1.027   8.983  0.7121 -0.0588  1.6236
 6708SOL     OW31759   1.740   0.781   0.887  0.2494  0.4230  1.1477
 6708SOL    HW131760   1.691   0.757   0.965  0.0227 -1.2942  0.4826
 6708SOL    HW231761   1.737   0.694   0.847 -0.8868  0.7427  0.5431
 6709SOL     OW31762   4.046   1.013  11.455 -0.5091  0.4670  0.1977
 6709SOL    HW131763   4.088   0.934  11.419  0.4064  0.6533  0.8570
 6709SOL    HW231764   3.959   0.973  11.458 -0.2678 -0.1029 -0.4164
 6710SOL     OW31765   1.712   3.148  11.349 -0.1053 -0.2654  0.2488
 6710SOL    HW131766   1.641   3.100  11.392 -1.6703  1.0638 -0.8866
 6710SOL    HW231767   1.774   3.076  11.334 -0.8505 -1.0285  0.8325
 6711SOL     OW31768   3.372   3.753   6.821 -0.7052  0.5803  0.1109
 6711SOL    HW131769   3.280   3.734   6.837 -0.0490 -1.0584  1.9764
 6711SOL    HW231770   3.402   3.795   6.902 -0.4949 -0.3656  0.5251
 6712SOL     OW31771   2.103   0.718   6.763  0.0283 -0.1465 -0.5046
 6712SOL    HW131772   2.174   0.658   6.783 -0.2662  0.1070  1.2778
 6712SOL    HW231773   2.032   0.675   6.812  1.1494  0.6622  1.8128
 6713SOL     OW31774   1.050   1.128   7.668  0.4320  0.3344  0.3211
 6713SOL    HW131775   1.065   1.038   7.640 -1.8845  0.0504  0.0237
 6713SOL    HW231776   1.110   1.173   7.608 -0.7855 -1.9922 -2.6442
 6714SOL     OW31777   1.477   3.367   6.764  0.5458 -0.3995  0.0005
 6714SOL    HW131778   1.395   3.402   6.729 -0.6428 -2.5411  0.6095
 6714SOL    HW231779   1.512   3.450   6.796 -0.3492  1.1561 -3.1016
 6715SOL     OW31780   1.611   3.430   8.523 -0.9347 -0.0987  0.2021
 6715SOL    HW131781   1.686   3.437   8.582  0.2639 -0.7550 -1.2335
 6715SOL    HW231782   1.628   3.496   8.455  0.5472 -0.6644  0.0284
 6716SOL     OW31783   3.164   3.586   4.587  0.0875  0.4339  0.5270
 6716SOL    HW131784   3.170   3.567   4.680 -0.7682  1.0929  0.7167
 6716SOL    HW231785   3.256   3.589   4.559  0.4142 -2.5361  1.2815
 6717SOL     OW31786   3.607   0.603   3.626  0.0291  0.1363  0.3272
 6717SOL    HW131787   3.671   0.656   3.675  2.5171 -0.9651 -1.6985
 6717SOL    HW231788   3.555   0.562   3.694  0.9859 -0.5222  0.6574
 6718SOL     OW31789   3.079   0.818   8.568 -0.2368 -0.1635  0.0092
 6718SOL    HW131790   3.038   0.861   8.493 -1.3688 -2.9788 -0.9642
 6718SOL    HW231791   3.057   0.727   8.551  1.0536 -0.7288  1.3102
 6719SOL     OW31792   4.236   2.787   0.932 -0.5201 -0.1485 -0.2532
 6719SOL    HW131793   4.258   2.865   0.982 -1.3513 -0.9568  1.3803
 6719SOL    HW231794   4.152   2.761   0.970  0.0079  1.0667  1.7627
 6720SOL     OW31795   3.360   0.156   0.445 -0.2907 -0.2025  0.6636
 6720SOL    HW131796   3.383   0.165   0.352 -0.1298 -1.1809  0.6067
 6720SOL    HW231797   3.316   0.072   0.453 -0.3044 -0.1720  0.9105
 6721SOL     OW31798   0.964   2.461  17.216 -0.0089  0.1098  0.3413
 6721SOL    HW131799   0.938   2.512  17.292  2.8030  1.1638  0.5943
 6721SOL    HW231800   0.987   2.532  17.155  2.0839 -1.8898 -1.1804
 6722SOL     OW31801   2.389   3.017   3.419  0.4270 -0.2252 -0.0149
 6722SOL    HW131802   2.477   2.985   3.440  0.6373 -0.0968 -0.6913
 6722SOL    HW231803   2.334   2.944   3.448 -0.0491  0.2754  0.3548
 6723SOL     OW31804   1.842   2.361  11.754 -0.3512  0.1235 -0.3584
 6723SOL    HW131805   1.766   2.411  11.784  0.1045  0.0125  0.9852
 6723SOL    HW231806   1.908   2.396  11.813  2.2693 -0.6100 -2.8893
 6724SOL     OW31807   4.607   3.151  17.617  0.1616 -0.2241  0.1544
 6724SOL    HW131808   4.672   3.135  17.685  0.0716 -2.9950 -0.4135
 6724SOL    HW231809   4.662   3.202  17.557  0.6922 -1.0371 -0.0484
 6725SOL     OW31810   2.238   0.563   9.485 -0.3728  0.0396  0.6963
 6725SOL    HW131811   2.263   0.656   9.487 -1.1062  0.2505 -0.1619
 6725SOL    HW231812   2.321   0.521   9.462 -1.1025 -0.8062 -0.3544
 6726SOL     OW31813   1.156   2.733   4.797 -0.7140 -0.5189 -0.3783
 6726SOL    HW131814   1.180   2.739   4.889  1.6452  0.6174 -1.0701
 6726SOL    HW231815   1.216   2.787   4.746  1.9391 -1.4351  1.8366
 6727SOL     OW31816   0.700   0.381   2.285  0.1840  0.5764 -0.4687
 6727SOL    HW131817   0.776   0.361   2.230  0.2548  0.4474 -0.3266
 6727SOL    HW231818   0.752   0.403   2.363 -2.2470  2.3040  0.6547
 6728SOL     OW31819   2.721   1.087   7.838 -0.0686  0.1119  0.2595
 6728SOL    HW131820   2.633   1.124   7.833  1.1253  2.9043  0.3592
 6728SOL    HW231821   2.713   1.005   7.790  2.9595  0.7734 -1.3730
 6729SOL     OW31822   1.005   0.838   3.522  0.0412 -0.4173  0.5896
 6729SOL    HW131823   0.980   0.929   3.542 -1.5674 -0.5752 -0.7272
 6729SOL    HW231824   1.085   0.863   3.476 -0.0660 -1.8540 -0.3542
 6730SOL     OW31825   1.628   1.618  13.800 -0.0228  0.5531 -0.4982
 6730SOL    HW131826   1.558   1.578  13.851  0.1622  0.5819 -0.2208
 6730SOL    HW231827   1.613   1.713  13.803 -0.4407  0.5365 -2.0888
 6731SOL     OW31828   3.979   2.253  16.659 -0.0051  0.3877  0.3641
 6731SOL    HW131829   3.912   2.209  16.712 -0.4139 -0.0262 -0.4864
 6731SOL    HW231830   4.046   2.187  16.675 -1.9855 -1.2214  2.0998
 6732SOL     OW31831   2.959   1.994   3.149  0.4681  0.7977  0.2445
 6732SOL    HW131832   2.950   2.003   3.244  0.7437  0.5790  0.2925
 6732SOL    HW231833   3.028   2.059   3.134 -1.1864  2.4241 -0.2705
 6733SOL     OW31834   3.989   3.420   1.923 -0.4484 -0.0294 -0.0107
 6733SOL    HW131835   4.048   3.494   1.915  1.5297 -1.7452 -1.2471
 6733SOL    HW231836   3.903   3.455   1.901 -0.4167  0.0471 -0.0108
 6734SOL     OW31837   3.385   4.107   7.949  0.7043  0.3817  0.0613
 6734SOL    HW131838   3.411   4.192   7.986  1.9364  1.0162 -2.2704
 6734SOL    HW231839   3.338   4.079   8.028 -1.7988  0.1920 -1.5143
 6735SOL     OW31840   2.798   4.344   4.190 -0.0409  0.3281 -0.0997
 6735SOL    HW131841   2.811   4.398   4.112 -1.5524  0.4311 -0.2846
 6735SOL    HW231842   2.738   4.389   4.250  1.9359  0.8295  1.4810
 6736SOL     OW31843   0.508   3.247   6.499  0.0184  0.3972 -0.1979
 6736SOL    HW131844   0.555   3.312   6.553 -2.7881  0.6396  1.9386
 6736SOL    HW231845   0.433   3.221   6.552  0.2984  3.6400  1.7871
 6737SOL     OW31846   0.982   3.708  13.512 -0.5708  0.5345  0.2414
 6737SOL    HW131847   0.950   3.788  13.552 -2.8208  0.8222 -2.1110
 6737SOL    HW231848   0.911   3.674  13.457 -0.2885 -0.2984  0.3949
 6738SOL     OW31849   3.034   2.586   6.789 -0.1514 -0.1371  0.2032
 6738SOL    HW131850   3.114   2.575   6.840 -0.3690  1.9084  0.9881
 6738SOL    HW231851   2.961   2.577   6.850 -0.8087  0.2161 -0.5283
 6739SOL     OW31852   2.433   3.406   7.663 -0.1980 -0.3825  0.0887
 6739SOL    HW131853   2.430   3.451   7.579  0.3763 -3.3049 -1.5116
 6739SOL    HW231854   2.466   3.479   7.715 -2.2772  1.1355 -0.7236
 6740SOL     OW31855   0.216   1.781  10.410  0.1281  0.3636  0.1158
 6740SOL    HW131856   0.158   1.842  10.456  1.4736  0.1063  2.1778
 6740SOL    HW231857   0.245   1.734  10.489 -0.5358 -0.3639 -0.0820
 6741SOL     OW31858   4.292   2.230   5.098 -0.3726 -0.3448  0.5344
 6741SOL    HW131859   4.310   2.194   5.011  1.7965  0.8210  0.4892
 6741SOL    HW231860   4.331   2.166   5.157  1.3939  0.0129 -0.2325
 6742SOL     OW31861   1.354   1.175   4.151 -0.6826  0.4012 -0.5143
 6742SOL    HW131862   1.441   1.158   4.114  0.0915 -0.3030  1.5900
 6742SOL    HW231863   1.305   1.147   4.074 -2.5765  2.2395  0.0496
 6743SOL     OW31864   4.461   1.694   9.340 -0.5631 -0.9464  0.4342
 6743SOL    HW131865   4.443   1.777   9.384 -0.2546 -0.4660 -0.3426
 6743SOL    HW231866   4.520   1.716   9.268  0.3524  0.5231  1.6301
 6744SOL     OW31867   1.119   4.597   7.028 -0.5138  0.0016  0.1105
 6744SOL    HW131868   1.181   4.573   7.098 -0.5238 -1.6258 -0.4367
 6744SOL    HW231869   1.133   4.692   7.033 -0.7391  0.0977 -1.2197
 6745SOL     OW31870   1.424   0.105   9.035  0.2083  0.3714 -0.0145
 6745SOL    HW131871   1.460   0.187   9.069  2.2729  0.1836 -1.7471
 6745SOL    HW231872   1.492   0.041   9.058 -0.3875 -0.7546 -1.3722
 6746SOL     OW31873   0.416   2.472  14.379  0.3844 -0.3247  0.3734
 6746SOL    HW131874   0.511   2.473  14.384  0.3209  1.6356  1.3137
 6746SOL    HW231875   0.405   2.553  14.329 -0.0880 -0.7586 -0.2273
 6747SOL     OW31876   2.880   2.226   6.535 -0.3386  0.1852  0.3840
 6747SOL    HW131877   2.797   2.273   6.545  0.5011  1.6028  0.6903
 6747SOL    HW231878   2.952   2.287   6.515 -0.9455  1.4778  2.1113
 6748SOL     OW31879   1.916   2.804   5.178 -0.1424 -0.9180 -0.3605
 6748SOL    HW131880   1.832   2.784   5.137 -0.9337  0.1954  0.7048
 6748SOL    HW231881   1.895   2.792   5.271 -0.1185  0.1350 -0.2089
 6749SOL     OW31882   1.243   3.158  11.365  0.1815 -0.4167  0.0212
 6749SOL    HW131883   1.311   3.094  11.343 -1.0826 -1.6994 -0.1792
 6749SOL    HW231884   1.171   3.100  11.391 -1.0765  0.7627 -0.9086
 6750SOL     OW31885   3.559   2.063  16.318  0.7556  0.0657 -0.2642
 6750SOL    HW131886   3.571   1.973  16.288 -0.1537 -0.8539  2.1563
 6750SOL    HW231887   3.616   2.107  16.256  0.6755 -1.6006 -1.5211
 6751SOL     OW31888   3.435   0.577   1.962  0.2706 -0.5803 -0.4173
 6751SOL    HW131889   3.524   0.547   1.942  0.1531  0.3205 -2.2890
 6751SOL    HW231890   3.377   0.552   1.890  0.7522  2.1302 -1.7426
 6752SOL     OW31891   4.437   0.449   0.538  0.2546 -0.4078  0.4307
 6752SOL    HW131892   4.486   0.402   0.471  0.8358  1.9505 -0.7990
 6752SOL    HW231893   4.468   0.407   0.618 -2.2363 -0.5291  1.3181
 6753SOL     OW31894   3.523   1.729   0.438  0.0364  0.1525 -0.0085
 6753SOL    HW131895   3.437   1.687   0.445 -0.3120  1.1184  1.5526
 6753SOL    HW231896   3.546   1.756   0.527  1.3195  0.4004 -0.4151
 6754SOL     OW31897   1.145   4.036  17.051  0.3335 -0.2044 -0.1166
 6754SOL    HW131898   1.229   4.062  17.089  0.7646 -0.9985 -0.5216
 6754SOL    HW231899   1.114   4.112  17.001 -0.7412  0.4731  1.6015
 6755SOL     OW31900   4.460   4.161   2.679  0.8151 -0.4295 -0.5866
 6755SOL    HW131901   4.429   4.174   2.590 -1.6672 -5.1178 -0.3930
 6755SOL    HW231902   4.412   4.080   2.696 -0.1856  0.2647 -0.1049
 6756SOL     OW31903   4.284   1.140   5.758  0.0988 -0.3376  0.2478
 6756SOL    HW131904   4.270   1.211   5.821 -2.7882 -0.4791 -0.2236
 6756SOL    HW231905   4.322   1.182   5.681 -1.1102  1.4257  0.6385
 6757SOL     OW31906   1.992   2.900   4.903 -0.3402 -0.3377  0.1417
 6757SOL    HW131907   1.988   2.923   4.996  1.3713  0.0895  0.1067
 6757SOL    HW231908   2.069   2.844   4.901  0.3568  0.6701 -1.9850
 6758SOL     OW31909   4.038   3.083   8.255  0.0373 -0.0634  0.7544
 6758SOL    HW131910   4.014   3.141   8.183 -0.6707  0.2333  1.2284
 6758SOL    HW231911   4.105   3.134   8.301 -2.1361  1.9798  1.6385
 6759SOL     OW31912   2.798   4.372  15.586 -0.0108 -0.0529 -0.0031
 6759SOL    HW131913   2.728   4.391  15.523  2.0262  1.4317 -1.8089
 6759SOL    HW231914   2.815   4.463  15.612  1.3855 -0.6485  1.0974
 6760SOL     OW31915   1.891   1.942   3.529  0.4600 -0.2003  0.5243
 6760SOL    HW131916   1.931   2.026   3.553 -0.3348  0.6501 -1.1265
 6760SOL    HW231917   1.818   1.972   3.475 -1.8392 -0.1214  3.7336
 6761SOL     OW31918   0.035   2.219  16.952  0.2872  0.3035  0.3236
 6761SOL    HW131919   0.055   2.132  16.918 -1.1234  0.1417 -0.1068
 6761SOL    HW231920   0.106   2.271  16.914  0.4881 -0.2103  0.0020
 6762SOL     OW31921   0.123   0.050   2.694 -0.3861  0.1647 -0.7065
 6762SOL    HW131922   0.168   4.712   2.732 -0.1946  1.5081  1.6869
 6762SOL    HW231923   0.148   0.043   2.601  0.0763 -2.5297 -0.3570
 6763SOL     OW31924   0.249   1.081   6.377  0.4895  0.5679 -0.7031
 6763SOL    HW131925   0.184   1.045   6.316  1.7593  0.2609 -1.8643
 6763SOL    HW231926   0.190   1.148   6.414 -0.3082  0.4397 -1.7235
 6764SOL     OW31927   2.439   0.932   0.052 -0.1205  0.6683 -0.0665
 6764SOL    HW131928   2.475   1.017   0.029 -1.3943  1.3983  0.6473
 6764SOL    HW231929   2.389   0.945   0.132 -0.4602 -0.0450 -0.1585
 6765SOL     OW31930   4.246   3.052   8.861  0.0755 -0.3583  0.0446
 6765SOL    HW131931   4.152   3.070   8.857  0.2524  0.4997 -0.2542
 6765SOL    HW231932   4.266   3.044   8.768  1.5419 -1.0193  0.4151
 6766SOL     OW31933   3.079   3.056   2.555 -0.6094  0.3068  0.5299
 6766SOL    HW131934   3.053   2.983   2.499  0.7491  1.5397 -1.6819
 6766SOL    HW231935   3.064   3.129   2.494  0.5329 -0.7460 -0.9979
 6767SOL     OW31936   3.683   3.726   7.288  0.3662 -0.0833 -0.5974
 6767SOL    HW131937   3.712   3.812   7.317  0.6624  0.5651 -2.8220
 6767SOL    HW231938   3.759   3.706   7.233  0.4464  0.3218 -0.6325
 6768SOL     OW31939   3.067   2.759  10.668 -0.4398 -0.5829  0.1866
 6768SOL    HW131940   3.064   2.843  10.715  0.7713 -0.4001 -0.0604
 6768SOL    HW231941   3.126   2.784  10.597 -1.4822  1.4581  0.0445
 6769SOL     OW31942   0.231   4.632  10.603 -0.1700  0.1089  0.1689
 6769SOL    HW131943   0.173   4.565  10.568  1.6236 -1.7591  0.7812
 6769SOL    HW231944   0.170   4.705  10.609 -0.0172  0.3171 -0.9319
 6770SOL     OW31945   3.319   4.208   7.680  0.0261 -0.1593  0.0266
 6770SOL    HW131946   3.405   4.250   7.682 -0.1827  0.2550  0.1452
 6770SOL    HW231947   3.323   4.177   7.771 -0.5216  0.0358  0.1192
 6771SOL     OW31948   3.015   2.144   8.373  0.2408  0.1136  0.0075
 6771SOL    HW131949   3.015   2.201   8.296 -0.3676 -0.8237 -0.6934
 6771SOL    HW231950   2.984   2.202   8.442  2.6250  0.9094  0.4269
 6772SOL     OW31951   0.921   4.531   4.603  0.9041 -0.5083 -0.2094
 6772SOL    HW131952   0.979   4.575   4.665 -1.1019  0.5616  0.8963
 6772SOL    HW231953   0.875   4.613   4.584 -0.2148 -0.6098  2.1292
 6773SOL     OW31954   1.964   2.372   2.502  0.9919  0.6403  0.3982
 6773SOL    HW131955   1.930   2.461   2.509 -1.8241 -0.2496 -1.9510
 6773SOL    HW231956   1.913   2.356   2.422  0.4334  2.1957  0.4279
 6774SOL     OW31957   1.004   0.716   6.618  0.4374 -0.2270  0.4393
 6774SOL    HW131958   0.947   0.642   6.598  2.2232 -1.0754 -1.4968
 6774SOL    HW231959   1.088   0.700   6.575  1.4687  1.0543  1.9420
 6775SOL     OW31960   1.505   3.969   3.942  0.1784 -0.5992  0.2644
 6775SOL    HW131961   1.456   3.889   3.926 -0.4750  0.3439 -2.5369
 6775SOL    HW231962   1.488   3.977   4.036 -1.2143 -1.3980  0.0772
 6776SOL     OW31963   1.013   2.394   2.073 -0.3839 -0.0027 -0.1824
 6776SOL    HW131964   1.027   2.360   2.162 -2.2037 -0.1622  0.0410
 6776SOL    HW231965   0.999   2.309   2.031  4.4272  0.6337 -2.9630
 6777SOL     OW31966   4.591   4.591   9.744  0.0080  0.1631  0.5304
 6777SOL    HW131967   4.627   4.679   9.749  1.6169 -0.5118  0.8548
 6777SOL    HW231968   4.623   4.562   9.658 -1.9032  0.3134 -0.2318
 6778SOL     OW31969   4.196   2.535   9.169 -0.3199 -0.3002 -0.3651
 6778SOL    HW131970   4.267   2.490   9.215  1.5188  1.9619 -0.9455
 6778SOL    HW231971   4.251   2.594   9.117  0.5258 -0.9267 -0.1920
 6779SOL     OW31972   3.789   3.733   5.130  0.0520  0.1724 -0.3000
 6779SOL    HW131973   3.749   3.647   5.125  0.6839 -0.2058  1.0916
 6779SOL    HW231974   3.860   3.709   5.189 -0.8752  0.8271  1.0659
 6780SOL     OW31975   3.015   3.037   8.370  0.4851  0.3743  0.1073
 6780SOL    HW131976   2.990   2.945   8.363  0.4010  0.3925  0.1671
 6780SOL    HW231977   3.091   3.023   8.427 -0.9482 -3.9448  0.9666
 6781SOL     OW31978   1.706   0.383   2.759  0.0235  0.3752 -0.0146
 6781SOL    HW131979   1.698   0.288   2.760 -5.6980  0.8607 -0.1423
 6781SOL    HW231980   1.725   0.401   2.851 -0.1469 -0.9969  0.2901
 6782SOL     OW31981   4.600   1.893   5.702 -0.2592  0.3597  0.0738
 6782SOL    HW131982   4.558   1.980   5.702 -0.1809  0.4012  0.5814
 6782SOL    HW231983   4.675   1.902   5.761  0.9014  1.2343 -1.5340
 6783SOL     OW31984   4.305   0.995   6.860  0.1173 -0.2086  0.3911
 6783SOL    HW131985   4.250   0.955   6.793 -0.2116 -1.2070  1.2414
 6783SOL    HW231986   4.370   1.023   6.796 -0.6071  2.3041  0.7806
 6784SOL     OW31987   3.425   0.562   7.748  0.4667 -0.0746  0.2643
 6784SOL    HW131988   3.470   0.607   7.677 -1.1862  1.4173  0.1559
 6784SOL    HW231989   3.502   0.536   7.799  2.7593  2.4724 -1.9263
 6785SOL     OW31990   4.600   4.318   9.172  0.2097 -0.2000  0.6292
 6785SOL    HW131991   4.580   4.323   9.266 -0.1154 -0.3025  0.5651
 6785SOL    HW231992   4.537   4.384   9.143 -3.7498 -4.2086  0.0758
 6786SOL     OW31993   4.694   2.763   5.245 -0.0698 -0.6383  0.0806
 6786SOL    HW131994   4.726   2.676   5.221  0.7564 -0.0511 -0.9627
 6786SOL    HW231995   4.651   2.791   5.164 -0.4320  0.9559  0.8195
 6787SOL     OW31996   0.178   2.290   1.651 -0.1726 -0.0987  0.1869
 6787SOL    HW131997   0.211   2.247   1.729 -1.8747 -2.4029 -0.3602
 6787SOL    HW231998   0.227   2.372   1.646  0.7711 -0.7846 -1.7429
 6788SOL     OW31999   3.265   0.901   7.402  0.2447  0.5325 -0.0198
 6788SOL    HW132000   3.291   0.871   7.489 -0.5398  1.0182  0.3822
 6788SOL    HW232001   3.170   0.902   7.414  0.4067 -3.3648  1.4119
 6789SOL     OW32002   1.343   3.499   5.286  0.2904  0.6157  0.4806
 6789SOL    HW132003   1.269   3.520   5.229 -0.2199  1.2156  1.3593
 6789SOL    HW232004   1.395   3.437   5.235 -2.6186 -0.9725 -0.5271
 6790SOL     OW32005   2.614   2.906  10.769 -0.3579 -0.1309 -0.0404
 6790SOL    HW132006   2.612   2.964  10.846  1.5503 -1.2428  0.8445
 6790SOL    HW232007   2.589   2.964  10.697 -0.7146 -1.8449 -1.3034
 6791SOL     OW32008   2.892   0.837   2.472  0.2188  0.2612 -0.3203
 6791SOL    HW132009   2.829   0.813   2.541 -0.9366  0.9111 -1.1447
 6791SOL    HW232010   2.956   0.883   2.526  0.5191 -0.6292  0.0901
 6792SOL     OW32011   0.016   2.736   4.676  0.0033  0.6029 -0.1241
 6792SOL    HW132012   4.695   2.744   4.751 -0.4553  4.2748 -0.9009
 6792SOL    HW232013   0.000   2.813   4.622 -3.6088 -0.0747 -0.0748
 6793SOL     OW32014   3.829   2.129   2.003  0.0905 -0.1836 -0.7266
 6793SOL    HW132015   3.818   2.089   1.916  2.4162 -0.8151 -0.7321
 6793SOL    HW232016   3.796   2.061   2.062 -0.6722  1.0091  0.2185
 6794SOL     OW32017   1.149   0.221  11.458 -0.7928  0.1434  0.1132
 6794SOL    HW132018   1.130   0.189  11.369  0.3066 -0.7325  0.1983
 6794SOL    HW232019   1.109   0.308  11.463 -1.7806 -0.2098 -1.3321
 6795SOL     OW32020   2.992   4.317   4.412  0.2052  0.2931  0.0401
 6795SOL    HW132021   3.004   4.224   4.428 -0.6362  0.1782 -0.0119
 6795SOL    HW232022   2.953   4.330   4.499 -1.6572  0.2029 -0.7883
 6796SOL     OW32023   4.456   4.384   7.541  0.5623 -0.0586  0.5381
 6796SOL    HW132024   4.483   4.348   7.457 -0.8063  2.8421 -1.1403
 6796SOL    HW232025   4.469   4.312   7.603  0.8407 -0.9048 -0.4929
 6797SOL     OW32026   1.323   4.051   6.646  0.7251 -0.2522  0.3426
 6797SOL    HW132027   1.362   4.038   6.560 -0.4154  0.2748 -0.2508
 6797SOL    HW232028   1.324   4.147   6.653  0.1086 -0.0272 -2.4767
 6798SOL     OW32029   0.924   4.158   8.222 -0.4929  0.3164 -0.4351
 6798SOL    HW132030   0.842   4.173   8.270 -0.2323 -0.9512  0.4159
 6798SOL    HW232031   0.883   4.124   8.142 -1.3040 -0.7251  0.4179
 6799SOL     OW32032   3.077   1.042   6.823 -0.1760  0.1958  0.4134
 6799SOL    HW132033   2.984   1.023   6.807 -0.4552  0.6556  1.5097
 6799SOL    HW232034   3.092   1.118   6.767 -1.1413  0.3165  0.3188
 6800SOL     OW32035   3.331   0.882   7.735  0.0061  0.2457  0.1319
 6800SOL    HW132036   3.364   0.890   7.825  2.4343  0.5953 -0.8034
 6800SOL    HW232037   3.239   0.857   7.751 -0.2407  1.3479  0.4753
 6801SOL     OW32038   1.996   2.889   7.144 -0.0793  0.0530 -0.1027
 6801SOL    HW132039   1.974   2.803   7.181  3.3145  0.4416  2.7760
 6801SOL    HW232040   2.091   2.890   7.139 -0.0674  1.9460  0.5174
 6802SOL     OW32041   1.525   2.912   5.404 -0.4651 -0.1391 -0.0109
 6802SOL    HW132042   1.612   2.882   5.429 -1.3678 -2.6653  0.0608
 6802SOL    HW232043   1.491   2.914   5.493  0.3685  0.1441  0.2986
 6803SOL     OW32044   1.576   3.829  10.390  0.6241  0.3095 -0.2208
 6803SOL    HW132045   1.513   3.846  10.459  0.7480 -0.1571  0.0045
 6803SOL    HW232046   1.591   3.737  10.411 -1.7947 -0.4135 -1.6617
 6804SOL     OW32047   2.117   2.405   6.667  0.1802  0.4788  0.0186
 6804SOL    HW132048   2.032   2.362   6.661  0.2786  0.4729 -1.2118
 6804SOL    HW232049   2.104   2.442   6.755 -1.3687 -0.4416  0.1649
 6805SOL     OW32050   1.754   2.906  17.509  0.1475 -0.3051  0.3478
 6805SOL    HW132051   1.764   2.993  17.547 -4.3670 -0.0793  0.9200
 6805SOL    HW232052   1.684   2.930  17.449 -0.6756 -0.1166  1.4015
 6806SOL     OW32053   4.023   3.722   1.441 -0.1349  0.0342 -0.0063
 6806SOL    HW132054   4.106   3.678   1.421 -1.0813 -2.0127  0.5434
 6806SOL    HW232055   3.960   3.650   1.449 -1.7743  1.1741 -2.9204
 6807SOL     OW32056   0.052   4.727   6.441  0.5464  0.2462 -0.2174
 6807SOL    HW132057   4.728   0.025   6.506 -0.3367 -2.4137  0.3865
 6807SOL    HW232058   0.119   0.057   6.429  0.6072  0.1791 -0.2553
 6808SOL     OW32059   2.398   3.256   5.836  0.1533  0.0151  0.3227
 6808SOL    HW132060   2.442   3.175   5.862  0.4305  1.4701  4.3440
 6808SOL    HW232061   2.358   3.275   5.921 -0.4441  1.3866 -0.2606
 6809SOL     OW32062   3.261   4.440   3.421  0.6077  0.2352  0.0015
 6809SOL    HW132063   3.183   4.476   3.380  0.3151  0.2567  0.5767
 6809SOL    HW232064   3.246   4.484   3.505 -0.3019 -0.3385  0.1417
 6810SOL     OW32065   1.107   2.034  11.619  0.2650  0.4937 -0.9105
 6810SOL    HW132066   1.184   1.980  11.603  0.5368  0.3069  0.9395
 6810SOL    HW232067   1.082   2.013  11.709  0.5524 -0.6667 -1.1139
 6811SOL     OW32068   1.790   3.945  13.775  0.3331  0.3978 -0.1889
 6811SOL    HW132069   1.713   3.997  13.750 -0.7168 -1.1861 -0.2516
 6811SOL    HW232070   1.824   4.007  13.840 -0.2151  1.0866 -0.5464
 6812SOL     OW32071   3.474   0.451   6.689 -0.2176 -0.0550 -0.4403
 6812SOL    HW132072   3.530   0.522   6.721  0.8062 -1.2593  0.4677
 6812SOL    HW232073   3.544   0.391   6.665  0.2094  0.9003 -1.6039
 6813SOL     OW32074   3.628   2.552   1.269  0.8303 -0.1581  0.0258
 6813SOL    HW132075   3.584   2.553   1.354  0.7431  0.3356 -0.0228
 6813SOL    HW232076   3.619   2.643   1.242 -0.8561 -0.7564 -1.3964
 6814SOL     OW32077   2.236   0.576   7.410 -0.0527 -0.4052 -0.5429
 6814SOL    HW132078   2.314   0.601   7.459 -0.0978 -1.7099  0.1892
 6814SOL    HW232079   2.230   0.632   7.332  1.9140  2.1122  1.1350
 6815SOL     OW32080   1.263   3.733  17.074  0.4416 -0.5482 -0.3087
 6815SOL    HW132081   1.253   3.828  17.070  0.1697 -0.5817 -0.4233
 6815SOL    HW232082   1.344   3.716  17.122 -2.6396  0.7408  5.3827
 6816SOL     OW32083   4.251   4.524   6.268 -0.1778 -0.3740  0.3909
 6816SOL    HW132084   4.292   4.502   6.185 -0.2852 -1.4271  0.6151
 6816SOL    HW232085   4.166   4.554   6.235  0.9647  2.5046  0.0713
 6817SOL     OW32086   4.245   1.720   0.642  0.0739  0.4164 -0.0667
 6817SOL    HW132087   4.217   1.804   0.679 -2.2350  0.3491 -1.6431
 6817SOL    HW232088   4.191   1.713   0.564 -1.9928 -0.0449  1.3868
 6818SOL     OW32089   1.333   1.755   3.616 -0.6814 -0.1366  0.6126
 6818SOL    HW132090   1.282   1.744   3.696 -1.3829  0.2756  0.2185
 6818SOL    HW232091   1.286   1.822   3.566  0.0009  0.7638  1.1694
 6819SOL     OW32092   4.091   0.572   6.793  0.2283 -0.0047 -0.5684
 6819SOL    HW132093   4.042   0.582   6.711  1.8676 -2.3519 -1.8146
 6819SOL    HW232094   4.183   0.570   6.768 -0.2498  0.8763 -2.3810
 6820SOL     OW32095   0.242   0.431   2.130  0.3373 -0.4409  0.3819
 6820SOL    HW132096   0.223   0.422   2.224  0.8892  2.0225  0.7294
 6820SOL    HW232097   0.308   0.364   2.113  2.0937  2.2092 -3.1574
 6821SOL     OW32098   4.002   1.724   9.786 -0.0780 -0.3745 -0.0454
 6821SOL    HW132099   4.086   1.768   9.787  1.0853 -2.6120  0.0650
 6821SOL    HW232100   4.013   1.667   9.710 -1.4248 -0.1914 -0.3856
 6822SOL     OW32101   4.225   1.091   9.078  0.2726 -0.7058 -0.1883
 6822SOL    HW132102   4.146   1.041   9.099  0.2402 -1.0833 -1.1916
 6822SOL    HW232103   4.241   1.042   8.997  4.9065  1.2047 -0.4398
 6823SOL     OW32104   1.557   1.720   6.764 -0.0656 -0.2648  0.3054
 6823SOL    HW132105   1.590   1.634   6.789 -1.9046 -1.0858 -0.1474
 6823SOL    HW232106   1.526   1.755   6.847 -0.6546  0.3561 -0.1791
 6824SOL     OW32107   0.165   4.072  15.806  0.6505 -0.3210  0.5949
 6824SOL    HW132108   0.124   4.093  15.890  1.5182  1.6902  0.5182
 6824SOL    HW232109   0.193   3.983  15.826 -2.2175 -1.0849  1.2240
 6825SOL     OW32110   0.356   3.313   1.220 -0.1783 -0.1352 -0.3841
 6825SOL    HW132111   0.424   3.257   1.183 -0.6561 -0.7573 -0.3069
 6825SOL    HW232112   0.280   3.272   1.178  0.0240 -1.6500  0.7607
 6826SOL     OW32113   1.434   1.399   8.186 -0.1676 -0.7316 -0.3044
 6826SOL    HW132114   1.394   1.365   8.106 -0.3636  2.0043 -1.3656
 6826SOL    HW232115   1.380   1.359   8.254  0.0546  0.4601  0.5788
 6827SOL     OW32116   4.118   3.141  11.558  0.1679  0.2817  0.1164
 6827SOL    HW132117   4.118   3.087  11.479 -1.0741  0.5415 -0.0642
 6827SOL    HW232118   4.110   3.079  11.630  2.4119 -0.0923  0.0377
 6828SOL     OW32119   2.778   2.699   8.903  0.8795 -0.0223  0.0669
 6828SOL    HW132120   2.850   2.640   8.882  1.2051  0.2475  0.4193
 6828SOL    HW232121   2.747   2.722   8.815 -0.6077 -0.3936  0.4864
 6829SOL     OW32122   2.389   3.745  16.515 -0.1919 -0.4176  0.9380
 6829SOL    HW132123   2.426   3.706  16.594 -0.8407 -3.0225 -0.0287
 6829SOL    HW232124   2.469   3.793  16.493 -2.4687  3.2201  0.6380
 6830SOL     OW32125   4.251   2.010  15.507  0.0650  0.1274 -0.0553
 6830SOL    HW132126   4.179   2.040  15.563 -3.1112 -0.7352 -3.6397
 6830SOL    HW232127   4.330   2.047  15.545 -0.6634  1.5609  0.0926
 6831SOL     OW32128   0.153   3.674   2.388 -0.4851 -0.0991 -0.5198
 6831SOL    HW132129   0.079   3.705   2.335 -1.7516 -2.2424  0.0203
 6831SOL    HW232130   0.223   3.707   2.331 -0.0252 -0.2641 -0.0490
 6832SOL     OW32131   0.296   4.080   6.018  0.3767 -0.0437  0.7803
 6832SOL    HW132132   0.271   4.007   6.074 -0.2576 -0.4345 -0.0015
 6832SOL    HW232133   0.391   4.088   6.022  0.4770  0.2108 -1.8009
 6833SOL     OW32134   4.262   3.219   6.586  0.3522  0.5226  0.2779
 6833SOL    HW132135   4.275   3.134   6.545  0.8852  0.2442  1.0281
 6833SOL    HW232136   4.332   3.271   6.546  2.1531 -1.0397  1.3987
 6834SOL     OW32137   0.722   3.574   7.491  0.3315 -0.4875 -0.6995
 6834SOL    HW132138   0.672   3.590   7.410  3.1950  1.8059 -2.0162
 6834SOL    HW232139   0.725   3.661   7.530 -1.3236 -0.5143 -0.5174
 6835SOL     OW32140   3.651   1.565   1.748  0.6968  0.0964  0.0632
 6835SOL    HW132141   3.592   1.595   1.678  0.1657 -1.9298 -0.3858
 6835SOL    HW232142   3.652   1.470   1.732 -0.1345 -0.3617  2.7354
 6836SOL     OW32143   1.199   4.676   2.956  0.4040 -0.6236 -0.2895
 6836SOL    HW132144   1.274   4.734   2.967  0.8638 -0.8556 -2.1496
 6836SOL    HW232145   1.206   4.637   2.869  2.4885 -2.2457  0.6091
 6837SOL     OW32146   0.197   1.256   4.517 -0.4035 -0.4382 -0.0601
 6837SOL    HW132147   0.199   1.179   4.574  2.1157  0.8806  1.6400
 6837SOL    HW232148   0.161   1.327   4.570  2.3784 -0.4208  1.7905
 6838SOL     OW32149   1.915   1.432  14.879 -0.2008 -0.1097 -0.1580
 6838SOL    HW132150   1.843   1.494  14.889 -0.1455  0.2993 -2.3398
 6838SOL    HW232151   1.922   1.424  14.784 -0.0526  2.1710 -0.3509
 6839SOL     OW32152   4.304   2.604   6.309 -0.3292 -0.0395 -0.5247
 6839SOL    HW132153   4.256   2.645   6.381 -0.1572 -2.0557  0.7514
 6839SOL    HW232154   4.393   2.603   6.345  0.1588  2.0015 -1.6770
 6840SOL     OW32155   2.835   4.002   6.727 -0.0883  0.5385 -0.1830
 6840SOL    HW132156   2.843   4.095   6.709 -0.5494  0.6633  0.2358
 6840SOL    HW232157   2.861   3.958   6.646 -1.5282  0.4475 -0.6007
 6841SOL     OW32158   0.305   2.664   7.466  0.2416  0.0874  0.1856
 6841SOL    HW132159   0.367   2.731   7.441  1.5627 -0.4346  2.0737
 6841SOL    HW232160   0.310   2.664   7.561 -0.4690 -0.2067  0.2232
 6842SOL     OW32161   4.000   2.071   1.352 -0.3316 -0.4278  0.6109
 6842SOL    HW132162   3.923   2.126   1.368  0.0282 -0.1271  1.3575
 6842SOL    HW232163   3.972   1.990   1.395 -1.6202  1.2971  3.0123
 6843SOL     OW32164   2.856   3.750   1.869  0.6391  0.2369 -0.2961
 6843SOL    HW132165   2.830   3.686   1.936  2.0672 -0.3841 -0.3427
 6843SOL    HW232166   2.823   3.833   1.905  1.3939  0.1750  0.5539
 6844SOL     OW32167   3.922   2.713   8.807 -0.1216 -0.3179  0.0470
 6844SOL    HW132168   3.961   2.722   8.894  2.0969 -3.4363 -0.6395
 6844SOL    HW232169   3.844   2.661   8.823  1.1340 -2.0222  0.6180
 6845SOL     OW32170   4.543   1.195   7.296 -0.3473  0.9389 -0.5171
 6845SOL    HW132171   4.567   1.193   7.203 -1.3674  1.5573 -0.7982
 6845SOL    HW232172   4.452   1.221   7.282 -0.6467  1.1974  1.9722
 6846SOL     OW32173   1.607   0.400   6.277 -0.6871 -0.0403  0.4009
 6846SOL    HW132174   1.700   0.418   6.293 -0.9314  2.2983 -0.8138
 6846SOL    HW232175   1.584   0.382   6.368 -0.1374 -0.9916  0.3540
 6847SOL     OW32176   0.513   3.502  12.085  0.3663  0.4663 -0.7304
 6847SOL    HW132177   0.605   3.482  12.070  0.3181  0.0022 -0.3644
 6847SOL    HW232178   0.485   3.513  11.994 -1.0180 -2.3115 -0.6336
 6848SOL     OW32179   0.663   1.419  15.364  0.4473  0.0157  0.6476
 6848SOL    HW132180   0.688   1.401  15.455  1.2327  1.9478  0.8060
 6848SOL    HW232181   0.573   1.392  15.381  0.1090  1.1780  0.6505
 6849SOL     OW32182   3.980   2.118  12.390  0.1717 -0.3514  0.1872
 6849SOL    HW132183   3.957   2.186  12.327  1.1392 -1.9308 -1.8834
 6849SOL    HW232184   4.017   2.047  12.338  0.3231 -1.0469  1.2493
 6850SOL     OW32185   4.402   2.082  16.634  0.2657 -0.2488  0.2522
 6850SOL    HW132186   4.439   2.139  16.701 -1.9504  1.3809  0.1034
 6850SOL    HW232187   4.449   2.115  16.557 -1.6496 -0.1437 -0.8757
 6851SOL     OW32188   2.220   2.037   8.372  0.1473  0.0227 -0.0993
 6851SOL    HW132189   2.262   2.034   8.286  1.2769 -1.8651  0.5370
 6851SOL    HW232190   2.197   1.945   8.385  0.7596 -0.0673  0.3234
 6852SOL     OW32191   3.448   3.469   2.484 -0.5555 -0.2277  0.2807
 6852SOL    HW132192   3.482   3.435   2.567 -0.0470  0.7415  0.4733
 6852SOL    HW232193   3.460   3.564   2.490 -0.6669 -0.1877 -0.1203
 6853SOL     OW32194   1.849   0.410   2.165  0.0548  0.1300  0.4014
 6853SOL    HW132195   1.918   0.476   2.171  2.2180 -2.1338  0.4511
 6853SOL    HW232196   1.849   0.378   2.256 -0.3123  0.8655  0.6558
 6854SOL     OW32197   3.721   2.148  12.547  0.4445 -0.0474  0.4510
 6854SOL    HW132198   3.666   2.165  12.470 -0.8862  0.2089  1.4544
 6854SOL    HW232199   3.796   2.113  12.499 -0.1109  0.9924 -1.1558
 6855SOL     OW32200   2.947   3.486   5.198  1.1997 -0.2191  0.7137
 6855SOL    HW132201   2.915   3.535   5.274  0.5486  1.5559 -0.7032
 6855SOL    HW232202   2.871   3.504   5.142  1.7330 -1.6907 -0.4817
 6856SOL     OW32203   2.157   0.938   0.188  0.1564  0.0599  0.2831
 6856SOL    HW132204   2.127   1.003   0.252 -0.4861  2.2456 -2.2600
 6856SOL    HW232205   2.143   0.852   0.228 -0.2268  0.8215  1.7814
 6857SOL     OW32206   2.791   2.171   7.678  0.5386 -0.2219 -0.3039
 6857SOL    HW132207   2.868   2.218   7.710 -0.7041  1.2764  0.5074
 6857SOL    HW232208   2.817   2.133   7.594  0.2370  0.9070 -0.9097
 6858SOL     OW32209   3.629   4.022   5.548 -0.5474 -0.2772  0.1664
 6858SOL    HW132210   3.554   3.964   5.535  0.0795 -1.2106  0.6980
 6858SOL    HW232211   3.596   4.077   5.619  1.7053 -0.1665  1.1114
 6859SOL     OW32212   2.319   2.202   6.561  0.2318  0.3039  0.8126
 6859SOL    HW132213   2.251   2.207   6.494  0.2727  0.5271  0.7899
 6859SOL    HW232214   2.303   2.120   6.608  0.3124  0.6568  1.4448
 6860SOL     OW32215   0.431   4.142   3.057  0.3778  0.4991  0.0759
 6860SOL    HW132216   0.478   4.090   2.992 -1.1035  1.2789 -1.6201
 6860SOL    HW232217   0.431   4.079   3.129 -1.7301  0.0684 -0.2903
 6861SOL     OW32218   4.411   2.584   4.498 -0.4293 -0.2312  0.1606
 6861SOL    HW132219   4.474   2.518   4.528  0.0393 -0.5521 -1.5629
 6861SOL    HW232220   4.471   2.652   4.470 -0.8048  0.0138 -0.0354
 6862SOL     OW32221   2.878   2.677   7.457 -0.3349  0.1605  0.0110
 6862SOL    HW132222   2.860   2.649   7.546 -0.3178  0.1576  0.0135
 6862SOL    HW232223   2.946   2.741   7.478  1.6304 -0.9985 -2.8392
 6863SOL     OW32224   3.980   1.982   2.629  0.1193  0.7227  0.2943
 6863SOL    HW132225   3.958   2.053   2.689 -2.3262  1.4906 -1.5383
 6863SOL    HW232226   3.948   2.025   2.550 -0.8648  0.1936  0.4078
 6864SOL     OW32227   3.279   3.542   2.939  0.1352 -0.0249  0.0417
 6864SOL    HW132228   3.324   3.558   3.022 -0.7548 -1.7604  0.8622
 6864SOL    HW232229   3.186   3.564   2.946  0.3233  0.7796  0.0250
 6865SOL     OW32230   0.688   4.033   7.413 -0.5816 -0.3387 -0.2805
 6865SOL    HW132231   0.663   4.125   7.406  0.0992  0.0230  2.0836
 6865SOL    HW232232   0.643   3.991   7.340  1.8951 -2.0242 -0.8483
 6866SOL     OW32233   3.249   0.660   2.382 -0.2661 -0.2982 -0.1931
 6866SOL    HW132234   3.301   0.597   2.431 -0.6598  0.2393  0.9415
 6866SOL    HW232235   3.259   0.744   2.427  0.9682 -0.0508 -0.9279
 6867SOL     OW32236   4.711   4.645   5.668 -0.1677  0.0441 -0.3424
 6867SOL    HW132237   4.621   4.648   5.701  0.7023  1.8416  1.9234
 6867SOL    HW232238   0.001   0.001   5.670 -0.3178  0.1076 -1.4625
 6868SOL     OW32239   3.828   4.204   8.985 -0.3277 -0.2765  0.4887
 6868SOL    HW132240   3.908   4.234   8.943 -0.7185  2.2921  1.5803
 6868SOL    HW232241   3.862   4.176   9.070 -1.6014 -0.5917  0.8963
 6869SOL     OW32242   1.533   1.831   6.995  0.1415  0.1370  0.0382
 6869SOL    HW132243   1.516   1.826   7.089  0.7564  1.1155  0.1983
 6869SOL    HW232244   1.542   1.924   6.975 -1.3007  0.5192  1.2593
 6870SOL     OW32245   0.144   0.361   1.691 -0.0913  0.3503  0.0041
 6870SOL    HW132246   0.203   0.345   1.618  1.2969  0.3794  1.1095
 6870SOL    HW232247   0.066   0.394   1.647 -1.5562 -0.5730  1.8876
 6871SOL     OW32248   3.128   4.326   0.384 -0.3109  0.1549 -0.0933
 6871SOL    HW132249   3.160   4.336   0.294  3.1608  0.8112  1.2166
 6871SOL    HW232250   3.046   4.374   0.390 -0.2256  0.4288 -1.1407
 6872SOL     OW32251   0.319   3.202   0.192 -0.5303 -0.4679  0.0316
 6872SOL    HW132252   0.411   3.217   0.212 -0.3933 -1.8596  0.4453
 6872SOL    HW232253   0.323   3.115   0.154  0.2088  0.5931 -2.2758
 6873SOL     OW32254   2.121   1.683   6.141  0.0418  0.1506  0.3472
 6873SOL    HW132255   2.154   1.721   6.222 -1.4199  2.6009 -0.2040
 6873SOL    HW232256   2.042   1.733   6.122  0.8257  0.2489 -2.7792
 6874SOL     OW32257   4.382   0.519   4.501  0.3310  0.6189 -0.3203
 6874SOL    HW132258   4.436   0.440   4.487 -0.1308  0.1272  0.6903
 6874SOL    HW232259   4.333   0.521   4.419 -3.0058 -1.3727  1.6165
 6875SOL     OW32260   1.787   3.522  15.031 -0.3813  0.1503 -0.0033
 6875SOL    HW132261   1.702   3.478  15.029 -0.1496 -0.2282 -1.9831
 6875SOL    HW232262   1.788   3.559  15.119 -0.4187  0.8633 -0.3059
 6876SOL     OW32263   2.945   0.696  16.395  0.4093  0.0623  0.1850
 6876SOL    HW132264   2.854   0.687  16.370  0.3183  0.1545  0.4820
 6876SOL    HW232265   2.937   0.782  16.434 -2.9766 -0.3928  0.4537
 6877SOL     OW32266   3.804   2.930   4.926  0.2724 -0.3334 -0.2159
 6877SOL    HW132267   3.889   2.968   4.948 -0.0118 -1.0011  1.9495
 6877SOL    HW232268   3.826   2.888   4.843 -0.5086 -0.9390 -0.1174
 6878SOL     OW32269   3.013   0.152  12.790 -0.0553 -0.4658  0.0459
 6878SOL    HW132270   3.072   0.180  12.720  0.2262  1.3403  0.9917
 6878SOL    HW232271   2.957   0.230  12.789 -0.2875 -0.6838 -2.6043
 6879SOL     OW32272   0.706   2.711   0.856  0.5765 -0.0047 -0.3708
 6879SOL    HW132273   0.774   2.737   0.919 -1.6973  1.7859  1.3180
 6879SOL    HW232274   0.675   2.624   0.880 -2.1990  0.5783 -1.9643
 6880SOL     OW32275   1.443   3.496   5.560 -0.3239 -0.0666 -0.1568
 6880SOL    HW132276   1.464   3.403   5.562  3.4018  0.7309 -1.1703
 6880SOL    HW232277   1.432   3.508   5.466 -0.3864  0.6049 -0.0682
 6881SOL     OW32278   4.659   4.656   6.197  0.0469  0.0578  0.3316
 6881SOL    HW132279   4.609   4.578   6.222 -1.8282  0.9323 -0.7349
 6881SOL    HW232280   4.689   4.673   6.286  1.3908 -2.5666  0.3739
 6882SOL     OW32281   2.066   2.303  15.363  0.6013 -0.7932  0.1399
 6882SOL    HW132282   2.042   2.376  15.306  1.8270  0.9960  1.8874
 6882SOL    HW232283   1.986   2.259  15.394 -0.6993  0.9524 -0.7422
 6883SOL     OW32284   0.881   2.753   4.786  0.1496  0.8971  0.0256
 6883SOL    HW132285   0.970   2.733   4.815 -0.6301  0.2041  1.9765
 6883SOL    HW232286   0.816   2.747   4.856 -0.7209  1.0817 -0.7630
 6884SOL     OW32287   4.526   3.114   4.002 -0.0648 -0.4394  0.1337
 6884SOL    HW132288   4.593   3.094   3.935 -0.6296 -1.8937 -0.0083
 6884SOL    HW232289   4.448   3.080   3.958  0.9155  1.3029 -2.9665
 6885SOL     OW32290   1.721   4.550  11.053  0.4665  0.1446  0.2818
 6885SOL    HW132291   1.729   4.456  11.069  1.7332  0.4021  1.1846
 6885SOL    HW232292   1.644   4.553  10.997  2.0775  0.9588 -1.8947
 6886SOL     OW32293   1.152   2.465   3.946 -0.2641  0.3912 -0.1880
 6886SOL    HW132294   1.136   2.516   3.866 -0.4185  0.1864 -0.2856
 6886SOL    HW232295   1.166   2.375   3.915 -2.8949  0.4321 -1.4494
 6887SOL     OW32296   3.184   2.600   5.479  0.2493 -0.5455 -0.7761
 6887SOL    HW132297   3.094   2.624   5.500 -0.6172 -3.7126 -0.8880
 6887SOL    HW232298   3.196   2.678   5.426  2.1219 -0.5308 -0.3287
 6888SOL     OW32299   1.484   2.026   8.405 -0.6469  0.1989  0.3406
 6888SOL    HW132300   1.514   1.939   8.376 -0.2385  1.8022 -4.0068
 6888SOL    HW232301   1.547   2.083   8.361 -0.3382  1.4048  2.3873
 6889SOL     OW32302   3.360   0.240   2.933 -0.5800 -0.0587  0.1046
 6889SOL    HW132303   3.363   0.158   2.883 -1.7505 -0.0313 -0.0150
 6889SOL    HW232304   3.455   0.256   2.936 -0.3788 -1.2232  0.1058
 6890SOL     OW32305   3.397   4.545   6.735  0.1858  0.1910  0.5539
 6890SOL    HW132306   3.323   4.553   6.795  0.7759 -0.5221  1.3626
 6890SOL    HW232307   3.445   4.477   6.781  0.1388 -2.9986 -4.0434
 6891SOL     OW32308   2.272   1.471   1.787  0.8591  0.6081  0.0013
 6891SOL    HW132309   2.287   1.380   1.813  3.5312  0.9954 -0.1928
 6891SOL    HW232310   2.275   1.472   1.692  1.9739  0.4652  0.0281
 6892SOL     OW32311   1.389   1.165  15.203  0.5645  0.4009 -0.0819
 6892SOL    HW132312   1.425   1.090  15.157 -0.3248  0.0117 -0.1506
 6892SOL    HW232313   1.402   1.242  15.148  1.2247  0.5875  0.3298
 6893SOL     OW32314   0.588   4.669   5.426  0.5260 -0.2930 -0.7421
 6893SOL    HW132315   0.663   4.670   5.367  1.6273 -1.7012  0.6428
 6893SOL    HW232316   0.554   0.021   5.416 -0.7952 -0.5867  1.1285
 6894SOL     OW32317   2.250   0.279   0.379  0.0807  0.2207 -0.7110
 6894SOL    HW132318   2.302   0.209   0.421  1.8521  1.0498 -1.5505
 6894SOL    HW232319   2.316   0.345   0.359  1.9239 -1.4095 -0.0025
 6895SOL     OW32320   3.518   4.407   6.079 -0.1152 -0.4262  0.2224
 6895SOL    HW132321   3.486   4.328   6.123  0.2965  0.3021  1.8649
 6895SOL    HW232322   3.611   4.403   6.100 -0.0939 -1.4736 -0.0880
 6896SOL     OW32323   2.604   0.283   6.843 -0.0503  0.0173  0.1240
 6896SOL    HW132324   2.640   0.349   6.783  3.9411 -1.8078  0.5288
 6896SOL    HW232325   2.689   0.242   6.858 -0.2315 -0.7391 -0.8842
 6897SOL     OW32326   4.064   0.689   2.492 -0.8070 -0.5500  0.1662
 6897SOL    HW132327   4.053   0.619   2.557  0.8577 -0.5761  0.4164
 6897SOL    HW232328   4.028   0.756   2.551 -2.7403 -0.9063 -0.6084
 6898SOL     OW32329   4.554   2.182  10.191 -0.3264  0.1133 -0.0965
 6898SOL    HW132330   4.475   2.210  10.145 -1.5552 -0.1593  1.8490
 6898SOL    HW232331   4.531   2.195  10.283  0.3126 -0.4410  0.1495
 6899SOL     OW32332   4.351   4.524  13.789  0.4079  0.3009  0.2965
 6899SOL    HW132333   4.395   4.594  13.740  3.1700 -2.4058 -1.0307
 6899SOL    HW232334   4.347   4.555  13.879  2.0196  1.9670 -0.1947
 6900SOL     OW32335   0.956   4.619   6.539 -0.1518 -0.6319  0.6780
 6900SOL    HW132336   0.997   4.567   6.470  0.3600 -0.7229  1.0543
 6900SOL    HW232337   0.862   4.604   6.530 -0.0132 -0.8628 -0.4038
 6901SOL     OW32338   4.274   4.601   2.633 -0.0887  0.6055  0.3950
 6901SOL    HW132339   4.224   4.662   2.577 -3.3210 -2.6154 -0.2397
 6901SOL    HW232340   4.305   4.548   2.560 -3.8824 -1.7105  0.4457
 6902SOL     OW32341   1.118   2.137   7.676  0.0904  0.2243  0.8733
 6902SOL    HW132342   1.180   2.087   7.729  0.6227  0.5458  0.5553
 6902SOL    HW232343   1.151   2.128   7.586  0.8306 -0.0119  1.1717
 6903SOL     OW32344   4.514   3.572   7.235  0.7645 -0.2949 -0.6510
 6903SOL    HW132345   4.437   3.611   7.278 -0.2879 -0.0733 -2.7000
 6903SOL    HW232346   4.528   3.491   7.284 -0.8322 -1.2391 -1.7560
 6904SOL     OW32347   1.407   4.414  13.784  0.7523 -0.2015  0.2429
 6904SOL    HW132348   1.502   4.426  13.785  0.9705 -1.7293 -2.5520
 6904SOL    HW232349   1.388   4.443  13.695  2.4645 -1.1357 -0.4280
 6905SOL     OW32350   3.506   0.998  15.434 -0.4361 -0.6558 -0.3880
 6905SOL    HW132351   3.530   1.061  15.502  0.3924  1.4197 -2.6158
 6905SOL    HW232352   3.503   0.913  15.480  0.8581 -2.1816 -3.1693
 6906SOL     OW32353   2.630   1.967   7.484  0.3818 -0.1661 -0.2670
 6906SOL    HW132354   2.615   1.948   7.576  0.7162  0.9761  0.0303
 6906SOL    HW232355   2.581   2.049   7.477  0.1012 -0.2576  0.6321
 6907SOL     OW32356   3.667   0.195   1.356 -0.4292 -0.3914  0.2299
 6907SOL    HW132357   3.667   0.110   1.313 -1.2107  0.2618 -1.0788
 6907SOL    HW232358   3.574   0.216   1.356 -0.2617  0.3675 -0.8226
 6908SOL     OW32359   3.387   1.573   5.957 -0.1039  0.3116 -0.1993
 6908SOL    HW132360   3.369   1.530   6.041 -0.3510  2.1295  0.6759
 6908SOL    HW232361   3.479   1.547   5.947 -0.0030 -0.0025  1.5123
 6909SOL     OW32362   2.272   1.598   6.944 -0.4092  0.6614 -0.0850
 6909SOL    HW132363   2.220   1.518   6.957  0.4070  0.0569 -0.5291
 6909SOL    HW232364   2.222   1.657   7.000 -0.4372 -0.4119  1.0280
 6910SOL     OW32365   3.199   4.346   9.102  0.3156 -0.1795  0.6546
 6910SOL    HW132366   3.127   4.377   9.158  1.9235  0.1550  2.5525
 6910SOL    HW232367   3.245   4.429   9.095 -1.7342  0.9395  0.2605
 6911SOL     OW32368   0.986   1.368   1.442  0.1103 -0.1812 -0.2438
 6911SOL    HW132369   0.992   1.306   1.515 -1.4457  1.2989  1.1431
 6911SOL    HW232370   1.065   1.350   1.391 -1.5714 -0.7995 -2.6126
 6912SOL     OW32371   0.034   0.742  12.397 -0.1874  0.0703  0.1392
 6912SOL    HW132372   0.020   0.829  12.436 -1.7566  0.8454 -2.1510
 6912SOL    HW232373   0.110   0.717  12.450 -0.4473 -0.9042  0.0497
 6913SOL     OW32374   0.843   2.629  16.039  0.1472 -0.4471  0.3154
 6913SOL    HW132375   0.864   2.702  15.981  0.9247 -2.1002 -1.4787
 6913SOL    HW232376   0.828   2.558  15.976 -0.8270 -2.0066  2.3190
 6914SOL     OW32377   1.953   2.632   3.878 -0.1866  0.3485 -0.4749
 6914SOL    HW132378   2.013   2.673   3.816  0.5031 -0.5279 -0.3827
 6914SOL    HW232379   1.898   2.705   3.908 -1.7945 -1.4901  0.9860
 6915SOL     OW32380   3.585   0.279   9.191  0.2766 -0.0579 -0.2937
 6915SOL    HW132381   3.533   0.220   9.246 -0.2011  0.0631 -0.6131
 6915SOL    HW232382   3.512   0.339   9.175  1.3305  1.4832  0.6265
 6916SOL     OW32383   0.161   3.820   2.864 -0.0563 -0.6064 -0.1771
 6916SOL    HW132384   0.159   3.869   2.782  1.9253 -1.8227 -0.9325
 6916SOL    HW232385   0.250   3.785   2.873 -0.4142 -1.0015  1.8312
 6917SOL     OW32386   3.609   0.957   0.536  0.3833 -0.0855  0.1014
 6917SOL    HW132387   3.603   1.017   0.610  0.9595 -1.4947  1.2996
 6917SOL    HW232388   3.594   0.873   0.579 -0.6327 -0.0203 -0.1305
 6918SOL     OW32389   2.374   4.189  14.703  0.3544 -0.5596  0.1827
 6918SOL    HW132390   2.293   4.139  14.709 -0.7399  1.0843 -0.8611
 6918SOL    HW232391   2.416   4.159  14.783 -1.3348 -1.9735  0.5414
 6919SOL     OW32392   4.314   1.455   8.821 -0.1623 -0.2675 -0.1484
 6919SOL    HW132393   4.224   1.450   8.790  0.0729 -0.8365 -0.7254
 6919SOL    HW232394   4.313   1.422   8.911  2.6448  0.3905  0.1288
 6920SOL     OW32395   3.121   2.127  16.167 -0.6281 -0.5461  0.2650
 6920SOL    HW132396   3.072   2.055  16.127 -0.8879  0.8134 -1.8334
 6920SOL    HW232397   3.156   2.085  16.245  0.1372 -0.2592  0.0766
 6921SOL     OW32398   2.657   2.354   2.548  0.0213 -0.4646  0.2358
 6921SOL    HW132399   2.663   2.326   2.639 -2.0996  0.2155  0.5928
 6921SOL    HW232400   2.749   2.377   2.534  0.4074 -1.3762  1.2978
 6922SOL     OW32401   3.607   4.547   8.045 -0.5427  0.5204 -0.7394
 6922SOL    HW132402   3.666   4.475   8.066 -0.6575  0.6753  0.1382
 6922SOL    HW232403   3.654   4.583   7.970  0.6346  1.8040  0.6156
 6923SOL     OW32404   3.828   2.000   0.482  0.2555  0.9834  0.1382
 6923SOL    HW132405   3.783   2.024   0.401 -1.8314 -0.4492  0.8783
 6923SOL    HW232406   3.870   2.082   0.512 -0.0998  0.3396  2.4282
 6924SOL     OW32407   1.813   0.159   1.771  0.4986 -0.1507  0.2915
 6924SOL    HW132408   1.796   0.253   1.777  1.9639  0.1099  0.3191
 6924SOL    HW232409   1.813   0.143   1.865  0.1433  0.0435  0.3257
 6925SOL     OW32410   0.572   1.681   1.885 -0.0741 -0.1688 -0.0835
 6925SOL    HW132411   0.625   1.723   1.953 -1.4047  0.9593  0.2504
 6925SOL    HW232412   0.590   1.592   1.915  1.7405  0.5223  0.8407
 6926SOL     OW32413   0.763   0.861   6.712 -0.6414 -0.4515 -0.0660
 6926SOL    HW132414   0.753   0.789   6.776  1.0207 -1.3749 -0.8425
 6926SOL    HW232415   0.857   0.851   6.701 -0.4076  1.6180  0.1777
 6927SOL     OW32416   2.994   1.358  12.732 -0.0050  0.4150 -0.3226
 6927SOL    HW132417   3.011   1.446  12.698 -1.8193  0.1188 -2.0583
 6927SOL    HW232418   2.902   1.349  12.705  0.3766 -3.8730 -0.1916
 6928SOL     OW32419   0.821   1.324   9.014 -0.2031 -0.0206 -0.1094
 6928SOL    HW132420   0.808   1.234   9.045 -1.1632 -0.0194 -0.5103
 6928SOL    HW232421   0.791   1.381   9.085  0.3636 -2.2426  1.9100
 6929SOL     OW32422   3.686   3.694  11.631  0.7035  0.2050 -0.3939
 6929SOL    HW132423   3.658   3.666  11.544  0.8905 -1.0817 -0.0378
 6929SOL    HW232424   3.775   3.660  11.622  0.2649 -0.7217 -1.1842
 6930SOL     OW32425   3.083   1.671   3.277 -0.4781 -0.2929 -0.2867
 6930SOL    HW132426   3.161   1.688   3.330 -0.6169  1.9152 -0.8092
 6930SOL    HW232427   3.129   1.614   3.214 -0.5568 -1.4538  0.7121
 6931SOL     OW32428   3.628   2.725   6.433  0.5287  0.4886 -0.5341
 6931SOL    HW132429   3.665   2.725   6.345 -1.0181  0.4117 -1.1916
 6931SOL    HW232430   3.593   2.637   6.448  3.3662 -0.4299  0.6763
 6932SOL     OW32431   0.858   0.703   5.379 -0.1997 -0.4702  0.3319
 6932SOL    HW132432   0.862   0.786   5.427  0.8901 -1.0546  1.2507
 6932SOL    HW232433   0.900   0.722   5.295  0.6592  2.5218  1.4475
 6933SOL     OW32434   0.305   3.365   4.899  0.0850  0.2652  0.0609
 6933SOL    HW132435   0.258   3.375   4.816 -1.2333 -2.2035  0.5034
 6933SOL    HW232436   0.242   3.313   4.949 -0.8961 -0.7720 -2.2404
 6934SOL     OW32437   2.010   3.729   7.388 -0.4248  0.2127  0.3495
 6934SOL    HW132438   2.041   3.681   7.464  1.7360 -0.3933 -0.9176
 6934SOL    HW232439   2.040   3.815   7.414 -1.8042 -0.1542  3.1622
 6935SOL     OW32440   4.296   1.097   0.488 -0.7389 -0.0325 -0.5465
 6935SOL    HW132441   4.348   1.063   0.561 -3.1184 -0.1221  1.1099
 6935SOL    HW232442   4.305   1.190   0.511  2.1199 -0.5488  0.3079
 6936SOL     OW32443   1.694   2.106   3.785  0.7555 -0.3724 -0.1584
 6936SOL    HW132444   1.734   2.069   3.864  1.9647 -0.5752 -0.8593
 6936SOL    HW232445   1.601   2.091   3.804  0.4845  1.4770 -0.0383
 6937SOL     OW32446   4.619   2.881  15.307  0.0703  0.4287 -0.2592
 6937SOL    HW132447   4.622   2.943  15.234  1.5508  0.7203  0.0383
 6937SOL    HW232448   4.558   2.812  15.282  0.8009 -0.6903  1.0702
 6938SOL     OW32449   2.637   3.174   7.781 -0.2667 -0.0651 -0.2097
 6938SOL    HW132450   2.698   3.127   7.724  0.5140 -0.6209  1.0514
 6938SOL    HW232451   2.555   3.142   7.746 -0.0848 -1.2776  0.4628
 6939SOL     OW32452   1.170   1.180   2.603  0.7711  0.3124 -0.4871
 6939SOL    HW132453   1.141   1.268   2.628  0.4230 -0.3902  1.5489
 6939SOL    HW232454   1.241   1.171   2.667 -0.5540  0.2484  0.9679
 6940SOL     OW32455   3.519   1.674   4.129 -0.3132  0.1012 -0.1835
 6940SOL    HW132456   3.442   1.731   4.122 -0.5131 -0.1811 -0.2826
 6940SOL    HW232457   3.576   1.720   4.067  2.4451  0.6827  2.7595
 6941SOL     OW32458   3.414   2.156   7.816  0.3535  0.3431  0.1046
 6941SOL    HW132459   3.485   2.151   7.879  0.8154 -0.1677 -0.4609
 6941SOL    HW232460   3.462   2.213   7.755 -0.5138  0.6553 -0.2818
 6942SOL     OW32461   2.676   1.660   2.064 -0.6812  0.0947  0.0705
 6942SOL    HW132462   2.688   1.733   2.124  1.4654  1.8278 -2.4792
 6942SOL    HW232463   2.586   1.672   2.031 -1.3315  0.1111  1.8859
 6943SOL     OW32464   2.500   1.752  12.911  0.2323  0.5353  0.4815
 6943SOL    HW132465   2.499   1.678  12.972 -1.4590  0.5572  0.4927
 6943SOL    HW232466   2.533   1.819  12.971  1.2101 -0.3279  0.8994
 6944SOL     OW32467   0.085   3.364  12.385 -0.1239 -0.2889 -0.3736
 6944SOL    HW132468   0.099   3.433  12.449  0.6517  1.3573 -2.3371
 6944SOL    HW232469   0.064   3.288  12.440 -1.8407 -1.1183 -2.1774
 6945SOL     OW32470   3.747   2.843   8.660  0.3073 -0.1803  0.3553
 6945SOL    HW132471   3.783   2.838   8.571 -1.0013  0.9612 -0.2512
 6945SOL    HW232472   3.826   2.834   8.713  1.3798 -1.1719 -1.4134
 6946SOL     OW32473   4.236   3.612   3.977  0.1404  0.0284  1.0459
 6946SOL    HW132474   4.141   3.607   3.963  0.2692 -2.3362  0.8606
 6946SOL    HW232475   4.252   3.560   4.055  1.9200  0.7361  1.1286
 6947SOL     OW32476   4.048   0.442   7.453 -0.2060 -0.3679  0.4416
 6947SOL    HW132477   3.997   0.361   7.450  0.9464 -1.1502  1.8288
 6947SOL    HW232478   4.006   0.475   7.532 -0.3598  1.5048 -0.4223
 6948SOL     OW32479   3.983   4.261   1.622 -0.1634  0.0361 -0.0774
 6948SOL    HW132480   3.892   4.262   1.651 -0.3461 -2.0827 -0.5530
 6948SOL    HW232481   4.025   4.265   1.708 -0.0445 -0.5327 -0.1069
 6949SOL     OW32482   4.020   0.365   5.753 -0.6512  0.3969 -0.2698
 6949SOL    HW132483   3.947   0.331   5.700 -0.0441 -1.8509  0.3579
 6949SOL    HW232484   4.085   0.339   5.688 -0.1267 -1.1597  0.8618
 6950SOL     OW32485   1.902   3.465   5.422 -0.1676  0.2287  0.1230
 6950SOL    HW132486   1.926   3.450   5.514  1.3027 -1.4110 -0.5326
 6950SOL    HW232487   1.839   3.537   5.432 -0.6386 -0.0923 -0.5084
 6951SOL     OW32488   0.796   1.580   5.377 -0.3088 -0.2543 -0.2534
 6951SOL    HW132489   0.768   1.642   5.444  0.3893  0.1586 -0.3434
 6951SOL    HW232490   0.868   1.540   5.426 -0.9061 -0.1011  0.7483
 6952SOL     OW32491   2.427   0.033   7.273 -0.0907 -0.0107  0.4948
 6952SOL    HW132492   2.344   4.722   7.282 -1.5613  2.0197 -1.9505
 6952SOL    HW232493   2.413   0.124   7.301  0.3150  0.2093 -0.0275
 6953SOL     OW32494   1.074   0.469   2.087  0.4313 -0.3112  0.1882
 6953SOL    HW132495   1.028   0.389   2.113 -0.9768  0.9760  1.6557
 6953SOL    HW232496   1.123   0.427   2.016  1.3884 -1.0885  1.3092
 6954SOL     OW32497   3.268   2.972   1.016  0.1698 -0.1850 -0.4349
 6954SOL    HW132498   3.186   2.957   1.063  0.4056  1.0327  0.3558
 6954SOL    HW232499   3.301   3.045   1.068  1.4112  0.0119 -1.4847
 6955SOL     OW32500   3.487   3.969   7.533  0.0395  0.2786 -0.4286
 6955SOL    HW132501   3.483   4.009   7.445  3.3730  1.3774 -0.0704
 6955SOL    HW232502   3.561   4.024   7.557 -1.6665  2.1662  0.4673
 6956SOL     OW32503   0.640   0.456   6.707  0.0195 -0.1017 -0.4442
 6956SOL    HW132504   0.661   0.404   6.629  0.0421 -1.3072  0.3678
 6956SOL    HW232505   0.567   0.516   6.689 -0.3949 -0.2796  0.6668
 6957SOL     OW32506   3.514   0.634  15.271  0.1681  0.8453 -0.2421
 6957SOL    HW132507   3.595   0.668  15.233  0.8538  0.9836  1.3334
 6957SOL    HW232508   3.510   0.672  15.359  0.6637  0.2383  0.0350
 6958SOL     OW32509   4.277   0.917   8.329  0.7984 -0.5118  0.4249
 6958SOL    HW132510   4.310   1.006   8.319 -2.0382  0.9768  3.9717
 6958SOL    HW232511   4.262   0.894   8.238  3.9534 -1.1184  0.0684
 6959SOL     OW32512   1.444   4.191   2.216 -0.2143 -0.7799 -0.0129
 6959SOL    HW132513   1.520   4.247   2.203 -0.2626 -0.6322  0.3342
 6959SOL    HW232514   1.437   4.194   2.311 -0.8286 -0.0973 -0.0884
 6960SOL     OW32515   2.954   4.018   3.057 -0.4782  0.0255  0.2644
 6960SOL    HW132516   3.044   3.985   3.066 -0.8071 -0.5355  1.4785
 6960SOL    HW232517   2.935   4.013   3.150 -0.0932  0.7186  0.3822
 6961SOL     OW32518   0.244   3.380   8.966  0.0284  0.1002 -0.1839
 6961SOL    HW132519   0.173   3.441   8.984 -0.1920 -0.3604  0.4834
 6961SOL    HW232520   0.217   3.338   8.884  1.5742  0.3428 -0.8071
 6962SOL     OW32521   0.548   1.001   6.632 -0.7402 -0.5670 -0.3197
 6962SOL    HW132522   0.620   0.948   6.665 -3.5106 -3.5198  1.0174
 6962SOL    HW232523   0.505   1.014   6.717  0.2434  1.0226 -0.0734
 6963SOL     OW32524   1.237   4.297  11.575  0.3486 -0.5353  0.2345
 6963SOL    HW132525   1.191   4.370  11.616  1.1273  0.8763 -1.3981
 6963SOL    HW232526   1.251   4.243  11.653  1.2901 -2.0726 -0.9972
 6964SOL     OW32527   1.639   4.426  10.040  0.1897 -0.4949  0.5636
 6964SOL    HW132528   1.674   4.422  10.129  1.7584 -1.7628 -0.0934
 6964SOL    HW232529   1.546   4.408  10.056  0.2232 -0.6899  0.5484
 6965SOL     OW32530   3.044   4.646   5.875 -0.3595 -0.7287  0.3318
 6965SOL    HW132531   3.059   4.657   5.969  1.1903 -1.2050  0.1298
 6965SOL    HW232532   3.125   4.604   5.848  0.0731 -0.2332  0.8683
 6966SOL     OW32533   2.908   3.441   4.071 -0.3516  0.1738 -0.0055
 6966SOL    HW132534   2.982   3.497   4.091 -0.7870  0.2455  1.3599
 6966SOL    HW232535   2.875   3.430   4.160 -1.4111  0.5542 -0.3528
 6967SOL     OW32536   3.903   3.414   5.510  0.9987 -0.2886  0.1263
 6967SOL    HW132537   3.979   3.364   5.480  1.6433  0.8226 -0.0705
 6967SOL    HW232538   3.832   3.367   5.465 -0.3339  0.5254  1.3688
 6968SOL     OW32539   0.061   1.746  15.036 -0.4601 -0.1025 -0.0488
 6968SOL    HW132540   0.055   1.656  15.006  1.2436 -0.5383  0.9086
 6968SOL    HW232541   0.151   1.745  15.070  0.2254 -0.9885 -1.8608
 6969SOL     OW32542   2.266   1.331  13.937  0.2440 -0.4419 -0.5479
 6969SOL    HW132543   2.304   1.289  13.860 -0.9421 -0.7777 -0.9424
 6969SOL    HW232544   2.178   1.294  13.937  0.6789 -1.4926  2.7546
 6970SOL     OW32545   2.178   4.695   7.400 -0.0447 -0.3976 -0.3142
 6970SOL    HW132546   2.121   0.021   7.444  0.4576 -1.0453  1.2628
 6970SOL    HW232547   2.120   4.665   7.331 -1.6160 -0.7278  1.1510
 6971SOL     OW32548   3.594   0.494   5.263 -0.4462  0.1366  0.1482
 6971SOL    HW132549   3.539   0.477   5.187 -1.4557  2.4618  0.3764
 6971SOL    HW232550   3.645   0.565   5.225 -1.2685  1.7323  2.0491
 6972SOL     OW32551   3.157   3.163   2.114 -0.2011  0.5742 -0.1663
 6972SOL    HW132552   3.114   3.078   2.107  1.1561 -0.0800 -0.5390
 6972SOL    HW232553   3.194   3.175   2.026  2.1580  0.7418  0.8701
 6973SOL     OW32554   4.410   3.682   7.566  0.0836  0.5268  0.0932
 6973SOL    HW132555   4.459   3.603   7.590 -1.6222 -0.7411 -0.5771
 6973SOL    HW232556   4.385   3.713   7.653 -2.3852  0.8357 -0.7285
 6974SOL     OW32557   3.419   1.342   6.449  0.0813  0.6319 -0.0323
 6974SOL    HW132558   3.374   1.411   6.498  1.3598  0.2909  1.6311
 6974SOL    HW232559   3.372   1.276   6.500 -0.0883  0.9363  0.2004
 6975SOL     OW32560   2.624   4.295  16.300  0.1860 -0.2294 -0.2733
 6975SOL    HW132561   2.611   4.233  16.372 -3.0928 -2.6183 -2.8948
 6975SOL    HW232562   2.718   4.307  16.306  0.1321  0.3373 -0.5830
 6976SOL     OW32563   1.939   3.855   9.053 -0.1150  0.2021  0.1617
 6976SOL    HW132564   2.002   3.855   9.125  0.9216  1.6886 -0.7522
 6976SOL    HW232565   1.945   3.768   9.013  1.1721  1.0705 -1.5117
 6977SOL     OW32566   4.508   2.157   4.735 -0.0481  0.1991 -0.1704
 6977SOL    HW132567   4.503   2.118   4.822  0.8229 -0.3038 -0.3547
 6977SOL    HW232568   4.433   2.217   4.738 -0.9152 -0.8540 -0.9019
 6978SOL     OW32569   4.240   0.186   8.380  0.6160 -0.6213 -0.6593
 6978SOL    HW132570   4.321   0.197   8.331 -0.1478  0.4303 -1.6984
 6978SOL    HW232571   4.282   0.183   8.465  0.2020 -0.7228 -0.4547
 6979SOL     OW32572   1.599   3.202   1.881  1.0507 -0.2158 -0.1475
 6979SOL    HW132573   1.635   3.211   1.792 -1.5959 -0.7971 -1.2911
 6979SOL    HW232574   1.509   3.235   1.881  1.1540  0.0622  0.1629
 6980SOL     OW32575   1.844   4.099   0.511 -0.0939  0.0521  0.1234
 6980SOL    HW132576   1.918   4.156   0.492 -0.1578 -0.2318 -0.9925
 6980SOL    HW232577   1.770   4.160   0.508  0.2496  0.5113  1.1059
 6981SOL     OW32578   1.632   2.515  15.827 -0.3515 -0.0505  0.6797
 6981SOL    HW132579   1.726   2.523  15.814 -0.5448  1.8502  0.3604
 6981SOL    HW232580   1.613   2.577  15.898 -0.2402  1.7735 -0.8757
 6982SOL     OW32581   2.746   2.942  17.272  0.1973 -0.0049  0.3965
 6982SOL    HW132582   2.766   2.909  17.184  0.0477 -0.0531  0.3807
 6982SOL    HW232583   2.825   2.996  17.284  0.3618  0.0195 -0.7284
 6983SOL     OW32584   2.600   3.521   4.683  0.3431 -0.3564 -0.1468
 6983SOL    HW132585   2.560   3.577   4.750 -0.7474 -0.0586 -1.0510
 6983SOL    HW232586   2.547   3.442   4.683 -0.7837  0.4133  1.4930
 6984SOL     OW32587   4.123   2.039  16.653 -0.4020  0.0600 -0.1346
 6984SOL    HW132588   4.125   1.946  16.677  1.2309 -0.1042 -0.9087
 6984SOL    HW232589   4.215   2.057  16.632 -0.2236 -0.7971 -0.0891
 6985SOL     OW32590   3.754   0.138   4.720 -1.0649 -0.5314 -0.3706
 6985SOL    HW132591   3.752   0.132   4.624  0.2285 -1.1164 -0.3683
 6985SOL    HW232592   3.661   0.153   4.739 -0.6259  3.0146 -1.0113
 6986SOL     OW32593   2.719   2.619   9.143  0.1028 -0.0896  0.1245
 6986SOL    HW132594   2.757   2.642   9.058 -0.1593 -0.5464 -0.1200
 6986SOL    HW232595   2.634   2.583   9.118  1.1440 -1.6393 -1.1788
 6987SOL     OW32596   0.682   2.289  13.265  0.2487  0.3033 -0.4255
 6987SOL    HW132597   0.693   2.354  13.334  0.3671  0.4318 -0.5647
 6987SOL    HW232598   0.685   2.208  13.317  1.6507  1.2335  0.9390
 6988SOL     OW32599   2.053   1.328  15.345  0.0765  0.1185 -0.0369
 6988SOL    HW132600   2.028   1.357  15.432  1.0892  2.1064 -0.4015
 6988SOL    HW232601   1.981   1.365  15.294 -0.4158  1.4867  1.6453
 6989SOL     OW32602   4.502   1.901   7.110 -0.1485  0.2974 -0.3428
 6989SOL    HW132603   4.551   1.933   7.186  0.0559  2.6190 -1.4567
 6989SOL    HW232604   4.470   1.815   7.141 -0.1996  0.9946  1.5577
 6990SOL     OW32605   3.698   0.010   4.995 -0.1126 -0.1388  0.6013
 6990SOL    HW132606   3.693   4.653   4.974  1.4655 -0.0007 -0.3900
 6990SOL    HW232607   3.706   0.050   4.909 -1.0360 -1.1197  0.0628
 6991SOL     OW32608   0.448   3.636   8.665  0.7238 -0.3233 -0.6874
 6991SOL    HW132609   0.414   3.623   8.577 -0.3497 -1.0531 -0.1618
 6991SOL    HW232610   0.502   3.557   8.668 -0.4918 -1.2241 -2.5476
 6992SOL     OW32611   3.118   0.946   6.540 -0.1235 -0.0969 -0.1952
 6992SOL    HW132612   3.029   0.944   6.506 -0.1358 -2.2491 -0.0814
 6992SOL    HW232613   3.153   0.872   6.492 -0.7273 -0.5732  0.0854
 6993SOL     OW32614   0.681   0.788   0.922  0.1058 -0.2188 -0.3392
 6993SOL    HW132615   0.750   0.725   0.940  0.3375  0.0225 -0.3871
 6993SOL    HW232616   0.612   0.739   0.968  0.3868 -0.5355 -0.2506
 6994SOL     OW32617   1.185   2.987   8.229 -0.1406  0.3392 -0.1154
 6994SOL    HW132618   1.171   3.063   8.286 -0.9651 -1.1818  1.7199
 6994SOL    HW232619   1.246   2.932   8.279  0.3360  0.3752 -0.6629
 6995SOL     OW32620   3.980   2.334   3.156  0.2975  0.2281  0.1165
 6995SOL    HW132621   4.057   2.347   3.101  0.4123  3.1956  0.9837
 6995SOL    HW232622   4.026   2.278   3.219 -0.5591 -0.9004 -0.2670
 6996SOL     OW32623   3.628   2.945   5.650  0.2367  0.0130  0.2647
 6996SOL    HW132624   3.688   2.877   5.619  0.1244 -1.5933  3.6011
 6996SOL    HW232625   3.685   3.020   5.663 -1.1217  1.0648  0.2104
 6997SOL     OW32626   1.470   0.365   5.746  0.1589 -0.4059 -0.1253
 6997SOL    HW132627   1.380   0.376   5.717  1.3158  0.9238 -3.2793
 6997SOL    HW232628   1.457   0.388   5.838  2.2070 -0.9999  0.3194
 6998SOL     OW32629   2.958   3.314  15.354 -0.0914  0.1983  0.4421
 6998SOL    HW132630   3.039   3.362  15.370 -0.5836  0.4224  2.3285
 6998SOL    HW232631   2.917   3.369  15.288  0.5497 -0.0009 -0.1226
 6999SOL     OW32632   4.244   2.474  11.284 -0.1894 -0.5109 -0.6033
 6999SOL    HW132633   4.301   2.550  11.291 -3.7764  2.1679 -0.7926
 6999SOL    HW232634   4.251   2.456  11.378  0.9257 -1.0336 -0.7900
 7000SOL     OW32635   1.584   4.450   7.315  0.1127 -0.0838  0.1182
 7000SOL    HW132636   1.617   4.532   7.351 -0.9025  0.4440 -0.1643
 7000SOL    HW232637   1.606   4.390   7.387 -0.2421 -1.2207 -0.7282
 7001SOL     OW32638   4.376   1.081   2.675 -0.1819  0.5256 -0.4991
 7001SOL    HW132639   4.435   1.011   2.647  1.3550  1.7748 -0.3966
 7001SOL    HW232640   4.286   1.058   2.651  0.2606 -2.4315  0.7172
 7002SOL     OW32641   1.428   1.926   1.796 -0.1430  0.0547 -0.2149
 7002SOL    HW132642   1.342   1.886   1.782  0.6394 -0.8775 -2.4434
 7002SOL    HW232643   1.411   1.966   1.881 -3.9295  1.3562 -1.5991
 7003SOL     OW32644   3.987   0.708   5.778  0.6781 -0.0122 -0.1378
 7003SOL    HW132645   3.913   0.696   5.719 -0.0236 -2.3907  1.2473
 7003SOL    HW232646   4.033   0.785   5.744  1.2101  0.8042  2.4300
 7004SOL     OW32647   1.704   4.373   9.119  0.0807 -0.2666  0.2607
 7004SOL    HW132648   1.658   4.332   9.192 -0.3434  0.6397  0.5020
 7004SOL    HW232649   1.758   4.297   9.095  2.4933  1.6156 -0.1902
 7005SOL     OW32650   2.433   1.949   7.275  0.1203 -0.4814 -0.0959
 7005SOL    HW132651   2.477   1.917   7.196  0.9413 -0.0213  0.1776
 7005SOL    HW232652   2.490   2.018   7.307 -1.9999  0.2067  2.2136
 7006SOL     OW32653   1.016   0.909   5.917 -0.1485  0.3580  0.1381
 7006SOL    HW132654   1.079   0.853   5.964  0.4189 -0.8827 -2.1219
 7006SOL    HW232655   1.055   0.993   5.941  0.3846  0.3185 -0.6037
 7007SOL     OW32656   1.744   0.334  13.782  0.0466 -0.0527  0.0979
 7007SOL    HW132657   1.768   0.424  13.805 -2.1963  0.1682  1.6105
 7007SOL    HW232658   1.821   0.287  13.815  0.6307 -0.0479 -1.2491
 7008SOL     OW32659   0.885   3.558  12.948  0.4249 -0.4374  0.1827
 7008SOL    HW132660   0.842   3.475  12.928 -1.3100  0.6503 -0.5859
 7008SOL    HW232661   0.902   3.546  13.042 -1.4199  0.5371  0.6487
 7009SOL     OW32662   2.123   1.361   6.953 -0.0192 -0.8937  0.1177
 7009SOL    HW132663   2.028   1.361   6.964 -0.1999 -0.9719 -1.4287
 7009SOL    HW232664   2.136   1.336   6.862  0.5683  0.2396 -0.1085
 7010SOL     OW32665   0.107   3.117   0.644 -0.5473 -0.6396 -0.5327
 7010SOL    HW132666   0.184   3.163   0.610  0.0631 -1.3213 -0.0923
 7010SOL    HW232667   0.043   3.187   0.652  0.6050  0.4053 -0.4894
 7011SOL     OW32668   3.827   4.061   5.901 -0.0856  0.0691  0.8268
 7011SOL    HW132669   3.823   3.989   5.838 -1.0226 -0.1985  1.1987
 7011SOL    HW232670   3.794   4.025   5.983  0.5276  0.0866  1.0850
 7012SOL     OW32671   3.690   2.550   2.840  0.1520 -0.1017 -0.0667
 7012SOL    HW132672   3.598   2.521   2.839  0.7383 -1.8992 -2.7855
 7012SOL    HW232673   3.687   2.644   2.859  1.0623  0.0066 -0.4529
 7013SOL     OW32674   0.333   4.536   8.828  0.0109  0.7321 -0.6950
 7013SOL    HW132675   0.330   4.458   8.772  0.7022  1.1828 -1.3539
 7013SOL    HW232676   0.345   4.496   8.914  1.8312  0.4285 -1.0853
 7014SOL     OW32677   4.417   1.251   1.947 -0.3079  0.0188 -0.4222
 7014SOL    HW132678   4.342   1.289   1.994 -0.2399  0.2212 -0.4794
 7014SOL    HW232679   4.371   1.192   1.887 -0.8171  1.9692 -1.9499
 7015SOL     OW32680   3.020   0.586  13.651  0.2432  0.3952 -0.0338
 7015SOL    HW132681   3.115   0.597  13.655  0.5423 -1.8212 -1.1181
 7015SOL    HW232682   2.985   0.602  13.739 -1.9206  0.4486 -0.8857
 7016SOL     OW32683   1.640   4.128   3.380 -0.4148 -0.3904 -0.2778
 7016SOL    HW132684   1.649   4.039   3.345  1.5588  0.0359 -0.8485
 7016SOL    HW232685   1.558   4.151   3.338  0.0702  1.4940 -0.1682
 7017SOL     OW32686   3.627   4.658  12.755  0.0953 -0.0439 -0.3704
 7017SOL    HW132687   3.579   4.728  12.799  0.3908  0.1275 -0.3195
 7017SOL    HW232688   3.711   4.698  12.734  0.9479 -1.3991  0.4356
 7018SOL     OW32689   2.322   4.156   7.921  0.4108 -0.0503 -0.1402
 7018SOL    HW132690   2.351   4.082   7.867  0.8466 -0.1660  0.2489
 7018SOL    HW232691   2.372   4.230   7.888  0.8796 -0.9223 -1.3839
 7019SOL     OW32692   3.350   2.248   1.931 -0.0613  0.2933 -0.5632
 7019SOL    HW132693   3.323   2.334   1.900  1.8359  1.0101 -0.2310
 7019SOL    HW232694   3.358   2.264   2.025 -1.2570  0.5008 -0.4886
 7020SOL     OW32695   2.116   0.148   0.185  0.2633  0.3193 -0.5344
 7020SOL    HW132696   2.159   0.063   0.185  1.2987  0.8408 -0.0975
 7020SOL    HW232697   2.173   0.196   0.245 -1.2862 -0.6341  1.7134
 7021SOL     OW32698   2.253   3.038   3.771  0.4762 -0.1698  0.2543
 7021SOL    HW132699   2.233   2.995   3.854  0.3949 -0.1874  0.2260
 7021SOL    HW232700   2.176   3.093   3.753  0.4231 -0.4434 -0.3667
 7022SOL     OW32701   1.873   1.218  11.515 -0.0272 -0.0628  0.1120
 7022SOL    HW132702   1.864   1.153  11.585  1.2683  0.1690  0.4964
 7022SOL    HW232703   1.788   1.227  11.473  0.3623 -2.1257 -1.1413
 7023SOL     OW32704   4.483   2.453   5.224 -0.1959 -0.2186  0.6282
 7023SOL    HW132705   4.493   2.481   5.315 -1.4543  3.8284 -0.4715
 7023SOL    HW232706   4.391   2.429   5.223  0.7049 -3.5777 -0.5174
 7024SOL     OW32707   3.547   2.486   0.863  0.0104  0.0419 -0.5794
 7024SOL    HW132708   3.488   2.557   0.886  0.0948 -0.2939  0.6751
 7024SOL    HW232709   3.629   2.520   0.898 -0.9412 -0.5193  2.2291
 7025SOL     OW32710   1.769   2.580   2.506  0.1270  0.6640 -0.1842
 7025SOL    HW132711   1.761   2.564   2.412 -0.6422 -3.3883  0.5520
 7025SOL    HW232712   1.720   2.662   2.510 -0.4614  0.2868  0.4796
 7026SOL     OW32713   4.169   2.938  11.734  0.3628 -1.0244 -0.1785
 7026SOL    HW132714   4.186   2.866  11.674  3.3023 -0.1416 -0.4272
 7026SOL    HW232715   4.133   2.902  11.815  0.7821 -1.5100 -0.2104
 7027SOL     OW32716   0.067   2.971   0.878 -0.0816  0.4006 -0.5327
 7027SOL    HW132717   0.076   3.014   0.793  0.9374  3.5656  1.1980
 7027SOL    HW232718   4.723   2.922   0.866 -0.9136  1.4375  0.9644
 7028SOL     OW32719   1.650   1.931  16.761 -0.3515 -0.0350 -0.3863
 7028SOL    HW132720   1.711   1.859  16.746 -1.4367 -1.0997  0.3740
 7028SOL    HW232721   1.711   2.005  16.757 -0.7806  0.3953  1.0367
 7029SOL     OW32722   1.594   1.785   3.698 -0.0817 -0.2296 -0.0565
 7029SOL    HW132723   1.500   1.777   3.680 -0.1427 -1.9295  1.0666
 7029SOL    HW232724   1.602   1.869   3.744 -1.0522  0.3118 -0.8598
 7030SOL     OW32725   0.482   1.133   7.725  0.3651  0.0524  0.1715
 7030SOL    HW132726   0.388   1.134   7.747  0.0858  0.4335 -1.0674
 7030SOL    HW232727   0.477   1.160   7.634  0.3337  0.6966  0.3627
 7031SOL     OW32728   0.276   4.728   5.534  0.7273 -0.1244 -0.7708
 7031SOL    HW132729   0.343   0.056   5.512  0.7321  0.0578 -0.2405
 7031SOL    HW232730   0.215   0.052   5.576 -0.5047 -1.0023 -1.2920
 7032SOL     OW32731   2.111   1.072   4.655 -0.4057 -0.0017 -0.1502
 7032SOL    HW132732   2.032   1.020   4.642  0.9442 -1.5685 -2.1405
 7032SOL    HW232733   2.070   1.149   4.694 -1.6420 -1.8805  2.2435
 7033SOL     OW32734   2.827   0.173  14.320  0.0551  0.4844 -0.1208
 7033SOL    HW132735   2.915   0.141  14.340 -0.1204 -0.3735 -0.7318
 7033SOL    HW232736   2.835   0.163  14.225 -0.2703  0.0322 -0.0998
 7034SOL     OW32737   4.187   3.222  16.503  0.4108  0.5484 -0.2152
 7034SOL    HW132738   4.208   3.297  16.447 -1.1008  1.5100  0.5265
 7034SOL    HW232739   4.220   3.163  16.436 -0.4303 -0.3446  0.1593
 7035SOL     OW32740   3.733   4.348  14.756  0.8867 -0.2341  0.5286
 7035SOL    HW132741   3.784   4.342  14.675 -0.8795 -1.6530 -0.4854
 7035SOL    HW232742   3.804   4.333  14.818  0.3151 -0.5557  1.1106
 7036SOL     OW32743   3.721   2.287  13.415  0.2001 -0.4713 -0.0159
 7036SOL    HW132744   3.798   2.266  13.467  0.9861  2.4565  0.0087
 7036SOL    HW232745   3.752   2.330  13.336 -2.9106 -1.2305 -1.6516
 7037SOL     OW32746   0.156   2.867  17.070 -0.6937  0.1717  0.0668
 7037SOL    HW132747   0.220   2.803  17.040 -1.2551 -0.5827  0.4791
 7037SOL    HW232748   0.143   2.915  16.988  0.0952  0.0864 -0.1111
 7038SOL     OW32749   2.150   0.854  15.302 -0.0145  0.0676 -0.1803
 7038SOL    HW132750   2.148   0.829  15.394  0.8254 -2.1320 -0.7572
 7038SOL    HW232751   2.186   0.777  15.258 -1.0965  0.2440 -1.3998
 7039SOL     OW32752   3.421   4.626   4.998 -0.2876 -0.4191 -0.2021
 7039SOL    HW132753   3.372   4.708   5.004  2.3176  0.9344  2.2286
 7039SOL    HW232754   3.510   4.657   5.013 -0.8187 -0.0476  2.0967
 7040SOL     OW32755   2.404   0.091  11.175  0.4721  0.1978  0.1071
 7040SOL    HW132756   2.472   0.155  11.197  0.3441  0.2511  0.3526
 7040SOL    HW232757   2.355   0.103  11.257 -1.5284  0.3656 -1.1107
 7041SOL     OW32758   0.938   0.284   6.957 -0.1140 -0.1806 -0.2937
 7041SOL    HW132759   0.978   0.371   6.962  1.3280 -0.8090 -0.6431
 7041SOL    HW232760   0.902   0.307   6.872 -0.6955  0.3901  0.1055
 7042SOL     OW32761   1.312   2.367   4.160  0.2153  0.5382 -0.1303
 7042SOL    HW132762   1.249   2.371   4.232 -0.6865 -0.1886 -0.8670
 7042SOL    HW232763   1.270   2.408   4.083 -2.6554 -0.5145  0.8683
 7043SOL     OW32764   2.508   0.826  16.030  0.5048  0.0738 -0.5691
 7043SOL    HW132765   2.555   0.745  16.010  0.6448  0.0669 -0.2162
 7043SOL    HW232766   2.534   0.869  15.948 -0.1598  2.0496  0.2625
 7044SOL     OW32767   2.424   2.441   1.407  0.4610 -0.0960  0.1375
 7044SOL    HW132768   2.459   2.382   1.340  1.6239  0.9497 -0.1816
 7044SOL    HW232769   2.478   2.521   1.402 -1.7954  1.3700 -0.7460
 7045SOL     OW32770   1.463   0.432   5.032 -0.0782 -0.4841 -0.2755
 7045SOL    HW132771   1.421   0.410   5.115  1.2662 -0.6951  0.3624
 7045SOL    HW232772   1.554   0.438   5.063  0.4397 -0.2964 -1.8144
 7046SOL     OW32773   3.665   0.591   7.240 -0.5398 -0.3042  0.1911
 7046SOL    HW132774   3.612   0.629   7.170  0.1628 -1.4251 -0.9395
 7046SOL    HW232775   3.752   0.598   7.201 -0.4938 -0.5192  0.2577
 7047SOL     OW32776   0.437   0.247   4.713  0.2089  0.1507  0.2967
 7047SOL    HW132777   0.441   0.298   4.794  1.7374 -1.0265  0.9620
 7047SOL    HW232778   0.371   0.183   4.740 -0.2510  0.0093 -1.1392
 7048SOL     OW32779   1.535   3.369   5.175 -0.6070  0.3791 -0.6006
 7048SOL    HW132780   1.526   3.274   5.171  1.0086  0.1359  1.5241
 7048SOL    HW232781   1.622   3.389   5.139 -0.4348  0.7694  0.0427
 7049SOL     OW32782   0.588   4.614   1.365  0.2717 -0.0985 -0.2048
 7049SOL    HW132783   0.552   4.612   1.454 -1.9439  0.3589 -1.1001
 7049SOL    HW232784   0.659   4.677   1.379  0.8434 -0.8414  0.2498
 7050SOL     OW32785   2.606   2.216  16.533  0.0624 -0.1492 -0.6901
 7050SOL    HW132786   2.594   2.274  16.608  3.3177  0.3540 -0.5225
 7050SOL    HW232787   2.577   2.268  16.459  1.8931  0.9920 -0.6103
 7051SOL     OW32788   4.712   0.797   8.534  0.2142  0.3225  0.1107
 7051SOL    HW132789   0.030   0.731   8.576 -1.6138 -0.8407  0.6602
 7051SOL    HW232790   4.636   0.745   8.506 -0.5150  1.0785  0.6957
 7052SOL     OW32791   1.919   3.719   5.031 -0.1610  0.1582 -0.3755
 7052SOL    HW132792   1.867   3.743   4.955 -0.0707  1.3365 -0.0596
 7052SOL    HW232793   1.963   3.641   4.997  0.7854 -0.7847  2.9875
 7053SOL     OW32794   3.909   2.805   7.898  0.1344 -0.1115 -0.4056
 7053SOL    HW132795   3.833   2.855   7.869 -0.4761 -0.2656  0.9047
 7053SOL    HW232796   3.886   2.717   7.868  0.5114 -0.0621 -0.8268
 7054SOL     OW32797   4.319   1.600   2.182  0.1486  0.4079  0.6403
 7054SOL    HW132798   4.388   1.592   2.116 -0.6231 -0.5594 -0.0351
 7054SOL    HW232799   4.296   1.511   2.205  4.9529 -0.5816  1.6415
 7055SOL     OW32800   2.239   3.137  16.895  0.4211 -0.4141  0.6215
 7055SOL    HW132801   2.269   3.046  16.900  0.0030 -0.6069 -0.4346
 7055SOL    HW232802   2.209   3.145  16.986  0.3522 -1.1645  0.6662
 7056SOL     OW32803   0.883   1.105   1.475  0.3400  0.1920  0.3267
 7056SOL    HW132804   0.965   1.075   1.515 -1.1362 -3.5373  0.6050
 7056SOL    HW232805   0.900   1.158   1.398 -0.4962  2.1726  1.4972
 7057SOL     OW32806   0.790   0.739  15.339 -0.0636 -0.1727  0.3856
 7057SOL    HW132807   0.789   0.662  15.396  2.7495  0.4254  1.2527
 7057SOL    HW232808   0.862   0.795  15.369  0.8514 -0.6522 -0.9054
 7058SOL     OW32809   1.688   1.391   3.688  0.0115  0.1727 -0.4445
 7058SOL    HW132810   1.725   1.458   3.630  0.8633 -0.3210 -0.4582
 7058SOL    HW232811   1.627   1.351   3.626 -0.7594 -1.8524  1.6534
 7059SOL     OW32812   1.616   0.564   4.626 -0.1121 -0.0243 -0.1849
 7059SOL    HW132813   1.597   0.633   4.689  1.8757  1.8611 -1.6572
 7059SOL    HW232814   1.604   0.611   4.544  2.3447  1.2991  0.1959
 7060SOL     OW32815   1.091   0.841   7.590  0.2235  0.1991 -0.4505
 7060SOL    HW132816   1.186   0.849   7.582  0.1967  1.7243  0.7808
 7060SOL    HW232817   1.074   0.797   7.507 -1.4548 -1.0377  0.5515
 7061SOL     OW32818   1.694   1.678   5.864  0.4045  0.4883 -0.1382
 7061SOL    HW132819   1.624   1.652   5.925 -1.6701  1.3164 -2.1412
 7061SOL    HW232820   1.649   1.694   5.781 -1.4636  3.7156  1.4415
 7062SOL     OW32821   1.434   1.489   3.250 -0.5638 -0.1405 -0.0557
 7062SOL    HW132822   1.382   1.554   3.204  0.8664  0.5729 -0.6679
 7062SOL    HW232823   1.510   1.540   3.279 -2.4326  1.6992  1.5873
 7063SOL     OW32824   0.767   2.325   3.015 -0.9190  0.1545 -0.0790
 7063SOL    HW132825   0.840   2.319   3.076 -0.5788 -1.8189 -0.6878
 7063SOL    HW232826   0.697   2.309   3.079  1.5618 -0.4492  2.4788
 7064SOL     OW32827   4.132   4.152   7.091 -1.2101  0.0690 -0.0311
 7064SOL    HW132828   4.221   4.187   7.087 -0.4644 -1.8820 -0.5762
 7064SOL    HW232829   4.075   4.227   7.073  1.3858  1.6972 -1.4088
 7065SOL     OW32830   2.987   3.338   2.773  0.1380  0.2050 -0.0356
 7065SOL    HW132831   2.924   3.343   2.701  1.0407  2.0612 -0.6909
 7065SOL    HW232832   2.980   3.422   2.818 -0.0230  0.4833 -0.5711
 7066SOL     OW32833   0.492   2.922   4.410 -0.4329  0.0974  0.2513
 7066SOL    HW132834   0.531   2.995   4.362 -1.4544  0.9879  0.7747
 7066SOL    HW232835   0.538   2.861   4.352 -0.7816  1.9811 -1.9916
 7067SOL     OW32836   2.110   0.829   3.996  0.3043 -0.7039  0.5580
 7067SOL    HW132837   2.090   0.805   4.087  0.8277  2.1096  1.4078
 7067SOL    HW232838   2.025   0.824   3.952  0.0858 -0.1730  0.9232
 7068SOL     OW32839   1.926   3.808   4.137  0.5093  0.8894 -0.2582
 7068SOL    HW132840   1.884   3.826   4.053  2.6873 -0.4015 -1.6163
 7068SOL    HW232841   1.855   3.770   4.188  1.2038  0.0530  0.1011
 7069SOL     OW32842   2.092   2.296   1.271 -0.4019  0.2370 -0.3717
 7069SOL    HW132843   2.115   2.350   1.195 -1.0829  0.9916 -0.0477
 7069SOL    HW232844   2.099   2.204   1.246  2.5158 -0.4571  2.9703
 7070SOL     OW32845   3.256   4.712   9.585  0.0223 -0.3188 -0.6561
 7070SOL    HW132846   3.320   4.644   9.605 -1.3040 -1.5904 -0.6797
 7070SOL    HW232847   3.171   4.680   9.615  1.4885 -2.2858  1.4179
 7071SOL     OW32848   2.708   2.535   3.363 -0.0155  0.0858  0.0921
 7071SOL    HW132849   2.800   2.553   3.343 -0.2163  0.9956  0.0085
 7071SOL    HW232850   2.702   2.523   3.458 -1.2618  1.6995  0.2094
 7072SOL     OW32851   3.935   3.879   4.466  0.4229 -0.8291  0.7293
 7072SOL    HW132852   3.956   3.890   4.558  1.3338  1.5723  0.2614
 7072SOL    HW232853   3.848   3.840   4.462 -0.2851  0.6517  1.7275
 7073SOL     OW32854   3.297   1.098   5.662  0.5588 -0.2355  0.2551
 7073SOL    HW132855   3.224   1.076   5.604  0.6632 -0.2195  0.1170
 7073SOL    HW232856   3.334   1.010   5.668 -0.1763 -0.2830  3.8807
 7074SOL     OW32857   4.521   2.479   8.414 -0.6311 -0.1968 -0.2721
 7074SOL    HW132858   4.535   2.435   8.330 -1.1610  2.6095 -1.8212
 7074SOL    HW232859   4.609   2.499   8.444 -0.3447 -0.0724 -1.2089
 7075SOL     OW32860   4.612   4.030  17.039 -0.1486  0.3116 -0.2900
 7075SOL    HW132861   4.531   4.014  16.991  1.0286  0.1317 -2.2181
 7075SOL    HW232862   4.671   4.064  16.972  0.4498  0.5494  0.3502
 7076SOL     OW32863   2.176   0.781   4.508 -0.1070 -0.4476  0.0149
 7076SOL    HW132864   2.142   0.870   4.521 -2.2354 -1.4551  1.4882
 7076SOL    HW232865   2.153   0.742   4.592  0.4473  1.1886  0.9312
 7077SOL     OW32866   3.243   3.109  17.454  0.4218  0.4990  0.1967
 7077SOL    HW132867   3.296   3.156  17.390  1.6302 -0.9084  0.1732
 7077SOL    HW232868   3.165   3.096  17.399 -0.5083  1.2440  1.3203
 7078SOL     OW32869   3.375   0.910  15.221 -0.3603 -0.0940 -0.3169
 7078SOL    HW132870   3.368   0.816  15.233 -0.4013 -0.1293 -0.6130
 7078SOL    HW232871   3.422   0.944  15.297  0.5755 -0.3830 -0.7676
 7079SOL     OW32872   2.282   2.979   8.262 -0.0721 -0.3275  0.0389
 7079SOL    HW132873   2.287   3.063   8.308  2.8902 -0.6210  0.2578
 7079SOL    HW232874   2.353   2.993   8.199  0.8428  2.6231  1.7482
 7080SOL     OW32875   0.862   4.097   8.593  0.1385  0.2514 -0.6617
 7080SOL    HW132876   0.945   4.088   8.547 -0.7777  0.3767 -2.3228
 7080SOL    HW232877   0.891   4.107   8.684 -1.1821 -0.2672 -0.1741
 7081SOL     OW32878   0.268   1.666   0.335  0.3144 -0.5245 -0.0636
 7081SOL    HW132879   0.257   1.650   0.241  0.5531  0.1167 -0.2012
 7081SOL    HW232880   0.346   1.615   0.357  0.1720 -0.5171  0.4618
 7082SOL     OW32881   0.384   1.735  10.175 -0.3038 -0.2674  0.2672
 7082SOL    HW132882   0.408   1.665  10.236  0.3735 -0.9557 -0.7887
 7082SOL    HW232883   0.310   1.761  10.230 -1.6637 -2.8156 -0.3556
 7083SOL     OW32884   3.915   1.537   4.204  0.2454  0.2258 -0.6836
 7083SOL    HW132885   3.864   1.572   4.277  1.7359  2.3932 -0.6671
 7083SOL    HW232886   4.005   1.543   4.238 -0.3849 -1.2602  1.2357
 7084SOL     OW32887   3.404   0.681   4.702  0.3903 -0.0778 -0.2710
 7084SOL    HW132888   3.341   0.680   4.630  1.3331  2.9860 -1.1288
 7084SOL    HW232889   3.442   0.768   4.694  0.8775 -0.1629  1.0228
 7085SOL     OW32890   2.039   2.140  17.358 -0.7950  0.0056  0.0082
 7085SOL    HW132891   2.089   2.186  17.426 -1.6875 -0.2830  0.8538
 7085SOL    HW232892   1.957   2.125  17.404 -0.6265 -0.3782  0.1873
 7086SOL     OW32893   0.277   2.218   5.481 -0.2251 -0.0695  0.4498
 7086SOL    HW132894   0.263   2.297   5.534 -0.1253 -0.2083  0.6794
 7086SOL    HW232895   0.184   2.196   5.477  0.0468 -1.0367 -0.6194
 7087SOL     OW32896   3.502   4.446  11.110  0.4158  0.5569  0.0898
 7087SOL    HW132897   3.533   4.518  11.056  0.0784  0.1145 -0.6937
 7087SOL    HW232898   3.435   4.490  11.161 -0.8956 -0.3602 -0.8497
 7088SOL     OW32899   3.069   0.218   2.471 -0.0655  0.8513 -0.0133
 7088SOL    HW132900   3.015   0.159   2.524  2.0669 -2.5019 -1.5521
 7088SOL    HW232901   3.146   0.230   2.527  1.3464  1.1062 -2.0308
 7089SOL     OW32902   2.821   3.332  16.834 -0.1292  0.3661  0.1516
 7089SOL    HW132903   2.805   3.412  16.784  2.4645  0.9999  0.2994
 7089SOL    HW232904   2.732   3.305  16.856  0.0651 -1.8983 -1.8107
 7090SOL     OW32905   3.492   2.052  16.939 -0.1425  0.5229 -0.3674
 7090SOL    HW132906   3.471   2.052  17.033 -0.3147 -0.2852 -0.4100
 7090SOL    HW232907   3.494   2.145  16.917  0.6065  0.3439 -1.0483
 7091SOL     OW32908   2.784   2.720  11.093  0.3252 -0.0281  0.0444
 7091SOL    HW132909   2.692   2.697  11.084 -0.2114  1.2753  2.2360
 7091SOL    HW232910   2.816   2.708  11.003  0.8946 -0.9894  0.3734
 7092SOL     OW32911   3.672   0.458  17.306  0.1232  0.4658  0.2251
 7092SOL    HW132912   3.584   0.425  17.325  1.5323 -1.2895  3.6809
 7092SOL    HW232913   3.677   0.508  17.387  1.1250 -0.2545  0.6014
 7093SOL     OW32914   3.001   0.902   7.486  0.0340  0.2332 -0.1486
 7093SOL    HW132915   3.033   0.878   7.573  0.0600 -0.3420 -0.3195
 7093SOL    HW232916   2.916   0.861   7.473 -0.2568  0.8862 -0.2949
 7094SOL     OW32917   4.056   0.170  11.517  0.4847 -0.0271  0.2060
 7094SOL    HW132918   4.151   0.158  11.530  0.8631  1.3017 -1.3368
 7094SOL    HW232919   4.027   0.088  11.478  0.9161  0.1686 -0.5182
 7095SOL     OW32920   3.395   0.592  14.243 -0.1834  0.1019 -0.0435
 7095SOL    HW132921   3.341   0.613  14.319 -0.0478  0.4037 -0.0300
 7095SOL    HW232922   3.334   0.589  14.169  1.1637 -0.7603 -1.1241
 7096SOL     OW32923   1.909   0.927   4.589  0.2304  0.1637 -0.4833
 7096SOL    HW132924   1.847   0.909   4.660  1.4180 -0.3621  0.4074
 7096SOL    HW232925   1.877   0.878   4.513  0.2711  0.9801 -1.0248
 7097SOL     OW32926   0.054   0.036   1.439 -0.4708 -0.6030 -0.2927
 7097SOL    HW132927   0.007   4.717   1.376 -0.4793 -1.4961  0.5005
 7097SOL    HW232928   0.100   4.698   1.477  1.0840 -0.6276 -2.2395
 7098SOL     OW32929   3.957   0.968   6.445  0.2078  0.3294 -0.1976
 7098SOL    HW132930   4.038   0.918   6.441  0.6057  1.0041 -0.7340
 7098SOL    HW232931   3.896   0.930   6.381 -2.2272  0.5321  1.9948
 7099SOL     OW32932   3.158   1.259  16.185  0.0563 -0.3386 -0.2841
 7099SOL    HW132933   3.188   1.223  16.268  0.3733  1.2456  0.2929
 7099SOL    HW232934   3.065   1.238  16.194  0.4797 -0.6232  3.3727
 7100SOL     OW32935   4.410   1.326   4.622 -0.3670 -0.0292 -0.0583
 7100SOL    HW132936   4.448   1.385   4.556 -0.1656  0.0298  0.1076
 7100SOL    HW232937   4.361   1.276   4.557  2.1823 -2.3995 -0.1813
 7101SOL     OW32938   1.045   0.399   7.671 -0.0702  0.5012 -0.1315
 7101SOL    HW132939   0.994   0.344   7.731  1.9828 -2.0849 -0.7795
 7101SOL    HW232940   1.018   0.482   7.710  1.7766  2.2413 -2.5864
 7102SOL     OW32941   3.495   0.800   8.583 -0.1672  0.1859 -0.0045
 7102SOL    HW132942   3.429   0.832   8.645  0.5776 -0.0535  0.8968
 7102SOL    HW232943   3.529   0.720   8.623  1.3603  0.6321 -0.4107
 7103SOL     OW32944   4.669   4.400   8.712  0.5665 -0.0190  0.3814
 7103SOL    HW132945   0.016   4.356   8.730  0.6714  0.2982  0.6611
 7103SOL    HW232946   4.683   4.433   8.624 -1.0987 -1.3086 -0.3713
 7104SOL     OW32947   2.093   0.719   4.243  0.5160 -0.1417  0.3421
 7104SOL    HW132948   2.094   0.731   4.338 -0.1135  0.4100  0.2778
 7104SOL    HW232949   2.033   0.645   4.250  0.4747 -0.1514 -0.1127
 7105SOL     OW32950   1.032   1.492   5.973  0.7547 -0.1364  0.1174
 7105SOL    HW132951   1.063   1.437   6.044 -1.4015 -1.0723  0.3279
 7105SOL    HW232952   0.962   1.441   5.933  0.7167  0.6380 -0.8107
 7106SOL     OW32953   3.667   4.551   6.400 -0.4136  0.5784  0.0295
 7106SOL    HW132954   3.657   4.502   6.481 -1.2098 -0.4396 -0.6870
 7106SOL    HW232955   3.700   4.638   6.424  0.2959 -0.1564  1.6782
 7107SOL     OW32956   0.491   2.613   2.571 -0.1704 -0.1109 -0.9105
 7107SOL    HW132957   0.460   2.530   2.535 -0.2250 -0.3397 -0.3391
 7107SOL    HW232958   0.449   2.666   2.504 -0.7120  0.6267  0.0076
 7108SOL     OW32959   3.003   3.183   3.312 -0.4013 -0.3172 -0.3724
 7108SOL    HW132960   3.070   3.198   3.246 -1.4449 -2.5251 -1.9238
 7108SOL    HW232961   2.974   3.092   3.312  0.4648 -0.5794  2.7154
 7109SOL     OW32962   1.874   1.863   7.000 -0.1840  0.4864  0.3805
 7109SOL    HW132963   1.859   1.798   7.070  2.4164 -1.0569 -0.5032
 7109SOL    HW232964   1.862   1.949   7.040 -1.9251  0.3390  0.1820
 7110SOL     OW32965   3.801   2.603   3.998 -0.3472  0.3845  0.5927
 7110SOL    HW132966   3.713   2.641   3.996 -0.0253  1.0839 -0.3955
 7110SOL    HW232967   3.832   2.622   3.910 -1.0616 -2.3369 -0.2404
 7111SOL     OW32968   0.311   2.599  11.510  0.1277 -0.4351 -0.1931
 7111SOL    HW132969   0.246   2.563  11.570 -1.3745 -1.6464 -2.5283
 7111SOL    HW232970   0.267   2.672  11.465 -0.1444  0.7866  2.0442
 7112SOL     OW32971   4.124   2.896   9.714 -0.0837  0.1587 -0.2203
 7112SOL    HW132972   4.040   2.922   9.677 -0.2993  0.3358  0.3860
 7112SOL    HW232973   4.094   2.860   9.798 -0.6197  0.9401 -0.0732
 7113SOL     OW32974   3.154   3.376   6.698 -0.2301  0.4837  0.5849
 7113SOL    HW132975   3.130   3.286   6.678  1.1851  0.4291 -0.9285
 7113SOL    HW232976   3.105   3.430   6.636 -1.0543 -0.6820  0.2182
 7114SOL     OW32977   0.565   2.922   2.386  0.2461 -0.0632  0.0292
 7114SOL    HW132978   0.498   2.855   2.371 -0.1227  0.5386 -0.9899
 7114SOL    HW232979   0.598   2.882   2.466  0.5096 -0.9036 -0.5045
 7115SOL     OW32980   2.171   1.581  14.919 -0.4263 -0.4859  0.1095
 7115SOL    HW132981   2.200   1.510  14.975 -0.6914 -1.8583 -1.4894
 7115SOL    HW232982   2.076   1.568  14.910 -0.1157 -3.0301  0.4291
 7116SOL     OW32983   3.516   1.164   5.256  0.0622  0.3229 -0.0469
 7116SOL    HW132984   3.516   1.081   5.305 -0.2638  0.4114  0.1037
 7116SOL    HW232985   3.602   1.205   5.262  1.0830 -2.1005  1.8578
 7117SOL     OW32986   2.078   2.471   4.534 -0.0634 -0.4281  0.2781
 7117SOL    HW132987   1.996   2.503   4.495 -0.0293 -1.2372 -0.4644
 7117SOL    HW232988   2.066   2.476   4.629 -1.0531  0.1549  0.1275
 7118SOL     OW32989   1.024   3.656   3.392  0.4388 -0.2430  0.0354
 7118SOL    HW132990   1.004   3.739   3.349  1.5580  1.4283  2.7006
 7118SOL    HW232991   0.937   3.617   3.399  1.3046 -2.2114 -0.2763
 7119SOL     OW32992   4.015   3.432   6.854  0.4641  0.1515  0.0450
 7119SOL    HW132993   4.058   3.367   6.909  0.0428  0.7251  1.0552
 7119SOL    HW232994   4.045   3.515   6.892  1.7556  0.6098 -1.9127
 7120SOL     OW32995   4.472   2.974  13.934  0.2459 -0.2553 -0.7633
 7120SOL    HW132996   4.479   3.065  13.908 -0.0200  0.9917  3.5163
 7120SOL    HW232997   4.530   2.963  14.010  1.5027  2.5558 -1.3193
 7121SOL     OW32998   2.389   3.537   1.242 -0.1705 -0.1754  0.0736
 7121SOL    HW132999   2.356   3.621   1.211 -0.9377 -0.1806  0.8626
 7121SOL    HW233000   2.396   3.489   1.159  1.3861  0.2517 -0.0256
 7122SOL     OW33001   0.518   4.292  11.789  0.0007 -0.6338  0.1150
 7122SOL    HW133002   0.536   4.282  11.883  2.6301 -1.0111 -0.4345
 7122SOL    HW233003   0.431   4.252  11.784 -1.8192  3.1705  1.4905
 7123SOL     OW33004   0.984   4.242   3.093  0.4647  0.3827 -0.0464
 7123SOL    HW133005   0.985   4.299   3.016 -0.8287  2.2807  1.3148
 7123SOL    HW233006   0.980   4.313   3.158  0.4114  0.7984 -0.5059
 7124SOL     OW33007   0.033   4.040   6.739 -0.0502 -0.2388  0.2057
 7124SOL    HW133008   0.033   3.994   6.655 -2.1404  1.3380 -0.6472
 7124SOL    HW233009   0.110   4.096   6.731  0.0934  0.0564  3.5863
 7125SOL     OW33010   2.855   3.761   8.581 -0.0613  0.1616 -0.0382
 7125SOL    HW133011   2.802   3.756   8.501 -0.8102  0.8283  0.4128
 7125SOL    HW233012   2.909   3.683   8.569  0.0143  0.2156 -0.0485
 7126SOL     OW33013   1.989   2.256   2.146 -0.3058 -0.0680  0.6947
 7126SOL    HW133014   2.079   2.279   2.169  0.5667 -1.0913 -1.7010
 7126SOL    HW233015   2.004   2.173   2.102 -0.8750  1.0016 -1.5327
 7127SOL     OW33016   4.164   4.631   3.290  0.2792  0.0223  0.9322
 7127SOL    HW133017   4.211   4.675   3.361  0.4124 -0.8426  1.3687
 7127SOL    HW233018   4.226   4.621   3.217 -1.7681  3.5681 -1.3628
 7128SOL     OW33019   3.154   2.053  13.265  0.2120  0.6586 -0.2217
 7128SOL    HW133020   3.230   2.081  13.317  0.5298  1.3274 -1.0492
 7128SOL    HW233021   3.100   2.022  13.338  2.5937  1.8128  2.0462
 7129SOL     OW33022   2.071   0.102   2.999 -0.6344 -0.0026 -0.6402
 7129SOL    HW133023   2.115   0.020   3.024 -0.5007 -0.4428 -2.3362
 7129SOL    HW233024   2.054   0.086   2.907 -0.7669  0.3610 -0.6774
 7130SOL     OW33025   3.978   1.261   6.132  0.0671 -0.3744  0.0575
 7130SOL    HW133026   4.064   1.233   6.099  0.2268 -0.1080  0.2380
 7130SOL    HW233027   3.935   1.183   6.167  0.6834 -0.4545  0.6420
 7131SOL     OW33028   1.707   0.433   9.518  0.0313  0.2488  0.2670
 7131SOL    HW133029   1.749   0.389   9.444 -0.6439 -0.4626  0.3178
 7131SOL    HW233030   1.666   0.504   9.469 -0.8518 -1.3851 -1.3787
 7132SOL     OW33031   0.499   0.396   9.606  0.3552  0.2625 -0.1548
 7132SOL    HW133032   0.495   0.395   9.702  0.6556  1.2251 -0.1318
 7132SOL    HW233033   0.567   0.330   9.596  1.9883  1.9960 -0.6232
 7133SOL     OW33034   1.945   0.784   7.127  0.3351  0.5711  0.1629
 7133SOL    HW133035   1.904   0.751   7.207  0.1042  1.1762  0.2928
 7133SOL    HW233036   2.007   0.712   7.116 -0.6403 -0.2409  0.0268
 7134SOL     OW33037   4.659   1.225   1.589 -0.3846 -0.2770  0.0004
 7134SOL    HW133038   4.651   1.243   1.495  0.4079 -1.3317 -0.2729
 7134SOL    HW233039   0.001   1.172   1.592  1.1113  1.8587 -1.4944
 7135SOL     OW33040   1.177   1.837   8.648 -0.6065  0.6319  0.6402
 7135SOL    HW133041   1.234   1.906   8.613  0.4768 -0.2131  0.7311
 7135SOL    HW233042   1.118   1.812   8.578  0.5361 -0.4528  0.0688
 7136SOL     OW33043   0.259   4.398   3.590  0.7392  0.1705 -0.0850
 7136SOL    HW133044   0.295   4.478   3.553  1.2744 -0.3681 -0.7235
 7136SOL    HW233045   0.340   4.362   3.625 -1.0217 -2.4276  1.3217
 7137SOL     OW33046   4.350   3.033   1.560 -0.0061 -0.2117  0.4781
 7137SOL    HW133047   4.318   2.944   1.544  0.4144 -0.2299 -0.2773
 7137SOL    HW233048   4.263   3.068   1.573  1.0283  1.8193  1.9095
 7138SOL     OW33049   2.114   2.160  11.865  0.6588  0.4931 -0.3855
 7138SOL    HW133050   2.133   2.140  11.774 -3.1994 -1.8413 -0.6854
 7138SOL    HW233051   2.096   2.254  11.864  0.6128  0.4785 -0.9236
 7139SOL     OW33052   3.233   4.721   7.809  0.3700  0.3266  0.0803
 7139SOL    HW133053   3.291   4.730   7.885 -1.6025 -0.5236  1.6748
 7139SOL    HW233054   3.150   0.010   7.849 -0.5258  0.6316 -1.9461
 7140SOL     OW33055   1.945   2.210  10.459  0.0333  0.4504  0.0958
 7140SOL    HW133056   2.014   2.220  10.525 -1.5633  0.7841  1.7095
 7140SOL    HW233057   1.965   2.124  10.422  0.4359  0.2912  0.6750
 7141SOL     OW33058   4.513   0.290   4.474  0.0625 -0.4632 -0.3691
 7141SOL    HW133059   4.465   0.213   4.503  0.7242 -0.3365  1.0876
 7141SOL    HW233060   4.543   0.318   4.561 -4.1128  1.3334  0.4734
 7142SOL     OW33061   1.001   4.329   4.060 -0.5830 -0.4549 -0.4656
 7142SOL    HW133062   1.028   4.349   4.150 -0.9181 -1.7671 -0.0649
 7142SOL    HW233063   1.078   4.282   4.029  0.7957  2.3827 -1.3637
 7143SOL     OW33064   1.590   4.079  10.073 -0.2131  0.0494 -0.4237
 7143SOL    HW133065   1.530   4.153  10.076 -0.4614 -0.2452  1.5750
 7143SOL    HW233066   1.646   4.107  10.145 -2.0448 -1.6572  1.6355
 7144SOL     OW33067   1.053   0.739   5.631 -0.2107  0.3167 -0.5865
 7144SOL    HW133068   1.048   0.817   5.576  1.1558 -0.3379 -1.6542
 7144SOL    HW233069   1.072   0.778   5.716  0.7010 -1.7257  0.1599
 7145SOL     OW33070   1.251   4.312   5.672 -0.3585  0.0731  0.2244
 7145SOL    HW133071   1.251   4.328   5.578  1.0998 -0.4851  0.1367
 7145SOL    HW233072   1.344   4.295   5.687 -0.2583 -0.2648 -0.8381
 7146SOL     OW33073   1.920   0.782   3.781 -0.3385 -0.5729 -0.3248
 7146SOL    HW133074   1.920   0.862   3.728 -0.3903  0.0322  0.5902
 7146SOL    HW233075   1.989   0.725   3.746 -0.1057 -0.8317  0.5674
 7147SOL     OW33076   1.905   1.011  14.116 -0.6089  0.2255 -0.7419
 7147SOL    HW133077   1.894   1.058  14.033 -0.9930 -0.5899 -1.1479
 7147SOL    HW233078   1.936   1.074  14.181  1.5062  0.6832 -2.1835
 7148SOL     OW33079   0.644   0.831   1.790  0.2465 -0.3071 -0.0139
 7148SOL    HW133080   0.592   0.754   1.768 -2.1057  1.2180  0.1783
 7148SOL    HW233081   0.646   0.824   1.886 -0.8122  1.4588  0.1462
 7149SOL     OW33082   0.002   0.621  12.141 -0.1763 -0.2198 -0.4790
 7149SOL    HW133083   4.647   0.599  12.127  0.0171  0.3570 -2.7638
 7149SOL    HW233084   4.733   0.650  12.232 -0.8130 -0.3829 -0.4694
 7150SOL     OW33085   3.252   4.651   0.487  0.2085  0.0017  0.5079
 7150SOL    HW133086   3.202   4.676   0.565  1.8843  1.2410  1.1818
 7150SOL    HW233087   3.209   4.572   0.454 -0.2491  0.2346  0.5537
 7151SOL     OW33088   4.210   1.989  11.678 -0.1148  0.3143 -0.1384
 7151SOL    HW133089   4.304   2.006  11.671 -0.1190  0.8172  0.9605
 7151SOL    HW233090   4.212   1.912  11.621 -3.6770  0.0663  0.1058
 7152SOL     OW33091   0.277   1.879   0.609  0.3482 -0.0096 -0.2367
 7152SOL    HW133092   0.239   1.966   0.616 -1.4396 -0.6663 -1.6349
 7152SOL    HW233093   0.356   1.892   0.661 -0.6503 -1.1599  1.5629
 7153SOL     OW33094   4.685   2.191   8.369 -0.1642  0.5181 -0.7215
 7153SOL    HW133095   4.658   2.123   8.306 -2.8666  0.4887  0.4629
 7153SOL    HW233096   4.604   2.215   8.413  0.0894 -1.5924  0.8905
 7154SOL     OW33097   2.658   1.179   6.629  0.1507  0.1671  0.0063
 7154SOL    HW133098   2.580   1.226   6.657  0.1081  0.9543 -1.4446
 7154SOL    HW233099   2.646   1.174   6.534 -1.0947  0.6667  0.1430
 7155SOL     OW33100   3.822   0.431   3.250 -0.2425  0.1722  0.4592
 7155SOL    HW133101   3.784   0.429   3.338  0.7200 -0.5070  0.8560
 7155SOL    HW233102   3.771   0.503   3.213 -2.9323 -1.9372  0.0506
 7156SOL     OW33103   3.238   1.991  13.700  0.4951  0.3348  0.2175
 7156SOL    HW133104   3.150   1.973  13.667  0.2713  1.0256  0.4285
 7156SOL    HW233105   3.281   1.909  13.676  0.1472  0.0255  0.6573
 7157SOL     OW33106   0.907   3.415   7.630  0.2569  0.1895 -0.6599
 7157SOL    HW133107   0.870   3.454   7.550  0.3748  1.5659 -0.0323
 7157SOL    HW233108   0.878   3.477   7.697 -0.5854 -1.1509  0.2129
 7158SOL     OW33109   2.465   2.671  10.771  0.3310 -0.1916  0.2111
 7158SOL    HW133110   2.462   2.632  10.859  0.4194 -2.5466 -0.8373
 7158SOL    HW233111   2.512   2.753  10.787  0.5519  0.2560 -2.7887
 7159SOL     OW33112   0.975   4.019  16.106 -0.2732 -0.3442  0.2700
 7159SOL    HW133113   0.884   4.007  16.078 -0.9813  0.5366  2.2304
 7159SOL    HW233114   0.950   4.100  16.150  0.9705  0.1097  0.1492
 7160SOL     OW33115   1.668   2.054  15.875 -0.8479 -0.4286 -0.0745
 7160SOL    HW133116   1.720   2.023  15.801 -0.9066  0.1776 -0.3753
 7160SOL    HW233117   1.685   2.000  15.952 -0.0465 -0.6252 -0.3916
 7161SOL     OW33118   4.720   3.717   2.650  0.0266 -0.3415 -0.1146
 7161SOL    HW133119   0.061   3.675   2.613  0.6681  1.3725 -0.7006
 7161SOL    HW233120   0.014   3.807   2.656 -0.5383 -0.1034 -0.8584
 7162SOL     OW33121   0.423   0.453   7.443 -0.1620  0.0889 -0.2978
 7162SOL    HW133122   0.480   0.475   7.369  1.4537 -0.0929  0.8872
 7162SOL    HW233123   0.468   0.393   7.503  1.1920  1.3942  0.0128
 7163SOL     OW33124   0.945   1.270   3.149 -0.1573  0.0685  0.7976
 7163SOL    HW133125   0.908   1.337   3.093  0.9767  0.1738  0.1623
 7163SOL    HW233126   1.037   1.270   3.122  0.0168 -3.7794  1.3596
 7164SOL     OW33127   2.399   3.983   2.494  0.0113  0.2644 -0.2092
 7164SOL    HW133128   2.395   4.023   2.407 -1.2912 -0.4312 -0.4642
 7164SOL    HW233129   2.440   3.904   2.457  0.5078  0.8969 -1.0275
 7165SOL     OW33130   3.833   1.061   2.730 -0.0665 -0.3914 -0.2259
 7165SOL    HW133131   3.806   1.065   2.822  3.5939 -1.2434  0.8979
 7165SOL    HW233132   3.803   1.148   2.704  0.5590 -0.7794 -2.2639
 7166SOL     OW33133   2.671   2.715   6.380  0.5772 -0.1925 -0.5462
 7166SOL    HW133134   2.684   2.809   6.394 -1.3112  0.5348 -3.8134
 7166SOL    HW233135   2.732   2.695   6.310 -0.7236 -1.0250 -1.4348
 7167SOL     OW33136   2.458   0.232   9.947  0.8615 -0.7955 -0.0623
 7167SOL    HW133137   2.458   0.145   9.906 -1.1847  0.3576 -2.4846
 7167SOL    HW233138   2.373   0.228   9.990 -0.9273 -1.1726 -3.6785
 7168SOL     OW33139   1.925   1.993   6.182 -0.0584 -0.1731 -0.5722
 7168SOL    HW133140   1.875   2.063   6.139 -0.9800 -0.3452  0.2155
 7168SOL    HW233141   2.007   1.996   6.133  0.3869  0.4654  0.2216
 7169SOL     OW33142   0.286   2.719   3.439  0.0930  0.3036 -0.1275
 7169SOL    HW133143   0.306   2.728   3.532  0.3197  1.0697 -0.2521
 7169SOL    HW233144   0.316   2.802   3.402 -1.5448  0.4578 -1.1328
 7170SOL     OW33145   4.220   4.534   5.558 -0.0372  0.2238  0.4064
 7170SOL    HW133146   4.170   4.594   5.502  0.4386 -1.0590 -1.4041
 7170SOL    HW233147   4.171   4.453   5.547  0.1538  0.4244 -1.9639
 7171SOL     OW33148   0.643   0.544   5.947  0.6894 -0.1292 -0.1386
 7171SOL    HW133149   0.734   0.530   5.921  0.2103 -0.7946 -1.4632
 7171SOL    HW233150   0.658   0.611   6.013 -1.9437 -0.7940  1.1371
 7172SOL     OW33151   3.486   0.156   4.757  0.2079 -0.0839  0.2045
 7172SOL    HW133152   3.429   0.097   4.706 -1.0179  0.6132  0.7784
 7172SOL    HW233153   3.466   0.237   4.711 -1.3033 -1.4908 -1.6562
 7173SOL     OW33154   3.060   2.381  10.535  0.3579  0.4133 -0.1736
 7173SOL    HW133155   3.145   2.407  10.571 -0.1889  1.1250  0.6128
 7173SOL    HW233156   3.005   2.422  10.602  1.7021 -0.0276  1.1996
 7174SOL     OW33157   1.468   4.382   9.245 -0.0879 -0.0124  0.9611
 7174SOL    HW133158   1.473   4.409   9.154 -1.2561  1.4101  1.3142
 7174SOL    HW233159   1.397   4.435   9.280 -0.6425  1.0103 -1.7367
 7175SOL     OW33160   1.553   1.223   0.032  0.7089 -0.0513  0.4179
 7175SOL    HW133161   1.617   1.241  17.709  1.1602 -0.9093  0.6092
 7175SOL    HW233162   1.498   1.301   0.030 -1.1212 -1.3310  0.4202
 7176SOL     OW33163   1.412   2.056   6.539  0.3354 -0.7471  0.3513
 7176SOL    HW133164   1.406   1.962   6.521 -0.2870 -0.4074 -1.2298
 7176SOL    HW233165   1.495   2.057   6.586  0.7739  0.2112 -0.4280
 7177SOL     OW33166   3.757   0.479   6.331  0.3096  0.0976 -0.2944
 7177SOL    HW133167   3.791   0.405   6.281 -0.7083 -0.7290  0.2400
 7177SOL    HW233168   3.699   0.434   6.392  1.5151 -1.0401 -0.0070
 7178SOL     OW33169   2.042   1.393   7.959 -0.0231  0.1806  0.1760
 7178SOL    HW133170   2.039   1.321   7.896 -1.1802 -0.5339  1.0484
 7178SOL    HW233171   1.997   1.462   7.911 -1.0155  0.2702  1.2194
 7179SOL     OW33172   4.652   0.932   6.056  0.2537  0.3570  0.4510
 7179SOL    HW133173   0.005   0.901   6.043 -0.0579 -0.3280 -0.0228
 7179SOL    HW233174   4.617   0.941   5.967 -0.3539  0.8805  0.7428
 7180SOL     OW33175   1.659   0.571   8.210 -0.5813 -0.1540  0.4450
 7180SOL    HW133176   1.646   0.583   8.116 -1.2377  0.8984  0.6763
 7180SOL    HW233177   1.618   0.653   8.238  0.4133  0.3274  0.4970
 7181SOL     OW33178   3.293   4.608   7.542 -0.0234 -0.1954  0.6060
 7181SOL    HW133179   3.308   4.660   7.621 -1.0568 -0.5055  0.9984
 7181SOL    HW233180   3.301   4.677   7.476 -0.6650  0.0799  0.8173
 7182SOL     OW33181   2.365   1.469   3.406  0.2626  0.1863  0.2099
 7182SOL    HW133182   2.347   1.403   3.339  3.4238  1.7153 -2.1434
 7182SOL    HW233183   2.378   1.413   3.483  2.9440 -2.8190 -2.4648
 7183SOL     OW33184   1.078   2.951   7.965 -0.6779 -0.0348  0.6315
 7183SOL    HW133185   1.129   2.965   8.045  0.4828  0.4330 -0.1976
 7183SOL    HW233186   1.119   3.008   7.900 -0.1176 -2.0463 -0.7539
 7184SOL     OW33187   2.295   4.060  16.475  0.3672 -0.3961  0.1631
 7184SOL    HW133188   2.213   4.079  16.521 -0.6545 -1.6919 -1.1014
 7184SOL    HW233189   2.276   4.102  16.391 -0.2135 -0.5063  0.2391
 7185SOL     OW33190   2.001   2.568  10.399  0.1689 -0.1946 -0.4467
 7185SOL    HW133191   1.977   2.488  10.352 -0.9467 -0.3709  0.4571
 7185SOL    HW233192   1.949   2.547  10.476 -1.3306  1.4414 -1.0208
 7186SOL     OW33193   0.555   3.078   5.512 -0.4338 -0.0619  0.2693
 7186SOL    HW133194   0.499   3.033   5.449  1.2032 -0.4387 -0.8920
 7186SOL    HW233195   0.629   3.020   5.530  0.1590 -0.0929 -2.3774
 7187SOL     OW33196   1.511   0.532  11.938  0.1806 -0.0871 -0.1854
 7187SOL    HW133197   1.507   0.437  11.952 -0.2306 -0.4759 -2.9334
 7187SOL    HW233198   1.520   0.567  12.027  1.0442 -0.7520 -0.0047
 7188SOL     OW33199   2.380   2.623  16.207  0.3058  0.1647  0.0292
 7188SOL    HW133200   2.285   2.634  16.207  0.1577 -1.1138 -2.3353
 7188SOL    HW233201   2.411   2.713  16.198 -2.4090  0.9723 -1.2863
 7189SOL     OW33202   3.145   2.529   5.141 -0.1411 -0.6303 -0.2449
 7189SOL    HW133203   3.236   2.555   5.154 -0.3235 -0.0036 -0.2582
 7189SOL    HW233204   3.121   2.602   5.085  1.0659 -1.0780 -1.3561
 7190SOL     OW33205   2.401   1.406  17.509 -0.3320  0.2165  0.1501
 7190SOL    HW133206   2.363   1.481  17.464 -2.9477 -0.4353  1.2478
 7190SOL    HW233207   2.496   1.419  17.503 -0.1932  0.2723  2.5907
 7191SOL     OW33208   1.927   3.761  13.637  0.0404  0.1024  0.2165
 7191SOL    HW133209   1.892   3.675  13.658 -0.9250  0.8690  1.7777
 7191SOL    HW233210   1.861   3.816  13.681 -1.3096 -0.7968 -0.6886
 7192SOL     OW33211   4.610   1.992   3.447 -0.3754 -0.3519 -0.2098
 7192SOL    HW133212   4.639   1.942   3.523 -1.4526 -1.7221 -0.7058
 7192SOL    HW233213   4.642   2.079   3.470  0.3023 -1.0560  1.5819
 7193SOL     OW33214   4.095   4.038   0.382 -0.1172  0.7490 -0.1929
 7193SOL    HW133215   4.007   4.071   0.399 -0.5516 -1.1686  1.3383
 7193SOL    HW233216   4.093   4.047   0.287 -0.1949 -0.8270 -0.3340
 7194SOL     OW33217   0.641   2.808  10.615  0.0101 -0.0452  0.4559
 7194SOL    HW133218   0.652   2.856  10.697  1.7919 -0.0452  0.2025
 7194SOL    HW233219   0.548   2.783  10.621 -0.0462  0.0682  0.0847
 7195SOL     OW33220   2.813   3.210  16.399  0.2885 -0.5672 -0.5290
 7195SOL    HW133221   2.889   3.198  16.456 -1.1360 -0.2047  1.4719
 7195SOL    HW233222   2.834   3.291  16.353  0.2942 -0.3489 -0.1388
 7196SOL     OW33223   1.059   2.938  10.684 -0.7246 -0.8711  0.5313
 7196SOL    HW133224   1.068   2.894  10.768  0.7059  1.8383  1.8005
 7196SOL    HW233225   1.029   3.027  10.705 -2.5627 -1.0260 -1.3713
 7197SOL     OW33226   1.759   4.275  11.106 -0.8852  0.3594  0.3344
 7197SOL    HW133227   1.796   4.270  11.018 -1.2510 -0.6621  0.2389
 7197SOL    HW233228   1.709   4.193  11.116 -2.4469  1.2944  0.1321
 7198SOL     OW33229   2.762   3.429  14.760 -0.9469  0.0398 -0.5823
 7198SOL    HW133230   2.831   3.481  14.719 -0.0557 -0.2067  0.5922
 7198SOL    HW233231   2.700   3.410  14.690 -0.0530  0.2646 -1.4368
 7199SOL     OW33232   0.443   2.465  16.692  0.5035 -0.0198 -0.2778
 7199SOL    HW133233   0.446   2.391  16.632 -0.3584  1.3483 -1.9828
 7199SOL    HW233234   0.407   2.532  16.635  2.6221  1.2405 -0.1581
 7200SOL     OW33235   3.808   1.814  13.872  0.0213 -0.0843  0.4254
 7200SOL    HW133236   3.716   1.834  13.856  0.4523  1.2921 -0.4066
 7200SOL    HW233237   3.836   1.863  13.950  2.6310  0.9710 -1.1847
 7201SOL     OW33238   2.755   3.958   3.259 -0.2911 -0.5477 -0.4351
 7201SOL    HW133239   2.707   3.878   3.240 -2.2258  0.2332  1.1268
 7201SOL    HW233240   2.745   3.980   3.351  0.2712  0.7433 -0.6709
 7202SOL     OW33241   2.724   4.262   6.532 -0.5764  0.3489 -0.0419
 7202SOL    HW133242   2.757   4.307   6.609  0.6206  1.6800 -1.3127
 7202SOL    HW233243   2.630   4.279   6.526 -0.6282 -0.0137 -0.2350
 7203SOL     OW33244   0.132   4.139   5.114  0.4615 -0.2751 -0.1124
 7203SOL    HW133245   0.072   4.067   5.133 -1.7280  1.4959 -0.3442
 7203SOL    HW233246   0.169   4.144   5.202 -0.8725  0.7440  0.3854
 7204SOL     OW33247   1.020   3.452   5.522  0.3135  0.4889 -0.0453
 7204SOL    HW133248   1.026   3.543   5.552 -1.0540  0.2142  1.0711
 7204SOL    HW233249   1.073   3.410   5.589 -1.7737 -0.1191  1.2121
 7205SOL     OW33250   2.005   4.547   5.196 -0.0998  0.2671  0.7065
 7205SOL    HW133251   1.919   4.525   5.231 -0.6492  0.4510 -0.5342
 7205SOL    HW233252   2.055   4.551   5.278  0.6796 -1.1143  0.2935
 7206SOL     OW33253   3.854   2.677   8.424 -0.2814 -0.1339  0.6332
 7206SOL    HW133254   3.900   2.715   8.350 -2.1254  1.3005  0.1997
 7206SOL    HW233255   3.919   2.618   8.460 -0.5229 -1.1978 -0.6760
 7207SOL     OW33256   2.117   0.319   5.493  0.1753  0.3287  0.3457
 7207SOL    HW133257   2.077   0.232   5.502  1.4969 -0.2574  0.5873
 7207SOL    HW233258   2.101   0.340   5.585  1.7047  1.2917  0.3838
 7208SOL     OW33259   1.583   0.650   4.277 -0.7519  0.3204  0.0406
 7208SOL    HW133260   1.611   0.704   4.203 -1.9710  1.9341  0.7402
 7208SOL    HW233261   1.591   0.710   4.351  0.3843  0.2723 -0.0563
 7209SOL     OW33262   1.329   3.033   9.403 -0.0279  0.2359  0.3647
 7209SOL    HW133263   1.401   2.971   9.394 -2.3534 -2.4204  0.0086
 7209SOL    HW233264   1.345   3.066   9.491 -0.7833 -2.2148  1.4264
 7210SOL     OW33265   3.911   2.347   2.776 -0.1492 -0.2974  0.4216
 7210SOL    HW133266   3.848   2.312   2.713 -1.6192 -1.5038  2.5461
 7210SOL    HW233267   3.870   2.426   2.812  0.4234  0.2414 -0.1010
 7211SOL     OW33268   1.552   1.830  17.570  0.7058  0.4588  0.1680
 7211SOL    HW133269   1.517   1.799  17.653 -1.0098 -0.9200 -1.0820
 7211SOL    HW233270   1.513   1.917  17.568 -0.7150 -0.1815  0.4377
 7212SOL     OW33271   1.337   0.475   8.203  0.0673 -0.0724  0.2051
 7212SOL    HW133272   1.396   0.413   8.244 -1.5550 -0.8703  1.3274
 7212SOL    HW233273   1.295   0.522   8.275  1.2739 -1.3699  1.7301
 7213SOL     OW33274   0.410   2.966   4.680  0.4145  0.0060 -0.0797
 7213SOL    HW133275   0.449   2.881   4.658 -0.9003  0.1185 -2.7924
 7213SOL    HW233276   0.392   2.994   4.590  0.6712  1.1202  0.2151
 7214SOL     OW33277   2.879   0.594   4.622  0.1536  0.0704  0.0047
 7214SOL    HW133278   2.888   0.499   4.628 -0.0545 -0.0123 -0.9262
 7214SOL    HW233279   2.787   0.596   4.647  0.0666  1.1805 -0.4234
 7215SOL     OW33280   1.853   4.525   7.482  0.2548 -0.3403  0.4336
 7215SOL    HW133281   1.804   4.601   7.512 -0.1247 -0.7769  0.9265
 7215SOL    HW233282   1.892   4.564   7.404 -0.4218 -1.2254 -0.3467
 7216SOL     OW33283   0.000   3.521   7.694  0.3908 -0.1205  0.3271
 7216SOL    HW133284   0.028   3.440   7.737  0.2006  0.8225  2.2285
 7216SOL    HW233285   4.642   3.511   7.698  0.2260  1.1578 -0.1428
 7217SOL     OW33286   2.827   4.641   4.071  0.2984  0.8534  0.1541
 7217SOL    HW133287   2.859   4.730   4.086 -0.2082  1.0080  0.3116
 7217SOL    HW233288   2.900   4.593   4.031  2.8111  2.7342  2.4668
 7218SOL     OW33289   0.068   0.673   7.836 -0.5737  0.0740 -0.7796
 7218SOL    HW133290   0.015   0.753   7.838 -2.7428 -1.3711 -0.3337
 7218SOL    HW233291   0.079   0.649   7.744 -1.2741 -2.5183 -0.1783
 7219SOL     OW33292   0.869   2.104  10.247 -0.2447  0.0924  0.1199
 7219SOL    HW133293   0.941   2.059  10.290  0.1112 -0.9399 -1.5427
 7219SOL    HW233294   0.847   2.036  10.183  1.6495  0.2999 -0.7303
 7220SOL     OW33295   3.343   2.035   0.986 -0.2813 -0.3473  0.0146
 7220SOL    HW133296   3.346   2.028   0.890  0.3620  1.8866 -0.1197
 7220SOL    HW233297   3.434   2.045   1.011 -0.9227  0.0897  2.1532
 7221SOL     OW33298   0.864   1.161   5.356  0.3094  0.0479 -0.2617
 7221SOL    HW133299   0.782   1.210   5.362 -0.9066 -2.0748  0.7406
 7221SOL    HW233300   0.856   1.134   5.265  3.3272  0.6876 -0.7098
 7222SOL     OW33301   4.369   4.005   6.130 -0.0555 -0.0373 -0.0471
 7222SOL    HW133302   4.437   3.937   6.130  1.1417  1.1759  1.9877
 7222SOL    HW233303   4.303   3.956   6.081  0.8519 -0.1863 -1.1231
 7223SOL     OW33304   4.245   0.825   4.566 -0.1698  0.1859 -0.3833
 7223SOL    HW133305   4.295   0.772   4.503 -0.7376  0.4093 -1.0279
 7223SOL    HW233306   4.164   0.838   4.516 -0.2238 -0.6676 -0.5190
 7224SOL     OW33307   0.378   1.735   6.972  0.4025  0.3334 -0.5076
 7224SOL    HW133308   0.312   1.803   6.988 -0.9194 -1.3324  1.0777
 7224SOL    HW233309   0.445   1.754   7.038 -2.8228 -0.0004  2.8233
 7225SOL     OW33310   3.838   1.686  16.746 -0.1737  0.5142  0.1007
 7225SOL    HW133311   3.778   1.759  16.767 -2.4778 -1.4438  0.3570
 7225SOL    HW233312   3.787   1.639  16.680 -0.3876  0.1120  0.5534
 7226SOL     OW33313   1.667   3.966   7.120  0.1297  0.0537 -0.1890
 7226SOL    HW133314   1.642   4.030   7.054 -0.1553  0.7445  0.5882
 7226SOL    HW233315   1.581   3.952   7.160 -0.3524  0.0599 -1.2435
 7227SOL     OW33316   2.407   1.190   3.952  0.1478 -0.3300  0.0873
 7227SOL    HW133317   2.464   1.199   3.875 -1.3121 -1.9039 -1.1960
 7227SOL    HW233318   2.463   1.141   4.013  0.5189  1.7351  1.3831
 7228SOL     OW33319   2.667   3.523  16.105  0.3706  0.2663  0.0150
 7228SOL    HW133320   2.576   3.496  16.111  0.0916  1.0409 -0.7744
 7228SOL    HW233321   2.712   3.507  16.189  1.2689  1.1021 -0.2995
 7229SOL     OW33322   4.000   2.616   6.463  0.0530 -0.0399  0.6732
 7229SOL    HW133323   4.023   2.540   6.517 -1.6801 -2.3591 -1.8188
 7229SOL    HW233324   3.972   2.575   6.381  2.2764 -0.0229 -0.0912
 7230SOL     OW33325   4.038   2.847   6.548 -0.1745 -0.1514  0.3192
 7230SOL    HW133326   4.021   2.762   6.509  0.5072 -0.0255 -0.2521
 7230SOL    HW233327   3.949   2.882   6.552  0.6246  1.7139  1.8207
 7231SOL     OW33328   4.236   0.895  14.356 -0.0789  0.3598 -0.3694
 7231SOL    HW133329   4.181   0.834  14.307 -1.6720  0.5116  1.1914
 7231SOL    HW233330   4.277   0.834  14.417 -2.3082 -0.5357  0.2297
 7232SOL     OW33331   1.338   2.949  10.718 -0.2997  0.3225  0.0519
 7232SOL    HW133332   1.249   2.952  10.683 -0.2153  0.2349 -0.1746
 7232SOL    HW233333   1.344   2.865  10.764 -1.1658  0.0492 -0.3401
 7233SOL     OW33334   3.662   3.634   0.740  0.2937  0.5088  0.9275
 7233SOL    HW133335   3.682   3.558   0.685 -0.4643 -0.7186  2.3318
 7233SOL    HW233336   3.645   3.583   0.820 -2.6455 -1.0715 -0.6903
 7234SOL     OW33337   2.582   1.883   2.536  0.3433 -0.5345 -0.0361
 7234SOL    HW133338   2.621   1.949   2.479 -1.9680  0.7622 -0.1002
 7234SOL    HW233339   2.506   1.923   2.578  0.2328 -0.7005 -0.0774
 7235SOL     OW33340   4.729   2.239   7.192  0.0378 -0.0577  0.2831
 7235SOL    HW133341   4.712   2.309   7.254  1.0876 -1.3728  2.0429
 7235SOL    HW233342   0.050   2.194   7.254  1.2420  0.4028 -0.5000
 7236SOL     OW33343   1.179   3.877  10.476 -0.0969 -0.3676 -0.3181
 7236SOL    HW133344   1.111   3.812  10.497 -1.8571  1.9148  1.0424
 7236SOL    HW233345   1.134   3.950  10.520  1.5545  1.2706 -1.3473
 7237SOL     OW33346   2.800   3.973   2.239 -0.1997 -0.7256 -0.0553
 7237SOL    HW133347   2.724   3.957   2.182 -1.1795  1.2243  0.6789
 7237SOL    HW233348   2.845   4.025   2.172 -0.9859 -0.8020 -0.6466
 7238SOL     OW33349   1.003   0.554   4.923 -1.0917  0.0392 -0.1467
 7238SOL    HW133350   0.965   0.546   5.010  0.0895 -3.9121  0.0088
 7238SOL    HW233351   0.975   0.645   4.910  1.1979  0.6739 -0.6707
 7239SOL     OW33352   1.870   2.587   0.459  0.3246 -0.2463 -0.1899
 7239SOL    HW133353   1.807   2.647   0.498 -0.8830 -0.6472 -1.5220
 7239SOL    HW233354   1.810   2.536   0.404 -2.2995  0.8594  1.6404
 7240SOL     OW33355   1.920   1.954  17.186  0.3142 -0.2651 -0.3373
 7240SOL    HW133356   1.842   1.922  17.233  0.5403 -0.4078 -0.0608
 7240SOL    HW233357   1.950   2.025  17.244  0.6800 -0.0522 -0.7890
 7241SOL     OW33358   0.041   3.047   3.854 -0.0850 -0.2036  0.4499
 7241SOL    HW133359   0.119   3.079   3.899 -0.1033  0.7677 -0.2148
 7241SOL    HW233360   0.075   3.059   3.766 -0.8283  0.9525  0.3272
 7242SOL     OW33361   1.387   0.274  11.617 -0.6033 -0.0813 -1.3978
 7242SOL    HW133362   1.402   0.316  11.532  0.3121  1.3086 -0.5487
 7242SOL    HW233363   1.312   0.221  11.592 -0.9694 -0.2927  0.1753
 7243SOL     OW33364   3.161   1.303  15.066 -0.0592 -0.1371 -0.2598
 7243SOL    HW133365   3.230   1.237  15.068  1.7209  1.6373 -1.8937
 7243SOL    HW233366   3.213   1.384  15.060  0.9546 -0.8454 -0.9386
 7244SOL     OW33367   4.462   2.972  11.798 -0.6722  0.7055 -0.4275
 7244SOL    HW133368   4.497   3.044  11.851 -0.4078  1.4934 -1.6703
 7244SOL    HW233369   4.369   2.991  11.784 -1.0149  0.0946  1.0927
 7245SOL     OW33370   0.159   3.827  11.194  0.0901  0.2625 -0.3755
 7245SOL    HW133371   0.165   3.824  11.098 -1.0009 -2.1340 -0.3393
 7245SOL    HW233372   0.218   3.756  11.217  1.1862  1.1405 -0.4424
 7246SOL     OW33373   0.962   0.817   5.146  0.3398  0.2467  0.0743
 7246SOL    HW133374   0.988   0.777   5.064 -0.6736 -2.8674  1.2744
 7246SOL    HW233375   0.878   0.855   5.119 -0.1457 -0.8382  0.0458
 7247SOL     OW33376   1.265   1.025   1.804  0.0021  0.0108  0.6086
 7247SOL    HW133377   1.195   0.970   1.839 -1.1477  0.3323 -1.1576
 7247SOL    HW233378   1.314   0.956   1.758 -0.3968  0.1625 -0.0403
 7248SOL     OW33379   3.357   2.635  13.493  0.0901  0.3317 -0.6623
 7248SOL    HW133380   3.306   2.693  13.550 -1.2146 -1.3130 -0.1599
 7248SOL    HW233381   3.370   2.555  13.544  0.5941  0.7981 -0.0617
 7249SOL     OW33382   2.319   0.613   6.558 -0.4008 -0.1015 -0.7614
 7249SOL    HW133383   2.369   0.532   6.551  4.2225  2.7572 -0.4812
 7249SOL    HW233384   2.370   0.653   6.629  1.0173 -2.6560 -0.3376
 7250SOL     OW33385   2.587   0.380   2.300 -0.6923  0.1817 -0.1294
 7250SOL    HW133386   2.587   0.313   2.368 -1.2312  0.1091 -0.1970
 7250SOL    HW233387   2.676   0.369   2.267 -0.4109  0.7249  0.4535
 7251SOL     OW33388   2.889   3.576   2.134  0.7640  0.1955  0.1407
 7251SOL    HW133389   2.923   3.611   2.216 -1.7336 -0.3529  1.4067
 7251SOL    HW233390   2.796   3.592   2.146  0.3651 -2.2964  0.3081
 7252SOL     OW33391   2.106   4.429   7.775  0.2795 -0.6261  0.0337
 7252SOL    HW133392   2.135   4.516   7.803 -3.0993  0.3669  0.3940
 7252SOL    HW233393   2.191   4.387   7.788  0.1976 -0.6297  0.5563
 7253SOL     OW33394   2.250   0.311  13.903 -0.2579  0.1782 -0.2109
 7253SOL    HW133395   2.278   0.347  13.988 -1.1945  1.7535 -0.5752
 7253SOL    HW233396   2.320   0.249  13.884 -1.2066 -1.7243  2.3503
 7254SOL     OW33397   2.242   0.884  12.705 -0.3448 -0.4039 -0.4084
 7254SOL    HW133398   2.257   0.923  12.619 -0.5860  1.5318  0.4339
 7254SOL    HW233399   2.180   0.943  12.746 -0.0853 -0.1706 -0.3513
 7255SOL     OW33400   2.627   3.731   3.184  0.1794  0.4338  0.0496
 7255SOL    HW133401   2.696   3.665   3.173  0.6822  1.0175 -0.2922
 7255SOL    HW233402   2.551   3.692   3.141  0.1898  0.9005 -0.3886
 7256SOL     OW33403   2.761   2.513   7.274  0.3127 -0.0405 -0.1370
 7256SOL    HW133404   2.784   2.542   7.186 -0.7787  0.1378 -0.3687
 7256SOL    HW233405   2.778   2.591   7.326 -2.0036 -0.4282  1.2363
 7257SOL     OW33406   3.098   3.110   2.844 -0.0188  0.0585 -0.0281
 7257SOL    HW133407   3.086   3.089   2.751  3.0499  1.8096 -0.8034
 7257SOL    HW233408   3.085   3.204   2.839  0.3200  0.0419 -1.1759
 7258SOL     OW33409   2.493   0.628   2.338  0.0426 -0.2113 -0.8136
 7258SOL    HW133410   2.533   0.541   2.337 -1.0408 -0.6903 -2.2446
 7258SOL    HW233411   2.565   0.687   2.358  1.1022 -1.3790 -1.1628
 7259SOL     OW33412   1.478   0.744   9.005 -0.5082  0.0707 -0.0158
 7259SOL    HW133413   1.571   0.744   8.984 -0.5212 -1.3172 -0.0834
 7259SOL    HW233414   1.475   0.674   9.071 -1.4841  1.1796  1.1209
 7260SOL     OW33415   2.727   4.401   3.827  0.1062 -0.1700 -0.5915
 7260SOL    HW133416   2.649   4.374   3.877  0.6602  1.3637  1.0733
 7260SOL    HW233417   2.689   4.405   3.739 -0.7739  1.4897 -0.1321
 7261SOL     OW33418   2.304   3.758  17.396 -0.2109  0.0594  0.1957
 7261SOL    HW133419   2.302   3.716  17.311 -1.5150 -0.2783  0.3896
 7261SOL    HW233420   2.391   3.730  17.426  0.1697  0.0073 -0.9743
 7262SOL     OW33421   3.082   0.583  13.313  0.3992 -0.2950  0.3328
 7262SOL    HW133422   3.013   0.645  13.337 -1.1010 -1.9039  0.2253
 7262SOL    HW233423   3.081   0.573  13.217  0.0194  1.0494  0.1993
 7263SOL     OW33424   2.528   0.986   5.283  0.3050 -0.8978 -0.1096
 7263SOL    HW133425   2.488   1.073   5.281  0.9284 -0.5993  0.5413
 7263SOL    HW233426   2.541   0.989   5.378  0.4670  2.5278 -0.2493
 7264SOL     OW33427   1.348   3.384   5.956  0.1826 -0.0301 -0.3032
 7264SOL    HW133428   1.311   3.442   5.889 -0.9186  0.1280  0.4404
 7264SOL    HW233429   1.299   3.304   5.938  0.3104  0.3491 -2.4062
 7265SOL     OW33430   3.816   4.110   8.265 -0.5259 -0.0812 -0.2831
 7265SOL    HW133431   3.843   4.164   8.340 -1.9097  1.1051 -0.6372
 7265SOL    HW233432   3.810   4.028   8.314  0.3042  0.3112  0.4824
 7266SOL     OW33433   0.296   0.520   2.397 -0.0072 -0.1234  0.0876
 7266SOL    HW133434   0.313   0.513   2.491  0.7044 -0.6253 -0.0760
 7266SOL    HW233435   0.367   0.464   2.366  0.3272 -0.4723  1.4579
 7267SOL     OW33436   0.708   1.452   8.299  0.3694  0.0999 -0.7329
 7267SOL    HW133437   0.761   1.373   8.285  2.8865  1.3754  1.6461
 7267SOL    HW233438   0.767   1.509   8.348 -1.3526  0.8565  0.4452
 7268SOL     OW33439   0.961   3.315   8.273 -0.1547  1.0273 -0.5835
 7268SOL    HW133440   0.974   3.300   8.179 -0.8760  0.1390 -0.5411
 7268SOL    HW233441   1.044   3.291   8.313 -0.7294  1.8193  1.0789
 7269SOL     OW33442   3.870   4.718   8.403 -0.1682 -0.1330 -0.4087
 7269SOL    HW133443   3.780   0.000   8.376 -0.8162 -0.6506  1.4273
 7269SOL    HW233444   3.917   0.003   8.322 -0.1047 -3.4965 -1.2826
 7270SOL     OW33445   4.576   2.194   0.909  0.0699 -1.2597  0.2191
 7270SOL    HW133446   4.633   2.267   0.932 -1.5610 -0.0570  0.4579
 7270SOL    HW233447   4.640   2.125   0.925  1.0298 -0.9349 -2.3084
 7271SOL     OW33448   3.703   0.977   7.281  0.0653 -0.6629  0.4320
 7271SOL    HW133449   3.740   1.050   7.233 -2.0042  1.0016  1.3991
 7271SOL    HW233450   3.773   0.922   7.317  2.0474  1.2670 -0.4392
 7272SOL     OW33451   2.261   1.426   9.372 -0.5165  0.5646 -0.4410
 7272SOL    HW133452   2.258   1.332   9.389  0.2435  0.8859  1.5115
 7272SOL    HW233453   2.170   1.439   9.347 -0.6391  1.8066  0.6261
 7273SOL     OW33454   3.413   1.795   6.101  0.4033  0.0886 -0.7329
 7273SOL    HW133455   3.350   1.866   6.087 -0.5719 -0.3442  1.4436
 7273SOL    HW233456   3.373   1.720   6.058 -0.0212 -0.5679  0.7981
 7274SOL     OW33457   1.912   2.827   2.580  0.1678 -0.1707 -0.3134
 7274SOL    HW133458   1.820   2.810   2.600  0.2236 -0.4784 -0.3195
 7274SOL    HW233459   1.941   2.836   2.671 -1.0479 -0.0887  0.0717
 7275SOL     OW33460   1.407   3.791   1.740  0.0337 -0.5137 -0.1897
 7275SOL    HW133461   1.435   3.844   1.814  2.4792 -1.8375 -0.1829
 7275SOL    HW233462   1.456   3.710   1.752 -0.3626 -1.1235 -2.7012
 7276SOL     OW33463   4.362   0.320   6.686  0.4272 -0.8068  0.1287
 7276SOL    HW133464   4.284   0.264   6.688  0.2213 -0.5489 -0.5320
 7276SOL    HW233465   4.391   0.313   6.777 -0.7177  0.2224  0.5776
 7277SOL     OW33466   3.387   1.549  13.324 -0.1406  0.4697  0.7705
 7277SOL    HW133467   3.360   1.494  13.398 -0.6098 -0.7742 -0.3119
 7277SOL    HW233468   3.453   1.497  13.278  0.5415  2.3262 -0.3384
 7278SOL     OW33469   4.496   1.181   4.073  0.4175  0.8356 -0.4838
 7278SOL    HW133470   4.547   1.261   4.068  1.4514  0.2954  1.3460
 7278SOL    HW233471   4.498   1.151   3.982 -1.3049 -0.8201  0.0018
 7279SOL     OW33472   3.541   2.136   8.724 -0.2610  0.7180 -0.0419
 7279SOL    HW133473   3.500   2.214   8.761 -0.7092 -0.4408  1.8753
 7279SOL    HW233474   3.616   2.184   8.689  1.8984 -1.6209  1.4416
 7280SOL     OW33475   0.202   2.252   6.070 -0.4885 -0.2041 -0.2246
 7280SOL    HW133476   0.185   2.205   6.152 -0.3742 -1.2629 -0.8029
 7280SOL    HW233477   0.298   2.251   6.070 -0.4791  0.6937 -3.2336
 7281SOL     OW33478   1.204   0.323   2.951 -0.7554  0.2243  0.1897
 7281SOL    HW133479   1.165   0.405   2.921 -0.5134  0.3201  0.1351
 7281SOL    HW233480   1.206   0.263   2.876  0.9510 -1.1838  1.3547
 7282SOL     OW33481   0.682   4.298   8.647 -0.4684 -0.0185 -0.4578
 7282SOL    HW133482   0.718   4.211   8.632  0.6630  0.5096 -0.7401
 7282SOL    HW233483   0.744   4.345   8.592 -0.7410  0.1538 -0.6218
 7283SOL     OW33484   1.174   1.975   2.635  0.1529 -0.4409  0.1629
 7283SOL    HW133485   1.099   2.004   2.585  2.6014 -0.1046 -3.2990
 7283SOL    HW233486   1.245   1.994   2.574 -0.7933 -0.3987 -0.9159
 7284SOL     OW33487   3.267   1.414   3.535  0.9806 -0.0550  0.4926
 7284SOL    HW133488   3.283   1.447   3.624 -2.4753  1.7692  0.4371
 7284SOL    HW233489   3.357   1.387   3.514  0.6433 -1.7283  1.2555
 7285SOL     OW33490   0.007   3.373   5.902  0.7167 -0.1921  0.7124
 7285SOL    HW133491   0.081   3.341   5.851  0.0156  1.9588 -1.6815
 7285SOL    HW233492   4.715   3.297   5.952  0.4094 -0.6170 -0.1162
 7286SOL     OW33493   3.116   0.320  14.071  0.5787 -0.1655  0.0676
 7286SOL    HW133494   3.053   0.391  14.085 -0.1313 -0.5097 -1.3676
 7286SOL    HW233495   3.135   0.294  14.161  0.0287  0.4355  0.3538
 7287SOL     OW33496   0.463   0.177  15.894 -0.3563  0.0435 -0.4256
 7287SOL    HW133497   0.448   0.195  15.986 -0.0424 -2.1401  0.0604
 7287SOL    HW233498   0.462   0.082  15.887 -0.2882 -0.0694  1.2970
 7288SOL     OW33499   0.005   1.605   6.062 -0.3955 -0.3535  0.2155
 7288SOL    HW133500   0.063   1.542   6.104 -2.5805 -2.1364  0.5528
 7288SOL    HW233501   4.665   1.614   6.118  0.2969  1.6949  0.8454
 7289SOL     OW33502   3.093   2.276  16.441 -0.0322 -0.9114 -0.6264
 7289SOL    HW133503   3.146   2.323  16.376 -0.7748 -0.1781 -0.7114
 7289SOL    HW233504   3.006   2.307  16.416  0.3231  0.9815  0.4942
 7290SOL     OW33505   0.468   0.415   9.920  0.3002 -0.0765 -0.4584
 7290SOL    HW133506   0.512   0.338   9.954  0.1815 -0.6558 -1.6105
 7290SOL    HW233507   0.378   0.411   9.951 -0.1300  0.7293 -1.5802
 7291SOL     OW33508   2.400   4.353   7.760 -0.4476 -0.0765  0.4610
 7291SOL    HW133509   2.478   4.380   7.809 -0.9925  2.0079  0.1651
 7291SOL    HW233510   2.401   4.399   7.676  2.9755 -1.1091 -0.0841
 7292SOL     OW33511   0.006   2.726   1.727  0.0002 -0.4044  0.3145
 7292SOL    HW133512   4.683   2.799   1.743 -2.0020 -2.0596  0.5139
 7292SOL    HW233513   4.678   2.664   1.691 -2.0592  2.5006 -0.9379
 7293SOL     OW33514   4.051   3.354  11.726 -0.4283 -0.7280 -0.3356
 7293SOL    HW133515   4.082   3.272  11.688  0.8400 -0.7624  0.7669
 7293SOL    HW233516   4.084   3.347  11.816  0.7140 -0.5859 -0.7357
 7294SOL     OW33517   3.120   0.347   2.189 -0.3777  0.1159 -0.0006
 7294SOL    HW133518   3.215   0.351   2.175 -0.0708 -1.0860  1.7277
 7294SOL    HW233519   3.123   0.355   2.285  1.1609 -1.0754  0.0614
 7295SOL     OW33520   1.868   0.732   2.358 -0.2863  0.0482 -0.4584
 7295SOL    HW133521   1.828   0.705   2.441  2.8150 -3.1707 -0.0284
 7295SOL    HW233522   1.861   0.827   2.366  0.6530  0.0578  0.1919
 7296SOL     OW33523   2.518   3.335  17.430 -0.0664 -0.7566 -0.1415
 7296SOL    HW133524   2.451   3.345  17.499  0.0965  0.1538 -0.1163
 7296SOL    HW233525   2.467   3.342  17.349 -1.6356 -2.4700  0.6777
 7297SOL     OW33526   0.073   1.240   3.488  0.2361 -0.0061  0.2506
 7297SOL    HW133527   0.113   1.298   3.553  2.6328 -0.6213 -0.7094
 7297SOL    HW233528   0.015   1.307   3.450 -1.6125 -0.2953  2.5465
 7298SOL     OW33529   1.153   4.506  11.752  0.5156 -0.6064 -0.1438
 7298SOL    HW133530   1.117   4.586  11.712  0.7210 -0.0623  0.7444
 7298SOL    HW233531   1.246   4.525  11.759  0.7820 -0.8718 -3.0267
 7299SOL     OW33532   0.623   1.903   4.851 -0.3616  0.2453 -0.0046
 7299SOL    HW133533   0.645   1.895   4.759 -0.8360 -0.4914 -0.0563
 7299SOL    HW233534   0.533   1.871   4.844  0.1100 -0.9876 -0.4404
 7300SOL     OW33535   1.551   2.472   2.276  0.2768 -0.2371 -0.0998
 7300SOL    HW133536   1.539   2.562   2.244 -0.4819 -1.3299 -2.8866
 7300SOL    HW233537   1.643   2.464   2.248 -0.2284  0.0524 -1.8636
 7301SOL     OW33538   4.660   1.413   4.087 -0.2835 -0.3512 -0.0087
 7301SOL    HW133539   4.708   1.466   4.150  0.5587  0.5112 -1.3823
 7301SOL    HW233540   4.666   1.468   4.010  0.7284  0.9970  1.0359
 7302SOL     OW33541   0.707   0.785   9.596  0.2682  0.3019  0.2594
 7302SOL    HW133542   0.754   0.706   9.622  3.8221  1.8205 -1.5645
 7302SOL    HW233543   0.654   0.796   9.676  2.1420 -0.8388  1.6547
 7303SOL     OW33544   2.505   4.669  11.444  0.7952 -0.1278 -0.3210
 7303SOL    HW133545   2.487   0.003  11.505 -0.3931  1.1407 -2.1026
 7303SOL    HW233546   2.510   4.595  11.504 -0.7475  0.9852  1.1679
 7304SOL     OW33547   1.216   0.581   6.478 -0.2302 -0.3705  0.2053
 7304SOL    HW133548   1.176   0.494   6.486 -2.1983  0.2983 -2.7785
 7304SOL    HW233549   1.246   0.581   6.387 -1.2947  0.6905 -0.1442
 7305SOL     OW33550   4.456   2.473   4.967  0.5607  0.6219 -0.0104
 7305SOL    HW133551   4.544   2.443   4.943 -0.8358 -1.1258 -2.9812
 7305SOL    HW233552   4.469   2.466   5.061 -1.8388 -1.7019  0.1481
 7306SOL     OW33553   4.164   3.117  16.772  0.2464  0.2405 -0.0331
 7306SOL    HW133554   4.235   3.060  16.801  0.1098 -0.4561 -1.0591
 7306SOL    HW233555   4.200   3.148  16.689  1.3779 -0.4555  0.2064
 7307SOL     OW33556   0.665   2.987  11.460 -0.1474  0.1928  0.2131
 7307SOL    HW133557   0.688   2.921  11.525  1.2335  2.7624  2.3007
 7307SOL    HW233558   0.730   3.052  11.486 -0.1693  0.1071  0.4843
 7308SOL     OW33559   2.737   4.735  14.506 -1.0280  0.5005  0.2068
 7308SOL    HW133560   2.742   0.064  14.436 -0.7293 -0.3725 -0.5872
 7308SOL    HW233561   2.696   4.661  14.462 -0.1556  1.6405 -2.4817
 7309SOL     OW33562   3.517   4.628   5.925  0.0607  0.1388 -0.0758
 7309SOL    HW133563   3.508   4.544   5.970  1.0588  0.0827  0.0167
 7309SOL    HW233564   3.561   4.601   5.844  1.2791  2.5549 -0.2216
 7310SOL     OW33565   0.697   0.094   3.133 -0.6537 -0.2675 -0.1150
 7310SOL    HW133566   0.745   0.125   3.057 -0.8021 -0.0808 -0.1333
 7310SOL    HW233567   0.608   0.106   3.100 -0.5541 -1.4260 -0.7911
 7311SOL     OW33568   2.997   3.775   4.427 -0.3200  1.3532  0.6352
 7311SOL    HW133569   2.911   3.744   4.454  0.1299 -1.2417 -0.9556
 7311SOL    HW233570   3.060   3.720   4.473 -0.5468  1.0307  0.5588
 7312SOL     OW33571   2.352   0.874   2.264 -0.0159  0.0774  0.2100
 7312SOL    HW133572   2.431   0.920   2.237 -0.7375  0.6509 -0.9251
 7312SOL    HW233573   2.381   0.784   2.281 -0.7119 -0.1634  0.1339
 7313SOL     OW33574   2.729   0.325   4.365 -0.2983  0.6940 -0.0757
 7313SOL    HW133575   2.661   0.259   4.351  0.0725  0.2902  0.0291
 7313SOL    HW233576   2.746   0.316   4.459 -1.9111 -1.3116  0.0016
 7314SOL     OW33577   0.757   3.712   3.523 -0.1077  0.0592  0.0760
 7314SOL    HW133578   0.692   3.762   3.474  0.5109 -1.2131 -2.0818
 7314SOL    HW233579   0.743   3.739   3.614 -2.6197 -0.8205 -0.0416
 7315SOL     OW33580   3.306   0.685   7.068  0.5852  0.4737  0.0284
 7315SOL    HW133581   3.267   0.767   7.037  2.6512  2.0723  1.6304
 7315SOL    HW233582   3.363   0.713   7.140  1.3196  0.8057 -0.6811
 7316SOL     OW33583   2.693   1.986   5.093  0.1143 -0.0679  0.0353
 7316SOL    HW133584   2.739   2.064   5.124 -1.9177  1.7695 -1.6025
 7316SOL    HW233585   2.734   1.965   5.009 -3.0210  1.6277 -1.9265
 7317SOL     OW33586   1.210   0.137   5.801 -0.0861  0.4957  1.1281
 7317SOL    HW133587   1.197   0.101   5.888  0.6254  0.1271  1.0804
 7317SOL    HW233588   1.132   0.191   5.791  0.8896  1.5063 -1.0738
 7318SOL     OW33589   2.251   3.658   4.294 -0.2976 -0.0235 -1.0982
 7318SOL    HW133590   2.225   3.713   4.220  1.4914  3.3289  0.7341
 7318SOL    HW233591   2.187   3.673   4.364  1.4796  3.4485 -0.2091
 7319SOL     OW33592   2.276   0.218   4.781  0.0310 -0.2291 -0.0252
 7319SOL    HW133593   2.338   0.291   4.767 -0.4349  0.0618 -0.5871
 7319SOL    HW233594   2.267   0.223   4.876 -1.1134  0.6682 -0.1775
 7320SOL     OW33595   4.472   0.393   3.876  1.1861  0.0224 -0.1380
 7320SOL    HW133596   4.529   0.437   3.812  2.2324 -2.1364 -0.6949
 7320SOL    HW233597   4.525   0.317   3.900 -2.1482 -2.5183 -0.8011
 7321SOL     OW33598   3.686   3.199   8.032  0.6032  0.6378 -0.0067
 7321SOL    HW133599   3.610   3.179   7.979  1.6264  0.4664 -1.4012
 7321SOL    HW233600   3.639   3.260   8.089 -0.3943  1.0142 -1.2652
 7322SOL     OW33601   0.565   0.491  15.922 -0.0430  0.5780  0.2988
 7322SOL    HW133602   0.536   0.400  15.924  1.4373  0.1045  0.3010
 7322SOL    HW233603   0.563   0.512  16.016  1.9587  1.4883  0.1494
 7323SOL     OW33604   1.151   2.252   2.878  0.3377  0.4997  0.0442
 7323SOL    HW133605   1.170   2.260   2.784  0.2700  0.1876  0.0047
 7323SOL    HW233606   1.187   2.164   2.891 -3.0929 -1.0824 -1.0877
 7324SOL     OW33607   1.091   0.585   7.439 -0.2601 -0.0006 -0.0756
 7324SOL    HW133608   1.069   0.532   7.516 -1.0066 -0.2558 -0.4671
 7324SOL    HW233609   1.166   0.542   7.398 -1.8699 -2.5515 -0.3037
 7325SOL     OW33610   1.243   3.060  12.276  0.2137  0.5641 -0.2881
 7325SOL    HW133611   1.296   2.980  12.279 -1.7496 -0.7598 -0.8541
 7325SOL    HW233612   1.249   3.089  12.367  0.8574 -0.2773 -0.0687
 7326SOL     OW33613   0.121   2.342   7.694 -0.1412  0.3317  0.1431
 7326SOL    HW133614   0.075   2.347   7.610  1.9804 -0.9498 -1.1172
 7326SOL    HW233615   0.209   2.353   7.656 -0.6484 -1.2659 -1.4814
 7327SOL     OW33616   2.333   2.586   4.412 -0.3691  0.7872  0.7044
 7327SOL    HW133617   2.349   2.649   4.482  0.6651 -0.2893  1.4564
 7327SOL    HW233618   2.257   2.541   4.448  0.2842 -1.0964 -0.2441
 7328SOL     OW33619   4.682   2.307   1.933  0.5610  0.0269 -0.2683
 7328SOL    HW133620   4.676   2.240   1.866  1.4500  0.5590 -0.8723
 7328SOL    HW233621   4.616   2.365   1.894 -0.8685 -1.1803  0.3267
 7329SOL     OW33622   4.381   3.478   5.283  0.1551 -0.3213 -0.1732
 7329SOL    HW133623   4.311   3.541   5.273  2.3469  2.1113 -0.0794
 7329SOL    HW233624   4.384   3.465   5.378  1.9909 -0.7895 -0.2875
 7330SOL     OW33625   4.449   2.775  12.063 -0.3183  0.8523 -0.2493
 7330SOL    HW133626   4.422   2.689  12.094 -1.0372  1.1805  0.0099
 7330SOL    HW233627   4.412   2.771  11.975  0.7885  1.2042 -0.7397
 7331SOL     OW33628   3.702   3.078   4.618  0.2170 -0.1950 -0.6413
 7331SOL    HW133629   3.768   3.124   4.670  1.9578  0.0822 -3.0772
 7331SOL    HW233630   3.634   3.054   4.681  1.3824 -0.6793  0.4150
 7332SOL     OW33631   2.395   1.568  14.356 -0.1737  0.5878 -0.2413
 7332SOL    HW133632   2.385   1.647  14.303  0.3987  0.2283 -0.8898
 7332SOL    HW233633   2.468   1.529  14.307 -1.1670 -2.7714  0.9859
 7333SOL     OW33634   2.975   0.913  16.547 -0.6001 -0.4054  0.6448
 7333SOL    HW133635   3.060   0.947  16.575 -1.2257  1.2816  0.4324
 7333SOL    HW233636   2.939   0.868  16.624  0.5668 -1.0351  0.8277
 7334SOL     OW33637   1.412   0.067   0.044  0.2719  0.2813  0.0798
 7334SOL    HW133638   1.499   0.108   0.042  0.3114  0.2133  0.3386
 7334SOL    HW233639   1.400   0.034  17.701 -1.1317 -3.6537  1.7763
 7335SOL     OW33640   0.116   1.883  14.555 -0.3909  0.7622  0.1260
 7335SOL    HW133641   0.173   1.807  14.565  0.3262  1.1710 -0.8222
 7335SOL    HW233642   0.148   1.920  14.473 -0.7337  0.1783 -0.2644
 7336SOL     OW33643   1.309   1.813   2.222 -0.5658 -0.0366  0.3810
 7336SOL    HW133644   1.401   1.788   2.210 -0.3200 -0.2461  2.7219
 7336SOL    HW233645   1.286   1.744   2.284  2.0581 -1.5049 -0.2949
 7337SOL     OW33646   3.968   1.292  10.367  0.2807  0.5598 -0.4674
 7337SOL    HW133647   3.872   1.289  10.378  0.3552  0.0594  0.0433
 7337SOL    HW233648   3.989   1.381  10.394  1.7254  0.5332 -1.5274
 7338SOL     OW33649   3.158   1.190  16.472  1.2159  0.4249  0.5171
 7338SOL    HW133650   3.169   1.125  16.542  0.4871  0.1417  0.3646
 7338SOL    HW233651   3.064   1.204  16.467  0.9206 -1.1225  1.7288
 7339SOL     OW33652   1.876   4.249   3.451  0.1602  0.5429 -0.5089
 7339SOL    HW133653   1.795   4.208   3.419  0.8511 -0.7797 -0.5411
 7339SOL    HW233654   1.942   4.181   3.439  0.7270  0.9994  0.0633
 7340SOL     OW33655   0.659   1.707   1.008 -0.2454  0.0903 -0.2695
 7340SOL    HW133656   0.624   1.785   0.967 -5.3175 -0.3471  3.3048
 7340SOL    HW233657   0.728   1.694   0.943 -0.1592  2.2181 -0.5779
 7341SOL     OW33658   1.438   1.278   6.131  0.4659 -0.5737 -0.0798
 7341SOL    HW133659   1.508   1.335   6.163 -0.2363  0.3066 -0.1294
 7341SOL    HW233660   1.485   1.200   6.161  2.3229  1.1962  1.6220
 7342SOL     OW33661   0.904   1.084   4.348 -0.0935 -0.2120 -0.3000
 7342SOL    HW133662   0.968   1.149   4.316 -0.2051 -0.6580 -1.4335
 7342SOL    HW233663   0.917   1.012   4.287 -4.4509  0.1889 -1.6562
 7343SOL     OW33664   2.904   0.997   4.889 -0.3572  0.3829  0.4115
 7343SOL    HW133665   2.968   1.059   4.854  1.3393 -2.0192 -0.7573
 7343SOL    HW233666   2.932   0.913   4.854  0.7210  0.9836 -0.1920
 7344SOL     OW33667   4.331   1.850   6.038 -0.1387  0.1723 -0.0461
 7344SOL    HW133668   4.292   1.798   6.108  3.2976 -0.4830  1.3881
 7344SOL    HW233669   4.418   1.867   6.075 -0.0626 -0.0242 -0.1365
 7345SOL     OW33670   2.820   2.845   9.832  0.8086  0.2211  0.2905
 7345SOL    HW133671   2.752   2.794   9.875  0.7463 -0.1011 -0.1812
 7345SOL    HW233672   2.823   2.794   9.751  0.1323  1.0645 -0.2545
 7346SOL     OW33673   4.524   4.290   9.429  0.2885  0.2386 -0.4186
 7346SOL    HW133674   4.481   4.341   9.498 -1.2641 -2.0429  0.3232
 7346SOL    HW233675   4.453   4.250   9.379 -0.4687  0.3641  0.5510
 7347SOL     OW33676   3.872   3.079   1.744 -0.5489 -0.0059  0.4968
 7347SOL    HW133677   3.777   3.073   1.748 -0.5343  0.5228  1.5618
 7347SOL    HW233678   3.904   3.053   1.830 -0.3992 -4.4962 -0.8884
 7348SOL     OW33679   1.417   1.132  16.130  0.0743 -0.0012  0.3937
 7348SOL    HW133680   1.404   1.040  16.105  0.6350 -0.1465  0.6450
 7348SOL    HW233681   1.355   1.130  16.203  1.8901 -0.6772  1.8938
 7349SOL     OW33682   1.361   1.460   7.765 -0.2996  0.1892  0.6427
 7349SOL    HW133683   1.353   1.533   7.826  1.0639  1.0010 -0.1329
 7349SOL    HW233684   1.399   1.509   7.692  0.8642 -1.7373 -0.0785
 7350SOL     OW33685   2.186   4.005   6.387  0.4025  0.3332 -0.1127
 7350SOL    HW133686   2.270   3.962   6.404  0.4025  0.2684 -0.2827
 7350SOL    HW233687   2.204   4.067   6.317 -0.6174 -0.3986 -1.0161
 7351SOL     OW33688   3.463   0.371   5.034 -0.5546  0.0836  0.1849
 7351SOL    HW133689   3.440   0.394   4.944  1.1233 -0.0207 -0.2689
 7351SOL    HW233690   3.389   0.404   5.085  0.2084  0.1166  1.2644
 7352SOL     OW33691   2.779   4.356   6.059  0.2020  0.0124  1.0585
 7352SOL    HW133692   2.717   4.297   6.102 -1.5516  0.7294 -0.4974
 7352SOL    HW233693   2.721   4.418   6.015 -1.1692 -0.8457  1.6584
 7353SOL     OW33694   1.351   4.615  14.001  0.1794  0.0207  0.0383
 7353SOL    HW133695   1.346   4.700  13.958 -0.6338  0.0460  0.1795
 7353SOL    HW233696   1.358   4.550  13.931 -1.5007  0.6184 -0.6668
 7354SOL     OW33697   1.215   0.997   8.709  0.1926 -0.2415 -0.4947
 7354SOL    HW133698   1.141   1.021   8.763  0.1152  0.5384 -0.9504
 7354SOL    HW233699   1.260   0.940   8.771 -0.6974  0.5901  0.9170
 7355SOL     OW33700   3.506   2.052   5.113  0.1918 -0.6518  0.1005
 7355SOL    HW133701   3.577   1.993   5.139  1.0322  1.1581  1.8939
 7355SOL    HW233702   3.570   2.110   5.071  0.5122  1.0579  2.9999
 7356SOL     OW33703   4.401   2.430   2.635  0.1199 -0.0360 -0.6574
 7356SOL    HW133704   4.419   2.506   2.579 -0.2914 -1.3046 -2.4887
 7356SOL    HW233705   4.307   2.418   2.639  0.1617  0.7768  2.5825
 7357SOL     OW33706   2.143   0.085  14.236 -0.7316  0.2429 -0.3761
 7357SOL    HW133707   2.179   0.114  14.320 -1.8235  1.3003 -0.2731
 7357SOL    HW233708   2.205   0.098  14.164  2.5559 -1.9450  2.0818
 7358SOL     OW33709   2.054   1.608   6.581  0.0285  0.3833 -0.1371
 7358SOL    HW133710   2.013   1.573   6.501 -1.5006  0.4586  0.6224
 7358SOL    HW233711   1.993   1.672   6.617  0.2925  0.8035 -0.4348
 7359SOL     OW33712   3.809   3.147   9.357  0.0829 -0.5069  0.3094
 7359SOL    HW133713   3.836   3.135   9.266  0.0374 -1.2671  0.4024
 7359SOL    HW233714   3.871   3.215   9.387 -0.3349 -0.4237  0.9926
 7360SOL     OW33715   4.663   0.498   6.674 -0.0847 -0.0643 -0.2518
 7360SOL    HW133716   4.594   0.435   6.653 -0.1766 -0.2942  0.7760
 7360SOL    HW233717   4.644   0.509   6.767 -3.0944  2.3523 -1.1403
 7361SOL     OW33718   2.564   1.529   3.933 -0.2296  0.3729  0.3195
 7361SOL    HW133719   2.617   1.607   3.913 -1.2872  0.9140 -0.3922
 7361SOL    HW233720   2.476   1.563   3.948 -0.5836  0.0274 -0.9421
 7362SOL     OW33721   2.747   0.060   9.588  0.0257  0.1816  0.0727
 7362SOL    HW133722   2.678   0.026   9.646 -1.3065  0.9455 -1.0683
 7362SOL    HW233723   2.811   0.107   9.641 -1.6167  0.8787  1.4325
 7363SOL     OW33724   3.360   3.107   2.304  0.1711 -0.2426  0.3438
 7363SOL    HW133725   3.284   3.120   2.248  0.0610 -1.4804  0.2067
 7363SOL    HW233726   3.381   3.014   2.303 -2.5603 -0.8606  0.8706
 7364SOL     OW33727   4.579   0.770  11.028 -0.3834 -0.2430 -0.2656
 7364SOL    HW133728   4.579   0.858  11.066 -1.3298 -1.2657  2.0819
 7364SOL    HW233729   4.595   0.712  11.102 -0.7404 -1.2536 -0.9910
 7365SOL     OW33730   4.542   4.373  14.113 -0.4972  0.1051  0.1393
 7365SOL    HW133731   4.626   4.331  14.132 -0.9921 -1.0491 -0.2460
 7365SOL    HW233732   4.499   4.311  14.055  0.3157  1.1034 -1.5400
 7366SOL     OW33733   4.278   3.726   5.374 -0.3602 -0.1160 -0.1067
 7366SOL    HW133734   4.362   3.721   5.418 -0.1982  0.7370 -0.3143
 7366SOL    HW233735   4.282   3.812   5.333 -0.0732 -0.0424  0.0839
 7367SOL     OW33736   3.203   1.433   4.086  0.2561  0.4969 -0.5564
 7367SOL    HW133737   3.283   1.425   4.034  1.0140  0.8126  0.5477
 7367SOL    HW233738   3.239   1.438   4.175 -1.3947 -1.4164  0.2336
 7368SOL     OW33739   1.678   3.837   1.398  0.0297  0.1524 -0.1410
 7368SOL    HW133740   1.713   3.921   1.368 -0.1174  0.3959  0.3694
 7368SOL    HW233741   1.703   3.784   1.323  0.1114 -0.5495  0.3818
 7369SOL     OW33742   3.309   2.161   4.948 -0.4523 -0.0936 -0.6566
 7369SOL    HW133743   3.390   2.136   4.993 -1.0650 -0.2181  0.3563
 7369SOL    HW233744   3.316   2.256   4.948  1.1733 -0.2048  1.4634
 7370SOL     OW33745   0.326   0.190   9.512 -0.2917  0.5947 -0.0198
 7370SOL    HW133746   0.243   0.235   9.522 -2.2590 -3.1207  0.4137
 7370SOL    HW233747   0.372   0.252   9.569  0.7611 -0.6288  0.4695
 7371SOL     OW33748   2.173   0.197   5.900 -1.0740 -0.1219  0.2005
 7371SOL    HW133749   2.229   0.139   5.951  3.2206  2.2528 -1.7416
 7371SOL    HW233750   2.236   0.258   5.860  0.4750 -1.7856  0.1014
 7372SOL     OW33751   1.021   3.090   2.817 -0.3227  0.2439 -0.1950
 7372SOL    HW133752   1.002   2.999   2.793  0.7666  0.0067 -0.1512
 7372SOL    HW233753   1.115   3.084   2.836 -0.7501 -0.2524  1.7520
 7373SOL     OW33754   0.751   2.617   2.298 -0.2147 -0.8124  0.3368
 7373SOL    HW133755   0.761   2.617   2.203 -0.0351  0.2264  0.3559
 7373SOL    HW233756   0.692   2.543   2.315 -0.1751 -1.1692 -1.0142
 7374SOL     OW33757   1.240   0.041  10.981  0.2350  0.1950  0.0331
 7374SOL    HW133758   1.190   4.703  11.013 -1.1498 -0.8718 -4.5166
 7374SOL    HW233759   1.328   0.008  10.963 -0.2762 -1.8605  1.4191
 7375SOL     OW33760   0.666   1.143  16.743  0.4107  0.5387  0.4218
 7375SOL    HW133761   0.714   1.210  16.695  1.2301  0.5792  1.3022
 7375SOL    HW233762   0.714   1.144  16.826  0.4634  0.9524  0.3839
 7376SOL     OW33763   0.675   1.849  15.210  0.0918  0.4936  0.0196
 7376SOL    HW133764   0.625   1.774  15.242  1.4284 -0.5390 -0.3091
 7376SOL    HW233765   0.725   1.796  15.148 -1.6994 -1.5234  0.2843
 7377SOL     OW33766   2.994   1.512   2.135 -0.1482 -0.0086  0.2080
 7377SOL    HW133767   2.946   1.440   2.174  0.1594 -1.2245 -1.6544
 7377SOL    HW233768   2.952   1.521   2.050  0.0600  1.9984  0.3086
 7378SOL     OW33769   1.079   1.673  15.099 -0.1045 -0.6457  0.3700
 7378SOL    HW133770   1.014   1.653  15.166 -1.6275  0.6429 -0.7128
 7378SOL    HW233771   1.156   1.624  15.128 -0.9270 -1.0831  1.8135
 7379SOL     OW33772   2.765   3.282   9.426  0.1856 -0.8553 -0.1852
 7379SOL    HW133773   2.679   3.240   9.419  0.6427 -1.5239 -1.6920
 7379SOL    HW233774   2.811   3.241   9.353 -1.0091  1.6146 -2.2839
 7380SOL     OW33775   0.459   0.604   7.054 -0.1405 -0.1010  0.4293
 7380SOL    HW133776   0.488   0.631   7.142  1.9810 -1.2497  0.0993
 7380SOL    HW233777   0.540   0.597   7.004 -0.5696 -0.0230 -0.2720
 7381SOL     OW33778   3.158   4.232   5.216 -0.2976  0.4454  0.0150
 7381SOL    HW133779   3.180   4.254   5.126 -2.6676 -3.2598 -1.4502
 7381SOL    HW233780   3.208   4.151   5.221  0.4122  0.8505 -0.5333
 7382SOL     OW33781   1.354   2.664  10.801 -0.2864  0.5960 -0.1910
 7382SOL    HW133782   1.322   2.634  10.716 -1.0509 -2.0574  1.0416
 7382SOL    HW233783   1.334   2.586  10.852 -2.8737 -0.1851 -2.4077
 7383SOL     OW33784   3.987   0.913  15.198 -0.4104  0.1065  0.0930
 7383SOL    HW133785   3.967   0.979  15.265  0.8793  0.9200 -0.3225
 7383SOL    HW233786   4.061   0.946  15.147  0.2776 -0.1475  0.9287
 7384SOL     OW33787   1.273   2.785   7.893  0.3476  0.5369 -0.5244
 7384SOL    HW133788   1.286   2.801   7.987  0.2335  0.5240 -0.5062
 7384SOL    HW233789   1.177   2.793   7.888  0.3043 -0.4720 -1.4656
 7385SOL     OW33790   0.695   4.506   6.838  0.1600 -0.8906  0.2211
 7385SOL    HW133791   0.749   4.500   6.917 -0.1574  0.8294  0.5681
 7385SOL    HW233792   0.632   4.435   6.853 -1.0673 -0.0192 -0.8911
 7386SOL     OW33793   2.263   2.300   7.104  0.6876 -0.1565  0.0455
 7386SOL    HW133794   2.298   2.380   7.144 -3.1543  1.0959  0.8951
 7386SOL    HW233795   2.312   2.284   7.023  1.3426 -2.1892  0.8499
 7387SOL     OW33796   0.124   1.009  16.985  0.3436  0.6139 -0.5921
 7387SOL    HW133797   0.094   1.098  17.006  2.3362  1.2587 -0.3895
 7387SOL    HW233798   0.211   1.005  17.024  0.2807 -0.5769 -0.5800
 7388SOL     OW33799   2.206   1.245   4.990  0.2390 -0.4229  0.1505
 7388SOL    HW133800   2.199   1.227   5.084  0.7878 -2.1039 -0.1313
 7388SOL    HW233801   2.140   1.313   4.978 -0.5774 -1.3985 -0.7696
 7389SOL     OW33802   4.303   4.419   0.340  0.3367  0.1277  0.2439
 7389SOL    HW133803   4.257   4.503   0.344 -1.0329 -0.5481 -1.1538
 7389SOL    HW233804   4.223   4.366   0.350  1.0643 -1.6315 -3.4073
 7390SOL     OW33805   1.877   1.840  16.083  0.0775 -0.2108 -0.1576
 7390SOL    HW133806   1.803   1.788  16.117  0.6490 -0.8653  0.0807
 7390SOL    HW233807   1.854   1.928  16.113 -3.5902 -1.3844  0.5767
 7391SOL     OW33808   1.248   0.416   7.290  0.2314  0.1080  0.7378
 7391SOL    HW133809   1.344   0.418   7.295  0.2113 -1.7320  2.5035
 7391SOL    HW233810   1.236   0.380   7.202  1.0073 -0.3149  0.7984
 7392SOL     OW33811   2.921   4.022   7.037 -0.4424 -0.8425 -0.6303
 7392SOL    HW133812   2.897   4.027   6.945  0.2374 -0.1798 -0.7740
 7392SOL    HW233813   3.010   3.987   7.031 -0.7662 -2.1220  1.6874
 7393SOL     OW33814   3.756   1.282   8.855  0.6040 -0.2944 -0.1262
 7393SOL    HW133815   3.747   1.377   8.844  2.6537  0.0760  1.4159
 7393SOL    HW233816   3.807   1.275   8.936 -0.3318  0.9562  0.5630
 7394SOL     OW33817   1.667   2.753  17.196 -0.4829  0.1935 -0.0995
 7394SOL    HW133818   1.662   2.819  17.265  0.9165  0.5456 -0.3355
 7394SOL    HW233819   1.579   2.768  17.161 -0.2539  2.3495  0.2714
 7395SOL     OW33820   2.050   4.674  14.614 -0.2086  0.5001  0.5293
 7395SOL    HW133821   2.115   4.700  14.549 -0.6157 -0.0134 -0.0777
 7395SOL    HW233822   2.109   4.671  14.689  1.2160  1.7586 -0.5478
 7396SOL     OW33823   1.687   4.093   3.799  0.2744  0.0143 -0.7228
 7396SOL    HW133824   1.631   4.141   3.739 -1.0144  1.1395  1.3662
 7396SOL    HW233825   1.631   4.058   3.868  0.8079  0.6821  0.0579
 7397SOL     OW33826   4.661   3.121  10.507 -0.1969 -0.3415 -0.3303
 7397SOL    HW133827   4.683   3.155  10.594 -2.4928 -0.5969  0.3622
 7397SOL    HW233828   4.685   3.029  10.517  1.4185  0.0011 -1.1867
 7398SOL     OW33829   0.653   2.342  17.607  0.1624  0.2084  0.4701
 7398SOL    HW133830   0.653   2.335  17.702 -2.9203  0.8298  0.5229
 7398SOL    HW233831   0.712   2.276  17.570  0.1883  1.9619 -2.6484
 7399SOL     OW33832   1.583   1.203   5.238 -0.4462  0.2467  0.3275
 7399SOL    HW133833   1.593   1.183   5.332  1.2943 -0.4999 -0.0159
 7399SOL    HW233834   1.509   1.145   5.219  0.2190 -1.1279  1.8376
 7400SOL     OW33835   3.447   1.847   8.310  0.2745 -0.3592  0.5792
 7400SOL    HW133836   3.377   1.803   8.360 -0.6103 -0.6831 -0.9206
 7400SOL    HW233837   3.403   1.932   8.308  2.1826  0.5268 -3.2242
 7401SOL     OW33838   4.567   2.642   8.971 -0.2666 -0.4538  0.9593
 7401SOL    HW133839   4.566   2.701   8.896  0.2869 -0.8192  0.6641
 7401SOL    HW233840   4.659   2.617   8.977 -0.1336 -0.3344 -0.5536
 7402SOL     OW33841   2.045   3.845   5.377  0.1406 -0.0223 -0.3505
 7402SOL    HW133842   2.104   3.771   5.390  1.6679  1.0232 -1.3007
 7402SOL    HW233843   1.958   3.807   5.366  0.6803 -1.5331  0.5878
 7403SOL     OW33844   4.166   2.303   1.078 -0.4367  0.1062 -0.0393
 7403SOL    HW133845   4.141   2.334   1.165 -1.2811  3.9131 -1.6374
 7403SOL    HW233846   4.241   2.357   1.051  0.2242 -1.1303 -0.7390
 7404SOL     OW33847   1.980   4.214  10.923  0.4164 -0.5587 -0.0829
 7404SOL    HW133848   2.014   4.260  11.000  0.9376  0.7033 -1.0826
 7404SOL    HW233849   2.059   4.185  10.879  0.7286  1.7654 -1.0770
 7405SOL     OW33850   0.754   4.260   7.697 -0.0676 -0.2032  0.3655
 7405SOL    HW133851   0.799   4.330   7.743  1.6387 -0.1802 -1.3196
 7405SOL    HW233852   0.781   4.284   7.608 -0.1967 -0.2429  0.3162
 7406SOL     OW33853   1.623   1.158   4.736 -0.0234  0.3551 -0.7598
 7406SOL    HW133854   1.697   1.214   4.757  1.2105 -0.9960 -1.4936
 7406SOL    HW233855   1.652   1.067   4.740 -0.7083  0.2168  1.2508
 7407SOL     OW33856   1.340   0.930   6.278  0.5858 -0.1208 -0.3737
 7407SOL    HW133857   1.269   0.880   6.238 -0.3038  0.4193  0.5679
 7407SOL    HW233858   1.393   0.947   6.200  1.6529 -1.1452  0.1237
 7408SOL     OW33859   0.705   4.656   2.217 -0.1694 -0.2077 -0.3642
 7408SOL    HW133860   0.673   4.600   2.147  1.2595 -0.1649 -1.0612
 7408SOL    HW233861   0.732   4.731   2.164 -0.0273 -0.2019 -0.2849
 7409SOL     OW33862   2.836   2.565   0.936 -0.0553 -0.4976 -0.1885
 7409SOL    HW133863   2.930   2.548   0.948  0.2367  0.2391 -1.3461
 7409SOL    HW233864   2.814   2.500   0.870  1.0530 -0.6661 -0.3916
 7410SOL     OW33865   4.517   3.544   8.011 -0.1175  0.1403 -0.3822
 7410SOL    HW133866   4.504   3.603   8.085 -1.0506  0.6051 -0.9093
 7410SOL    HW233867   4.587   3.577   7.954  0.2808  1.0391  0.6371
 7411SOL     OW33868   3.003   3.397  16.293  0.1990 -0.0962 -0.3612
 7411SOL    HW133869   3.084   3.372  16.338 -0.5751  1.2921  1.8240
 7411SOL    HW233870   3.023   3.377  16.201  0.2012 -0.4393 -0.2860
 7412SOL     OW33871   1.091   1.415  11.639  0.8629  0.3397 -0.1315
 7412SOL    HW133872   1.128   1.455  11.561 -0.7258  0.7119 -0.6869
 7412SOL    HW233873   1.129   1.461  11.714  1.0947 -2.0360  1.2393
 7413SOL     OW33874   3.678   2.206  12.834 -0.2421  0.1051  0.4439
 7413SOL    HW133875   3.671   2.164  12.748  0.1416 -0.9289  0.9225
 7413SOL    HW233876   3.773   2.204  12.844 -0.1256 -0.7441 -0.7667
 7414SOL     OW33877   0.676   2.841   3.451  0.2005 -0.3816  0.6510
 7414SOL    HW133878   0.629   2.908   3.500 -0.3237 -0.2763  0.0119
 7414SOL    HW233879   0.756   2.888   3.428 -0.6944 -0.1525 -2.0753
 7415SOL     OW33880   0.169   2.348   4.668  0.1474  0.3571  0.2363
 7415SOL    HW133881   0.188   2.254   4.672 -0.2679  0.3209  1.2361
 7415SOL    HW233882   0.244   2.372   4.613  1.1753  1.4133  2.0924
 7416SOL     OW33883   2.489   3.003   5.913  0.7865 -0.8493  0.1386
 7416SOL    HW133884   2.451   2.958   5.988 -2.2658  1.2146 -0.1968
 7416SOL    HW233885   2.500   2.927   5.856  1.8271 -0.9289  0.4352
 7417SOL     OW33886   2.133   2.419   5.739 -0.1999  0.2296  0.3394
 7417SOL    HW133887   2.049   2.460   5.722 -0.0831  0.2472 -0.1988
 7417SOL    HW233888   2.171   2.442   5.654 -1.0017  1.3298  0.2941
 7418SOL     OW33889   2.189   4.580   5.373 -0.2586  0.1588  0.3433
 7418SOL    HW133890   2.282   4.588   5.352 -0.3565  2.5257  0.7608
 7418SOL    HW233891   2.185   4.505   5.433 -0.5661 -0.8519 -0.9546
 7419SOL     OW33892   0.950   0.295   1.543 -0.1724 -0.0254 -0.2781
 7419SOL    HW133893   0.989   0.287   1.456 -0.6078 -0.1406 -0.4644
 7419SOL    HW233894   1.001   0.365   1.584 -0.7915 -0.2783  0.9388
 7420SOL     OW33895   3.243   0.602   4.223  0.5987  0.1507  0.2507
 7420SOL    HW133896   3.204   0.688   4.207  1.7002  0.5921 -0.0644
 7420SOL    HW233897   3.174   0.558   4.273  1.0590 -1.4972 -0.5565
 7421SOL     OW33898   3.401   0.724   3.853  0.4528  0.0070 -0.0052
 7421SOL    HW133899   3.317   0.696   3.891  0.4100  1.2872  0.8470
 7421SOL    HW233900   3.421   0.634   3.827 -1.4907 -0.1751 -0.9036
 7422SOL     OW33901   1.627   2.496   3.951 -0.3893 -0.0644 -0.0906
 7422SOL    HW133902   1.635   2.448   4.034  3.1195 -2.6664 -1.9307
 7422SOL    HW233903   1.615   2.584   3.988 -1.5336  1.2799 -3.6863
 7423SOL     OW33904   3.824   2.339   6.844 -0.1689  0.3674 -0.1510
 7423SOL    HW133905   3.919   2.325   6.839 -0.1564  0.4952 -0.2746
 7423SOL    HW233906   3.802   2.280   6.917  0.7815  0.4896  0.2374
 7424SOL     OW33907   2.640   0.606   3.252  0.1620 -0.2034 -0.3720
 7424SOL    HW133908   2.729   0.618   3.284 -0.1421  0.0518  0.3981
 7424SOL    HW233909   2.638   0.667   3.179  0.5207 -1.7800 -1.6809
 7425SOL     OW33910   2.328   1.439   3.037  0.6727 -0.3226  0.2391
 7425SOL    HW133911   2.349   1.358   2.991  0.4982 -1.5204  2.2883
 7425SOL    HW233912   2.392   1.498   2.996 -0.7276 -0.0050 -1.4693
 7426SOL     OW33913   2.967   0.176  11.540  0.3234 -0.0574 -0.0393
 7426SOL    HW133914   2.878   0.168  11.507 -0.6271 -0.3112  2.6271
 7426SOL    HW233915   2.968   0.097  11.594 -1.4015 -1.3136 -1.8649
 7427SOL     OW33916   4.393   4.716   3.512  0.0039  0.6341 -0.2804
 7427SOL    HW133917   4.408   0.073   3.526 -0.6453  1.1626 -2.9760
 7427SOL    HW233918   4.457   4.692   3.445 -2.7025 -1.2108 -2.2369
 7428SOL     OW33919   2.247   1.834   2.256  0.5936  0.0760  0.3437
 7428SOL    HW133920   2.183   1.795   2.197  0.6557 -1.6065  1.3762
 7428SOL    HW233921   2.190   1.879   2.318 -2.9177 -0.4743 -2.4830
 7429SOL     OW33922   0.656   4.050   1.727  0.3409  0.4227  0.3929
 7429SOL    HW133923   0.580   4.099   1.760 -0.6528 -0.7057 -0.2229
 7429SOL    HW233924   0.627   3.985   1.663 -1.3990  0.6829  0.9100
 7430SOL     OW33925   1.407   1.498  16.864  0.5365 -0.5211 -0.1439
 7430SOL    HW133926   1.326   1.447  16.867  0.6670 -0.6798  0.6572
 7430SOL    HW233927   1.390   1.569  16.802  1.7336  0.7325  0.9449
 7431SOL     OW33928   4.351   1.082   8.594 -0.2289 -0.6343  0.1713
 7431SOL    HW133929   4.298   1.162   8.595 -1.2698 -1.3259 -0.6924
 7431SOL    HW233930   4.436   1.124   8.609 -0.1196 -0.5553 -0.6634
 7432SOL     OW33931   3.766   1.036   3.013 -0.8532  0.4350  0.2078
 7432SOL    HW133932   3.851   1.022   3.056 -0.6628  1.3329  0.1257
 7432SOL    HW233933   3.718   0.989   3.081 -0.7282  1.7665  1.2402
 7433SOL     OW33934   3.086   0.311   2.967 -0.3703  0.0635  0.3678
 7433SOL    HW133935   3.176   0.289   2.943 -0.2652 -1.0434  1.8496
 7433SOL    HW233936   3.072   0.385   2.907  2.2041 -0.2074 -0.5728
 7434SOL     OW33937   0.573   2.733   4.639  0.0238 -0.1623  0.0653
 7434SOL    HW133938   0.548   2.699   4.553  0.5147 -1.4749  0.4428
 7434SOL    HW233939   0.668   2.741   4.642  0.0057 -0.7808  3.1168
 7435SOL     OW33940   1.427   4.428   2.836  0.1208  0.2885  0.3607
 7435SOL    HW133941   1.464   4.507   2.875 -0.7116  0.4261  0.8660
 7435SOL    HW233942   1.457   4.438   2.746 -2.8664  1.2366 -0.5410
 7436SOL     OW33943   0.226   0.637   3.866  0.2645  0.2537  0.1312
 7436SOL    HW133944   0.163   0.576   3.828  1.5900 -0.7807 -0.3692
 7436SOL    HW233945   0.297   0.635   3.802  0.9897 -1.4284  0.9853
 7437SOL     OW33946   0.981   1.220   5.632 -0.4457  0.1715 -0.2185
 7437SOL    HW133947   0.963   1.307   5.595  0.6834  1.0513  1.2839
 7437SOL    HW233948   0.898   1.202   5.675  0.7214 -1.3222  1.4278
 7438SOL     OW33949   3.546   3.228  10.954  0.6557  0.5087 -0.3468
 7438SOL    HW133950   3.457   3.195  10.965  1.1878 -0.6834  0.4319
 7438SOL    HW233951   3.587   3.164  10.895 -0.0497  0.7420 -1.0868
 7439SOL     OW33952   3.872   1.733   6.209  0.6321 -0.5770 -1.0271
 7439SOL    HW133953   3.804   1.677   6.245  0.2404  1.4124  1.3386
 7439SOL    HW233954   3.816   1.776   6.144 -1.9659 -0.6393  1.1676
 7440SOL     OW33955   2.274   4.103   3.994 -0.5315 -0.1708  0.3995
 7440SOL    HW133956   2.246   4.013   3.977 -2.1321  0.3983 -0.0386
 7440SOL    HW233957   2.355   4.103   4.045  0.5140  0.2245 -1.2566
 7441SOL     OW33958   4.583   0.853   3.700  0.4523  0.1098 -0.3478
 7441SOL    HW133959   4.538   0.861   3.616  0.5260  0.3236 -0.3660
 7441SOL    HW233960   4.648   0.923   3.688  2.0747 -1.1592  1.0535
 7442SOL     OW33961   1.597   1.614  15.169  0.4705 -0.2302 -0.5616
 7442SOL    HW133962   1.528   1.574  15.222  0.9355  1.5482  1.3533
 7442SOL    HW233963   1.673   1.568  15.204  0.3332  0.4931  0.6676
 7443SOL     OW33964   0.668   2.828   1.887  0.0471  0.1048  0.0641
 7443SOL    HW133965   0.664   2.887   1.962 -1.9270 -0.1078  0.1273
 7443SOL    HW233966   0.744   2.859   1.837 -1.5034 -0.1538 -2.4819
 7444SOL     OW33967   0.332   0.921   5.291  0.9247 -0.1241 -0.2149
 7444SOL    HW133968   0.262   0.855   5.298  2.5288 -1.3091  4.2704
 7444SOL    HW233969   0.287   0.997   5.255 -1.1797 -0.1732  2.3488
 7445SOL     OW33970   2.951   1.145   3.723  0.3809 -0.2885  0.3293
 7445SOL    HW133971   2.963   1.209   3.653  1.2067  0.1924  0.9040
 7445SOL    HW233972   3.000   1.181   3.797 -0.0443 -1.9000  1.4000
 7446SOL     OW33973   0.818   0.941   1.118 -0.0459  0.1493  0.1599
 7446SOL    HW133974   0.772   0.908   1.041 -1.3884 -0.8632  1.3921
 7446SOL    HW233975   0.753   0.993   1.166  1.1591  0.3533  1.5750
 7447SOL     OW33976   2.370   2.756   7.488 -0.0514 -0.1862 -0.2345
 7447SOL    HW133977   2.425   2.677   7.493  0.6130  0.2698 -0.4013
 7447SOL    HW233978   2.320   2.745   7.570 -0.7447 -2.0947 -0.8961
 7448SOL     OW33979   1.881   2.759   6.331 -0.3627  0.0097  0.1754
 7448SOL    HW133980   1.838   2.740   6.248  0.9976 -0.5350 -0.3984
 7448SOL    HW233981   1.811   2.797   6.384  2.0225  1.3319  2.4156
 7449SOL     OW33982   4.142   1.473   2.631 -0.5362 -0.6873  0.3870
 7449SOL    HW133983   4.141   1.569   2.624  0.1480 -0.8027 -1.2487
 7449SOL    HW233984   4.108   1.450   2.545  0.2677  0.3745 -0.2180
 7450SOL     OW33985   3.003   1.740   5.358  0.0652  0.9310  0.0019
 7450SOL    HW133986   3.054   1.662   5.335 -0.6992 -0.2702  2.4579
 7450SOL    HW233987   2.994   1.733   5.453  0.9768 -1.4794 -0.0987
 7451SOL     OW33988   4.012   2.688   9.341  0.3524 -0.4037 -0.4363
 7451SOL    HW133989   4.064   2.694   9.422  1.3479 -0.7877 -1.0538
 7451SOL    HW233990   4.052   2.627   9.281 -0.8054 -1.7611  0.1672
 7452SOL     OW33991   1.845   3.505   9.280 -0.1844 -0.0237  0.2723
 7452SOL    HW133992   1.770   3.562   9.296 -0.1701  0.4340 -1.2523
 7452SOL    HW233993   1.837   3.452   9.360 -1.1221  1.1671  0.9650
 7453SOL     OW33994   2.272   3.897   5.775 -0.1438 -0.1761 -0.5648
 7453SOL    HW133995   2.193   3.921   5.727  0.4288 -1.0512 -1.9446
 7453SOL    HW233996   2.238   3.867   5.859 -1.5700 -0.7043 -1.3391
 7454SOL     OW33997   2.371   4.560  12.922  0.6301  0.1182 -0.0402
 7454SOL    HW133998   2.365   4.577  13.016  1.3181  0.9309 -0.1429
 7454SOL    HW233999   2.331   4.640  12.888  1.5079 -0.3687 -2.2417
 7455SOL     OW34000   1.153   4.021  13.795  0.5145  0.8966  0.1953
 7455SOL    HW134001   1.099   4.015  13.873 -1.2435  1.4626 -0.9722
 7455SOL    HW234002   1.242   4.004  13.827  0.4193 -1.7913 -0.9958
 7456SOL     OW34003   0.532   2.247   3.139 -0.0506  0.1448 -0.2193
 7456SOL    HW134004   0.460   2.285   3.190 -0.8679 -1.2929 -0.3097
 7456SOL    HW234005   0.489   2.182   3.084 -0.1309 -0.9891  1.1871
 7457SOL     OW34006   0.674   0.052  11.143 -0.2444 -0.4842 -0.0849
 7457SOL    HW134007   0.590   0.009  11.156 -0.9523  0.8278 -0.3247
 7457SOL    HW234008   0.719   0.001  11.210  0.7524 -2.2232 -2.0808
 7458SOL     OW34009   0.519   2.664  12.947 -0.7307  0.6577 -0.3090
 7458SOL    HW134010   0.525   2.575  12.982 -0.5609  0.0645 -1.8724
 7458SOL    HW234011   0.507   2.717  13.026 -0.7822 -0.2195  0.2777
 7459SOL     OW34012   3.739   1.135  12.225  0.8577  0.2135 -0.1271
 7459SOL    HW134013   3.790   1.159  12.148  1.9499  1.4540  0.9830
 7459SOL    HW234014   3.729   1.223  12.261  2.1958  0.8798 -1.3713
 7460SOL     OW34015   3.839   1.693   0.593 -0.1805  0.0568 -0.0042
 7460SOL    HW134016   3.794   1.778   0.593 -0.5320 -0.1291 -0.4892
 7460SOL    HW234017   3.780   1.630   0.635 -1.2489  1.2115  0.2412
 7461SOL     OW34018   2.500   0.668  14.860  0.3242  0.1477  0.1020
 7461SOL    HW134019   2.587   0.705  14.876  0.5045  0.2063 -1.0363
 7461SOL    HW234020   2.447   0.738  14.897 -0.0470  0.4955 -1.1249
 7462SOL     OW34021   2.152   3.400   1.590  0.0018  0.6017 -0.5691
 7462SOL    HW134022   2.071   3.388   1.640  0.7677 -0.6556  0.3759
 7462SOL    HW234023   2.153   3.319   1.541  0.0631 -0.5974  1.4039
 7463SOL     OW34024   1.610   3.155   2.941  0.0675  0.1316 -0.4354
 7463SOL    HW134025   1.634   3.243   2.912  3.1102 -0.5889 -0.1320
 7463SOL    HW234026   1.605   3.161   3.036 -0.6763  0.3212 -0.4897
 7464SOL     OW34027   2.605   0.856   2.469 -0.0428 -0.2782  0.7252
 7464SOL    HW134028   2.623   0.843   2.562 -1.8549 -1.1483  0.9479
 7464SOL    HW234029   2.550   0.934   2.465 -0.1250 -0.2583  2.2447
 7465SOL     OW34030   2.144   1.046   2.178 -0.0875  0.5882  0.1860
 7465SOL    HW134031   2.109   1.014   2.261 -0.1610  0.6790  0.1903
 7465SOL    HW234032   2.208   0.976   2.169  0.1788  0.8732 -0.1199
 7466SOL     OW34033   0.167   4.299  10.126  0.3279 -0.0915  0.0603
 7466SOL    HW134034   0.180   4.276  10.218  2.0755  1.3097  0.1661
 7466SOL    HW234035   0.235   4.261  10.071  0.3192  1.0934 -0.7755
 7467SOL     OW34036   2.191   1.904  13.598 -0.1296  0.2108  0.4203
 7467SOL    HW134037   2.212   1.823  13.642 -1.3173  0.5168  1.5602
 7467SOL    HW234038   2.116   1.874  13.546  0.2897  1.6175 -1.0073
 7468SOL     OW34039   0.135   3.846   3.302  0.1679 -0.4242 -0.2922
 7468SOL    HW134040   0.157   3.789   3.376 -0.0862  0.8271  0.7329
 7468SOL    HW234041   0.085   3.912   3.349  0.4564  1.3414 -2.4582
 7469SOL     OW34042   0.489   0.918   3.077 -0.3934  0.0296  0.0021
 7469SOL    HW134043   0.433   0.959   3.011 -0.1673  1.4968  0.7160
 7469SOL    HW234044   0.429   0.855   3.115  1.5220 -1.2192  0.9718
 7470SOL     OW34045   4.453   2.035   1.216 -0.5617  0.1475  0.5129
 7470SOL    HW134046   4.391   2.060   1.284 -0.6039 -1.5471  1.0825
 7470SOL    HW234047   4.419   2.084   1.142  0.1663 -0.8234 -0.4646
 7471SOL     OW34048   1.597   0.556   6.890  0.5722 -0.0004 -0.0295
 7471SOL    HW134049   1.556   0.575   6.806 -0.5161  0.2928  0.5607
 7471SOL    HW234050   1.576   0.463   6.891 -2.1100  0.5950  0.9218
 7472SOL     OW34051   1.082   1.309   3.519  0.3268 -0.4106 -0.2816
 7472SOL    HW134052   1.041   1.303   3.604  1.4353 -0.5546  0.2462
 7472SOL    HW234053   0.999   1.332   3.477  0.0957  1.7251  1.3117
 7473SOL     OW34054   2.023   0.017   4.743 -0.1052  0.0348  0.1812
 7473SOL    HW134055   2.013   4.696   4.818 -1.6056 -0.2927 -0.2659
 7473SOL    HW234056   2.109   0.053   4.762 -1.0527  1.9533  0.8731
 7474SOL     OW34057   3.570   3.101  16.028 -0.1600  0.1726  0.2167
 7474SOL    HW134058   3.633   3.171  16.011  0.4197 -0.0169  1.5489
 7474SOL    HW234059   3.535   3.111  15.940 -0.4734  1.5148  0.4882
 7475SOL     OW34060   1.837   1.985   2.624  0.2983 -0.3825  0.5240
 7475SOL    HW134061   1.918   2.009   2.578 -0.3748 -1.4771 -1.2430
 7475SOL    HW234062   1.808   2.057   2.680  0.6392 -1.4857  2.1087
 7476SOL     OW34063   1.951   4.527  12.440  0.4265 -0.2713  0.0489
 7476SOL    HW134064   1.925   4.500  12.528  3.0711  0.8741  1.1820
 7476SOL    HW234065   1.906   4.612  12.435 -0.0319 -0.5759 -1.1042
 7477SOL     OW34066   0.906   4.180  16.983  0.0761  0.1159  0.2375
 7477SOL    HW134067   0.908   4.129  17.065  2.7087 -0.2410 -0.0748
 7477SOL    HW234068   0.856   4.257  17.012  3.5067  1.5089  2.4231
 7478SOL     OW34069   4.700   4.212   9.929 -0.0562  0.0639 -0.1406
 7478SOL    HW134070   4.723   4.257  10.011  0.1005  1.9512 -1.2011
 7478SOL    HW234071   0.053   4.184   9.908  0.7748  2.0607  0.6870
 7479SOL     OW34072   4.599   3.876  12.028  0.4557 -0.4278  0.3601
 7479SOL    HW134073   4.615   3.951  11.971 -2.4009 -1.5367 -1.9184
 7479SOL    HW234074   4.553   3.820  11.965  0.5766 -0.1414  0.0180
 7480SOL     OW34075   1.408   3.639   5.802 -0.4539 -0.1219 -0.0968
 7480SOL    HW134076   1.408   3.590   5.720 -0.1529 -0.0182 -0.1601
 7480SOL    HW234077   1.346   3.701   5.766 -1.5708 -0.3707  1.3866
 7481SOL     OW34078   2.076   4.346  12.280  0.1836  0.1058 -0.0637
 7481SOL    HW134079   1.996   4.308  12.317 -1.3604  2.0199 -1.4547
 7481SOL    HW234080   2.073   4.431  12.324 -0.4890  0.4931 -0.8696
 7482SOL     OW34081   4.505   4.205   8.640  0.1062  0.0519 -0.3089
 7482SOL    HW134082   4.420   4.247   8.639 -0.7172 -1.5845  0.5425
 7482SOL    HW234083   4.556   4.284   8.658 -1.1347  1.0110 -1.0242
 7483SOL     OW34084   4.339   1.549   4.051  0.0809  0.2719  0.0195
 7483SOL    HW134085   4.323   1.488   4.123  1.6245  0.5126  0.5660
 7483SOL    HW234086   4.316   1.637   4.084  1.0489  0.3287  0.5439
 7484SOL     OW34087   1.530   3.604   2.556  0.0383 -0.1833 -0.4548
 7484SOL    HW134088   1.568   3.655   2.628 -1.8718 -0.2315  0.5731
 7484SOL    HW234089   1.493   3.678   2.507  0.4625 -0.6821 -1.5278
 7485SOL     OW34090   0.822   1.287   0.131 -0.3969 -0.0086  0.2539
 7485SOL    HW134091   0.903   1.247   0.163 -0.8756 -0.0037  1.4969
 7485SOL    HW234092   0.770   1.291   0.212  0.0433 -2.7217  0.6680
 7486SOL     OW34093   1.342   1.574  11.206  0.7534  0.1121  0.2966
 7486SOL    HW134094   1.394   1.540  11.133  1.0272  1.2143 -0.0296
 7486SOL    HW234095   1.403   1.638  11.243 -0.4636  0.9626  0.8150
 7487SOL     OW34096   2.456   3.358  10.319 -0.2994 -0.2246  0.1165
 7487SOL    HW134097   2.362   3.339  10.327 -0.6967  1.9891  0.8236
 7487SOL    HW234098   2.454   3.432  10.258  0.7453  0.9266  1.4715
 7488SOL     OW34099   2.745   1.354   4.024  0.0813  0.2138  0.4286
 7488SOL    HW134100   2.692   1.411   3.969 -0.0359 -1.2772 -0.9913
 7488SOL    HW234101   2.682   1.293   4.062  0.3652  0.1194  0.7576
 7489SOL     OW34102   2.754   2.047   8.374  0.3153  0.3895  0.3975
 7489SOL    HW134103   2.750   1.997   8.293  1.0268  2.3276 -0.8460
 7489SOL    HW234104   2.843   2.082   8.366  0.1370  0.6496 -0.3912
 7490SOL     OW34105   2.923   0.062   2.656 -0.2292 -0.1275  0.1028
 7490SOL    HW134106   2.857   0.044   2.723 -0.5304  1.5072  0.2526
 7490SOL    HW234107   2.954   4.710   2.637 -0.8661 -0.1920 -0.6077
 7491SOL     OW34108   1.225   1.894  15.658  0.0557  0.0228 -0.1707
 7491SOL    HW134109   1.179   1.935  15.731  1.0220  0.4953  0.1662
 7491SOL    HW234110   1.308   1.941  15.659  0.1883 -0.2343  1.7628
 7492SOL     OW34111   2.947   2.964   7.235 -0.5369 -0.3395 -0.2139
 7492SOL    HW134112   2.962   2.872   7.216  2.9608  0.0710  0.5306
 7492SOL    HW234113   2.864   2.971   7.281 -0.5999  1.4569 -0.5780
 7493SOL     OW34114   3.654   1.689   7.218 -0.2484 -0.3906  0.4468
 7493SOL    HW134115   3.704   1.628   7.163  0.6939 -0.0513  0.9339
 7493SOL    HW234116   3.611   1.634   7.283  1.2446 -0.8908  1.0210
 7494SOL     OW34117   4.242   3.376   5.662 -0.0271  1.1500 -0.2521
 7494SOL    HW134118   4.208   3.458   5.698 -0.6103  0.3631  1.0042
 7494SOL    HW234119   4.334   3.397   5.645  0.8113 -1.9765  0.3152
 7495SOL     OW34120   1.379   2.436   7.739 -0.2487  0.0924 -0.1771
 7495SOL    HW134121   1.398   2.486   7.660 -0.8856 -1.3506 -1.2312
 7495SOL    HW234122   1.285   2.418   7.731 -0.3223 -0.1643  1.1771
 7496SOL     OW34123   2.454   3.920   6.483  0.1783 -0.0728  0.1443
 7496SOL    HW134124   2.521   3.853   6.494  0.6992  0.6439  1.4023
 7496SOL    HW234125   2.468   3.975   6.560 -0.2701 -0.2218  0.3284
 7497SOL     OW34126   2.915   1.845   8.923 -0.3266 -0.1008  0.5569
 7497SOL    HW134127   2.820   1.838   8.926 -0.5067  2.0284 -0.5362
 7497SOL    HW234128   2.927   1.910   8.854 -1.1175 -0.6613 -0.1112
 7498SOL     OW34129   0.571   3.315   1.939  0.3356  0.3398  0.2881
 7498SOL    HW134130   0.493   3.327   1.993 -0.1082  1.4531 -0.6203
 7498SOL    HW234131   0.598   3.224   1.956 -1.2402 -0.0356  0.7939
 7499SOL     OW34132   4.307   3.124   8.080  0.4108 -0.1137 -0.0710
 7499SOL    HW134133   4.373   3.190   8.102 -1.5122  2.0462 -0.7241
 7499SOL    HW234134   4.240   3.180   8.040  0.6007 -0.1265 -0.4117
 7500SOL     OW34135   0.120   3.435   0.992  0.0442 -0.3734  0.1268
 7500SOL    HW134136   0.165   3.519   1.002 -3.7100  1.6812 -0.1006
 7500SOL    HW234137   0.191   3.382   0.956  1.4341  0.0591  2.1965
 7501SOL     OW34138   2.374   2.348   3.041  0.3003  0.6540  0.4903
 7501SOL    HW134139   2.313   2.417   3.018  0.5033  1.0343  1.0777
 7501SOL    HW234140   2.319   2.302   3.105  1.4173 -0.6909  0.5018
 7502SOL     OW34141   1.180   1.411   1.932  0.2155  0.1000 -0.0512
 7502SOL    HW134142   1.133   1.426   2.014 -0.4407  1.6059 -0.7089
 7502SOL    HW234143   1.200   1.318   1.945  0.3251  0.0677 -0.4578
 7503SOL     OW34144   1.865   4.068  11.911  0.3369  0.3790  0.4621
 7503SOL    HW134145   1.857   4.007  11.984  1.0418 -1.5755 -1.1111
 7503SOL    HW234146   1.943   4.116  11.939 -2.0963  2.4284  3.6957
 7504SOL     OW34147   0.332   3.115   7.166 -0.7398  0.2634  0.1547
 7504SOL    HW134148   0.340   3.105   7.261  2.0591  1.8906  0.0867
 7504SOL    HW234149   0.361   3.204   7.145 -1.8036  0.7091  0.5853
 7505SOL     OW34150   2.616   4.176  11.894 -0.4201 -1.0148  0.0860
 7505SOL    HW134151   2.669   4.215  11.963  0.6382 -0.2566 -1.1548
 7505SOL    HW234152   2.532   4.162  11.937 -0.1446  1.1409  1.3216
 7506SOL     OW34153   2.456   2.792   1.615  0.1890 -0.7320  0.5412
 7506SOL    HW134154   2.372   2.748   1.599  0.7188 -2.0390  1.3926
 7506SOL    HW234155   2.450   2.799   1.710  2.3605  1.2738  0.5258
 7507SOL     OW34156   0.654   1.684   5.976 -0.2997  0.0882  0.0412
 7507SOL    HW134157   0.678   1.624   6.047  1.6317  0.2667 -0.4738
 7507SOL    HW234158   0.688   1.769   6.004  1.7113 -0.4964 -0.6240
 7508SOL     OW34159   2.099   3.659   6.470  0.1437 -0.0889  0.0833
 7508SOL    HW134160   2.052   3.606   6.405 -0.1156 -0.2151  0.3703
 7508SOL    HW234161   2.035   3.654   6.541 -0.0484  0.6316 -0.0413
 7509SOL     OW34162   1.567   1.668  10.276  0.7441  0.6786  0.4279
 7509SOL    HW134163   1.640   1.717  10.240  0.4015  0.7336 -0.1776
 7509SOL    HW234164   1.563   1.706  10.364 -3.3672  2.1261 -0.4011
 7510SOL     OW34165   2.595   2.559  15.681  0.3025 -0.5331  0.5734
 7510SOL    HW134166   2.574   2.581  15.590 -2.2500  0.9502  1.5010
 7510SOL    HW234167   2.675   2.605  15.705 -0.6883  1.0321  0.8430
 7511SOL     OW34168   2.099   1.165   2.684  0.4567 -0.5170  0.0308
 7511SOL    HW134169   2.159   1.201   2.750 -0.9402 -0.8840  1.5097
 7511SOL    HW234170   2.134   1.080   2.656  0.9709  0.1981 -1.4870
 7512SOL     OW34171   0.126   0.624   8.688 -0.2679  0.1735  0.2699
 7512SOL    HW134172   0.088   0.547   8.731 -1.5978  0.6268 -0.0882
 7512SOL    HW234173   0.177   0.661   8.760 -0.7957  1.0444  0.1996
 7513SOL     OW34174   4.131   0.398   2.565  0.3803  0.4283  0.2034
 7513SOL    HW134175   4.060   0.334   2.559 -0.7118  1.8613 -2.1626
 7513SOL    HW234176   4.160   0.394   2.474 -1.9199 -0.4790 -0.4955
 7514SOL     OW34177   2.646   4.666  13.361  0.3110 -0.1276 -0.6662
 7514SOL    HW134178   2.655   4.658  13.266 -1.4185 -2.0756 -0.6817
 7514SOL    HW234179   2.732   4.635  13.388  0.1556  0.5540  0.6267
 7515SOL     OW34180   4.129   2.257   7.882 -0.4367 -0.3360  0.0483
 7515SOL    HW134181   4.156   2.324   7.819  1.6322  0.1763  1.4719
 7515SOL    HW234182   4.078   2.306   7.947 -0.2094  0.8970 -0.6954
 7516SOL     OW34183   2.825   2.764   2.615 -0.1664 -0.1431  0.0398
 7516SOL    HW134184   2.823   2.812   2.532  3.2032 -0.6365 -0.3268
 7516SOL    HW234185   2.879   2.687   2.598  2.5126  1.0716  2.9489
 7517SOL     OW34186   2.422   0.926  14.935  0.5380  0.1622 -0.1590
 7517SOL    HW134187   2.424   1.014  14.973  3.1468  0.9251 -2.1233
 7517SOL    HW234188   2.369   0.945  14.858  1.7176  1.4687 -0.6348
 7518SOL     OW34189   3.035   0.076   2.232  0.0176  0.0311 -0.1448
 7518SOL    HW134190   3.058   0.149   2.174 -2.9170  1.0436 -0.0328
 7518SOL    HW234191   3.058   0.112   2.318 -0.4168 -1.2270  0.4972
 7519SOL     OW34192   1.439   0.775   1.780  0.6967 -0.6338 -0.1098
 7519SOL    HW134193   1.509   0.722   1.740  0.7982 -1.5796  1.3090
 7519SOL    HW234194   1.427   0.734   1.866  2.0851 -1.5331 -0.3370
 7520SOL     OW34195   2.574   1.379   9.219  0.6158  0.2885  0.2433
 7520SOL    HW134196   2.638   1.434   9.173 -0.9741 -0.5182 -2.9516
 7520SOL    HW234197   2.534   1.453   9.264  0.4047 -0.2603  0.9568
 7521SOL     OW34198   3.530   0.126   2.128  0.2838  0.5122 -0.1505
 7521SOL    HW134199   3.545   0.079   2.047  0.5845  1.0834 -0.4241
 7521SOL    HW234200   3.462   0.079   2.178  0.1881 -1.0701 -1.8057
 7522SOL     OW34201   2.519   4.056   3.719  0.0971  0.1134 -0.4221
 7522SOL    HW134202   2.463   4.077   3.794 -2.3642 -1.2827 -1.8848
 7522SOL    HW234203   2.528   3.961   3.727 -2.5321 -0.2265 -1.5769
 7523SOL     OW34204   4.113   2.216  11.537 -0.7144  0.0154  0.0834
 7523SOL    HW134205   4.160   2.283  11.586 -0.4073 -0.6133  0.6456
 7523SOL    HW234206   4.145   2.139  11.583 -3.3268 -0.7426  0.6649
 7524SOL     OW34207   3.680   0.132   4.456 -0.4697 -0.3582 -0.2387
 7524SOL    HW134208   3.598   0.083   4.453 -0.1418 -0.9017 -0.3105
 7524SOL    HW234209   3.712   0.103   4.371  0.8997 -0.9704  0.4754
 7525SOL     OW34210   1.176   0.830   7.973 -0.3347 -0.3563 -0.0572
 7525SOL    HW134211   1.124   0.879   7.909  1.0032  1.9371  0.6138
 7525SOL    HW234212   1.108   0.770   8.006 -1.1293  1.4545  1.6071
 7526SOL     OW34213   4.598   3.294   2.092 -0.2995  0.4136 -0.2047
 7526SOL    HW134214   4.594   3.380   2.135  1.0950  1.4999 -2.2621
 7526SOL    HW234215   4.506   3.298   2.067 -0.6729  1.2821  1.2896
 7527SOL     OW34216   1.258   2.535  16.092 -0.3469  0.2065  0.0259
 7527SOL    HW134217   1.257   2.469  16.161  2.0594 -2.2428 -2.3189
 7527SOL    HW234218   1.167   2.553  16.067  0.3539  0.5149 -2.2802
 7528SOL     OW34219   4.084   4.681   3.970  0.1960 -0.1177  0.6408
 7528SOL    HW134220   4.010   4.736   3.945  0.0017  0.0616  1.6187
 7528SOL    HW234221   4.151   0.011   3.966 -1.5523  1.4070 -3.3446
 7529SOL     OW34222   2.524   1.053   2.194 -0.3545 -0.3494  0.1133
 7529SOL    HW134223   2.519   1.149   2.195  2.0355 -0.2204  0.9413
 7529SOL    HW234224   2.609   1.036   2.152  0.6957 -0.4421  2.2339
 7530SOL     OW34225   2.543   1.298   2.316 -0.3882 -0.2140  0.0430
 7530SOL    HW134226   2.592   1.374   2.348  2.1140 -1.6106 -0.4740
 7530SOL    HW234227   2.505   1.347   2.243 -0.5537  0.3495  0.5038
 7531SOL     OW34228   1.574   1.438   4.714 -0.2080  0.2297 -0.4217
 7531SOL    HW134229   1.658   1.407   4.746 -0.7788 -0.8095  0.0704
 7531SOL    HW234230   1.523   1.360   4.736  1.5909 -0.2375  2.0678
 7532SOL     OW34231   3.344   0.836   3.581  0.1681 -0.0795  0.0396
 7532SOL    HW134232   3.252   0.861   3.594 -0.2069  0.1449 -2.9836
 7532SOL    HW234233   3.370   0.860   3.670 -0.3875 -2.5210  0.8847
 7533SOL     OW34234   0.567   2.050  17.669 -0.2689  0.7639  0.4141
 7533SOL    HW134235   0.606   2.105  17.737  1.4625 -0.5173  0.4416
 7533SOL    HW234236   0.639   2.038  17.607 -0.0337 -3.3166  1.4519
 7534SOL     OW34237   2.496   0.570   1.999  0.3422 -0.2216 -0.5247
 7534SOL    HW134238   2.470   0.522   2.077  1.1933  0.5783  0.2628
 7534SOL    HW234239   2.466   0.507   1.934 -2.8800 -0.2683  1.0227
 7535SOL     OW34240   1.351   1.655   9.279  0.1119 -0.5316  0.5259
 7535SOL    HW134241   1.375   1.708   9.355  1.6781 -1.7653  0.8883
 7535SOL    HW234242   1.270   1.621   9.317  1.5553 -0.6109  3.5469
 7536SOL     OW34243   1.106   0.889   8.478 -0.2801 -0.0884 -0.2530
 7536SOL    HW134244   1.015   0.919   8.488 -0.6185 -2.1727  2.8925
 7536SOL    HW234245   1.143   0.931   8.555 -2.3825  1.3916 -0.0421
 7537SOL     OW34246   1.448   1.311  17.086 -0.8290 -0.1051 -0.2968
 7537SOL    HW134247   1.514   1.264  17.034  0.7236  2.5966 -0.7686
 7537SOL    HW234248   1.438   1.400  17.053  1.5965 -0.1340 -1.0917
 7538SOL     OW34249   3.397   4.427  15.325 -0.0461 -0.1270 -0.2972
 7538SOL    HW134250   3.314   4.461  15.360 -0.9744 -1.8813 -0.7792
 7538SOL    HW234251   3.386   4.462  15.236  2.9068  2.1622  0.2442
 7539SOL     OW34252   4.307   1.952   4.366  0.0646 -0.2885 -0.0748
 7539SOL    HW134253   4.251   2.013   4.415 -1.4620  1.3760 -3.9237
 7539SOL    HW234254   4.395   1.968   4.399  0.1408 -2.1861  0.6540
 7540SOL     OW34255   2.877   1.731   3.420 -0.2521 -0.0321  0.0014
 7540SOL    HW134256   2.834   1.648   3.438 -1.3770  0.0817 -2.1387
 7540SOL    HW234257   2.946   1.707   3.359 -2.4707 -0.9061 -2.1315
 7541SOL     OW34258   2.950   1.134  15.024  0.1157 -0.1075 -0.3250
 7541SOL    HW134259   3.001   1.067  14.978  0.0908 -1.3644  1.4794
 7541SOL    HW234260   3.003   1.214  15.016  1.3486 -0.8791  0.0577
 7542SOL     OW34261   2.805   0.983   6.737 -0.1311  0.2617  0.4853
 7542SOL    HW134262   2.748   1.045   6.691 -3.1794 -1.2302  2.2867
 7542SOL    HW234263   2.781   1.000   6.828 -0.5864 -1.4785  0.6836
 7543SOL     OW34264   2.742   2.477   5.832 -0.1662 -0.5534  0.1092
 7543SOL    HW134265   2.681   2.442   5.898  0.7015 -0.5130  0.9374
 7543SOL    HW234266   2.762   2.559   5.877  0.6331 -0.8644  0.3180
 7544SOL     OW34267   0.238   0.050   8.800 -0.4472 -0.0140 -0.1652
 7544SOL    HW134268   0.255   4.696   8.825 -2.2079 -0.3001 -0.0158
 7544SOL    HW234269   0.329   0.080   8.808  0.0268 -0.8958 -2.4969
 7545SOL     OW34270   1.785   2.242   1.921 -0.1066  0.1203 -0.2532
 7545SOL    HW134271   1.765   2.160   1.967  0.7366 -0.2664 -0.5716
 7545SOL    HW234272   1.834   2.281   1.993  0.3346 -0.5841 -0.1728
 7546SOL     OW34273   3.834   4.275   4.983  0.1219 -0.9166  0.4118
 7546SOL    HW134274   3.901   4.239   4.924 -0.8944 -3.0545  0.5513
 7546SOL    HW234275   3.788   4.192   4.999 -1.2473 -0.1214  0.5916
 7547SOL     OW34276   0.209   1.737  12.061  0.2020 -0.4135  0.0922
 7547SOL    HW134277   0.196   1.687  11.981  0.8112 -2.0394  0.9953
 7547SOL    HW234278   0.235   1.665  12.119  2.8120  0.3306 -0.1742
 7548SOL     OW34279   1.927   4.255   6.689 -0.4480  0.3873 -0.2394
 7548SOL    HW134280   1.957   4.277   6.777 -0.5788  1.9171 -0.5720
 7548SOL    HW234281   2.013   4.242   6.649 -0.2802  2.3754 -0.5003
 7549SOL     OW34282   4.064   0.788   6.150  0.1134  0.2895 -0.6709
 7549SOL    HW134283   4.094   0.716   6.095  0.8064  1.1283 -1.3946
 7549SOL    HW234284   3.971   0.792   6.128 -0.6567 -2.8977  2.1307
 7550SOL     OW34285   2.453   2.853   3.680 -0.4369 -1.1669 -0.3837
 7550SOL    HW134286   2.394   2.927   3.665 -0.0043 -0.3844  1.8162
 7550SOL    HW234287   2.524   2.896   3.726 -0.8549 -1.5205  0.5969
 7551SOL     OW34288   4.420   0.311   9.952 -0.2642 -0.0404 -0.3366
 7551SOL    HW134289   4.340   0.340   9.997 -0.5638 -2.1293  0.4720
 7551SOL    HW234290   4.397   0.321   9.859  0.5183  0.8633 -0.4280
 7552SOL     OW34291   2.633   0.247  10.700 -0.2245 -0.0008  0.1060
 7552SOL    HW134292   2.672   0.223  10.784  0.0239  0.0230 -0.0010
 7552SOL    HW234293   2.690   0.320  10.675 -0.1138  0.1641  0.8251
 7553SOL     OW34294   3.331   1.054   4.828  0.8837  0.1272  0.0779
 7553SOL    HW134295   3.297   1.124   4.772 -1.2287  0.0301  1.2260
 7553SOL    HW234296   3.387   1.004   4.768 -0.1881 -0.4931 -0.4020
 7554SOL     OW34297   3.652   1.153   1.421  0.4805  0.1162 -0.0678
 7554SOL    HW134298   3.683   1.124   1.335  0.1599 -1.3240  0.3094
 7554SOL    HW234299   3.689   1.079   1.468 -1.6307  0.6014  2.3270
 7555SOL     OW34300   4.632   4.359   8.206 -0.0889 -0.0058 -0.1999
 7555SOL    HW134301   4.617   4.289   8.269  1.5117  0.4744  0.7123
 7555SOL    HW234302   4.547   4.373   8.165 -0.1195 -1.3178 -0.5842
 7556SOL     OW34303   2.059   4.013   7.445 -0.3127 -0.0996 -0.3539
 7556SOL    HW134304   2.072   4.093   7.394 -0.9518 -0.5585 -1.2277
 7556SOL    HW234305   2.148   3.993   7.475 -0.8031 -1.6407  0.0375
 7557SOL     OW34306   3.032   3.524   6.510  0.2328  0.5033  0.4994
 7557SOL    HW134307   3.096   3.550   6.444  1.7817 -2.7022  0.7559
 7557SOL    HW234308   2.962   3.590   6.506  0.3616  0.7126  1.7124
 7558SOL     OW34309   0.604   3.069   4.842 -0.2584  0.7362  0.3845
 7558SOL    HW134310   0.534   3.028   4.791 -1.5138  3.0895  0.2372
 7558SOL    HW234311   0.639   3.124   4.772  0.9806 -0.6280 -0.0623
 7559SOL     OW34312   1.934   2.485  15.627 -1.1374 -0.2712 -0.1086
 7559SOL    HW134313   1.927   2.551  15.696  0.4529  0.8528 -1.0185
 7559SOL    HW234314   2.006   2.526  15.579 -0.2794 -1.6997 -0.0638
 7560SOL     OW34315   0.902   3.078   5.565 -0.1799 -0.1422  0.3639
 7560SOL    HW134316   0.983   3.126   5.581 -0.1091  0.1246 -0.7883
 7560SOL    HW234317   0.874   3.119   5.483  0.5090 -0.6323 -0.1113
 7561SOL     OW34318   0.877   2.079   1.431 -0.0915 -0.2080 -0.3477
 7561SOL    HW134319   0.963   2.089   1.473 -0.6797  0.1253  0.7836
 7561SOL    HW234320   0.832   2.072   1.516 -1.3518 -2.7443 -1.2224
 7562SOL     OW34321   1.768   1.629   4.941 -0.0461  0.0282  0.9651
 7562SOL    HW134322   1.841   1.683   4.910  1.2191 -1.8381  0.6946
 7562SOL    HW234323   1.816   1.568   4.997  0.2093 -0.2641  0.4343
 7563SOL     OW34324   3.688   2.101   4.630 -0.0836 -0.6293 -0.0230
 7563SOL    HW134325   3.778   2.100   4.599 -1.1452 -1.4001 -3.0202
 7563SOL    HW234326   3.694   2.021   4.683 -0.7903  1.0728  2.6146
 7564SOL     OW34327   1.336   3.842   6.188  0.0836 -0.3004  0.4913
 7564SOL    HW134328   1.275   3.769   6.198 -2.3461  1.9704  2.2296
 7564SOL    HW234329   1.366   3.855   6.277 -2.2455  0.1390  1.2218
 7565SOL     OW34330   3.828   1.481  15.517 -0.3249 -0.1305 -0.5705
 7565SOL    HW134331   3.842   1.504  15.608 -1.8817 -0.4524 -0.2590
 7565SOL    HW234332   3.807   1.566  15.478 -1.8252  0.5930  1.8452
 7566SOL     OW34333   3.532   2.357   1.124  0.8953 -0.2118  0.0518
 7566SOL    HW134334   3.529   2.387   1.034  0.1559 -2.9160 -0.8164
 7566SOL    HW234335   3.579   2.424   1.174 -0.7079  0.4895  0.6111
 7567SOL     OW34336   0.551   3.687   8.266  0.1713  0.1791  0.0237
 7567SOL    HW134337   0.577   3.715   8.353 -1.1256  0.1300  0.4200
 7567SOL    HW234338   0.636   3.683   8.222 -0.1340  0.3918 -0.5942
 7568SOL     OW34339   1.539   3.613   6.323 -0.5735 -0.1132  0.4701
 7568SOL    HW134340   1.612   3.671   6.341  1.7163 -2.2328 -2.0502
 7568SOL    HW234341   1.554   3.593   6.230  2.0677 -0.1350  0.9183
 7569SOL     OW34342   3.393   4.268  14.614  0.2895  0.1621 -0.0973
 7569SOL    HW134343   3.299   4.269  14.630  0.3513 -0.0291  0.2794
 7569SOL    HW234344   3.434   4.292  14.698  1.5537 -1.4392 -0.2373
 7570SOL     OW34345   3.140   2.997   6.872 -0.0073 -0.2707  0.3526
 7570SOL    HW134346   3.180   3.058   6.934  0.4850  0.8787 -1.0950
 7570SOL    HW234347   3.207   2.929   6.873  0.4873  0.2486  2.3898
 7571SOL     OW34348   0.143   2.928  17.690 -0.1980 -0.0363 -0.6079
 7571SOL    HW134349   0.189   2.977   0.013 -0.2391  1.6873 -1.8058
 7571SOL    HW234350   0.136   3.002  17.630  1.1207 -2.4489 -3.7227
 7572SOL     OW34351   0.895   1.359  13.401 -0.1991  0.5216  0.6716
 7572SOL    HW134352   0.918   1.382  13.491  2.7733  0.2546 -0.0055
 7572SOL    HW234353   0.892   1.263  13.405  0.6520  0.4791  0.3589
 7573SOL     OW34354   1.974   0.307   1.540  0.3467 -0.3586  0.2079
 7573SOL    HW134355   1.958   0.401   1.542  0.5723 -0.3384  1.3680
 7573SOL    HW234356   1.952   0.273   1.627 -3.1407  1.6861  0.1137
 7574SOL     OW34357   1.423   4.611   2.336  0.5449  0.0363  0.3156
 7574SOL    HW134358   1.460   4.610   2.248  0.8722  1.4172  0.4407
 7574SOL    HW234359   1.392   4.701   2.341  0.7220  0.0968  0.3104
 7575SOL     OW34360   3.980   0.569   2.182 -0.3091  0.3250 -0.1623
 7575SOL    HW134361   3.897   0.606   2.210 -0.6296 -0.2860 -0.3198
 7575SOL    HW234362   3.971   0.518   2.101  0.1633  0.8492 -0.5514
 7576SOL     OW34363   4.627   4.592   1.285 -0.0320 -0.1877  0.0319
 7576SOL    HW134364   4.536   4.565   1.298 -0.3784  1.3954  0.8563
 7576SOL    HW234365   4.674   4.508   1.286 -1.0027 -0.7139  2.0546
 7577SOL     OW34366   3.496   0.189   5.716 -0.1947 -0.2676 -0.2028
 7577SOL    HW134367   3.438   0.227   5.783  0.4316 -2.2936  1.5012
 7577SOL    HW234368   3.429   0.172   5.649  1.0837 -0.4332 -1.4209
 7578SOL     OW34369   0.055   4.284  14.173 -0.0771 -0.0039  0.8308
 7578SOL    HW134370   0.087   4.326  14.253  0.4085  0.8015  0.2166
 7578SOL    HW234371   0.066   4.192  14.195  1.7100 -0.3415 -1.5342
 7579SOL     OW34372   1.934   2.698  13.199 -0.5645 -0.1743 -0.1795
 7579SOL    HW134373   2.029   2.687  13.194 -0.0577  3.7750  0.6681
 7579SOL    HW234374   1.923   2.760  13.127 -1.0146 -1.4304 -1.1999
 7580SOL     OW34375   3.495   3.783   8.527 -0.2502 -0.1295  0.2831
 7580SOL    HW134376   3.506   3.690   8.548  1.9964 -0.2720 -1.3846
 7580SOL    HW234377   3.481   3.817   8.615 -0.1994 -2.4988  1.2004
 7581SOL     OW34378   2.558   3.441   2.529  0.0124  0.5540 -0.0753
 7581SOL    HW134379   2.483   3.384   2.543 -0.0012  0.4655 -0.5137
 7581SOL    HW234380   2.555   3.494   2.609 -1.4369 -0.0662  0.2853
 7582SOL     OW34381   3.394   2.877   3.894  0.8393  0.6511  0.2237
 7582SOL    HW134382   3.422   2.821   3.967  2.9889 -0.7478 -1.6785
 7582SOL    HW234383   3.299   2.861   3.902  1.0640 -1.4750 -1.2456
 7583SOL     OW34384   2.155   3.040   1.801 -0.2006  0.4013 -0.0955
 7583SOL    HW134385   2.188   3.027   1.890 -1.5255  0.3036  0.3934
 7583SOL    HW234386   2.234   3.074   1.760 -0.5542 -0.5749 -1.5889
 7584SOL     OW34387   3.091   2.741   4.964  0.1466 -0.2018 -0.3752
 7584SOL    HW134388   3.010   2.741   4.912  0.4753  2.6028 -0.8868
 7584SOL    HW234389   3.146   2.808   4.923 -0.4784 -0.1394 -1.1287
 7585SOL     OW34390   2.347   0.393   7.820 -0.0947 -0.4579  0.3015
 7585SOL    HW134391   2.397   0.340   7.882  3.1441  1.1557 -0.8896
 7585SOL    HW234392   2.272   0.413   7.875  0.8202  2.4615  0.5196
 7586SOL     OW34393   0.535   4.636   5.676  0.1516  0.1787  0.2444
 7586SOL    HW134394   0.529   4.648   5.581  1.3049  1.6024  0.3511
 7586SOL    HW234395   0.615   4.585   5.686 -1.2913 -2.3805 -1.0750
 7587SOL     OW34396   3.766   1.338  11.577  0.1176  0.1770  0.6871
 7587SOL    HW134397   3.801   1.313  11.492 -2.1201 -0.0116 -0.1706
 7587SOL    HW234398   3.782   1.251  11.615 -0.5456  0.3768  1.4227
 7588SOL     OW34399   0.410   3.508  15.450  0.3140 -0.1012  0.0759
 7588SOL    HW134400   0.353   3.540  15.519 -3.0513 -0.8120 -2.4015
 7588SOL    HW234401   0.370   3.422  15.436  1.3470 -0.8909  1.8783
 7589SOL     OW34402   4.401   0.952   2.943  0.4187  0.5763 -0.5990
 7589SOL    HW134403   4.358   0.906   2.871  0.1249 -0.1048  0.0224
 7589SOL    HW234404   4.464   1.011   2.900  0.7836 -0.4204 -1.4431
 7590SOL     OW34405   0.665   1.967   4.123 -0.2988 -0.6179  0.4759
 7590SOL    HW134406   0.651   1.874   4.138 -0.0356 -0.8470 -0.7179
 7590SOL    HW234407   0.591   1.996   4.070 -0.4442 -0.0721  0.9672
 7591SOL     OW34408   2.609   1.288   2.689 -0.2989  0.2249  0.6317
 7591SOL    HW134409   2.637   1.359   2.632 -0.2041  0.4431  0.9504
 7591SOL    HW234410   2.674   1.296   2.759  1.5064  0.0795 -1.0643
 7592SOL     OW34411   0.839   0.366   5.406 -0.3653  0.0694  0.5051
 7592SOL    HW134412   0.760   0.401   5.447 -0.8391 -1.5831  0.9865
 7592SOL    HW234413   0.902   0.430   5.441 -0.5008  0.0192  0.8425
 7593SOL     OW34414   2.058   1.621   3.850 -0.1144  0.4820  0.0264
 7593SOL    HW134415   1.988   1.682   3.828  0.1350  1.0108  0.7028
 7593SOL    HW234416   2.119   1.634   3.777  1.2181  0.1846  1.0877
 7594SOL     OW34417   0.305   0.108  16.956 -0.6527 -0.1199 -0.7500
 7594SOL    HW134418   0.215   0.112  16.923 -0.2850 -0.6559 -1.7979
 7594SOL    HW234419   0.295   0.145  17.044 -0.6836  1.0517 -1.2402
 7595SOL     OW34420   1.608   1.072   1.627 -0.3829 -0.1525 -0.0404
 7595SOL    HW134421   1.589   1.040   1.539 -0.6412  2.7642 -1.0752
 7595SOL    HW234422   1.639   0.987   1.657  1.3974 -0.1640 -1.9687
 7596SOL     OW34423   3.125   1.565   8.253  0.6023  0.5332  0.3301
 7596SOL    HW134424   3.177   1.587   8.177 -0.0324 -2.3900 -0.9504
 7596SOL    HW234425   3.085   1.650   8.273  1.3248  0.7715  0.7434
 7597SOL     OW34426   2.409   4.730   4.974  0.3029 -0.0167 -0.6571
 7597SOL    HW134427   2.368   4.645   4.993  0.5769  0.0898  0.3802
 7597SOL    HW234428   2.344   0.050   5.016  0.5291 -1.0766  1.0831
 7598SOL     OW34429   3.322   0.674  15.933  0.2906  0.9248 -0.0258
 7598SOL    HW134430   3.252   0.664  15.868  0.2866 -0.0048  0.1339
 7598SOL    HW234431   3.273   0.689  16.015 -1.0585  1.7552 -0.9718
 7599SOL     OW34432   4.599   0.621   7.259 -0.0441 -0.0870  0.3096
 7599SOL    HW134433   4.523   0.678   7.269  0.4320  0.9460 -2.1298
 7599SOL    HW234434   4.655   0.690   7.224 -1.6713  0.2181 -1.7228
 7600SOL     OW34435   1.857   1.227   9.475 -0.4141  0.2618  0.4404
 7600SOL    HW134436   1.887   1.317   9.471 -1.4332  0.5491 -0.9117
 7600SOL    HW234437   1.920   1.193   9.411 -1.5650 -0.5739 -0.2825
 7601SOL     OW34438   1.516   3.117  16.486 -0.0374 -0.4596  0.1560
 7601SOL    HW134439   1.586   3.052  16.494 -0.2535 -0.5638  1.2439
 7601SOL    HW234440   1.509   3.125  16.391 -0.3831 -1.3844  0.0990
 7602SOL     OW34441   3.994   0.789   6.993 -0.5183  0.0389 -0.2901
 7602SOL    HW134442   3.986   0.731   7.069  3.1220  0.7288  0.5952
 7602SOL    HW234443   4.015   0.726   6.925 -1.7965 -2.6199  1.7786
 7603SOL     OW34444   1.992   3.615   1.275 -0.3729 -0.3374 -0.1350
 7603SOL    HW134445   1.897   3.621   1.264 -0.6744 -1.5836  1.8007
 7603SOL    HW234446   2.023   3.592   1.188  0.9943  1.2051 -0.0448
 7604SOL     OW34447   3.124   2.301   0.187  0.5531  0.7033 -0.1536
 7604SOL    HW134448   3.110   2.394   0.201  0.8915  1.0477 -2.0814
 7604SOL    HW234449   3.106   2.303   0.093 -1.1118  4.1068  0.2769
 7605SOL     OW34450   0.627   0.216  12.914  0.8721  0.2293  0.5362
 7605SOL    HW134451   0.676   0.155  12.859  1.4256  0.8267  0.3643
 7605SOL    HW234452   0.630   0.296  12.861 -0.7207 -0.1173 -0.0772
 7606SOL     OW34453   1.848   2.922   1.916  0.0817 -0.4965  0.2999
 7606SOL    HW134454   1.922   2.888   1.866 -0.6926 -0.0525 -1.1567
 7606SOL    HW234455   1.883   3.006   1.946  0.4963 -1.2568  1.8772
 7607SOL     OW34456   0.196   1.930   0.309  0.3848  0.0834  0.4689
 7607SOL    HW134457   0.256   1.859   0.330 -1.5388 -1.9482 -0.9175
 7607SOL    HW234458   0.173   1.967   0.395 -0.3743  0.5780  0.0523
 7608SOL     OW34459   2.704   2.642   8.002  0.3765 -0.4317  0.4079
 7608SOL    HW134460   2.704   2.737   8.009 -0.2787 -0.1936 -2.9313
 7608SOL    HW234461   2.793   2.613   8.022  1.2093  2.0402  0.2174
 7609SOL     OW34462   1.530   3.860   6.740  0.2417 -0.3460 -0.1947
 7609SOL    HW134463   1.454   3.917   6.727  0.8071  0.2426 -0.9061
 7609SOL    HW234464   1.594   3.918   6.698 -0.9109  1.1233  0.0639
 7610SOL     OW34465   1.144   1.966   3.816 -0.8951  0.0113  0.6310
 7610SOL    HW134466   1.056   1.930   3.809 -1.8493  2.0711  2.0436
 7610SOL    HW234467   1.157   2.006   3.902  1.1609 -0.5113  0.5578
 7611SOL     OW34468   0.682   4.376   5.116 -0.1626 -0.5379  0.6290
 7611SOL    HW134469   0.670   4.426   5.035 -1.6359 -2.5035 -0.3356
 7611SOL    HW234470   0.689   4.449   5.178  0.1110  0.4719 -0.5839
 7612SOL     OW34471   3.711   3.782  17.395  0.5189 -0.0043  0.7917
 7612SOL    HW134472   3.756   3.753  17.475  1.2918 -2.2833 -0.4691
 7612SOL    HW234473   3.783   3.780  17.332 -2.0070  3.0718 -2.1898
 7613SOL     OW34474   1.815   1.296   4.850  0.2657  0.2567 -0.1997
 7613SOL    HW134475   1.851   1.253   4.928 -1.1086  0.8528  0.7646
 7613SOL    HW234476   1.896   1.336   4.819  0.1195  0.5364 -0.2257
 7614SOL     OW34477   0.975   2.184   5.763  0.1586  0.2123  0.1346
 7614SOL    HW134478   0.888   2.193   5.726 -0.0299  0.4529  0.6477
 7614SOL    HW234479   1.017   2.214   5.682  0.1014 -0.9359 -0.3228
 7615SOL     OW34480   3.307   4.320  14.120  0.1906 -0.2964  0.4721
 7615SOL    HW134481   3.283   4.394  14.064  0.8439  0.2989  0.9913
 7615SOL    HW234482   3.318   4.244  14.063  1.2253  0.7211 -0.6873
 7616SOL     OW34483   0.339   2.088   2.353 -0.5625  0.3756 -0.4879
 7616SOL    HW134484   0.246   2.103   2.335 -0.7972  0.2742  0.6255
 7616SOL    HW234485   0.338   2.047   2.439 -0.3868 -1.6560 -1.4351
 7617SOL     OW34486   2.571   3.787   2.392  0.6220 -0.2686 -0.2758
 7617SOL    HW134487   2.645   3.762   2.447  0.6646  0.8351  0.1651
 7617SOL    HW234488   2.614   3.788   2.306  2.0727 -0.9331  0.4405
 7618SOL     OW34489   2.152   2.740   3.722 -0.2860 -0.0335  0.3879
 7618SOL    HW134490   2.127   2.759   3.632  0.1109 -0.0553  0.2734
 7618SOL    HW234491   2.203   2.818   3.743  0.4941 -0.7401  1.0959
 7619SOL     OW34492   3.192   3.895   3.800  0.0758 -0.8396 -0.5374
 7619SOL    HW134493   3.263   3.869   3.742  1.6152 -1.5820  1.6586
 7619SOL    HW234494   3.244   3.937   3.869 -1.2461 -1.2355  0.7133
 7620SOL     OW34495   2.407   4.467  14.702  0.4639 -0.0211  0.4932
 7620SOL    HW134496   2.391   4.373  14.718  1.6135 -0.1992  0.5845
 7620SOL    HW234497   2.337   4.512  14.750  0.1706 -0.7931  0.7997
 7621SOL     OW34498   3.953   1.188  16.179  0.4844 -0.3362  0.6255
 7621SOL    HW134499   3.896   1.143  16.117  0.2377  0.2951  0.3983
 7621SOL    HW234500   3.924   1.146  16.260  1.1608  0.0940  1.0902
 7622SOL     OW34501   1.409   2.593   4.312  0.1592 -0.2730  0.3334
 7622SOL    HW134502   1.423   2.611   4.405 -3.0405  2.2907  0.3486
 7622SOL    HW234503   1.361   2.510   4.319  0.3319 -0.4417 -0.4929
 7623SOL     OW34504   2.437   3.490   8.237  0.2444 -0.3791  0.2964
 7623SOL    HW134505   2.510   3.463   8.293  0.4017  0.0008  0.2783
 7623SOL    HW234506   2.410   3.566   8.288 -0.1341 -0.4168  0.1517
 7624SOL     OW34507   4.370   2.732   4.891  0.0969  0.3047  0.2161
 7624SOL    HW134508   4.326   2.721   4.807  0.9265 -0.2723 -0.1358
 7624SOL    HW234509   4.370   2.642   4.925  1.9920  0.2620  0.0725
 7625SOL     OW34510   3.070   2.476   1.041  0.4660 -0.2050 -0.2701
 7625SOL    HW134511   3.102   2.503   1.127 -0.6413 -0.7536  0.3130
 7625SOL    HW234512   3.147   2.432   1.006  0.4726  0.8309 -1.5437
 7626SOL     OW34513   0.778   0.098   5.658 -0.0335 -0.5444 -0.5498
 7626SOL    HW134514   0.723   0.176   5.660  1.0452  0.2294 -0.9513
 7626SOL    HW234515   0.714   0.028   5.645 -3.1566  2.3470 -0.9760
 7627SOL     OW34516   1.686   3.697  16.754  0.6839 -0.1633 -0.5698
 7627SOL    HW134517   1.775   3.708  16.790 -0.1959  0.6988  1.3351
 7627SOL    HW234518   1.672   3.784  16.717 -0.4604 -0.8939 -1.8597
 7628SOL     OW34519   3.780   2.410  16.011 -0.2178 -0.0954  0.1529
 7628SOL    HW134520   3.772   2.330  16.064  0.0171 -0.0735  0.2199
 7628SOL    HW234521   3.864   2.441  16.044 -0.8970  0.6325  1.1927
 7629SOL     OW34522   0.969   4.509   3.868  0.1346 -0.0637 -0.3719
 7629SOL    HW134523   1.017   4.461   3.936 -2.2535  0.2546  1.5371
 7629SOL    HW234524   0.882   4.507   3.908  0.0497  2.2042 -0.4549
 7630SOL     OW34525   0.488   3.683  14.517 -0.6302 -0.3991 -0.1129
 7630SOL    HW134526   0.518   3.644  14.435 -1.6697 -0.1977 -0.5834
 7630SOL    HW234527   0.395   3.689  14.496 -0.2653  0.5981 -1.4434
 7631SOL     OW34528   1.102   4.365   0.427 -0.2631 -0.0025  0.2573
 7631SOL    HW134529   1.082   4.458   0.421 -0.1196 -0.0444 -1.0064
 7631SOL    HW234530   1.019   4.334   0.463 -1.7026 -0.4020 -3.3664
 7632SOL     OW34531   2.095   2.221   6.380 -0.3797 -0.2976 -0.0637
 7632SOL    HW134532   2.113   2.315   6.372 -1.2228 -0.1847 -0.7351
 7632SOL    HW234533   2.169   2.180   6.335  0.9709  2.0658 -0.0025
 7633SOL     OW34534   3.694   3.205  14.939  0.0800 -0.2272  0.5596
 7633SOL    HW134535   3.720   3.141  15.006 -0.5913 -0.6704  0.3993
 7633SOL    HW234536   3.757   3.277  14.950  1.2539 -1.1788  0.0327
 7634SOL     OW34537   4.186   0.886   5.735 -0.2719  0.4112  0.0766
 7634SOL    HW134538   4.258   0.825   5.747  0.2105  0.9797  0.1089
 7634SOL    HW234539   4.233   0.969   5.745  2.5261 -1.3408  1.3535
 7635SOL     OW34540   0.129   2.026   7.629 -0.0806 -0.0743  0.0188
 7635SOL    HW134541   0.109   2.076   7.708  1.4740  2.5437 -1.2603
 7635SOL    HW234542   0.177   1.949   7.658 -0.1656 -0.1935 -0.1541
 7636SOL     OW34543   2.254   1.010   6.821  0.1025  0.6566 -0.3676
 7636SOL    HW134544   2.195   0.956   6.873 -0.1176  0.6117 -0.6576
 7636SOL    HW234545   2.223   0.994   6.732 -1.2332 -0.9825  0.3945
 7637SOL     OW34546   2.006   3.125   2.043  0.2810  0.2524  0.0576
 7637SOL    HW134547   2.060   3.199   2.017 -0.3350  0.9865  0.8966
 7637SOL    HW234548   1.930   3.169   2.079  0.9142  1.2412  0.1737
 7638SOL     OW34549   0.417   1.337  15.429  0.1009 -0.5036  0.6409
 7638SOL    HW134550   0.400   1.358  15.521  1.0023  2.5536  0.1306
 7638SOL    HW234551   0.390   1.245  15.428  1.0316 -0.7791  0.6977
 7639SOL     OW34552   4.536   2.302   5.718  0.0049 -0.4248  0.1422
 7639SOL    HW134553   4.472   2.279   5.785  0.9570 -2.4911  0.3396
 7639SOL    HW234554   4.610   2.271   5.769  0.0339  0.6251  0.7379
 7640SOL     OW34555   2.190   0.673   6.319  0.3949 -0.2000 -0.8334
 7640SOL    HW134556   2.236   0.666   6.403  3.7480  2.3689 -2.4652
 7640SOL    HW234557   2.256   0.636   6.262  0.9380 -1.2337  0.4616
 7641SOL     OW34558   4.463   1.693   3.611 -0.2443 -0.8715 -0.7069
 7641SOL    HW134559   4.436   1.718   3.699 -0.7147 -2.5197 -0.3727
 7641SOL    HW234560   4.551   1.730   3.610 -0.7795  0.4538  1.8553
 7642SOL     OW34561   1.990   1.512   6.340  1.4226 -0.3593  0.2632
 7642SOL    HW134562   2.062   1.484   6.282  0.5657  1.1476 -1.5332
 7642SOL    HW234563   1.930   1.439   6.323  1.6736  0.1104 -2.6145
 7643SOL     OW34564   3.966   2.726   2.263 -0.3015  0.0798 -0.3039
 7643SOL    HW134565   3.956   2.821   2.269 -0.5436  0.0392 -0.0537
 7643SOL    HW234566   3.974   2.717   2.168  0.9559  0.3074 -0.2079
 7644SOL     OW34567   1.830   2.297   3.456 -0.2255 -0.3803  0.1533
 7644SOL    HW134568   1.781   2.319   3.534 -0.2474 -2.5293  0.7551
 7644SOL    HW234569   1.911   2.273   3.502  0.8823  2.1123 -0.4926
 7645SOL     OW34570   1.224   4.268   2.868  0.2967 -0.2622  0.5285
 7645SOL    HW134571   1.221   4.245   2.960  0.7084 -1.1190  0.3291
 7645SOL    HW234572   1.285   4.341   2.868 -1.0540  0.8756 -0.3716
 7646SOL     OW34573   4.362   2.715   1.247  0.6153  1.1029 -0.2365
 7646SOL    HW134574   4.391   2.746   1.161 -0.8833  3.0224 -0.0580
 7646SOL    HW234575   4.372   2.621   1.234 -0.9666  0.6258  1.9804
 7647SOL     OW34576   2.778   2.329   2.203 -0.5833 -0.1627  0.7604
 7647SOL    HW134577   2.813   2.377   2.278  1.0527 -1.3796  0.7622
 7647SOL    HW234578   2.850   2.272   2.176 -0.2251  0.1845  0.9975
 7648SOL     OW34579   3.352   1.314   2.979 -0.1245 -0.3271  0.3558
 7648SOL    HW134580   3.349   1.286   2.887  0.8352 -2.6953  1.0460
 7648SOL    HW234581   3.383   1.231   3.015 -0.7166 -1.0745 -0.8469
 7649SOL     OW34582   3.164   2.479  13.080 -0.0322  0.2962  0.4355
 7649SOL    HW134583   3.124   2.461  12.994  3.7057  0.1664 -1.2740
 7649SOL    HW234584   3.110   2.428  13.140 -2.6870  2.6875  0.0683
 7650SOL     OW34585   3.048   2.003   5.332 -0.1817 -0.3693 -0.1554
 7650SOL    HW134586   3.111   1.986   5.262 -0.9462 -2.7893 -0.2556
 7650SOL    HW234587   3.029   1.914   5.363  0.2607 -0.3658  0.1350
 7651SOL     OW34588   1.933   3.621   8.926  0.2800  0.1819  0.0312
 7651SOL    HW134589   2.011   3.579   8.890 -1.6879  0.6286 -4.8270
 7651SOL    HW234590   1.870   3.549   8.921  0.0320  0.3748  0.3587
 7652SOL     OW34591   2.873   0.311   2.324  0.1694 -0.2351  0.1513
 7652SOL    HW134592   2.904   0.401   2.318  0.6252 -0.4855 -1.1028
 7652SOL    HW234593   2.951   0.266   2.356 -0.2109 -1.1348 -0.1925
 7653SOL     OW34594   1.587   4.436   4.526 -0.4040  0.1904  0.1883
 7653SOL    HW134595   1.543   4.375   4.585  3.3620 -0.3219  2.4609
 7653SOL    HW234596   1.574   4.518   4.573  1.0293  0.2788  0.4410
 7654SOL     OW34597   2.995   4.617  17.591  0.6589  0.9417 -0.2824
 7654SOL    HW134598   3.000   4.631  17.497  0.6167 -2.0677 -0.7435
 7654SOL    HW234599   2.922   4.557  17.604  0.1536  1.6736  0.2523
 7655SOL     OW34600   1.039   2.035   6.838 -1.0982 -0.0088 -0.3201
 7655SOL    HW134601   0.987   1.979   6.781  1.6222 -1.0003 -1.8569
 7655SOL    HW234602   1.127   2.020   6.804 -1.6544 -0.8289 -1.3864
 7656SOL     OW34603   3.191   0.022   5.012 -0.2430  0.0193 -0.3757
 7656SOL    HW134604   3.218   0.047   5.100 -2.1013 -2.3869  0.9026
 7656SOL    HW234605   3.144   4.676   5.029 -1.0785  0.0056 -2.8113
 7657SOL     OW34606   2.859   0.667   6.175 -0.2127 -0.1499  0.5208
 7657SOL    HW134607   2.868   0.762   6.165 -0.0190 -0.2155  0.0612
 7657SOL    HW234608   2.941   0.646   6.221 -1.3644  0.1741  2.7305
 7658SOL     OW34609   4.499   4.430   4.312  0.5971  0.4292  0.1189
 7658SOL    HW134610   4.577   4.450   4.260 -1.6329  0.5116 -3.2174
 7658SOL    HW234611   4.527   4.345   4.346  0.6311  0.5140  0.3004
 7659SOL     OW34612   4.060   1.883   1.742 -0.3657 -0.2342  0.1990
 7659SOL    HW134613   4.056   1.795   1.705  1.4201 -0.4220  0.4502
 7659SOL    HW234614   4.096   1.861   1.827  3.3071  0.2071 -1.2153
 7660SOL     OW34615   3.790   3.684   4.144  0.2186  0.7542 -0.0602
 7660SOL    HW134616   3.869   3.712   4.099  0.5489  0.1874  0.1700
 7660SOL    HW234617   3.755   3.611   4.093 -0.1168 -0.7355  2.3106
 7661SOL     OW34618   2.411   1.241   1.903 -0.6283  0.4948 -0.3816
 7661SOL    HW134619   2.504   1.234   1.885 -0.7553  2.6147 -1.7923
 7661SOL    HW234620   2.390   1.155   1.867  1.7844 -0.4213  0.4405
 7662SOL     OW34621   1.544   3.398  15.065  0.2230 -0.5602  0.3140
 7662SOL    HW134622   1.485   3.392  15.140 -1.3467  1.0863 -0.7796
 7662SOL    HW234623   1.478   3.395  14.996 -1.1328 -1.6033  1.6568
 7663SOL     OW34624   2.222   4.350   5.512 -0.3032 -0.0768 -0.0372
 7663SOL    HW134625   2.176   4.358   5.596  2.8954  3.2391  1.3776
 7663SOL    HW234626   2.239   4.256   5.522  2.2878  0.3657 -0.3044
 7664SOL     OW34627   1.346   3.788   3.755 -0.0822  0.0918  0.1494
 7664SOL    HW134628   1.391   3.809   3.673  2.5056 -1.0336  1.2787
 7664SOL    HW234629   1.266   3.749   3.718  0.8112 -0.9717 -0.6695
 7665SOL     OW34630   3.138   3.566   4.194  0.0006 -0.2639 -0.0202
 7665SOL    HW134631   3.180   3.490   4.154 -1.6470 -1.3038  0.2140
 7665SOL    HW234632   3.196   3.572   4.270  2.3947  2.6731 -2.0586
 7666SOL     OW34633   4.156   2.897   3.848  0.4152 -0.3888 -0.2288
 7666SOL    HW134634   4.208   2.838   3.904  1.2129  1.0780  0.5602
 7666SOL    HW234635   4.160   2.857   3.761 -0.6795  0.4267 -0.6494
 7667SOL     OW34636   3.450   2.332   0.135  0.0415  0.2104  0.2888
 7667SOL    HW134637   3.524   2.351   0.194 -0.6428  3.1183  0.2351
 7667SOL    HW234638   3.381   2.327   0.201 -0.6329 -1.2570 -0.5550
 7668SOL     OW34639   2.074   4.396   5.790 -1.0005 -0.5221  0.6643
 7668SOL    HW134640   1.992   4.445   5.785  0.6982  2.3516  1.0910
 7668SOL    HW234641   2.119   4.448   5.857 -0.8025  0.2711 -0.0834
 7669SOL     OW34642   3.576   0.167   5.995 -0.3858  0.6203 -0.4793
 7669SOL    HW134643   3.519   0.090   5.985  2.0253 -1.2372  0.0828
 7669SOL    HW234644   3.611   0.162   5.906 -1.3230 -1.1314 -0.7561
 7670SOL     OW34645   2.264   0.970   2.530  0.8245 -0.8158  0.0557
 7670SOL    HW134646   2.331   1.036   2.545 -0.4018  0.3794  0.1894
 7670SOL    HW234647   2.301   0.943   2.446  1.0798 -3.9537  1.1545
 7671SOL     OW34648   3.963   1.492  14.575 -0.2582 -0.1210 -0.3963
 7671SOL    HW134649   3.999   1.429  14.638  0.6126  0.1000 -0.6680
 7671SOL    HW234650   3.885   1.447  14.544 -0.6702  1.7065 -2.0000
 7672SOL     OW34651   1.918   0.399   5.075  0.3676  0.0980  0.1686
 7672SOL    HW134652   1.945   0.369   4.988  1.1028  2.1281 -0.3038
 7672SOL    HW234653   1.994   0.385   5.132  1.3581 -1.1191 -1.4122
 7673SOL     OW34654   2.107   3.772   2.524 -0.0949 -0.1701  0.4255
 7673SOL    HW134655   2.033   3.733   2.571  0.4511 -1.0812  0.5446
 7673SOL    HW234656   2.179   3.763   2.587  2.0617  1.1154 -1.8865
 7674SOL     OW34657   1.847   4.218   3.119 -0.0024  0.1617 -0.4236
 7674SOL    HW134658   1.756   4.237   3.097  0.1448  1.0483 -0.2701
 7674SOL    HW234659   1.858   4.127   3.092  1.0320  0.3206 -0.5088
 7675SOL     OW34660   1.847   2.498   5.691 -0.1198  0.6054 -0.0134
 7675SOL    HW134661   1.755   2.478   5.708 -0.3628 -1.2006 -3.6439
 7675SOL    HW234662   1.839   2.525   5.600  3.5580 -0.1530 -0.5448
 7676SOL     OW34663   2.966   4.122   8.447  0.0653 -0.3048  0.4241
 7676SOL    HW134664   3.057   4.095   8.447 -0.0685 -0.7431  1.5192
 7676SOL    HW234665   2.915   4.053   8.405  0.1399 -0.2601  0.2563
 7677SOL     OW34666   3.748   3.515   1.891 -0.0003  0.3627  0.0095
 7677SOL    HW134667   3.700   3.516   1.974 -0.3458  0.1646 -0.1873
 7677SOL    HW234668   3.679   3.547   1.833 -1.7440 -1.0759  1.2967
 7678SOL     OW34669   1.662   0.769   3.816  0.1859  0.2653  0.5870
 7678SOL    HW134670   1.655   0.684   3.773 -0.4272  0.5862  0.0460
 7678SOL    HW234671   1.756   0.774   3.799  0.2635 -1.6626  0.4957
 7679SOL     OW34672   2.397   3.352   7.038 -1.0099  0.1630 -0.6288
 7679SOL    HW134673   2.432   3.387   7.119 -0.0076 -2.2956 -0.0339
 7679SOL    HW234674   2.399   3.430   6.981 -0.0107  0.5819 -0.0160
 7680SOL     OW34675   1.349   2.378   3.245  0.2956 -0.0148 -0.0273
 7680SOL    HW134676   1.442   2.396   3.257  0.8706 -2.1709 -1.3038
 7680SOL    HW234677   1.334   2.415   3.158 -1.0721 -1.7424 -0.5346
 7681SOL     OW34678   1.731   0.881   8.033  0.6697 -1.0634 -0.0376
 7681SOL    HW134679   1.635   0.888   8.027  0.8830  1.5292 -0.3120
 7681SOL    HW234680   1.752   0.833   7.953 -0.5384 -1.2758 -0.2304
 7682SOL     OW34681   3.974   0.703  11.903  0.6428  0.2552  0.6497
 7682SOL    HW134682   4.064   0.674  11.889 -0.5649 -2.5088 -1.3340
 7682SOL    HW234683   3.924   0.648  11.843  0.1715  0.9600  0.3919
 7683SOL     OW34684   1.809   4.715   2.272 -0.0733  0.0596 -0.0450
 7683SOL    HW134685   1.785   4.625   2.252 -0.1699  0.1217 -0.2109
 7683SOL    HW234686   1.882   4.699   2.332 -0.5948 -2.8097 -0.2200
 7684SOL     OW34687   4.530   1.304   0.382 -0.2800  0.8527 -0.3541
 7684SOL    HW134688   4.591   1.377   0.376 -1.8204  2.1066 -0.7647
 7684SOL    HW234689   4.446   1.350   0.377 -1.3804 -1.2735 -1.5552
 7685SOL     OW34690   4.632   0.348   1.839 -1.0656 -0.4893 -0.1073
 7685SOL    HW134691   4.661   0.272   1.787  0.2526  0.2294 -0.4257
 7685SOL    HW234692   4.658   0.422   1.784 -0.7308 -1.4444 -1.2323
 7686SOL     OW34693   3.926   3.200   7.081  0.3393  0.2116  0.0718
 7686SOL    HW134694   3.938   3.177   7.173 -1.7829 -2.2613 -0.2778
 7686SOL    HW234695   3.892   3.289   7.084 -1.0376 -0.2373 -2.5035
 7687SOL     OW34696   1.440   3.607   7.233 -0.2424 -0.0624 -0.0471
 7687SOL    HW134697   1.473   3.523   7.266 -0.9808 -0.4275 -0.2408
 7687SOL    HW234698   1.369   3.614   7.297 -0.5930  0.6315 -0.5147
 7688SOL     OW34699   1.749   0.495   6.596  0.3760 -0.3166 -0.5742
 7688SOL    HW134700   1.800   0.499   6.677 -1.4296  0.3596  0.5205
 7688SOL    HW234701   1.780   0.570   6.545  0.2129 -0.4699 -0.8944
 7689SOL     OW34702   3.223   3.807  15.114  0.3067  0.1268 -0.3586
 7689SOL    HW134703   3.179   3.787  15.032 -1.5612  1.7954  0.2161
 7689SOL    HW234704   3.172   3.769  15.186  0.8673 -1.9147 -1.0582
 7690SOL     OW34705   0.539   0.620   3.353  0.0095  0.0853 -0.2557
 7690SOL    HW134706   0.460   0.655   3.313  0.6034 -0.2319 -1.6879
 7690SOL    HW234707   0.601   0.657   3.291 -0.5303 -1.0754 -1.4879
 7691SOL     OW34708   4.083   1.410  16.308 -0.4553  0.1203  0.0905
 7691SOL    HW134709   4.056   1.337  16.253 -0.8384  0.2725  0.0777
 7691SOL    HW234710   4.024   1.385  16.379 -0.2807 -0.7342 -0.0649
 7692SOL     OW34711   1.734   1.609   9.413 -0.4595  0.4923  0.1558
 7692SOL    HW134712   1.716   1.682   9.353  1.8264  2.7232  2.2054
 7692SOL    HW234713   1.655   1.608   9.467 -0.8887  1.6063 -0.4354
 7693SOL     OW34714   3.883   3.660   2.245 -0.0803 -0.3222  0.0497
 7693SOL    HW134715   3.882   3.566   2.258 -0.0517 -0.0750  1.8163
 7693SOL    HW234716   3.840   3.681   2.328  1.9486 -0.3336  1.1011
 7694SOL     OW34717   1.240   3.844   2.600 -0.1997  0.3885 -0.1660
 7694SOL    HW134718   1.271   3.920   2.649 -1.9700  0.1142  1.3755
 7694SOL    HW234719   1.187   3.802   2.668  0.5527 -0.3729 -0.0428
 7695SOL     OW34720   3.233   3.550   4.852  0.3173 -0.1958  0.0428
 7695SOL    HW134721   3.319   3.577   4.886  0.5098  0.1027 -0.6870
 7695SOL    HW234722   3.183   3.598   4.919  0.5242  1.7637 -1.2113
 7696SOL     OW34723   2.189   4.044   6.765  0.5859 -0.1586 -0.2094
 7696SOL    HW134724   2.276   4.081   6.756  0.4036  0.3915  0.2692
 7696SOL    HW234725   2.164   4.105   6.835  1.5490 -1.1584  1.0043
 7697SOL     OW34726   0.129   3.623   6.623 -0.0609  0.1468 -0.4525
 7697SOL    HW134727   0.210   3.598   6.580  0.5885  0.3718  0.6302
 7697SOL    HW234728   0.161   3.602   6.711 -0.4357  3.3948  0.4399
 7698SOL     OW34729   0.153   2.149   6.863 -0.2473 -0.2356  0.3937
 7698SOL    HW134730   0.211   2.143   6.939 -1.1586 -2.3694  0.9243
 7698SOL    HW234731   0.070   2.115   6.896  0.0589 -2.0439 -0.7292
 7699SOL     OW34732   0.422   0.612   7.978 -0.4535 -0.0937 -0.1428
 7699SOL    HW134733   0.361   0.652   8.041 -0.8762 -1.9909  0.6559
 7699SOL    HW234734   0.446   0.532   8.025 -0.6206  0.2397  0.5192
 7700SOL     OW34735   3.230   4.634   3.137  0.0800 -0.3707  0.3780
 7700SOL    HW134736   3.147   4.587   3.142 -1.3254  2.2644  1.7123
 7700SOL    HW234737   3.232   4.679   3.221 -0.5371  1.0812 -0.3689
 7701SOL     OW34738   1.716   1.228   7.167 -0.0986  0.4571 -0.0574
 7701SOL    HW134739   1.694   1.225   7.074 -0.2333 -3.5002  0.1016
 7701SOL    HW234740   1.631   1.233   7.209 -0.1462 -1.7461  0.1332
 7702SOL     OW34741   3.668   2.662   8.137  0.9928  1.1181 -0.0172
 7702SOL    HW134742   3.603   2.733   8.138  1.3970  1.4962 -0.6840
 7702SOL    HW234743   3.741   2.718   8.166  1.3042  1.1759 -0.9146
 7703SOL     OW34744   3.481   1.262  16.519 -0.1133  0.3235  0.3071
 7703SOL    HW134745   3.520   1.175  16.521  0.7010  0.6696 -0.3735
 7703SOL    HW234746   3.397   1.244  16.477 -0.6052 -0.2042  1.5384
 7704SOL     OW34747   4.200   0.115   6.569 -0.4048 -0.0319  0.2716
 7704SOL    HW134748   4.249   0.069   6.501  0.4897  0.4045  0.6332
 7704SOL    HW234749   4.130   0.052   6.587 -1.6686  0.8693 -1.5416
 7705SOL     OW34750   2.686   3.497   8.676  0.7444  0.5410  0.3579
 7705SOL    HW134751   2.604   3.476   8.720 -0.2347  2.4518 -0.5719
 7705SOL    HW234752   2.755   3.470   8.738  0.7612  3.8174  1.7562
 7706SOL     OW34753   4.502   0.353   3.055  0.1823  0.3298 -0.2088
 7706SOL    HW134754   4.573   0.321   3.000  0.1919  0.1769 -0.1068
 7706SOL    HW234755   4.492   0.446   3.038 -0.2848  0.3427  0.1083
 7707SOL     OW34756   3.964   3.510   3.691  0.2554  0.4749 -0.0988
 7707SOL    HW134757   3.934   3.466   3.771  2.2926 -0.9052 -0.0795
 7707SOL    HW234758   3.906   3.478   3.621  1.2592  0.5922 -0.9885
 7708SOL     OW34759   0.865   1.657  14.868 -0.1939  0.4730  0.3253
 7708SOL    HW134760   0.947   1.681  14.910 -0.1430  0.2100  0.3761
 7708SOL    HW234761   0.823   1.594  14.928  0.0327 -0.8072 -0.8826
 7709SOL     OW34762   2.755   2.321   1.695  0.1236 -0.0753  0.7298
 7709SOL    HW134763   2.809   2.242   1.692  0.3305  0.0166  1.9083
 7709SOL    HW234764   2.722   2.323   1.785  0.9467 -0.7252  1.0504
 7710SOL     OW34765   3.657   1.474   6.720  0.6507  0.4998  0.6970
 7710SOL    HW134766   3.640   1.380   6.732  2.7676  0.1650  1.1212
 7710SOL    HW234767   3.583   1.516   6.766 -2.2751 -2.1442 -1.5856
 7711SOL     OW34768   0.748   3.423  11.969 -0.5011  0.4693 -0.1805
 7711SOL    HW134769   0.802   3.491  12.010  0.6667  0.1563 -1.1940
 7711SOL    HW234770   0.780   3.429  11.879 -4.5340  0.1434 -1.6332
 7712SOL     OW34771   2.406   1.811   4.306 -0.2380  0.2317 -0.0192
 7712SOL    HW134772   2.322   1.766   4.299 -0.1596  0.2089 -0.7935
 7712SOL    HW234773   2.404   1.860   4.224  1.9294  0.2374 -0.0585
 7713SOL     OW34774   3.189   3.780   8.147 -0.4776  0.0562 -0.0540
 7713SOL    HW134775   3.096   3.799   8.162 -0.3146  0.1960  0.7826
 7713SOL    HW234776   3.186   3.748   8.057 -3.6606  1.9340 -0.6317
 7714SOL     OW34777   2.865   1.381   8.475 -0.1581 -0.2074  0.7451
 7714SOL    HW134778   2.805   1.455   8.483 -1.5151 -1.1828 -0.4467
 7714SOL    HW234779   2.818   1.314   8.524 -2.0941  2.7587  2.9017
 7715SOL     OW34780   3.124   0.074   1.399  0.6490  0.7246 -0.2360
 7715SOL    HW134781   3.061   0.111   1.461 -0.2786  0.3437 -0.9451
 7715SOL    HW234782   3.067   0.034   1.334  0.3001 -1.5218  1.4700
 7716SOL     OW34783   1.665   2.491  10.350 -1.0171  0.3884 -0.4831
 7716SOL    HW134784   1.636   2.434  10.279 -1.6348  1.9519 -1.4914
 7716SOL    HW234785   1.684   2.427  10.419  1.5542 -0.7395 -2.2774
 7717SOL     OW34786   2.895   3.616  11.095  0.0050 -0.8917 -0.5255
 7717SOL    HW134787   2.913   3.524  11.114 -1.1918 -0.9536  0.2500
 7717SOL    HW234788   2.813   3.620  11.143  0.6824 -0.4690  0.5837
 7718SOL     OW34789   2.273   3.384   5.561 -0.4724  0.5175  0.2956
 7718SOL    HW134790   2.313   3.409   5.645 -1.9702 -0.8559  1.4080
 7718SOL    HW234791   2.199   3.334   5.593 -0.2214  0.2615  0.4775
 7719SOL     OW34792   1.096   3.177   4.638  0.5605  0.9698 -0.2223
 7719SOL    HW134793   1.060   3.248   4.691  0.0854  1.0244 -0.6206
 7719SOL    HW234794   1.058   3.196   4.552 -1.8741 -0.2021  0.6261
 7720SOL     OW34795   1.993   4.253   2.439 -0.1410  0.1733  0.1177
 7720SOL    HW134796   1.917   4.195   2.433 -1.0816  1.3248  0.6895
 7720SOL    HW234797   2.044   4.208   2.506  0.7797 -0.5244 -1.0694
 7721SOL     OW34798   2.911   4.355   6.828 -0.3321 -0.5774 -0.0105
 7721SOL    HW134799   2.959   4.376   6.908 -0.9310  0.2539  0.1364
 7721SOL    HW234800   2.982   4.359   6.764 -1.1964  0.5629 -0.8934
 7722SOL     OW34801   2.618   4.063   2.597 -0.1786  0.0439 -0.5066
 7722SOL    HW134802   2.540   4.027   2.555  1.2658  0.7361 -3.7433
 7722SOL    HW234803   2.658   3.985   2.637 -2.1544  0.6424  2.6367
 7723SOL     OW34804   0.556   3.259   0.300  0.3046 -0.1443 -0.0637
 7723SOL    HW134805   0.598   3.307   0.371 -0.5732 -0.2737  0.5517
 7723SOL    HW234806   0.554   3.175   0.345 -2.2976 -0.6054 -0.9967
 7724SOL     OW34807   3.871   0.721   4.756  0.7310  0.0337  0.0508
 7724SOL    HW134808   3.847   0.793   4.814 -1.5441 -1.9790  1.5538
 7724SOL    HW234809   3.786   0.678   4.756  0.1194  1.2291  1.7342
 7725SOL     OW34810   0.551   3.818  16.558 -0.2850 -0.1231 -0.1779
 7725SOL    HW134811   0.546   3.854  16.647  0.9776  0.5642 -0.3730
 7725SOL    HW234812   0.620   3.752  16.563  0.0357  0.2357  0.1730
 7726SOL     OW34813   2.610   2.115   3.685  0.1131 -0.0358 -0.5310
 7726SOL    HW134814   2.670   2.064   3.738  0.5216  0.6710 -0.3133
 7726SOL    HW234815   2.523   2.095   3.720 -0.0362  0.3153 -0.6910
 7727SOL     OW34816   1.436   3.446   3.162  0.2774  0.0870 -0.2868
 7727SOL    HW134817   1.455   3.354   3.178  1.0007  0.6155  1.9571
 7727SOL    HW234818   1.345   3.460   3.188  0.3052 -1.2149  0.4602
 7728SOL     OW34819   0.628   1.397   5.251  0.3625 -0.4693  0.6594
 7728SOL    HW134820   0.675   1.473   5.285  1.0480  0.5308 -2.4843
 7728SOL    HW234821   0.575   1.377   5.328  0.0744  2.7082  1.2998
 7729SOL     OW34822   0.743   0.420   1.371 -0.0794  0.1350  0.0157
 7729SOL    HW134823   0.826   0.387   1.407 -1.0946 -2.8356 -0.3841
 7729SOL    HW234824   0.760   0.419   1.277 -1.2925  3.6568 -0.2362
 7730SOL     OW34825   2.712   0.838   7.714  0.3136  0.3953 -0.3759
 7730SOL    HW134826   2.734   0.827   7.621 -0.5298  0.1335 -0.5493
 7730SOL    HW234827   2.720   0.745   7.735  1.4923  0.7816  0.8688
 7731SOL     OW34828   3.892   3.163   7.585 -0.0886 -0.4659  1.1651
 7731SOL    HW134829   3.873   3.257   7.586  1.1050 -0.2045 -1.3804
 7731SOL    HW234830   3.821   3.128   7.640 -0.5961  0.8599  1.3464
 7732SOL     OW34831   4.299   4.174   0.795 -0.5690 -0.3531 -0.5273
 7732SOL    HW134832   4.375   4.230   0.779  0.3653 -1.1357  1.0397
 7732SOL    HW234833   4.232   4.214   0.740  1.6483  0.7124 -2.4451
 7733SOL     OW34834   1.702   0.025   8.336  0.4402 -0.0199  0.2887
 7733SOL    HW134835   1.687   4.672   8.365  2.0961 -0.2267  0.5059
 7733SOL    HW234836   1.756   0.065   8.404 -3.0308  2.4289  1.6167
 7734SOL     OW34837   2.372   1.156   4.629  0.0716 -0.3648  0.4201
 7734SOL    HW134838   2.296   1.124   4.678 -0.3866  0.0068 -0.0436
 7734SOL    HW234839   2.416   1.071   4.635 -0.4546 -0.6030  0.9606
 7735SOL     OW34840   0.514   3.379  14.954  0.9188 -0.0740  0.1328
 7735SOL    HW134841   0.517   3.429  14.873  3.6454  0.3365  0.5054
 7735SOL    HW234842   0.604   3.381  14.986  1.0764 -0.2746 -0.3066
 7736SOL     OW34843   0.155   4.178   5.456 -0.0897  0.5029 -0.1977
 7736SOL    HW134844   0.184   4.121   5.527  2.2447 -0.4532 -1.9312
 7736SOL    HW234845   0.182   4.261   5.495 -1.0997 -0.0660  1.7062
 7737SOL     OW34846   1.219   0.104   5.411  0.0309 -0.7654 -0.1195
 7737SOL    HW134847   1.203   0.083   5.503 -2.5999 -0.4139 -0.4905
 7737SOL    HW234848   1.133   0.107   5.369 -1.1646  0.2688  2.4052
 7738SOL     OW34849   3.985   0.847  12.184  0.0883 -0.0362 -0.2801
 7738SOL    HW134850   4.034   0.907  12.129 -2.0604  1.6677 -0.3543
 7738SOL    HW234851   3.984   0.775  12.122  3.4155 -0.6109  0.3642
 7739SOL     OW34852   2.754   3.959   3.528 -0.7856 -0.1385 -0.7539
 7739SOL    HW134853   2.686   4.010   3.570 -0.6573 -0.0223 -0.6881
 7739SOL    HW234854   2.798   3.910   3.598  0.1406  0.2510 -1.0678
 7740SOL     OW34855   4.286   0.530  15.615  0.2743 -0.0059 -0.2764
 7740SOL    HW134856   4.361   0.547  15.558 -0.3925  2.0868 -0.5078
 7740SOL    HW234857   4.340   0.492  15.685 -0.7064 -1.3562 -0.2745
 7741SOL     OW34858   4.721   2.694   7.546 -0.3987  0.1004  0.5314
 7741SOL    HW134859   0.012   2.779   7.580  1.5780 -0.9560  1.5370
 7741SOL    HW234860   4.706   2.717   7.454 -0.7399  0.4502  0.6701
 7742SOL     OW34861   4.410   1.667   7.211 -0.2023 -0.0936  0.0936
 7742SOL    HW134862   4.378   1.588   7.167 -2.3506  1.2814 -0.8748
 7742SOL    HW234863   4.500   1.644   7.232  0.8460  1.6946 -2.4302
 7743SOL     OW34864   3.414   2.572   2.246 -0.0228  0.0684 -0.3384
 7743SOL    HW134865   3.435   2.563   2.339  0.1388  1.2963 -0.2607
 7743SOL    HW234866   3.498   2.540   2.212  0.0216 -1.5207  1.2462
 7744SOL     OW34867   0.389   3.490   3.926  0.1918  0.2818 -0.4029
 7744SOL    HW134868   0.476   3.526   3.908  0.5680  0.1349  1.1304
 7744SOL    HW234869   0.383   3.507   4.020 -3.0862  0.2759 -0.6028
 7745SOL     OW34870   2.197   1.033   6.313  0.1524  0.0730  0.5071
 7745SOL    HW134871   2.284   1.003   6.340  0.1543  0.7087  1.2089
 7745SOL    HW234872   2.155   1.008   6.395 -0.8999 -1.3869 -0.4708
 7746SOL     OW34873   4.436   0.827   9.223  0.4034  0.1909  0.2637
 7746SOL    HW134874   4.345   0.805   9.200  1.1344 -2.9594  0.3182
 7746SOL    HW234875   4.433   0.803   9.316 -2.1506 -1.3151 -0.1892
 7747SOL     OW34876   0.607   4.461   2.066 -0.3403 -0.0004  0.3973
 7747SOL    HW134877   0.668   4.393   2.037  1.1797  1.0747  1.1294
 7747SOL    HW234878   0.554   4.479   1.988  1.7097  0.0404 -0.9872
 7748SOL     OW34879   1.936   2.913   4.618  0.0782 -0.2874  0.4665
 7748SOL    HW134880   1.955   2.894   4.710 -0.5814  0.3570  0.7440
 7748SOL    HW234881   2.022   2.941   4.588 -1.0419  2.6670  0.0247
 7749SOL     OW34882   0.852   4.203   6.774  0.3431 -0.0958  0.2439
 7749SOL    HW134883   0.913   4.130   6.763 -0.3742 -0.4635 -1.2775
 7749SOL    HW234884   0.857   4.206   6.870 -0.2047  1.5037  0.2195
 7750SOL     OW34885   1.628   0.215  15.310 -0.4718 -0.1040  0.0707
 7750SOL    HW134886   1.566   0.187  15.243 -0.2143 -0.1186 -0.1609
 7750SOL    HW234887   1.571   0.273  15.361 -0.7483 -0.5792  0.3087
 7751SOL     OW34888   4.490   2.904  15.051  0.1036 -0.2225 -0.6970
 7751SOL    HW134889   4.470   2.811  15.057  1.9887 -0.5569  0.2914
 7751SOL    HW234890   4.480   2.916  14.957 -3.6937 -0.7704 -0.3747
 7752SOL     OW34891   4.331   3.690  15.567  0.2021 -0.3114 -0.3265
 7752SOL    HW134892   4.420   3.677  15.600  0.4614  2.2071 -0.0325
 7752SOL    HW234893   4.350   3.722  15.478  0.3054 -0.5767 -0.4021
 7753SOL     OW34894   1.876   1.213  15.871 -0.8993  0.7235 -0.1098
 7753SOL    HW134895   1.849   1.171  15.789  2.2343  0.5494 -1.0491
 7753SOL    HW234896   1.834   1.296  15.850 -0.4195  1.1881  0.7838
 7754SOL     OW34897   2.260   2.920   7.094  0.2955  0.2948  0.3405
 7754SOL    HW134898   2.256   3.003   7.141 -1.7416  0.1664  0.4098
 7754SOL    HW234899   2.355   2.909   7.101  0.1258 -0.8586  0.8150
 7755SOL     OW34900   2.877   3.688   5.444 -0.2220 -0.4813 -0.0568
 7755SOL    HW134901   2.851   3.617   5.503  0.1426 -0.7261 -0.1921
 7755SOL    HW234902   2.913   3.743   5.513 -1.5976  0.1278  0.1912
 7756SOL     OW34903   2.217   1.043   3.186 -0.4814 -0.0626 -0.3936
 7756SOL    HW134904   2.171   1.124   3.164  0.7981  0.6674 -0.4076
 7756SOL    HW234905   2.158   0.981   3.144 -0.7438  0.1259 -0.3034
 7757SOL     OW34906   0.684   1.396   7.069  0.3736  0.0179 -0.3379
 7757SOL    HW134907   0.630   1.432   6.999  0.3342  0.7885  0.0946
 7757SOL    HW234908   0.765   1.374   7.023  0.3424  0.1089 -0.4365
 7758SOL     OW34909   0.549   3.064  16.027  0.2703 -0.0580 -0.0463
 7758SOL    HW134910   0.630   3.042  16.073 -0.4529  2.4637  2.4962
 7758SOL    HW234911   0.528   2.977  15.993 -3.0506  0.5647  0.3570
 7759SOL     OW34912   2.135   0.754  15.565  0.3332  0.3423  0.4771
 7759SOL    HW134913   2.105   0.761  15.656 -0.2120  0.9064  0.2559
 7759SOL    HW234914   2.091   0.672  15.543  1.7411 -0.0928 -0.7146
 7760SOL     OW34915   2.987   2.513   3.278  0.3944  0.4724 -0.0828
 7760SOL    HW134916   3.078   2.519   3.249  0.0817  1.7618 -0.7606
 7760SOL    HW234917   2.973   2.418   3.279  1.2462  0.3461 -0.0285
 7761SOL     OW34918   2.433   2.439  12.746 -0.2932 -0.3472  0.1419
 7761SOL    HW134919   2.482   2.481  12.817 -1.4134 -2.7153  2.2945
 7761SOL    HW234920   2.418   2.360  12.798 -1.8427  0.3074  0.6795
 7762SOL     OW34921   0.227   2.821   8.297 -0.3414  0.0742 -0.3820
 7762SOL    HW134922   0.317   2.847   8.280 -0.3757  0.3156 -0.1956
 7762SOL    HW234923   0.200   2.828   8.205  0.0337  0.9006 -0.4240
 7763SOL     OW34924   3.184   1.338   4.902 -0.0251  0.0397 -0.6475
 7763SOL    HW134925   3.143   1.338   4.988 -1.3723  0.0649 -1.2933
 7763SOL    HW234926   3.104   1.324   4.852  0.7687 -2.4022 -1.2358
 7764SOL     OW34927   3.868   4.723   2.563 -0.0446 -0.0178 -0.0061
 7764SOL    HW134928   3.773   4.725   2.551  0.2547 -0.0421 -2.3892
 7764SOL    HW234929   3.878   4.634   2.597 -0.3253 -0.6294 -1.5310
 7765SOL     OW34930   1.326   0.834  16.289  0.4146  0.0928  0.3416
 7765SOL    HW134931   1.285   0.835  16.375 -0.2953  0.1564  0.0016
 7765SOL    HW234932   1.413   0.852  16.325 -0.4092 -0.5475  2.6230
 7766SOL     OW34933   2.811   0.389  13.608 -0.1153  0.2822  0.1639
 7766SOL    HW134934   2.865   0.311  13.597  0.1386  0.3867  0.6719
 7766SOL    HW234935   2.875   0.460  13.606  0.4141 -0.2406 -1.6232
 7767SOL     OW34936   4.406   4.437   2.434  0.2582  0.3204 -0.0245
 7767SOL    HW134937   4.401   4.342   2.428 -0.6430  0.4894 -1.8344
 7767SOL    HW234938   4.470   4.463   2.369 -0.1339  0.2494 -0.4407
 7768SOL     OW34939   2.920   0.338   3.418  0.0426  0.2579 -0.2802
 7768SOL    HW134940   2.958   0.384   3.343  1.2109  0.2056  0.2838
 7768SOL    HW234941   2.993   0.359   3.477  1.1858 -1.9080 -0.9362
 7769SOL     OW34942   4.191   2.459   8.832  0.4352 -0.0870 -0.2315
 7769SOL    HW134943   4.205   2.544   8.791 -1.4235 -0.3635 -1.4239
 7769SOL    HW234944   4.249   2.464   8.909  0.1621  0.1559 -0.0440
 7770SOL     OW34945   1.638   4.622  13.039  0.2591 -0.1438 -0.2657
 7770SOL    HW134946   1.607   4.683  12.972 -3.1292 -0.8685  0.6624
 7770SOL    HW234947   1.695   4.678  13.091  1.8585 -0.9671 -1.1278
 7771SOL     OW34948   3.679   2.257   5.828 -0.8337  0.4651 -0.1435
 7771SOL    HW134949   3.645   2.346   5.825  1.2831  1.2824  0.1720
 7771SOL    HW234950   3.731   2.252   5.748 -0.2528 -0.6803  0.2963
 7772SOL     OW34951   3.190   3.346   5.775 -0.4736  0.1532 -0.1761
 7772SOL    HW134952   3.117   3.340   5.837  0.2546  0.9552  0.7704
 7772SOL    HW234953   3.143   3.327   5.694  1.1508  0.4900 -1.2016
 7773SOL     OW34954   1.496   1.967  14.916 -0.1205  0.1115  0.3112
 7773SOL    HW134955   1.588   1.986  14.897  0.6405 -1.1502  2.7091
 7773SOL    HW234956   1.465   1.960  14.826  2.2285 -0.4105 -0.4629
 7774SOL     OW34957   0.407   4.669   6.985 -0.8273 -0.2544  0.4205
 7774SOL    HW134958   0.379   4.697   6.898  0.2887  0.0877  0.1674
 7774SOL    HW234959   0.496   4.706   6.989 -0.9065 -0.3257  2.5186
 7775SOL     OW34960   3.760   0.795   6.313  0.3507 -0.3595 -0.3728
 7775SOL    HW134961   3.783   0.818   6.224  0.1193  1.0797 -0.0499
 7775SOL    HW234962   3.759   0.700   6.300  1.1063 -0.5127  0.7360
 7776SOL     OW34963   1.780   2.576   5.410  0.0864 -0.1829 -0.0776
 7776SOL    HW134964   1.750   2.665   5.428  0.1052 -0.1181 -0.3544
 7776SOL    HW234965   1.700   2.525   5.424 -0.3827  0.7477  0.6127
 7777SOL     OW34966   3.947   4.488   8.863  0.1284  0.4812  0.0948
 7777SOL    HW134967   3.963   4.429   8.790  1.3202 -1.4303  1.8775
 7777SOL    HW234968   4.005   4.453   8.931 -0.4537 -1.0061 -0.1876
 7778SOL     OW34969   1.388   0.534  14.449 -0.7198  0.5388  1.1348
 7778SOL    HW134970   1.363   0.441  14.443 -1.6879  1.0478 -2.4741
 7778SOL    HW234971   1.318   0.565  14.506 -0.5196  0.6512  1.3214
 7779SOL     OW34972   0.732   4.420   2.393 -0.1675  0.1207 -0.9989
 7779SOL    HW134973   0.676   4.360   2.343  2.2743 -1.2987 -2.0401
 7779SOL    HW234974   0.716   4.504   2.352  0.5499  0.6239 -0.2600
 7780SOL     OW34975   4.467   1.758   1.098 -0.6482 -0.6968 -0.4257
 7780SOL    HW134976   4.510   1.841   1.118  1.1066 -1.8266  0.5353
 7780SOL    HW234977   4.466   1.755   1.003 -1.1767 -1.8525 -0.3776
 7781SOL     OW34978   3.268   1.636   8.034 -0.0182 -0.3365  0.8527
 7781SOL    HW134979   3.309   1.679   7.959 -1.1544 -0.6737  0.0344
 7781SOL    HW234980   3.333   1.573   8.067  1.1271 -0.8372 -2.3776
 7782SOL     OW34981   4.370   2.090   0.570  0.2933 -1.2581  0.3975
 7782SOL    HW134982   4.346   2.022   0.506 -1.1709 -0.1744 -0.2145
 7782SOL    HW234983   4.326   2.058   0.649 -0.5379  0.7284  0.7365
 7783SOL     OW34984   2.327   4.453   4.993  0.1654  0.0010 -0.4291
 7783SOL    HW134985   2.338   4.408   5.077  1.3710  1.2498  0.0694
 7783SOL    HW234986   2.381   4.405   4.931  0.0578  0.6148 -1.0024
 7784SOL     OW34987   1.107   0.250   8.264  0.1657  0.3366  0.2632
 7784SOL    HW134988   1.073   0.339   8.256 -2.8711 -0.9654 -1.1549
 7784SOL    HW234989   1.142   0.248   8.353  1.0088  0.7636 -0.0491
 7785SOL     OW34990   2.331   0.577   6.107 -0.0827  0.1166  0.1446
 7785SOL    HW134991   2.261   0.523   6.069 -1.0959 -0.3881  2.7739
 7785SOL    HW234992   2.406   0.551   6.052 -0.5888  1.2883 -1.1043
 7786SOL     OW34993   4.604   3.097  17.257 -0.4536  0.8231  0.3681
 7786SOL    HW134994   4.614   3.146  17.175 -3.0800  0.6756 -0.0252
 7786SOL    HW234995   4.686   3.117  17.302 -0.5369 -2.6095  1.9587
 7787SOL     OW34996   2.533   2.893  17.420 -0.1608 -0.0497  0.5642
 7787SOL    HW134997   2.453   2.908  17.369 -0.5124 -0.7968  0.8841
 7787SOL    HW234998   2.604   2.930  17.369 -1.3842  2.3277  0.6016
 7788SOL     OW34999   1.782   2.702   7.533  0.1708  0.4465  0.1856
 7788SOL    HW135000   1.848   2.760   7.570  0.2530  0.4780 -0.0082
 7788SOL    HW235001   1.765   2.725   7.441  2.2877  0.2215 -0.2512
 7789SOL     OW35002   1.864   1.325   3.901  0.0371  0.0828  0.5787
 7789SOL    HW135003   1.806   1.350   3.829  0.5950 -1.5891 -0.4460
 7789SOL    HW235004   1.815   1.356   3.977 -1.3008 -2.0485  0.5764
 7790SOL     OW35005   1.315   0.460   4.806  0.0693 -0.4808 -0.3444
 7790SOL    HW135006   1.360   0.436   4.887 -0.0506 -1.5151 -0.5767
 7790SOL    HW235007   1.233   0.498   4.836 -0.2403 -0.9858 -0.5393
 7791SOL     OW35008   1.726   3.862   4.527  0.1338  0.1128 -0.1848
 7791SOL    HW135009   1.769   3.781   4.554  0.1971  0.4504  0.7050
 7791SOL    HW235010   1.635   3.838   4.548 -0.4610  2.0208 -0.5956
 7792SOL     OW35011   4.487   3.669  13.047 -0.4637 -0.0299  0.9401
 7792SOL    HW135012   4.438   3.658  13.128 -1.8341 -0.0637  0.1042
 7792SOL    HW235013   4.466   3.598  12.986  0.5333 -1.4738  2.3160
 7793SOL     OW35014   1.285   3.782  12.004 -0.0027 -0.1063 -0.5112
 7793SOL    HW135015   1.381   3.788  12.013 -0.3726  1.2521  2.4769
 7793SOL    HW235016   1.272   3.689  11.988  0.3947 -0.3576  0.5580
 7794SOL     OW35017   4.039   1.674   9.202 -0.3270 -0.4682  0.0397
 7794SOL    HW135018   4.026   1.740   9.270 -1.0475  0.2944 -0.8441
 7794SOL    HW235019   4.131   1.693   9.184 -0.0328 -0.9684  1.0187
 7795SOL     OW35020   1.355   0.306   4.571 -0.5431 -0.0357  0.2987
 7795SOL    HW135021   1.347   0.352   4.487  2.0446 -0.8455 -0.3809
 7795SOL    HW235022   1.323   0.372   4.632 -1.0242  0.1132 -0.1041
 7796SOL     OW35023   4.320   3.902   2.736  0.1447 -0.8592  0.6523
 7796SOL    HW135024   4.366   3.907   2.820  2.1078  2.4508 -0.6158
 7796SOL    HW235025   4.229   3.892   2.764 -0.2157 -0.9214 -0.5372
 7797SOL     OW35026   0.482   0.561  10.688  0.1874  0.3126  0.6961
 7797SOL    HW135027   0.398   0.590  10.722 -0.3567 -1.1768  0.6088
 7797SOL    HW235028   0.532   0.533  10.765 -2.9764  0.3555  2.7549
 7798SOL     OW35029   3.964   2.858  10.559 -0.2986  0.1278 -0.0702
 7798SOL    HW135030   3.902   2.785  10.548  0.3162 -0.9148  3.3751
 7798SOL    HW235031   3.993   2.875  10.469  1.9294  0.1056  0.6376
 7799SOL     OW35032   3.710   1.366   5.549 -0.1156 -0.6385 -0.0668
 7799SOL    HW135033   3.733   1.296   5.489  0.6612  0.1387 -0.6741
 7799SOL    HW235034   3.721   1.336   5.639  2.9411  0.4143 -0.0713
 7800SOL     OW35035   2.828   3.370   7.314 -0.3021 -0.0597 -0.1808
 7800SOL    HW135036   2.890   3.430   7.354 -0.5615  1.6738 -2.4072
 7800SOL    HW235037   2.776   3.435   7.267  1.1417  2.6621  2.0530
 7801SOL     OW35038   0.188   0.820   4.868  0.2043 -0.0721  0.8049
 7801SOL    HW135039   0.173   0.733   4.830  1.5140  0.9058 -1.8875
 7801SOL    HW235040   0.122   0.817   4.938  0.2752 -1.8892  0.8084
 7802SOL     OW35041   1.249   2.885  15.653  0.2932 -0.1521  0.0991
 7802SOL    HW135042   1.312   2.896  15.724 -0.2130 -0.7562  0.6351
 7802SOL    HW235043   1.175   2.941  15.677 -0.3176 -0.4565 -1.0683
 7803SOL     OW35044   2.219   3.636   5.424 -0.0862  0.1734 -0.4110
 7803SOL    HW135045   2.264   3.623   5.340 -1.2750  0.4624 -1.0940
 7803SOL    HW235046   2.229   3.553   5.472 -1.2129 -0.3571 -1.0943
 7804SOL     OW35047   2.287   0.877   5.216  0.1188 -0.3766 -0.0707
 7804SOL    HW135048   2.339   0.931   5.275  0.3076 -1.1973  0.4962
 7804SOL    HW235049   2.244   0.950   5.171  0.8887  0.8664  1.2145
 7805SOL     OW35050   0.486   3.280  12.862 -0.2471 -0.1428 -0.4303
 7805SOL    HW135051   0.534   3.317  12.789 -0.3898 -0.4271 -0.6705
 7805SOL    HW235052   0.558   3.231  12.903  0.1430  0.2376 -0.6690
 7806SOL     OW35053   2.504   4.673  14.362  0.4586  0.0351  0.6359
 7806SOL    HW135054   2.516   4.584  14.396  0.6593 -0.0449  0.3527
 7806SOL    HW235055   2.539   4.664  14.274  1.1021 -0.4465  0.9378
 7807SOL     OW35056   3.334   3.796   1.968 -0.6431 -0.1093 -0.2965
 7807SOL    HW135057   3.247   3.769   1.937 -1.3262  1.0658  0.6109
 7807SOL    HW235058   3.313   3.801   2.061  2.0105  1.6654  0.1760
 7808SOL     OW35059   3.854   0.499  13.473 -0.6973 -0.7158 -0.0590
 7808SOL    HW135060   3.776   0.446  13.455 -1.4493  0.6811 -0.9231
 7808SOL    HW235061   3.845   0.560  13.399 -0.6444 -1.6148 -0.8041
 7809SOL     OW35062   3.995   2.564  12.398 -0.6455 -0.5323 -0.5037
 7809SOL    HW135063   3.962   2.482  12.362 -1.1657 -1.0159  1.0815
 7809SOL    HW235064   3.978   2.546  12.490 -0.1740 -1.6782 -0.6399
 7810SOL     OW35065   4.415   4.729  13.619  0.5329  0.3638 -0.0591
 7810SOL    HW135066   4.334   0.029  13.583  0.7093 -1.2203 -2.0227
 7810SOL    HW235067   4.427   0.062  13.684 -0.0391  0.4265 -0.0182
 7811SOL     OW35068   1.536   3.640   4.348  0.0065  0.3547 -0.5326
 7811SOL    HW135069   1.611   3.583   4.361  0.7167  1.8744  2.0915
 7811SOL    HW235070   1.571   3.704   4.286 -0.8345  0.5899 -0.7695
 7812SOL     OW35071   1.205   1.238  13.775  0.7773  0.0170  0.7357
 7812SOL    HW135072   1.144   1.172  13.740  0.6836 -1.1800  3.1403
 7812SOL    HW235073   1.250   1.188  13.843  4.6897  0.7536 -1.2969
 7813SOL     OW35074   1.351   3.444   9.817  0.3560  0.4818 -0.0256
 7813SOL    HW135075   1.442   3.473   9.820 -0.7128  3.9860 -1.1026
 7813SOL    HW235076   1.354   3.387   9.893 -0.2681 -0.4401 -0.6971
 7814SOL     OW35077   4.412   3.570   6.244 -0.4485 -0.6187  0.4352
 7814SOL    HW135078   4.479   3.540   6.306 -0.0044 -1.6687 -0.5345
 7814SOL    HW235079   4.433   3.506   6.175  0.0447 -1.5403  1.4339
 7815SOL     OW35080   3.036   2.475   6.481  0.0158 -0.5726 -0.3138
 7815SOL    HW135081   3.048   2.549   6.422 -3.3017  0.5846  0.4438
 7815SOL    HW235082   3.076   2.501   6.563 -1.1548 -0.5822  0.2568
 7816SOL     OW35083   1.193   3.723   1.979  0.2155  0.0722 -0.4830
 7816SOL    HW135084   1.110   3.705   2.022  0.4333 -0.6099 -0.3469
 7816SOL    HW235085   1.165   3.766   1.898  0.8848  1.2766 -0.0775
 7817SOL     OW35086   0.299   4.157   4.928 -0.0104  0.2363  0.2148
 7817SOL    HW135087   0.324   4.065   4.934 -2.2439 -0.2995  1.4608
 7817SOL    HW235088   0.239   4.172   5.001 -0.3801  0.2570 -0.0895
 7818SOL     OW35089   2.590   3.948   2.053  0.0818 -0.4065 -0.6724
 7818SOL    HW135090   2.573   4.042   2.056 -0.1590 -0.4681 -0.1689
 7818SOL    HW235091   2.540   3.921   1.976 -0.6924  3.6789 -1.6206
 7819SOL     OW35092   2.881   3.538   6.837 -0.2027 -0.3703  0.1072
 7819SOL    HW135093   2.871   3.443   6.842  2.6262 -0.7463 -1.3718
 7819SOL    HW235094   2.835   3.555   6.755 -0.2477  1.3156  0.4723
 7820SOL     OW35095   1.657   1.820   2.476 -0.2970 -0.0443  0.8667
 7820SOL    HW135096   1.717   1.868   2.533 -1.6863  2.1928  0.4634
 7820SOL    HW235097   1.714   1.802   2.401 -1.3363 -2.3973  0.6369
 7821SOL     OW35098   1.326   0.405   7.757 -0.0903 -0.0779 -0.4982
 7821SOL    HW135099   1.311   0.411   7.851 -1.3680 -1.7247 -0.6017
 7821SOL    HW235100   1.241   0.418   7.716  0.0603  2.6890  0.0438
 7822SOL     OW35101   2.052   1.919   3.199  0.2283  0.2006  0.1229
 7822SOL    HW135102   1.983   1.985   3.209 -0.3209 -0.4740  0.7623
 7822SOL    HW235103   2.027   1.868   3.275  1.0451 -1.7767 -0.9420
 7823SOL     OW35104   3.324   4.212   0.562 -0.5580  0.1225  0.2125
 7823SOL    HW135105   3.343   4.298   0.601 -1.2803  0.6110 -0.5023
 7823SOL    HW235106   3.255   4.236   0.500  0.3252  0.1135 -0.7607
 7824SOL     OW35107   3.130   0.441   9.477  0.3630 -0.1880  0.0120
 7824SOL    HW135108   3.203   0.503   9.466  0.6244 -1.0309 -2.9188
 7824SOL    HW235109   3.095   0.469   9.562 -0.2471 -0.6531 -0.0863
 7825SOL     OW35110   3.303   3.620   3.536  0.0057  0.3904  0.4332
 7825SOL    HW135111   3.352   3.688   3.584  3.1805 -1.5245 -0.1004
 7825SOL    HW235112   3.211   3.645   3.541  0.2195  0.9458  1.6539
 7826SOL     OW35113   2.694   1.978   2.967  0.1087  0.0559  0.1738
 7826SOL    HW135114   2.766   1.941   3.018  1.6561  0.9167 -1.3665
 7826SOL    HW235115   2.619   1.942   3.013  0.3313  1.9887  2.0996
 7827SOL     OW35116   0.566   0.389  12.402  0.0538 -0.1745 -0.6751
 7827SOL    HW135117   0.592   0.400  12.494 -0.7985  0.7566 -0.5390
 7827SOL    HW235118   0.651   0.418  12.368  0.2462 -0.9037 -0.8053
 7828SOL     OW35119   0.298   0.872   8.664 -0.7058 -0.4954  0.2342
 7828SOL    HW135120   0.364   0.830   8.719 -0.2928  3.1428  2.4977
 7828SOL    HW235121   0.243   0.795   8.653  0.8769 -0.9880 -4.3367
 7829SOL     OW35122   3.252   2.328   7.567  0.2207 -0.1325 -0.4299
 7829SOL    HW135123   3.236   2.282   7.484  2.7502  0.2891 -1.1499
 7829SOL    HW235124   3.334   2.285   7.591  0.2929 -0.2319 -0.8528
 7830SOL     OW35125   0.742   4.230  12.401 -0.4112  0.3011  0.0459
 7830SOL    HW135126   0.809   4.196  12.343 -1.2890  2.4853 -2.2774
 7830SOL    HW235127   0.712   4.298  12.339 -1.4853 -0.6630 -0.4991
 7831SOL     OW35128   0.419   2.370   4.577  0.2892  0.6112 -0.0417
 7831SOL    HW135129   0.388   2.356   4.488 -4.2836 -2.9427  2.0832
 7831SOL    HW235130   0.494   2.425   4.553  0.5262  0.5852  0.6235
 7832SOL     OW35131   1.422   3.369   7.740  0.4425 -0.1053 -0.5570
 7832SOL    HW135132   1.494   3.432   7.745  0.7599 -0.6629  2.0268
 7832SOL    HW235133   1.447   3.319   7.662  0.3535 -0.4591 -0.3564
 7833SOL     OW35134   3.062   0.690   9.963  0.2843  0.2859 -0.1986
 7833SOL    HW135135   3.122   0.733  10.024 -1.6834  1.1481  1.1602
 7833SOL    HW235136   2.988   0.752   9.969 -0.9166 -1.3070  1.6191
 7834SOL     OW35137   0.707   2.420   8.723 -0.2375  0.5204 -0.2262
 7834SOL    HW135138   0.697   2.423   8.628  1.3836  0.7911 -0.3932
 7834SOL    HW235139   0.685   2.510   8.746  1.9178  0.3364  2.6326
 7835SOL     OW35140   3.212   0.600  10.270  0.1578  0.2086 -0.3233
 7835SOL    HW135141   3.118   0.598  10.290  0.1396  0.0735 -0.4237
 7835SOL    HW235142   3.221   0.681  10.221 -2.2711  0.7283  0.0747
 7836SOL     OW35143   1.837   1.193  16.125  0.8510  0.1852  0.3928
 7836SOL    HW135144   1.891   1.114  16.132  1.5801  0.6205 -0.3204
 7836SOL    HW235145   1.878   1.239  16.052  1.9974 -1.6919 -0.1309
 7837SOL     OW35146   4.115   0.089   4.690  0.2491 -0.3487  0.1026
 7837SOL    HW135147   4.103   0.183   4.678  0.9855 -0.3874 -0.9073
 7837SOL    HW235148   4.053   0.053   4.753  1.8629  0.0755  1.9597
 7838SOL     OW35149   1.837   0.856   8.553  0.7270  0.1907 -0.0354
 7838SOL    HW135150   1.835   0.840   8.459 -0.8009 -0.8887  0.1923
 7838SOL    HW235151   1.744   0.844   8.573  0.7727 -0.2551 -0.0847
 7839SOL     OW35152   3.771   1.877  17.027  0.0608 -0.3793 -0.4023
 7839SOL    HW135153   3.782   1.948  16.964  3.9636 -1.5861 -1.1253
 7839SOL    HW235154   3.833   1.811  16.995  0.2394 -1.2841  1.8206
 7840SOL     OW35155   3.247   1.494   7.405  0.0817 -0.2686 -0.1444
 7840SOL    HW135156   3.154   1.502   7.383  0.7203  0.2978 -2.6648
 7840SOL    HW235157   3.249   1.412   7.455 -0.3457  0.6524  1.3923
 7841SOL     OW35158   3.668   1.864  10.928  0.2879  0.0792  0.3659
 7841SOL    HW135159   3.701   1.898  10.844  0.7269  0.6688  0.7756
 7841SOL    HW235160   3.588   1.913  10.942 -0.5669 -1.3287  0.4129
 7842SOL     OW35161   1.157   1.720   6.331  0.0927  0.1286  0.2232
 7842SOL    HW135162   1.079   1.667   6.343 -0.3462  0.9355  0.8686
 7842SOL    HW235163   1.125   1.765   6.253  0.2342  0.5197  0.3928
 7843SOL     OW35164   2.528   3.417   0.536 -0.0999  0.3901  0.4172
 7843SOL    HW135165   2.474   3.478   0.586  0.6597  1.7228 -0.3917
 7843SOL    HW235166   2.474   3.383   0.464 -0.1638  1.5358 -0.0691
 7844SOL     OW35167   3.725   1.567   3.567  0.2968 -0.0170  0.5671
 7844SOL    HW135168   3.719   1.659   3.594  1.6380 -0.4540  2.3329
 7844SOL    HW235169   3.813   1.553   3.601  1.3030 -1.7643 -2.7460
 7845SOL     OW35170   2.697   3.876   9.488  0.0020 -0.4672  0.1784
 7845SOL    HW135171   2.692   3.795   9.538 -1.4987 -1.1862 -1.1425
 7845SOL    HW235172   2.680   3.945   9.552 -1.9390  0.4605 -1.3443
 7846SOL     OW35173   3.508   1.583   5.198 -0.0309  0.0081 -0.0450
 7846SOL    HW135174   3.468   1.512   5.148 -0.0145 -0.2716  0.3369
 7846SOL    HW235175   3.491   1.555   5.288 -0.1111  0.4892  0.0921
 7847SOL     OW35176   1.751   0.599   2.580  0.1198  0.0389  0.6066
 7847SOL    HW135177   1.689   0.534   2.612  0.5921 -0.2330  0.9668
 7847SOL    HW235178   1.794   0.626   2.661 -3.8013 -0.8967  2.9960
 7848SOL     OW35179   2.366   1.944  12.755  0.0598  0.1020 -0.0248
 7848SOL    HW135180   2.291   1.945  12.815  1.2239  1.6959  1.4200
 7848SOL    HW235181   2.427   1.885  12.800 -1.1992 -1.4820 -0.4155
 7849SOL     OW35182   2.582   0.019   2.307 -0.3836 -0.1429  0.2301
 7849SOL    HW135183   2.607   0.081   2.376  1.2065 -0.1136 -0.3746
 7849SOL    HW235184   2.615   4.671   2.337 -1.0859  0.2284  2.0402
 7850SOL     OW35185   3.019   1.728  10.636 -0.0008 -0.1527  0.6680
 7850SOL    HW135186   2.962   1.651  10.644 -2.2586  1.6431  2.0179
 7850SOL    HW235187   3.046   1.736  10.727  1.6527 -0.1594  0.1673
 7851SOL     OW35188   3.714   3.872   6.871 -0.4842  0.0511  0.7548
 7851SOL    HW135189   3.701   3.778   6.854  2.9201 -0.1454 -0.6962
 7851SOL    HW235190   3.780   3.890   6.804 -0.9209 -0.3402  0.2188
 7852SOL     OW35191   2.494   1.173  17.671 -0.6871 -0.1651 -0.8396
 7852SOL    HW135192   2.550   1.209  17.603  2.1268 -1.6528  0.7058
 7852SOL    HW235193   2.416   1.227  17.662 -0.0821  0.5860 -1.5213
 7853SOL     OW35194   4.294   1.566   1.824 -0.2864 -0.4197 -0.4793
 7853SOL    HW135195   4.372   1.529   1.865 -0.3037  0.4851  0.3991
 7853SOL    HW235196   4.325   1.612   1.746  0.4412 -1.2255 -0.6600
 7854SOL     OW35197   0.800   0.967   8.232  0.3052 -0.0522  0.3986
 7854SOL    HW135198   0.891   0.981   8.207 -1.0529  1.7087 -3.5586
 7854SOL    HW235199   0.801   0.941   8.324  1.6969  0.1058  0.4153
 7855SOL     OW35200   1.920   4.145  11.628 -0.5779  0.0356 -1.1350
 7855SOL    HW135201   1.938   4.116  11.718 -0.9212  1.0024 -0.7561
 7855SOL    HW235202   1.834   4.184  11.640 -1.0066 -0.8536 -1.2868
 7856SOL     OW35203   1.715   0.682   1.306 -0.0261  0.5111 -0.3695
 7856SOL    HW135204   1.705   0.769   1.266 -0.5622  0.6748  0.1163
 7856SOL    HW235205   1.682   0.625   1.237  0.1176  1.0775 -0.9073
 7857SOL     OW35206   2.737   1.317  17.237  0.1633  0.0251 -0.1008
 7857SOL    HW135207   2.748   1.406  17.203  2.1441  0.2046  1.0343
 7857SOL    HW235208   2.825   1.285  17.218  0.7505  0.6874  1.5789
 7858SOL     OW35209   2.489   0.060   4.711 -0.4671 -0.3689  0.4674
 7858SOL    HW135210   2.395   0.075   4.718 -0.0303  2.3073  0.5479
 7858SOL    HW235211   2.510   0.003   4.785  0.6953 -1.0050 -0.3481
 7859SOL     OW35212   0.799   3.338  13.094  0.1520 -0.6414  0.2442
 7859SOL    HW135213   0.722   3.352  13.149  0.4314  3.7961 -0.4715
 7859SOL    HW235214   0.858   3.399  13.139 -0.1220  0.3688 -0.7739
 7860SOL     OW35215   3.253   3.406  11.065  0.2294  0.7971  0.1634
 7860SOL    HW135216   3.160   3.383  11.067  0.1889  1.0381  1.1586
 7860SOL    HW235217   3.251   3.501  11.075 -0.4207  0.9876 -1.7500
 7861SOL     OW35218   3.364   1.843   4.859 -0.3874 -0.0736  0.0009
 7861SOL    HW135219   3.309   1.766   4.865  1.2778 -1.2580 -0.0610
 7861SOL    HW235220   3.340   1.897   4.784  1.5460 -0.1146 -0.6400
 7862SOL     OW35221   3.838   3.408   4.209 -0.0892  0.5222 -0.1951
 7862SOL    HW135222   3.929   3.388   4.189 -0.2831 -0.5841  0.0015
 7862SOL    HW235223   3.828   3.503   4.202  1.2577  0.7005  0.2615
 7863SOL     OW35224   0.644   1.580  17.302  0.6348 -0.9469 -0.3079
 7863SOL    HW135225   0.549   1.580  17.311  0.6754 -0.8462  0.1232
 7863SOL    HW235226   0.662   1.568  17.209  1.2183 -0.3252 -0.2749
 7864SOL     OW35227   0.951   1.039   8.853 -0.2164 -0.0146  0.3797
 7864SOL    HW135228   0.870   1.048   8.903 -1.5648 -0.0743 -1.7555
 7864SOL    HW235229   0.999   1.120   8.869 -2.1645  0.8780  1.6921
 7865SOL     OW35230   0.521   2.605   3.603  0.3091 -0.0740 -0.0003
 7865SOL    HW135231   0.467   2.674   3.640 -1.6385 -2.1051  0.9468
 7865SOL    HW235232   0.590   2.654   3.559 -0.6554  0.1049 -1.2941
 7866SOL     OW35233   3.327   1.434   4.367 -0.5188 -0.3160  0.7011
 7866SOL    HW135234   3.289   1.519   4.393  1.3688  0.2115  1.7521
 7866SOL    HW235235   3.319   1.388   4.451  2.2163 -1.5916  0.2465
 7867SOL     OW35236   0.834   2.202  17.244  0.1532 -0.2133  0.0467
 7867SOL    HW135237   0.859   2.292  17.224 -0.7380  0.0096 -0.0461
 7867SOL    HW235238   0.884   2.157  17.176  3.9051  0.7345  2.1462
 7868SOL     OW35239   4.397   4.388  16.530  0.5348 -0.1983 -0.4467
 7868SOL    HW135240   4.403   4.481  16.553  0.6910 -0.4499  0.5168
 7868SOL    HW235241   4.304   4.372  16.514 -0.1265  1.4142  1.7896
 7869SOL     OW35242   1.325   3.000   6.882 -0.0137 -0.1798 -0.4000
 7869SOL    HW135243   1.282   3.045   6.810 -0.0253  1.4298  0.6093
 7869SOL    HW235244   1.329   2.915   6.839 -0.2659  0.2466 -1.2638
 7870SOL     OW35245   3.001   0.011   5.283 -0.2709  0.3806 -0.3536
 7870SOL    HW135246   2.976   0.102   5.266 -4.0935 -0.9655 -1.9608
 7870SOL    HW235247   2.916   4.703   5.285 -0.0418 -0.0352  0.0794
 7871SOL     OW35248   3.809   3.374   8.821  0.0580 -0.7442 -0.1399
 7871SOL    HW135249   3.866   3.412   8.888 -0.2190 -1.1539  0.3249
 7871SOL    HW235250   3.881   3.346   8.764 -0.8004 -1.6537 -0.7657
 7872SOL     OW35251   1.139   1.724   2.470 -0.1704 -0.1455  0.2153
 7872SOL    HW135252   1.217   1.675   2.495  1.4924  1.4188 -1.8970
 7872SOL    HW235253   1.162   1.815   2.489  1.2372 -0.2433 -1.1040
 7873SOL     OW35254   0.239   3.058   3.001  0.6696  0.0859 -0.1261
 7873SOL    HW135255   0.197   3.124   3.055 -0.6856 -1.3488  0.5832
 7873SOL    HW235256   0.191   2.981   3.034  1.1836 -1.2567 -2.4880
 7874SOL     OW35257   0.550   1.735   0.170  0.4724 -0.1066 -1.4309
 7874SOL    HW135258   0.635   1.711   0.132  0.4886  0.4295 -1.7322
 7874SOL    HW235259   0.528   1.662   0.227  1.0933  2.2660  1.8131
 7875SOL     OW35260   3.928   1.624   8.129  0.3854  0.5470 -0.2243
 7875SOL    HW135261   3.955   1.560   8.064  1.2993  1.9772 -1.2654
 7875SOL    HW235262   3.920   1.711   8.089  2.2348  1.3947  1.1993
 7876SOL     OW35263   0.424   2.285   8.653  0.2592 -0.1695  0.4456
 7876SOL    HW135264   0.495   2.243   8.603  1.3521  1.8587  0.3067
 7876SOL    HW235265   0.373   2.315   8.577  0.4904 -2.8871 -0.8181
 7877SOL     OW35266   3.193   0.300  14.359 -0.3728 -0.0238  0.4688
 7877SOL    HW135267   3.150   0.380  14.329  1.5351 -0.3169 -3.0445
 7877SOL    HW235268   3.225   0.342  14.439 -0.3947  0.3015  0.3092
 7878SOL     OW35269   2.599   0.102  10.491 -0.2359 -0.3977 -0.3166
 7878SOL    HW135270   2.599   0.169  10.559 -2.6907  1.8937 -2.5391
 7878SOL    HW235271   2.582   0.018  10.532 -0.3502  0.1657  0.7770
 7879SOL     OW35272   4.703   0.187  15.729  0.4206  0.2667 -0.3524
 7879SOL    HW135273   0.002   0.136  15.656  2.9113  1.8679 -0.2524
 7879SOL    HW235274   4.611   0.160  15.736  0.3318  0.6541 -0.0309
 7880SOL     OW35275   4.311   2.712   9.001  0.0548  0.1205 -0.5540
 7880SOL    HW135276   4.402   2.684   8.994 -1.0017 -3.0438 -1.6890
 7880SOL    HW235277   4.295   2.731   8.909  2.5454 -0.3356 -1.0873
 7881SOL     OW35278   0.951   3.161   5.996  0.5252 -0.2576  0.1069
 7881SOL    HW135279   0.906   3.147   6.080  1.4318  0.9126  0.8028
 7881SOL    HW235280   0.884   3.137   5.932  0.2896  1.1294 -0.1725
 7882SOL     OW35281   0.151   1.419   8.630  0.0180 -0.0361 -0.2579
 7882SOL    HW135282   0.135   1.512   8.647 -0.6486 -0.0790 -0.6994
 7882SOL    HW235283   0.158   1.380   8.718  1.0752 -0.4285 -0.5074
 7883SOL     OW35284   1.630   3.330   5.778  0.2276  0.8623  0.0194
 7883SOL    HW135285   1.568   3.287   5.718  1.0334 -0.6633  0.2972
 7883SOL    HW235286   1.648   3.408   5.725  0.4651  1.5575  1.1285
 7884SOL     OW35287   0.787   2.250   7.029 -0.2114  0.0698 -0.6491
 7884SOL    HW135288   0.714   2.209   7.075 -1.0407  3.4922  1.1211
 7884SOL    HW235289   0.761   2.342   7.033 -1.8600 -0.3192 -2.4325
 7885SOL     OW35290   0.147   2.749   8.024 -0.0777 -0.2614  1.0118
 7885SOL    HW135291   0.108   2.719   7.942 -0.8280  0.0214  1.2604
 7885SOL    HW235292   0.235   2.755   7.987 -0.4739 -1.5341 -0.1316
 7886SOL     OW35293   1.899   2.333  17.625  0.3622  0.6939 -0.9000
 7886SOL    HW135294   1.880   2.239  17.628  1.0092  0.5642 -0.8888
 7886SOL    HW235295   1.984   2.332  17.668  0.6451 -2.8535 -1.5367
 7887SOL     OW35296   3.879   3.860   9.475 -0.3718  0.1200  0.1592
 7887SOL    HW135297   3.968   3.865   9.509 -0.0434 -1.4633 -0.4821
 7887SOL    HW235298   3.860   3.954   9.472 -0.2945  0.0590 -2.0747
 7888SOL     OW35299   0.841   1.890   7.965  0.4057 -0.0470  0.2885
 7888SOL    HW135300   0.833   1.809   8.017 -1.9719 -0.0710 -0.0914
 7888SOL    HW235301   0.923   1.874   7.919  1.2829 -0.0799  1.8849
 7889SOL     OW35302   4.534   2.084   2.885 -0.0389 -0.2452  0.0082
 7889SOL    HW135303   4.491   2.025   2.823 -1.4536  0.3174  0.4397
 7889SOL    HW235304   4.536   2.165   2.833 -1.2446 -0.2975 -0.1199
 7890SOL     OW35305   3.046   2.928   1.155  0.2438 -0.1152 -0.2048
 7890SOL    HW135306   2.987   2.870   1.203 -1.9539  0.4590 -2.2281
 7890SOL    HW235307   2.987   3.002   1.137  2.0416  1.2872 -0.3232
 7891SOL     OW35308   4.632   2.780   4.924  0.5036  0.1598 -0.1581
 7891SOL    HW135309   4.538   2.763   4.925  0.6264 -0.5285 -0.2202
 7891SOL    HW235310   4.635   2.872   4.951 -0.4436  0.3659 -0.7549
 7892SOL     OW35311   3.322   0.169   9.770  0.5293 -0.3128  0.1580
 7892SOL    HW135312   3.284   0.106   9.709 -0.1527  0.6508 -0.4272
 7892SOL    HW235313   3.366   0.106   9.826  0.8004 -0.7277 -0.5158
 7893SOL     OW35314   3.564   2.261  11.583 -0.6544 -0.0872 -0.4655
 7893SOL    HW135315   3.505   2.202  11.630 -0.2204  0.6788  1.0309
 7893SOL    HW235316   3.632   2.195  11.566 -0.4428 -0.3952  1.6036
 7894SOL     OW35317   1.828   3.411   3.472  0.3813 -0.3281  0.1201
 7894SOL    HW135318   1.758   3.426   3.535  0.0619  0.0348 -0.3215
 7894SOL    HW235319   1.889   3.368   3.533  0.5528 -0.4622 -0.1460
 7895SOL     OW35320   1.623   2.532   6.719  0.0896 -0.0065  0.3031
 7895SOL    HW135321   1.653   2.481   6.644 -0.8171  1.1206 -0.8098
 7895SOL    HW235322   1.647   2.480   6.796 -0.1591  1.8066  1.5867
 7896SOL     OW35323   2.537   2.861   9.455 -0.2736  0.1760 -0.4045
 7896SOL    HW135324   2.528   2.868   9.550  1.6660  1.3408 -0.2998
 7896SOL    HW235325   2.622   2.817   9.456  1.6686  3.9832  1.8283
 7897SOL     OW35326   0.491   1.188   0.901 -0.5700  0.1465 -0.0752
 7897SOL    HW135327   0.512   1.282   0.905  1.5423 -0.2463 -2.1172
 7897SOL    HW235328   0.527   1.162   0.985 -2.5262 -0.8299  0.4660
 7898SOL     OW35329   0.202   4.589  16.779  0.0469  0.3305  0.4876
 7898SOL    HW135330   0.143   4.521  16.811  2.9571 -1.1305  2.7668
 7898SOL    HW235331   0.172   4.662  16.833  1.2831  0.6054  0.8133
 7899SOL     OW35332   1.840   0.306   9.330 -0.1002  0.4021 -0.6158
 7899SOL    HW135333   1.916   0.362   9.346  0.0826  0.0065 -0.1083
 7899SOL    HW235334   1.873   0.226   9.289  1.2139  1.2732 -1.2473
 7900SOL     OW35335   1.826   1.153   3.338 -0.8005  0.0173 -0.8647
 7900SOL    HW135336   1.779   1.226   3.298 -0.9141  0.8550  0.7962
 7900SOL    HW235337   1.912   1.166   3.299 -0.9424 -1.9550 -1.8493
 7901SOL     OW35338   2.533   3.206   2.788  0.1600  0.3400 -0.4163
 7901SOL    HW135339   2.520   3.200   2.882  0.2316 -1.8195 -0.5534
 7901SOL    HW235340   2.607   3.151   2.761  1.3034  1.0606  1.2350
 7902SOL     OW35341   1.575   4.654   5.499 -0.6731  0.2019  0.5276
 7902SOL    HW135342   1.532   0.003   5.503  1.6175  1.4160 -0.5953
 7902SOL    HW235343   1.546   4.618   5.582  0.9038 -0.6010  0.7323
 7903SOL     OW35344   1.705   3.622   0.167  0.2684 -0.5981  0.1492
 7903SOL    HW135345   1.691   3.540   0.214  1.8189  0.0552  1.7345
 7903SOL    HW235346   1.797   3.642   0.186 -0.0631  3.0468 -2.0137
 7904SOL     OW35347   0.657   1.576   5.706 -0.0042 -0.0285 -0.2057
 7904SOL    HW135348   0.661   1.659   5.657  2.1601  0.0082  0.0232
 7904SOL    HW235349   0.638   1.610   5.793  0.8892 -0.1922  0.0449
 7905SOL     OW35350   1.025   3.319   5.295  0.2719  0.3409 -0.0181
 7905SOL    HW135351   1.018   3.373   5.373 -0.1695  3.4865 -2.2076
 7905SOL    HW235352   0.949   3.266   5.317  0.4387 -0.2799 -0.9603
 7906SOL     OW35353   3.979   2.800   5.765 -0.4515  0.3229 -0.4475
 7906SOL    HW135354   3.921   2.727   5.743 -1.8535  1.2608  0.1361
 7906SOL    HW235355   3.944   2.827   5.850  1.0987 -1.3253  0.7346
 7907SOL     OW35356   3.672   1.623  11.607 -0.0247  0.4517  0.5422
 7907SOL    HW135357   3.710   1.536  11.591 -0.4054  0.7427 -1.8544
 7907SOL    HW235358   3.736   1.655  11.671  0.0545  1.9163 -0.2768
 7908SOL     OW35359   4.452   3.469   8.641  0.0226  0.2092 -0.5924
 7908SOL    HW135360   4.408   3.514   8.713 -1.4071  0.2112 -1.4677
 7908SOL    HW235361   4.527   3.430   8.686 -0.5390 -0.4844 -0.2681
 7909SOL     OW35362   3.279   1.796  12.200  0.2717  0.0463  0.1169
 7909SOL    HW135363   3.335   1.790  12.122 -0.4157  2.3152 -0.5478
 7909SOL    HW235364   3.330   1.828  12.275  0.1658  2.9540 -1.0173
 7910SOL     OW35365   0.244   3.889  16.122 -0.4583 -0.0017  0.2346
 7910SOL    HW135366   0.186   3.838  16.067 -1.1937  1.2572 -0.1570
 7910SOL    HW235367   0.200   3.974  16.129  0.1364  0.4906 -2.1665
 7911SOL     OW35368   2.354   4.231   5.210 -0.1489  0.0280  0.4434
 7911SOL    HW135369   2.302   4.220   5.131  0.4962 -0.9367  0.1541
 7911SOL    HW235370   2.323   4.173   5.280 -2.0299  0.4785 -0.0085
 7912SOL     OW35371   3.687   3.549   6.852 -0.0388 -0.0916 -0.1723
 7912SOL    HW135372   3.722   3.541   6.764  1.0953  1.7950  0.1023
 7912SOL    HW235373   3.607   3.498   6.838 -0.8399  1.5702 -1.6484
 7913SOL     OW35374   3.062   4.058   4.500  0.4065 -0.2666 -0.1827
 7913SOL    HW135375   3.069   3.971   4.462  0.7253 -0.5181  0.4509
 7913SOL    HW235376   2.989   4.045   4.561  0.3969 -0.7703 -0.3007
 7914SOL     OW35377   4.629   4.352  11.708 -0.8251 -0.6086  0.1837
 7914SOL    HW135378   4.628   4.326  11.616 -1.6487  2.4062 -0.6778
 7914SOL    HW235379   4.690   4.425  11.704 -1.8056  0.2530  0.8479
 7915SOL     OW35380   1.455   0.165   4.910 -0.5446  0.1150 -0.4335
 7915SOL    HW135381   1.546   0.142   4.931 -0.7355  0.5152  0.8847
 7915SOL    HW235382   1.462   0.259   4.890  0.9719  0.0383 -0.2220
 7916SOL     OW35383   1.671   3.216   9.673 -0.6165 -0.1049  0.0906
 7916SOL    HW135384   1.766   3.207   9.682 -0.5451  0.4067 -0.1124
 7916SOL    HW235385   1.636   3.154   9.736 -0.3207 -0.1937  0.1659
 7917SOL     OW35386   4.139   2.782   3.604 -0.8061 -0.2285  0.0688
 7917SOL    HW135387   4.135   2.708   3.543 -0.9325  1.0407 -1.4646
 7917SOL    HW235388   4.180   2.842   3.541 -0.1339 -1.5278 -0.7528
 7918SOL     OW35389   0.777   2.778   5.970 -0.3164  0.0159 -0.0364
 7918SOL    HW135390   0.779   2.685   5.947  0.7078 -0.5853  2.5831
 7918SOL    HW235391   0.720   2.812   5.901  0.5081  2.6980  0.6242
 7919SOL     OW35392   2.883   2.268   3.334 -0.1963  0.0150  0.1808
 7919SOL    HW135393   2.963   2.234   3.374  0.7878 -1.1319 -2.7176
 7919SOL    HW235394   2.827   2.298   3.405 -2.3763 -0.2201 -1.4247
 7920SOL     OW35395   1.112   0.083   4.463 -0.0986 -0.1081  0.4417
 7920SOL    HW135396   1.189   0.077   4.520 -1.2591  0.1677  2.0629
 7920SOL    HW235397   1.152   0.099   4.378 -2.1159  1.4234 -0.2157
 7921SOL     OW35398   0.216   4.626   5.850  0.3287  0.1573 -0.6475
 7921SOL    HW135399   0.255   4.543   5.823 -1.2730 -0.3132 -1.5085
 7921SOL    HW235400   0.257   4.675   5.778  0.1900  0.2249 -0.6802
 7922SOL     OW35401   0.284   4.667   7.537 -0.2555  0.5000 -0.0128
 7922SOL    HW135402   0.362   4.621   7.505 -0.8618 -0.4849 -0.0974
 7922SOL    HW235403   0.231   4.700   7.465  0.9663  1.0327 -0.6550
 7923SOL     OW35404   4.214   0.018   1.235 -0.1760  0.0530 -0.0417
 7923SOL    HW135405   4.253   0.105   1.237 -0.5298  0.2041  0.3492
 7923SOL    HW235406   4.127   0.038   1.271  0.4304 -0.6984  1.8122
 7924SOL     OW35407   1.770   0.454   1.821  0.5352 -0.1357 -0.0174
 7924SOL    HW135408   1.745   0.537   1.779 -2.4836 -1.9596 -1.8250
 7924SOL    HW235409   1.776   0.478   1.914 -3.1455 -2.3338  0.8047
 7925SOL     OW35410   4.601   0.296   1.373 -0.5710 -0.5158  0.2200
 7925SOL    HW135411   4.622   0.257   1.288 -0.8386  1.0079 -0.5332
 7925SOL    HW235412   4.507   0.293   1.388 -0.8388 -0.3164 -1.4040
 7926SOL     OW35413   1.153   4.300  13.793 -0.1083  0.0912 -0.2783
 7926SOL    HW135414   1.158   4.206  13.774  0.3117  0.2768 -1.0698
 7926SOL    HW235415   1.239   4.312  13.833 -1.2685  1.6031  1.7298
 7927SOL     OW35416   2.331   0.579  16.046 -0.6246  0.2779  0.0981
 7927SOL    HW135417   2.240   0.597  16.069 -1.6148 -1.8545 -2.0367
 7927SOL    HW235418   2.327   0.581  15.950  2.7559 -2.0966 -0.0932
 7928SOL     OW35419   3.607   3.013  15.642 -0.0173 -0.3126 -0.6413
 7928SOL    HW135420   3.571   2.925  15.653 -2.0476  0.3126 -2.3449
 7928SOL    HW235421   3.564   3.064  15.711  1.0179 -0.5978  0.2151
 7929SOL     OW35422   3.615   3.012  10.813  0.3401  0.6653 -0.1253
 7929SOL    HW135423   3.654   2.928  10.838 -0.1982  1.4094  3.2368
 7929SOL    HW235424   3.637   3.019  10.720  0.2770 -0.1208 -0.2033
 7930SOL     OW35425   1.251   0.380  17.061  0.6641 -0.2017 -0.3504
 7930SOL    HW135426   1.187   0.431  17.011  0.5581 -1.2058 -1.2439
 7930SOL    HW235427   1.193   0.369  17.136  1.3031 -0.4844  0.1048
 7931SOL     OW35428   4.657   0.093   3.087  0.5272 -0.6873 -0.4278
 7931SOL    HW135429   4.644   0.104   2.992 -2.3059  0.2569  0.0721
 7931SOL    HW235430   0.016   0.091   3.093  0.5157  2.0015  0.6957
 7932SOL     OW35431   2.528   2.767   5.789 -0.3451 -0.1787 -1.0812
 7932SOL    HW135432   2.597   2.739   5.848 -2.3421  0.1640  1.3907
 7932SOL    HW235433   2.459   2.710   5.822 -0.6211  0.9446  0.2765
 7933SOL     OW35434   4.263   0.452   4.026 -0.3967 -0.3669  0.2129
 7933SOL    HW135435   4.203   0.445   3.952  1.5138 -0.0409 -1.3540
 7933SOL    HW235436   4.347   0.455   3.981 -0.7601 -0.7346 -0.4983
 7934SOL     OW35437   3.025   4.274   2.425 -0.7059  0.4239 -0.0269
 7934SOL    HW135438   2.964   4.288   2.352 -0.2058 -1.5399 -0.8262
 7934SOL    HW235439   2.968   4.216   2.477 -0.2674  2.4898  2.7511
 7935SOL     OW35440   2.544   3.880   6.096 -0.7797 -0.5979  0.1412
 7935SOL    HW135441   2.504   3.966   6.090  0.8213  0.1259 -0.1389
 7935SOL    HW235442   2.547   3.853   6.004 -1.7866 -1.0862  0.2491
 7936SOL     OW35443   0.175   0.446   3.008 -0.2683  0.2381 -0.2762
 7936SOL    HW135444   0.124   0.512   3.055  0.8448  1.0731 -0.2449
 7936SOL    HW235445   0.215   0.394   3.077  1.6169  2.1061  0.0343
 7937SOL     OW35446   3.944   1.950   6.766 -0.0460  0.5407 -0.4021
 7937SOL    HW135447   3.927   2.004   6.843 -1.0120 -3.7218  2.3690
 7937SOL    HW235448   3.886   1.875   6.775  0.0518  0.6370  1.0854
 7938SOL     OW35449   4.673   3.159   6.071 -0.0183 -0.0253  0.5425
 7938SOL    HW135450   4.730   3.136   6.145 -0.2721 -0.2282  0.6730
 7938SOL    HW235451   4.589   3.147   6.114 -0.2729 -0.5321 -0.1024
 7939SOL     OW35452   0.169   4.514   1.460 -0.1054  0.0274  0.1033
 7939SOL    HW135453   0.129   4.444   1.408 -1.5415 -0.2686  1.6164
 7939SOL    HW235454   0.261   4.492   1.448  0.7949  3.8700 -0.1445
 7940SOL     OW35455   3.180   3.105   9.133  0.1394  0.1771 -0.2225
 7940SOL    HW135456   3.261   3.149   9.107 -0.2309 -0.2753 -2.1779
 7940SOL    HW235457   3.211   3.016   9.149 -2.1069 -0.5146  0.2326
 7941SOL     OW35458   2.071   2.194   9.566 -0.0940 -0.0051  0.0010
 7941SOL    HW135459   1.999   2.178   9.505  0.0745  2.4891 -0.8851
 7941SOL    HW235460   2.055   2.287   9.584  1.9347  0.3759 -0.1433
 7942SOL     OW35461   1.472   2.561   8.592  0.1723 -0.2052 -0.2817
 7942SOL    HW135462   1.543   2.503   8.620  0.3072 -0.2111 -0.6430
 7942SOL    HW235463   1.408   2.541   8.661 -0.8441  1.1538 -0.8360
 7943SOL     OW35464   0.586   2.618   8.571  0.3589 -0.1175 -0.0821
 7943SOL    HW135465   0.604   2.539   8.522 -0.3465  0.1454 -0.7536
 7943SOL    HW235466   0.672   2.633   8.612 -0.0403  1.4950  0.1800
 7944SOL     OW35467   4.368   3.913  10.827  0.0566 -0.0436  0.1516
 7944SOL    HW135468   4.372   3.899  10.732  0.6739 -0.9686  0.3151
 7944SOL    HW235469   4.313   3.841  10.859 -1.4942  0.7408 -0.7137
 7945SOL     OW35470   1.832   3.678  14.815 -0.0331  0.0426 -0.3864
 7945SOL    HW135471   1.771   3.749  14.837  1.4846  1.1704  0.2153
 7945SOL    HW235472   1.811   3.622  14.890 -0.8892 -0.5362 -1.0594
 7946SOL     OW35473   4.625   2.572  16.842 -0.0128 -0.0159 -0.1848
 7946SOL    HW135474   4.585   2.492  16.874  2.5993 -1.1288  0.3470
 7946SOL    HW235475   4.561   2.640  16.862  0.0832  0.0346 -0.0511
 7947SOL     OW35476   2.063   0.999   7.987  0.2920 -0.2728  0.4410
 7947SOL    HW135477   1.988   0.941   7.982  1.3563 -1.4028 -2.2711
 7947SOL    HW235478   2.103   1.011   7.901 -1.6691 -1.7854 -0.6702
 7948SOL     OW35479   0.562   1.299   4.549  0.2043  0.0089  0.1653
 7948SOL    HW135480   0.545   1.222   4.603  1.3150  1.4370  2.5331
 7948SOL    HW235481   0.569   1.256   4.464 -1.1581  1.9953 -0.9389
 7949SOL     OW35482   3.244   0.633  14.458  0.1739 -0.5671 -0.3122
 7949SOL    HW135483   3.189   0.576  14.404 -2.2775  0.9395  0.6610
 7949SOL    HW235484   3.188   0.710  14.458  2.0018  0.7606 -2.3964
 7950SOL     OW35485   3.488   3.334   2.257  0.2713 -0.3868 -0.8198
 7950SOL    HW135486   3.469   3.242   2.277  0.9444 -0.4541 -0.4873
 7950SOL    HW235487   3.461   3.374   2.339  0.1179 -1.2231 -0.4593
 7951SOL     OW35488   2.092   4.336   6.433 -0.4722  0.1627 -0.2606
 7951SOL    HW135489   2.130   4.406   6.379 -1.8318  0.7202 -0.4936
 7951SOL    HW235490   2.041   4.284   6.371 -0.5353 -0.5976  0.4297
 7952SOL     OW35491   1.851   0.484  15.721 -0.4451  0.2384  0.1844
 7952SOL    HW135492   1.909   0.494  15.646  0.4573 -1.8826  0.6046
 7952SOL    HW235493   1.918   0.449  15.780  0.7813 -0.5716 -1.7068
 7953SOL     OW35494   1.304   1.488   3.569 -0.0117  0.3660 -0.2971
 7953SOL    HW135495   1.304   1.584   3.572 -0.1551  0.3654 -0.2484
 7953SOL    HW235496   1.237   1.469   3.502 -1.9509 -0.1452  1.7761
 7954SOL     OW35497   3.810   0.220   6.153 -0.6133 -0.0921 -0.2290
 7954SOL    HW135498   3.850   0.173   6.079 -1.4161 -2.2645  0.7206
 7954SOL    HW235499   3.719   0.217   6.123 -0.3205  1.4154 -1.3276
 7955SOL     OW35500   1.743   3.436   7.964  0.7138  0.2217  0.7710
 7955SOL    HW135501   1.739   3.496   8.038 -0.9442  0.1812  0.7191
 7955SOL    HW235502   1.805   3.475   7.902  1.6304 -0.4348  1.2866
 7956SOL     OW35503   0.919   0.550   3.205  0.6237 -0.3081  0.1292
 7956SOL    HW135504   1.013   0.568   3.200  0.6576 -0.4506  0.2642
 7956SOL    HW235505   0.918   0.461   3.169 -0.3398 -0.3701  0.3041
 7957SOL     OW35506   2.295   4.004   2.132  0.0454 -0.1385 -0.4098
 7957SOL    HW135507   2.300   4.035   2.042  0.9219 -0.5316 -0.4927
 7957SOL    HW235508   2.336   4.075   2.182  0.3024 -0.2511 -0.4620
 7958SOL     OW35509   1.886   3.613   2.671 -0.1142 -0.2594 -0.0277
 7958SOL    HW135510   1.952   3.554   2.634 -0.4853 -0.6128 -0.1241
 7958SOL    HW235511   1.807   3.560   2.659 -1.4427  1.9703 -1.1173
 7959SOL     OW35512   0.064   4.443   6.019 -0.5790  0.0780  0.2523
 7959SOL    HW135513   0.125   4.488   5.959 -0.4670 -0.9639 -0.4096
 7959SOL    HW235514   4.718   4.487   6.001 -0.2547  0.2937 -0.7385
 7960SOL     OW35515   1.794   1.533   6.761 -0.1945  0.7582 -0.0396
 7960SOL    HW135516   1.845   1.508   6.839 -0.4086 -0.3699 -0.2587
 7960SOL    HW235517   1.838   1.613   6.732 -0.0246 -0.1150 -2.1566
 7961SOL     OW35518   4.445   4.135   5.345  0.2423 -0.2272 -0.6594
 7961SOL    HW135519   4.491   4.085   5.411 -0.6065 -0.1452  0.0039
 7961SOL    HW235520   4.430   4.221   5.384 -3.2625 -0.4457 -1.5224
 7962SOL     OW35521   3.935   4.118   9.249  0.4208  0.6942 -0.4034
 7962SOL    HW135522   3.869   4.103   9.316  1.8533  2.0752  1.2937
 7962SOL    HW235523   3.974   4.201   9.276  0.3858  1.0159 -1.3406
 7963SOL     OW35524   2.854   3.703  12.700  0.0031  0.5939 -0.0364
 7963SOL    HW135525   2.938   3.747  12.703 -0.6067  1.8355 -1.4569
 7963SOL    HW235526   2.822   3.718  12.611  1.7732  2.5118 -0.3355
 7964SOL     OW35527   2.708   3.284   1.840  0.6499  0.5696  0.3742
 7964SOL    HW135528   2.780   3.253   1.785 -0.8397  0.7588 -1.6861
 7964SOL    HW235529   2.643   3.218   1.815  2.0899 -0.1260 -1.4875
 7965SOL     OW35530   3.485   4.177   2.388  0.3189  0.4845  0.4682
 7965SOL    HW135531   3.564   4.231   2.391  0.4060  0.3839  0.0134
 7965SOL    HW235532   3.509   4.111   2.324 -2.2774  1.9505 -2.0002
 7966SOL     OW35533   2.006   2.750  13.525 -0.4807 -0.1411 -0.1061
 7966SOL    HW135534   1.922   2.750  13.572 -0.3002  0.2764  0.2143
 7966SOL    HW235535   1.972   2.749  13.435  1.3189 -0.1494 -0.7714
 7967SOL     OW35536   0.427   1.146  12.017  0.4066  0.0328 -0.3619
 7967SOL    HW135537   0.432   1.235  12.052 -0.1443 -0.6795  1.5860
 7967SOL    HW235538   0.351   1.161  11.960 -0.9228  1.1559  1.6620
 7968SOL     OW35539   0.898   2.445   6.239  1.0506  0.1215  0.6717
 7968SOL    HW135540   0.874   2.435   6.147  1.3622 -2.0658  0.8384
 7968SOL    HW235541   0.962   2.375   6.249  0.4662 -0.1337  2.5686
 7969SOL     OW35542   2.849   4.143   3.794  0.5606  0.0739  1.1422
 7969SOL    HW135543   2.794   4.101   3.860 -1.3225 -0.3016 -0.6606
 7969SOL    HW235544   2.824   4.235   3.797  0.8033  0.1352  1.2606
 7970SOL     OW35545   2.401   4.336   9.427  0.3444 -0.0781  0.6901
 7970SOL    HW135546   2.343   4.353   9.501 -0.6306  0.0536 -0.1150
 7970SOL    HW235547   2.485   4.375   9.450  1.4630  0.0591 -3.6308
 7971SOL     OW35548   1.601   0.565  11.531 -0.0147  0.1657  0.5879
 7971SOL    HW135549   1.520   0.551  11.482  1.8349 -1.3222 -2.0057
 7971SOL    HW235550   1.670   0.542  11.469 -0.0514 -2.1967  1.4210
 7972SOL     OW35551   0.753   3.360   8.429  0.1616  0.2502 -0.5023
 7972SOL    HW135552   0.758   3.455   8.437 -1.3016  0.1886  1.0318
 7972SOL    HW235553   0.832   3.340   8.379  1.1420 -0.1449  1.2307
 7973SOL     OW35554   0.131   2.759   2.574  0.2850  0.4381  0.5217
 7973SOL    HW135555   0.172   2.836   2.535  0.2532 -0.0107 -0.3803
 7973SOL    HW235556   0.121   2.698   2.501 -0.0067  0.4198  0.5770
 7974SOL     OW35557   2.159   3.740  13.184  0.0550  0.6412 -0.3220
 7974SOL    HW135558   2.117   3.812  13.137 -1.7648  1.5469  2.6726
 7974SOL    HW235559   2.110   3.744  13.266  0.1880 -2.9387 -0.0508
 7975SOL     OW35560   2.066   0.583  10.280  0.3228 -0.7918 -0.1257
 7975SOL    HW135561   1.971   0.570  10.288  0.0645  1.2233  0.1132
 7975SOL    HW235562   2.086   0.549  10.368  1.3964  0.2187  0.0203
 7976SOL     OW35563   3.110   3.304  12.712  0.1476  0.4468 -0.7109
 7976SOL    HW135564   3.189   3.350  12.740 -0.8043  0.9041  1.1868
 7976SOL    HW235565   3.058   3.382  12.688 -0.7855 -0.1113 -0.5155
 7977SOL     OW35566   2.643   1.644   2.668 -0.0770  0.2584 -0.1402
 7977SOL    HW135567   2.664   1.724   2.620 -1.0439 -0.4227 -1.7123
 7977SOL    HW235568   2.704   1.647   2.741  0.8423 -1.1489 -0.8524
 7978SOL     OW35569   4.229   2.224   4.453  0.1084 -0.0237  0.6991
 7978SOL    HW135570   4.150   2.227   4.399  1.4446  1.6597 -1.2049
 7978SOL    HW235571   4.295   2.251   4.389 -1.3010 -1.1940 -1.2410
 7979SOL     OW35572   0.476   2.963   6.433  0.5580 -0.6756  0.2060
 7979SOL    HW135573   0.502   3.050   6.463 -0.7280 -0.0314 -0.5455
 7979SOL    HW235574   0.542   2.955   6.364  0.8704  0.1258  0.4037
 7980SOL     OW35575   3.016   1.793   5.625  0.3697  0.4664  0.4335
 7980SOL    HW135576   3.011   1.888   5.624  2.1079  0.5494 -0.8504
 7980SOL    HW235577   3.093   1.778   5.679  1.6119 -0.4128 -1.5782
 7981SOL     OW35578   0.854   0.640  12.426  0.0582 -0.3266 -1.0612
 7981SOL    HW135579   0.839   0.706  12.358  0.0297  0.0374 -0.7033
 7981SOL    HW235580   0.917   0.681  12.485  0.1344  0.0475 -1.4051
 7982SOL     OW35581   2.784   2.741   3.613  0.4967  0.3341  0.4121
 7982SOL    HW135582   2.851   2.785   3.666  1.0180  0.0349  0.0050
 7982SOL    HW235583   2.709   2.735   3.672 -1.9025  2.6044 -2.4604
 7983SOL     OW35584   0.186   3.056   3.594 -0.1656  0.2306  0.0712
 7983SOL    HW135585   0.207   3.149   3.588 -1.3529  0.5820  1.3083
 7983SOL    HW235586   0.112   3.040   3.536  0.1247 -1.1770  0.0793
 7984SOL     OW35587   2.307   4.453   2.693  0.3615 -0.1289 -0.5635
 7984SOL    HW135588   2.315   4.358   2.700 -0.2712 -0.0900  0.6298
 7984SOL    HW235589   2.363   4.488   2.762  0.4737 -1.0026 -0.2226
 7985SOL     OW35590   4.615   3.410   0.852 -0.2959 -0.3115 -0.0494
 7985SOL    HW135591   4.690   3.427   0.910 -1.6628  0.2547  1.5295
 7985SOL    HW235592   4.568   3.493   0.861 -0.6265 -0.7226  2.1720
 7986SOL     OW35593   1.605   2.298   7.498  0.5526  0.1736  0.0225
 7986SOL    HW135594   1.625   2.392   7.497  0.9980  0.0679 -0.9908
 7986SOL    HW235595   1.693   2.262   7.512  0.3822 -0.4771 -0.5733
 7987SOL     OW35596   0.338   3.305   2.123 -0.1108  0.6071  0.3102
 7987SOL    HW135597   0.276   3.234   2.136  1.0262 -0.1650  1.5771
 7987SOL    HW235598   0.400   3.289   2.194 -1.2634 -2.4366  0.6084
 7988SOL     OW35599   0.756   1.801   6.331  0.3143  0.3514 -0.2955
 7988SOL    HW135600   0.681   1.753   6.368 -0.0968  2.4457  1.6158
 7988SOL    HW235601   0.783   1.730   6.273 -2.9536 -0.0627 -1.3476
 7989SOL     OW35602   2.363   0.201  11.826 -0.1665  0.5167 -0.2280
 7989SOL    HW135603   2.270   0.205  11.804 -1.0721 -1.3781  3.2797
 7989SOL    HW235604   2.374   0.281  11.876  0.1530 -0.4550  1.2429
 7990SOL     OW35605   1.039   1.645  13.959  0.2355 -0.0205  0.4747
 7990SOL    HW135606   0.951   1.682  13.968  0.9916  1.4215  1.9243
 7990SOL    HW235607   1.025   1.569  13.902  1.2397  0.9341 -1.0364
 7991SOL     OW35608   0.064   4.033   7.766 -0.1088  0.1494 -0.0038
 7991SOL    HW135609   0.053   4.090   7.691 -0.7118 -0.3977 -0.3342
 7991SOL    HW235610   0.159   4.049   7.770  0.2114 -1.3929 -1.5112
 7992SOL     OW35611   4.522   1.439   8.656 -0.3478  0.8464  0.4808
 7992SOL    HW135612   4.455   1.438   8.724  0.5698  0.3847  1.3666
 7992SOL    HW235613   4.554   1.349   8.656 -1.5439  0.4233  0.4126
 7993SOL     OW35614   3.231   2.171   7.350  0.5077 -0.2422  0.1385
 7993SOL    HW135615   3.324   2.149   7.359  0.9744  1.5119 -0.5503
 7993SOL    HW235616   3.195   2.083   7.359 -0.9667  0.2129 -1.2445
 7994SOL     OW35617   1.988   4.109   8.300 -0.1508 -0.5502  0.3459
 7994SOL    HW135618   1.937   4.188   8.320 -0.2634 -0.5385 -0.0032
 7994SOL    HW235619   2.075   4.124   8.339 -1.6452 -1.0432  3.9098
 7995SOL     OW35620   1.304   3.856   4.863  0.0619  0.8107  0.5091
 7995SOL    HW135621   1.394   3.835   4.889  0.2869 -0.3938 -1.2177
 7995SOL    HW235622   1.258   3.824   4.941 -0.4351  1.4683  0.4804
 7996SOL     OW35623   3.713   1.218  15.589 -0.0440  0.3716  0.2783
 7996SOL    HW135624   3.762   1.300  15.593  1.2277 -0.3504 -0.4918
 7996SOL    HW235625   3.755   1.177  15.664 -0.7674 -2.6020 -0.9577
 7997SOL     OW35626   1.276   2.505   1.562 -0.7999  0.7748 -0.0591
 7997SOL    HW135627   1.182   2.509   1.540 -1.0021  1.7834  0.9892
 7997SOL    HW235628   1.269   2.486   1.655 -0.6062  1.4034  0.0832
 7998SOL     OW35629   2.305   0.581   0.124 -0.1017 -0.3626 -0.1851
 7998SOL    HW135630   2.241   0.624   0.179  0.3456 -0.4213  0.3815
 7998SOL    HW235631   2.388   0.623   0.147  0.5723 -0.6713 -1.9956
 7999SOL     OW35632   1.216   1.670   3.851  0.3855  0.2843 -0.3060
 7999SOL    HW135633   1.130   1.629   3.862  0.1535  1.6176  2.9179
 7999SOL    HW235634   1.203   1.734   3.921 -1.6346  1.1637 -1.4796
 8000SOL     OW35635   3.582   1.066   8.761  0.3344 -0.0973  0.1919
 8000SOL    HW135636   3.582   0.974   8.788 -0.2246  0.7299  2.9584
 8000SOL    HW235637   3.671   1.074   8.728 -0.7635  2.8085 -2.1230
 8001SOL     OW35638   1.865   0.280   0.219 -0.5313  0.1179  0.0929
 8001SOL    HW135639   1.953   0.249   0.196 -0.1075  1.0980  0.3736
 8001SOL    HW235640   1.811   0.202   0.227  1.2072 -1.1425 -0.4441
 8002SOL     OW35641   2.513   3.539  11.846  0.3498 -0.4127 -0.2299
 8002SOL    HW135642   2.441   3.552  11.784  0.2955 -0.6297 -0.2154
 8002SOL    HW235643   2.496   3.616  11.900  0.7030 -0.0836 -0.5901
 8003SOL     OW35644   1.743   3.045   2.476  0.4750  0.2979  0.6643
 8003SOL    HW135645   1.759   3.108   2.407  1.8378 -0.4988  0.2635
 8003SOL    HW235646   1.832   3.015   2.491 -0.9846 -3.8060  1.1505
 8004SOL     OW35647   2.623   3.014   3.824 -0.2272  0.3628 -0.0211
 8004SOL    HW135648   2.698   3.066   3.850 -0.8717  0.6487  1.2621
 8004SOL    HW235649   2.552   3.068   3.859 -1.2669 -0.2299 -1.2052
 8005SOL     OW35650   4.007   4.383   7.051 -0.2842  0.2365 -0.2558
 8005SOL    HW135651   4.079   4.415   6.998  1.4660 -0.8665  1.4639
 8005SOL    HW235652   3.941   4.450   7.035  0.7954  1.3506  0.0433
 8006SOL     OW35653   4.402   4.719  14.042  0.4010  0.4539 -0.4161
 8006SOL    HW135654   4.450   0.049  13.993 -0.4939  2.0876  0.9351
 8006SOL    HW235655   4.327   0.035  14.071  0.8773  1.4819 -1.0700
 8007SOL     OW35656   1.338   1.097  11.915 -0.0652  0.3271  0.4631
 8007SOL    HW135657   1.374   1.141  11.992 -0.3489  1.8077 -0.2511
 8007SOL    HW235658   1.404   1.097  11.847  2.4257  1.9332  2.8690
 8008SOL     OW35659   0.867   2.952   3.816 -0.1595  0.1076  0.5961
 8008SOL    HW135660   0.948   3.003   3.817  1.0261 -1.7690  0.8707
 8008SOL    HW235661   0.884   2.883   3.751 -1.2683  1.4266 -1.0998
 8009SOL     OW35662   1.736   3.348  14.233 -0.3962 -0.1697  0.0077
 8009SOL    HW135663   1.802   3.365  14.301  0.8645 -1.4814 -0.8947
 8009SOL    HW235664   1.758   3.410  14.164 -0.9122 -0.0314 -0.0344
 8010SOL     OW35665   1.392   4.265  10.135  0.0519  0.4019 -0.0096
 8010SOL    HW135666   1.328   4.272  10.205 -1.2352  1.5533 -1.3092
 8010SOL    HW235667   1.326   4.269  10.065 -0.0195 -0.0132  0.0318
 8011SOL     OW35668   2.653   1.904   6.427 -0.0395  0.1449 -0.4105
 8011SOL    HW135669   2.594   1.907   6.503  0.7386  3.7208  0.0836
 8011SOL    HW235670   2.677   1.812   6.433 -0.4551  0.1874  2.2440
 8012SOL     OW35671   4.279   3.830  13.795  0.8102 -0.2715 -0.2637
 8012SOL    HW135672   4.299   3.744  13.757 -0.5667 -1.2329  1.1840
 8012SOL    HW235673   4.287   3.803  13.887 -1.6954  1.7032  0.5100
 8013SOL     OW35674   3.990   0.861   2.674 -0.1199 -0.0435  0.1254
 8013SOL    HW135675   3.924   0.919   2.714  0.7208  1.2981 -0.4191
 8013SOL    HW235676   4.048   0.932   2.647 -0.5340  0.3187  0.1769
 8014SOL     OW35677   4.309   1.637   9.109  0.5605  0.2622  0.3478
 8014SOL    HW135678   4.368   1.649   9.183  1.6784 -0.0236 -0.4921
 8014SOL    HW235679   4.318   1.545   9.083  0.3233 -0.0077  1.2335
 8015SOL     OW35680   4.578   2.890  14.353  0.1424  0.2933  0.0840
 8015SOL    HW135681   4.628   2.918  14.430  0.3765  2.9830 -1.0164
 8015SOL    HW235682   4.498   2.865  14.398 -0.1003 -2.2927 -1.7839
 8016SOL     OW35683   3.048   0.492   5.999  0.1160 -0.3854 -0.3568
 8016SOL    HW135684   2.986   0.424   5.971 -1.3840  0.2189  1.4804
 8016SOL    HW235685   3.053   0.482   6.094 -3.0964 -2.0144 -0.3617
 8017SOL     OW35686   1.222   4.586   5.285  0.6731 -0.4027  0.1101
 8017SOL    HW135687   1.247   4.652   5.350 -1.4200  1.5444 -1.0514
 8017SOL    HW235688   1.308   4.548   5.269  0.3480 -0.9145 -0.3993
 8018SOL     OW35689   0.304   0.513  12.377 -0.1839  0.1350 -0.5577
 8018SOL    HW135690   0.388   0.478  12.407 -0.5535  0.2980  0.6579
 8018SOL    HW235691   0.241   0.460  12.426  1.4947 -0.1764  1.2774
 8019SOL     OW35692   0.756   3.664   2.464 -0.0420 -0.3928  0.3312
 8019SOL    HW135693   0.836   3.646   2.514  0.4199 -0.0035 -0.2561
 8019SOL    HW235694   0.790   3.728   2.401  1.8281  0.1628  1.8985
 8020SOL     OW35695   0.043   3.409   1.580  0.2034  0.1752  0.5814
 8020SOL    HW135696   4.717   3.375   1.645 -1.4825 -0.0406 -1.1369
 8020SOL    HW235697   0.035   3.343   1.510 -0.5453 -0.3647  1.1735
 8021SOL     OW35698   0.825   4.530   8.533 -0.4475 -0.3583  0.1260
 8021SOL    HW135699   0.805   4.584   8.609 -1.3456  0.8160 -0.9438
 8021SOL    HW235700   0.884   4.593   8.491 -1.4224  0.6661  0.2735
 8022SOL     OW35701   4.439   2.403   1.186 -0.5549  0.8120  0.7745
 8022SOL    HW135702   4.528   2.376   1.162 -2.0338 -1.6289 -1.9089
 8022SOL    HW235703   4.402   2.429   1.102 -0.2207 -0.4807  0.2364
 8023SOL     OW35704   3.454   0.858  16.705  0.5065  0.3100  0.1994
 8023SOL    HW135705   3.452   0.763  16.703  1.3849  0.2739  0.8978
 8023SOL    HW235706   3.546   0.879  16.689 -0.2168  2.9848 -0.5850
 8024SOL     OW35707   2.019   0.787  12.453  0.4041 -0.6855 -0.3238
 8024SOL    HW135708   2.023   0.793  12.357 -3.0896  1.8662 -0.3530
 8024SOL    HW235709   2.054   0.874  12.473  1.0101 -0.9054 -0.4375
 8025SOL     OW35710   2.304   2.305   0.659  0.4393 -0.4863  0.3094
 8025SOL    HW135711   2.230   2.257   0.696  0.5317  0.0380  1.1701
 8025SOL    HW235712   2.266   2.372   0.602  3.6719 -0.9009 -2.3074
 8026SOL     OW35713   1.358   0.868  15.988 -0.5794 -0.4965  0.5254
 8026SOL    HW135714   1.290   0.815  15.947 -0.3268  0.5314 -1.2238
 8026SOL    HW235715   1.361   0.817  16.069 -0.5310 -2.3180 -0.6146
 8027SOL     OW35716   1.136   0.677   9.938  0.0839 -0.4293 -0.2700
 8027SOL    HW135717   1.103   0.706  10.023 -1.1512 -1.3430 -0.4359
 8027SOL    HW235718   1.109   0.585   9.928  0.5473 -0.6316  0.3510
 8028SOL     OW35719   0.455   1.882   3.304 -0.5738 -0.6287 -0.6647
 8028SOL    HW135720   0.370   1.922   3.325 -0.1146  0.7981 -1.5427
 8028SOL    HW235721   0.457   1.871   3.209 -0.3464 -0.7063 -0.6503
 8029SOL     OW35722   2.489   2.118   5.952 -0.1264 -0.0591 -0.6661
 8029SOL    HW135723   2.583   2.118   5.970  0.3276 -0.4428 -2.9655
 8029SOL    HW235724   2.453   2.039   5.993  0.7221  0.9865  2.0858
 8030SOL     OW35725   0.081   2.992   4.528 -0.2305 -0.1273  0.0484
 8030SOL    HW135726   0.015   3.003   4.460  2.7185 -1.8752 -3.0654
 8030SOL    HW235727   0.162   3.025   4.491 -0.4243  0.3981  0.0927
 8031SOL     OW35728   3.476   0.446   3.812  0.3912 -0.6803 -0.3545
 8031SOL    HW135729   3.427   0.370   3.784 -0.9936 -0.2819  1.0032
 8031SOL    HW235730   3.491   0.429   3.905 -2.5334  1.5388  0.5166
 8032SOL     OW35731   0.086   1.404   4.710  0.5566 -0.3749  0.0910
 8032SOL    HW135732   0.118   1.355   4.785  3.2134 -0.4646 -1.0979
 8032SOL    HW235733   0.019   1.455   4.756  0.1771  1.6816 -2.7349
 8033SOL     OW35734   3.104   0.527   8.326  0.0700 -0.6024 -0.2507
 8033SOL    HW135735   3.118   0.468   8.400 -2.0939 -0.8287 -0.0021
 8033SOL    HW235736   3.057   0.471   8.265  0.2381 -2.4191  1.2983
 8034SOL     OW35737   3.721   1.746   5.729  0.2671 -0.1598 -0.0470
 8034SOL    HW135738   3.776   1.824   5.725  2.6389 -1.8355 -0.3369
 8034SOL    HW235739   3.663   1.776   5.798 -0.0889  0.1784 -0.4937
 8035SOL     OW35740   1.755   3.146  15.310  0.3483  0.3440 -0.0232
 8035SOL    HW135741   1.798   3.080  15.364  0.7759  0.0118 -0.7602
 8035SOL    HW235742   1.664   3.150  15.339  0.8962  0.3834  1.6587
 8036SOL     OW35743   2.726   2.022   9.254  0.0677  0.3841 -0.0599
 8036SOL    HW135744   2.808   1.977   9.233 -1.4579 -1.2703 -2.3878
 8036SOL    HW235745   2.733   2.015   9.350  3.0887 -0.4412 -0.3384
 8037SOL     OW35746   4.083   1.957   8.290  0.1897  0.2108 -0.1379
 8037SOL    HW135747   4.038   1.893   8.346  0.0186 -0.8108 -1.4443
 8037SOL    HW235748   4.049   2.039   8.325 -1.1953  0.9005 -3.0887
 8038SOL     OW35749   4.646   2.106   8.720 -0.0257 -0.1240  0.2134
 8038SOL    HW135750   4.669   2.066   8.636 -0.7631 -0.5870  0.2321
 8038SOL    HW235751   4.554   2.081   8.723 -0.5913  2.0563  1.0982
 8039SOL     OW35752   4.398   3.818   1.342  0.2130 -0.2935 -0.2797
 8039SOL    HW135753   4.312   3.806   1.302 -1.0272 -2.0099  2.9648
 8039SOL    HW235754   4.446   3.874   1.280 -0.6473  1.7808  0.9352
 8040SOL     OW35755   3.557   0.257   2.502 -0.0636  0.6034 -0.5421
 8040SOL    HW135756   3.619   0.280   2.571 -2.3095  1.8532  1.0261
 8040SOL    HW235757   3.591   0.173   2.470  0.6129  0.6057  0.1789
 8041SOL     OW35758   4.283   0.150   3.960  0.0435  0.2943  0.9153
 8041SOL    HW135759   4.364   0.102   3.977  0.9879  0.9156 -1.8003
 8041SOL    HW235760   4.249   0.168   4.048 -4.6154 -0.0232 -0.8058
 8042SOL     OW35761   2.645   1.060   5.532  1.0905  0.7288 -0.2186
 8042SOL    HW135762   2.677   1.102   5.611 -0.0749  0.0345  0.6298
 8042SOL    HW235763   2.613   1.138   5.486  1.1055  1.4847  1.0608
 8043SOL     OW35764   1.091   4.000   6.999  0.4598  0.9714  0.1975
 8043SOL    HW135765   1.076   3.917   7.045  2.2899  1.7762  2.2134
 8043SOL    HW235766   1.090   3.978   6.906 -0.9249  0.1587  0.3969
 8044SOL     OW35767   2.163   1.756  17.668 -0.0872 -0.2751  0.0296
 8044SOL    HW135768   2.103   1.716  17.605 -1.5295  0.1471  1.1340
 8044SOL    HW235769   2.138   1.720   0.008 -0.4950  1.3649  0.6122
 8045SOL     OW35770   3.107   2.875   4.318 -0.1910 -0.2445 -0.4907
 8045SOL    HW135771   3.113   2.824   4.399  0.4446  0.6333  0.0132
 8045SOL    HW235772   3.152   2.954   4.348  0.0154 -0.9549  1.1000
 8046SOL     OW35773   0.071   1.704   3.919 -0.3614 -0.5071  0.0363
 8046SOL    HW135774   0.004   1.644   3.887 -0.2144 -0.0916 -1.0639
 8046SOL    HW235775   0.127   1.707   3.841 -1.8190  1.5704 -0.9467
 8047SOL     OW35776   1.531   1.393   5.569  0.0889  0.1445  0.3271
 8047SOL    HW135777   1.617   1.357   5.547 -0.4121 -1.1736  0.5296
 8047SOL    HW235778   1.512   1.345   5.650 -0.1418  2.4969  1.6776
 8048SOL     OW35779   1.877   3.061  12.603  0.2961 -0.6402  0.4748
 8048SOL    HW135780   1.867   3.121  12.678 -1.1863 -0.0130 -0.2205
 8048SOL    HW235781   1.955   3.098  12.563 -0.0202  0.2225  0.6418
 8049SOL     OW35782   4.687   2.089  17.220 -0.0066 -0.5297 -0.0586
 8049SOL    HW135783   4.698   2.140  17.140  0.5000 -1.1194 -0.3660
 8049SOL    HW235784   0.034   2.099  17.266 -0.0598 -3.4830  0.6920
 8050SOL     OW35785   1.539   1.560   2.238  0.0152 -0.2198 -0.0620
 8050SOL    HW135786   1.539   1.579   2.144  1.0856  0.7152  0.1295
 8050SOL    HW235787   1.457   1.510   2.245 -0.9437  1.5997  1.8365
 8051SOL     OW35788   0.592   4.466   9.111 -0.0407 -0.2209  0.3164
 8051SOL    HW135789   0.507   4.423   9.097 -0.8654  2.1337 -1.8572
 8051SOL    HW235790   0.637   4.400   9.164  1.2938  0.8343  0.4977
 8052SOL     OW35791   4.569   3.597  15.679  0.2755 -0.2483 -0.0200
 8052SOL    HW135792   4.640   3.603  15.743  0.4313 -0.5118 -0.1643
 8052SOL    HW235793   4.612   3.546  15.610 -0.5463  1.3459 -1.6840
 8053SOL     OW35794   4.641   0.123   9.733  0.5855  0.0002  0.3571
 8053SOL    HW135795   4.701   0.144   9.804  0.1737  1.3597  0.3029
 8053SOL    HW235796   4.682   0.166   9.658 -2.0009 -0.7538 -1.4781
 8054SOL     OW35797   3.246   4.662   5.330 -0.3486 -0.3348  0.6883
 8054SOL    HW135798   3.249   4.567   5.323  3.2990 -0.0042 -2.5402
 8054SOL    HW235799   3.156   4.688   5.315 -0.5575 -1.8983 -0.7670
 8055SOL     OW35800   1.267   1.130   2.324 -0.1292  0.8494 -0.2208
 8055SOL    HW135801   1.203   1.060   2.314 -0.8960  1.3218  1.2667
 8055SOL    HW235802   1.226   1.179   2.396 -1.1460  0.1039 -0.2889
 8056SOL     OW35803   0.702   0.915   5.083  0.0461  0.1882 -0.2498
 8056SOL    HW135804   0.653   0.855   5.027 -1.8733  0.3841  1.2162
 8056SOL    HW235805   0.715   0.993   5.029  1.4523  0.7753  0.9439
 8057SOL     OW35806   1.629   0.137   3.863  0.2350  0.0641  0.0892
 8057SOL    HW135807   1.717   0.172   3.878  0.1160  0.9838 -1.3284
 8057SOL    HW235808   1.585   0.216   3.894  1.8099  0.6361  0.8831
 8058SOL     OW35809   3.370   0.602   5.526  0.1886  0.1689  0.0367
 8058SOL    HW135810   3.392   0.561   5.609 -0.1652  1.6667  0.8662
 8058SOL    HW235811   3.339   0.528   5.473  1.3824 -0.1322 -0.2491
 8059SOL     OW35812   3.453   4.681   6.207 -0.1622  0.0755  0.0374
 8059SOL    HW135813   3.509   4.648   6.277  0.1632 -0.4766 -0.4897
 8059SOL    HW235814   3.502   4.657   6.129  0.6108  0.2362  0.4683
 8060SOL     OW35815   2.166   2.461   0.457 -0.0614 -0.2704 -0.0189
 8060SOL    HW135816   2.081   2.499   0.478  0.1311  0.5474 -0.7082
 8060SOL    HW235817   2.207   2.532   0.408 -0.4415  1.2323  1.8164
 8061SOL     OW35818   0.130   2.823   6.146  0.3078  0.0276 -0.9115
 8061SOL    HW135819   0.128   2.835   6.241 -0.8739 -0.4476 -0.8720
 8061SOL    HW235820   0.055   2.764   6.134 -0.8764  1.3442 -0.0699
 8062SOL     OW35821   0.956   1.684   6.930  0.0290 -0.3696  0.3153
 8062SOL    HW135822   1.030   1.735   6.897 -0.5523  1.5042  1.9116
 8062SOL    HW235823   1.001   1.607   6.965  1.6301  1.8260  3.0050
 8063SOL     OW35824   2.319   3.943   7.530 -0.5867  0.0053 -0.3443
 8063SOL    HW135825   2.324   3.859   7.484  0.8093  0.7915 -1.6400
 8063SOL    HW235826   2.389   3.943   7.595 -1.0063  1.5922  0.0940
 8064SOL     OW35827   0.233   0.701  12.846 -0.1349 -0.8456 -0.1934
 8064SOL    HW135828   0.305   0.695  12.784  0.0562  0.1613 -0.0712
 8064SOL    HW235829   0.163   0.663  12.793  0.2380 -0.2196 -1.1386
 8065SOL     OW35830   2.284   0.051  14.477 -0.3113  0.5262 -1.3144
 8065SOL    HW135831   2.331   0.112  14.534 -3.4213  0.6565  1.0886
 8065SOL    HW235832   2.359   0.007  14.438 -1.5102 -2.7211  0.0986
 8066SOL     OW35833   3.915   4.094  17.276  0.5194  0.1580 -0.0409
 8066SOL    HW135834   3.917   4.009  17.232 -2.0667 -0.0970  0.3625
 8066SOL    HW235835   3.972   4.149  17.223 -0.4936  2.2860  1.0729
 8067SOL     OW35836   0.219   3.520   2.010  0.3602  0.3162 -0.2139
 8067SOL    HW135837   0.235   3.500   1.918 -1.7869 -0.2564 -0.4665
 8067SOL    HW235838   0.263   3.448   2.057 -0.5715 -0.1283 -0.0226
 8068SOL     OW35839   1.664   2.484   5.025  0.1938 -0.2374  0.7102
 8068SOL    HW135840   1.589   2.425   5.015  0.9973 -0.4455 -4.1327
 8068SOL    HW235841   1.726   2.423   5.066 -0.1912 -2.0170 -1.3812
 8069SOL     OW35842   2.428   1.323   6.681 -0.2672 -0.4063  0.0912
 8069SOL    HW135843   2.357   1.265   6.709  1.3902 -2.4169  0.0916
 8069SOL    HW235844   2.405   1.329   6.588  1.8097  3.4503 -0.2050
 8070SOL     OW35845   0.904   3.404   8.801  0.2170 -0.0553  0.0352
 8070SOL    HW135846   0.962   3.337   8.836 -1.0084 -0.8585  0.5100
 8070SOL    HW235847   0.964   3.438   8.734  0.2139  1.3412  0.7401
 8071SOL     OW35848   2.969   4.465   3.905 -0.3150 -0.4159  0.0116
 8071SOL    HW135849   3.021   4.416   3.842 -1.0545 -1.1690 -0.0076
 8071SOL    HW235850   2.883   4.450   3.866  0.0677  0.6476 -1.2650
 8072SOL     OW35851   0.476   0.372   2.882 -0.3608  0.4072  0.1548
 8072SOL    HW135852   0.504   0.418   2.960  0.3037  1.1786 -0.5441
 8072SOL    HW235853   0.399   0.423   2.858  0.5966  1.4208 -0.7119
 8073SOL     OW35854   1.834   2.493  10.683  0.1475  0.3421 -0.0705
 8073SOL    HW135855   1.771   2.424  10.663 -0.7051  1.0279  0.2467
 8073SOL    HW235856   1.776   2.565  10.706  0.8367  0.0784  2.4368
 8074SOL     OW35857   0.464   3.426   7.672  0.4933 -0.1251 -0.3812
 8074SOL    HW135858   0.418   3.496   7.625  1.7658  0.6122 -0.5225
 8074SOL    HW235859   0.550   3.467   7.672  0.2746  0.3364 -1.7359
 8075SOL     OW35860   4.568   3.227   0.670 -0.1117  0.7000 -0.1296
 8075SOL    HW135861   4.501   3.271   0.617  2.1544  0.9385 -2.7865
 8075SOL    HW235862   4.582   3.296   0.736 -0.2731  1.9015 -1.3451
 8076SOL     OW35863   1.642   3.033   3.383 -0.0535 -0.2806  0.5474
 8076SOL    HW135864   1.618   3.070   3.468  1.5454 -0.2809  1.0015
 8076SOL    HW235865   1.737   3.040   3.388  0.0993 -1.9735 -0.0027
 8077SOL     OW35866   3.391   4.023   3.968  0.1631 -0.2685  0.9122
 8077SOL    HW135867   3.461   4.043   4.030  0.9072  1.5780 -0.5338
 8077SOL    HW235868   3.375   4.101   3.915 -0.6190 -1.4513 -0.5902
 8078SOL     OW35869   4.726   2.596   8.225 -0.4249 -0.1777  0.2290
 8078SOL    HW135870   0.039   2.650   8.164  3.4869 -2.0419  1.7697
 8078SOL    HW235871   4.731   2.651   8.303 -0.9015 -1.2583  1.0193
 8079SOL     OW35872   2.704   2.192   8.072  0.6118  0.6848 -0.0462
 8079SOL    HW135873   2.651   2.170   7.996  1.0488 -1.7234  0.3472
 8079SOL    HW235874   2.685   2.121   8.133  1.3821  0.8508  0.3884
 8080SOL     OW35875   3.781   1.458   4.808  0.1994  0.0144 -0.1180
 8080SOL    HW135876   3.778   1.366   4.835  1.1914  0.0953  0.2799
 8080SOL    HW235877   3.690   1.474   4.781 -0.1402 -1.2310  0.3120
 8081SOL     OW35878   1.082   3.940  15.410  0.4683 -0.1866 -0.4174
 8081SOL    HW135879   1.175   3.923  15.392  0.4604 -0.4913 -0.1761
 8081SOL    HW235880   1.075   3.884  15.488 -1.1956  0.4702 -0.1031
 8082SOL     OW35881   3.355   1.933   7.584  0.1296 -0.0814 -0.5299
 8082SOL    HW135882   3.423   1.980   7.535  1.3535 -1.5191 -0.2262
 8082SOL    HW235883   3.410   1.907   7.658 -0.7883  2.7942  1.1573
 8083SOL     OW35884   4.209   3.370   3.669 -0.0677  0.1600 -0.5823
 8083SOL    HW135885   4.251   3.429   3.606 -0.0364 -1.4368 -2.0531
 8083SOL    HW235886   4.130   3.421   3.685  0.5749  1.6472 -2.1526
 8084SOL     OW35887   4.044   3.437   9.220  0.2293  0.2928 -0.1878
 8084SOL    HW135888   4.131   3.474   9.205  0.6446 -0.5871  0.0002
 8084SOL    HW235889   3.995   3.518   9.230 -1.3900 -0.5033 -1.6913
 8085SOL     OW35890   3.781   2.958   7.414  0.1328  0.1815 -0.0507
 8085SOL    HW135891   3.700   2.972   7.461  0.9217  2.0845  0.7449
 8085SOL    HW235892   3.828   3.034   7.447  1.7688  0.4341 -2.9403
 8086SOL     OW35893   0.613   4.046   7.785 -0.1673 -0.1246  0.3804
 8086SOL    HW135894   0.530   4.089   7.806 -1.2187 -1.3289 -1.2907
 8086SOL    HW235895   0.665   4.116   7.746  0.5792 -1.5784 -1.2437
 8087SOL     OW35896   3.607   3.832   6.460 -0.0908 -0.0003 -0.2333
 8087SOL    HW135897   3.520   3.872   6.450 -1.2842 -1.8874  2.5662
 8087SOL    HW235898   3.585   3.739   6.456  1.1341 -0.4673  3.6904
 8088SOL     OW35899   2.680   4.731   7.577  0.1799 -0.8024  0.3530
 8088SOL    HW135900   2.598   4.723   7.624  1.0561  1.2085  2.2302
 8088SOL    HW235901   2.741   4.727   7.650  1.6421 -0.1209 -0.8131
 8089SOL     OW35902   4.293   3.640   6.962  0.6046 -0.2644  0.4898
 8089SOL    HW135903   4.248   3.721   6.988  2.0640  0.7261 -0.1106
 8089SOL    HW235904   4.273   3.584   7.037 -1.0854 -1.9039 -1.1648
 8090SOL     OW35905   3.204   0.675   4.516  0.4183 -0.2908 -0.4797
 8090SOL    HW135906   3.144   0.749   4.525  0.5775  0.0183 -2.0933
 8090SOL    HW235907   3.146   0.599   4.511  1.3573 -1.1001  0.7465
 8091SOL     OW35908   4.429   3.308   4.178  1.2090  0.2777  0.5825
 8091SOL    HW135909   4.462   3.255   4.105 -3.5445  0.1367 -1.4901
 8091SOL    HW235910   4.334   3.297   4.169  1.4078 -2.1720  1.5163
 8092SOL     OW35911   1.316   2.546   7.031  0.4538 -0.5831  0.2770
 8092SOL    HW135912   1.285   2.457   7.052  0.2605  0.0401  2.5857
 8092SOL    HW235913   1.239   2.595   7.059  0.2930 -1.1024  0.7409
 8093SOL     OW35914   4.026   3.134   4.738  0.3378 -0.4551  0.0165
 8093SOL    HW135915   4.063   3.050   4.710  0.2740 -0.5283  0.1504
 8093SOL    HW235916   4.068   3.183   4.668 -1.3182  0.2620 -0.4907
 8094SOL     OW35917   2.856   3.063   4.292  0.2074  0.2583  0.0747
 8094SOL    HW135918   2.810   3.147   4.287  0.5933  0.4982  0.4234
 8094SOL    HW235919   2.941   3.083   4.251  0.2393 -0.7092 -0.3160
 8095SOL     OW35920   0.010   2.136   5.526 -0.0301  1.3065 -0.3215
 8095SOL    HW135921   0.037   2.154   5.616 -0.6116  0.9016 -0.0645
 8095SOL    HW235922   4.655   2.160   5.543 -0.8448 -0.8214 -1.7739
 8096SOL     OW35923   2.092   2.398   3.808  0.1579  0.0484 -0.0629
 8096SOL    HW135924   2.045   2.330   3.855 -1.8644  0.3888 -1.5863
 8096SOL    HW235925   2.040   2.473   3.837 -1.0803 -1.3275  1.2625
 8097SOL     OW35926   1.081   1.598   3.390  0.2926  0.0478 -0.5657
 8097SOL    HW135927   1.078   1.693   3.401 -1.3671 -0.4203  3.1405
 8097SOL    HW235928   1.061   1.598   3.297  0.1796 -0.1258 -0.5417
 8098SOL     OW35929   2.026   3.815   6.181 -0.0015 -0.2167  0.1120
 8098SOL    HW135930   1.961   3.878   6.212 -0.9722 -1.6444  1.0092
 8098SOL    HW235931   2.000   3.736   6.230  0.1511 -0.1777  0.2556
 8099SOL     OW35932   2.618   0.168   8.198  0.1091  0.0502 -0.3446
 8099SOL    HW135933   2.577   0.209   8.275  0.5955  1.3056 -0.7627
 8099SOL    HW235934   2.676   0.241   8.175  1.2718 -0.0400  2.3083
 8100SOL     OW35935   3.142   1.076   3.008 -0.1258 -0.1663 -0.5804
 8100SOL    HW135936   3.232   1.051   2.991  0.7853  1.9524  1.2057
 8100SOL    HW235937   3.133   1.123   2.924 -0.4989 -0.8357 -0.9164
 8101SOL     OW35938   4.212   1.989   6.751  0.0451  0.0253  0.2495
 8101SOL    HW135939   4.258   1.905   6.747 -1.3117 -0.7636  1.2181
 8101SOL    HW235940   4.119   1.964   6.748 -0.2051  0.8102  1.2456
 8102SOL     OW35941   2.763   0.228   8.773  0.3117 -0.0648  0.1697
 8102SOL    HW135942   2.712   0.308   8.786 -0.2714 -0.3430 -0.3688
 8102SOL    HW235943   2.745   0.173   8.849  1.5714 -1.1647 -0.3145
 8103SOL     OW35944   2.430   0.451   9.671  0.0433  0.1312 -0.5375
 8103SOL    HW135945   2.520   0.440   9.702 -0.5665 -1.4548  0.6640
 8103SOL    HW235946   2.389   0.373   9.708  0.9975 -0.8471 -1.5415
 8104SOL     OW35947   2.958   2.391   2.979  0.5312  0.5370  0.3459
 8104SOL    HW135948   2.944   2.432   3.064 -0.1342  2.0379 -0.4875
 8104SOL    HW235949   2.991   2.307   3.010 -0.1459 -0.8288 -2.5985
 8105SOL     OW35950   0.710   0.877   2.878  0.5092  0.2985 -0.1282
 8105SOL    HW135951   0.647   0.936   2.919 -0.6361 -0.4596 -0.7628
 8105SOL    HW235952   0.790   0.924   2.900  0.1135  1.5373 -1.2829
 8106SOL     OW35953   0.358   3.115   6.692  0.1079  0.4933  0.0008
 8106SOL    HW135954   0.406   3.069   6.762  1.2529 -0.9646 -1.7548
 8106SOL    HW235955   0.272   3.086   6.724  0.4798 -0.1831  0.4039
 8107SOL     OW35956   2.745   0.452   2.045 -0.6651 -0.6049  0.2121
 8107SOL    HW135957   2.667   0.488   2.002 -0.2625  1.4948  1.2478
 8107SOL    HW235958   2.816   0.515   2.040 -0.7530 -0.6004 -1.0752
 8108SOL     OW35959   1.692   0.885   4.747  0.1394 -0.2379  0.4047
 8108SOL    HW135960   1.605   0.845   4.741 -1.4051  3.2387 -0.4935
 8108SOL    HW235961   1.706   0.877   4.841 -1.3585 -2.8173  0.4200
 8109SOL     OW35962   0.331   4.734   6.170  0.3119  0.5896  0.5943
 8109SOL    HW135963   0.391   4.716   6.097 -0.1860  2.1602 -0.1892
 8109SOL    HW235964   0.269   0.059   6.132  1.1593  0.3649 -1.1605
 8110SOL     OW35965   1.842   0.681   2.809 -0.3068  0.4140 -0.3713
 8110SOL    HW135966   1.916   0.718   2.859  1.3837 -2.5185 -0.7260
 8110SOL    HW235967   1.800   0.628   2.876 -0.1173 -1.0029 -1.3806
 8111SOL     OW35968   4.105   0.561   5.962 -0.3300  0.1645 -0.9653
 8111SOL    HW135969   4.050   0.490   5.929  0.6503  0.1923 -2.6321
 8111SOL    HW235970   4.077   0.621   5.892 -1.2274  1.8515  0.8387
 8112SOL     OW35971   4.440   2.323   9.243  0.2616 -0.6405 -0.4851
 8112SOL    HW135972   4.436   2.334   9.148 -2.3639 -0.8142 -0.4014
 8112SOL    HW235973   4.529   2.356   9.253 -0.1060  0.2180 -0.0133
 8113SOL     OW35974   3.669   1.811   3.932  0.9176  0.2735  0.3627
 8113SOL    HW135975   3.728   1.757   3.879  0.8887 -0.7920  1.4112
 8113SOL    HW235976   3.711   1.897   3.930 -1.4312  1.4454  0.6698
 8114SOL     OW35977   2.283   0.320   7.325 -0.2734 -0.0189  0.7427
 8114SOL    HW135978   2.288   0.415   7.316  1.5743 -0.1051  0.7534
 8114SOL    HW235979   2.344   0.316   7.398  0.8105  0.5688 -0.1244
 8115SOL     OW35980   1.797   0.226  16.286 -0.0844 -0.5575  0.2735
 8115SOL    HW135981   1.805   0.153  16.225  0.5600  1.0611 -1.5542
 8115SOL    HW235982   1.734   0.185  16.346 -1.3112  0.0719 -0.5830
 8116SOL     OW35983   2.201   3.121   7.286  0.0468  0.0531 -0.3102
 8116SOL    HW135984   2.211   3.216   7.284 -0.3041  0.0796 -0.7197
 8116SOL    HW235985   2.135   3.103   7.353 -1.8310 -3.4912 -3.1041
 8117SOL     OW35986   3.683   2.473   8.484  0.1959 -0.0384  0.5892
 8117SOL    HW135987   3.594   2.502   8.503 -0.0590 -0.2400 -0.3068
 8117SOL    HW235988   3.719   2.561   8.473 -0.9383  0.2063 -1.2495
 8118SOL     OW35989   1.000   3.741  10.807 -0.3452  0.1027  0.4767
 8118SOL    HW135990   0.952   3.752  10.725 -0.3286 -2.3185  0.1262
 8118SOL    HW235991   1.002   3.830  10.841  1.0315 -0.0331  0.7430
 8119SOL     OW35992   2.317   2.868   6.095  0.0884 -0.1145  0.5933
 8119SOL    HW135993   2.267   2.810   6.153 -0.7860  0.4585  0.4104
 8119SOL    HW235994   2.259   2.943   6.102 -0.5860 -0.5715 -0.1198
 8120SOL     OW35995   0.777   0.078   2.006  0.2065  0.7226 -0.2157
 8120SOL    HW135996   0.683   0.078   1.986  0.5270 -1.4508 -1.7125
 8120SOL    HW235997   0.807   0.129   1.930  0.0253 -1.7436 -1.9431
 8121SOL     OW35998   3.795   2.972  17.032  0.1747  0.5376 -0.2708
 8121SOL    HW135999   3.803   2.878  17.016 -2.0550  0.5898 -1.6838
 8121SOL    HW236000   3.714   2.983  16.982  1.5916  1.5069 -2.3806
 8122SOL     OW36001   4.585   0.334  15.102  0.1183 -0.4299  0.4308
 8122SOL    HW136002   4.612   0.288  15.022 -0.8061 -2.0521  1.0560
 8122SOL    HW236003   4.611   0.421  15.072 -3.4044  0.7160  0.6738
 8123SOL     OW36004   1.621   1.112   6.249  1.1807  0.4228  0.1630
 8123SOL    HW136005   1.639   1.030   6.204 -0.6336  1.2976 -2.1357
 8123SOL    HW236006   1.710   1.139   6.270  0.1414  1.0537  3.6862
 8124SOL     OW36007   4.032   4.480   7.327  0.5896  0.4847 -0.5329
 8124SOL    HW136008   4.023   4.438   7.241 -1.4713  2.6959 -1.4335
 8124SOL    HW236009   4.109   4.536   7.315  1.0285  0.1373  0.7004
 8125SOL     OW36010   3.696   2.145   1.212 -0.0274  0.6953  0.1758
 8125SOL    HW136011   3.650   2.228   1.200 -0.1360  0.7383  0.8526
 8125SOL    HW236012   3.771   2.154   1.154 -1.3049 -2.9420 -2.0541
 8126SOL     OW36013   0.807   2.999   4.596 -0.0880 -0.2424  0.7332
 8126SOL    HW136014   0.790   2.956   4.680 -1.5196 -0.2596  0.4292
 8126SOL    HW236015   0.765   3.084   4.610 -0.1595 -0.2370  0.4824
 8127SOL     OW36016   3.007   0.012   7.596 -0.8428  0.2956  0.1201
 8127SOL    HW136017   3.024   4.656   7.582  2.2793  0.7967  0.5448
 8127SOL    HW236018   2.948   4.731   7.669  1.7512  0.1752  2.2197
 8128SOL     OW36019   2.126   1.310  12.455  0.6740 -0.5503 -0.3528
 8128SOL    HW136020   2.199   1.339  12.509 -0.3748  1.2981  0.0404
 8128SOL    HW236021   2.058   1.369  12.486  0.2739 -0.0396 -2.2261
 8129SOL     OW36022   1.412   1.954  10.153 -0.1654  0.1336 -0.5678
 8129SOL    HW136023   1.360   1.886  10.197 -0.2139  0.6622  0.2106
 8129SOL    HW236024   1.340   2.010  10.123  0.1146 -0.4161 -2.2206
 8130SOL     OW36025   2.865   0.610   8.877 -0.3946 -0.4786  0.5906
 8130SOL    HW136026   2.789   0.552   8.884  0.2400 -1.2764  0.9425
 8130SOL    HW236027   2.884   0.595   8.785 -0.3595 -3.3536  1.0482
 8131SOL     OW36028   2.182   0.168   2.642 -0.0641 -0.3508  0.5741
 8131SOL    HW136029   2.231   0.209   2.713  0.9469 -1.0982  0.3109
 8131SOL    HW236030   2.096   0.160   2.683 -0.7708 -0.8937 -1.0059
 8132SOL     OW36031   2.374   4.709   1.998 -0.4946  0.0507 -0.4959
 8132SOL    HW136032   2.464   0.005   2.006 -0.4791 -0.0449 -0.2805
 8132SOL    HW236033   2.329   4.734   2.079 -0.3887 -0.0387 -0.4097
 8133SOL     OW36034   4.272   0.124   0.940 -0.4257 -0.0999  0.0509
 8133SOL    HW136035   4.324   0.071   1.001  0.2493 -0.5200 -0.8833
 8133SOL    HW236036   4.229   0.182   1.003 -1.8875 -0.9958 -0.1181
 8134SOL     OW36037   0.574   2.510   9.263  0.0947 -0.3600 -0.0910
 8134SOL    HW136038   0.559   2.431   9.316 -0.8847  0.7672  1.3493
 8134SOL    HW236039   0.513   2.567   9.310  0.0686 -0.9272  0.5788
 8135SOL     OW36040   0.390   1.406   6.684  0.1780  0.5369  0.2144
 8135SOL    HW136041   0.460   1.431   6.744  0.4683  0.2101  0.0160
 8135SOL    HW236042   0.449   1.397   6.608 -0.7001  0.0821 -0.4163
 8136SOL     OW36043   0.109   4.149  16.338 -0.3645 -0.3397  0.0407
 8136SOL    HW136044   0.099   4.098  16.418 -0.5944 -1.2376 -0.5458
 8136SOL    HW236045   0.162   4.225  16.362 -0.4462  0.1767 -1.3943
 8137SOL     OW36046   3.463   3.423   9.179 -0.5965 -0.1169 -0.3920
 8137SOL    HW136047   3.521   3.347   9.182 -0.6112 -0.1117 -0.0413
 8137SOL    HW236048   3.534   3.487   9.168 -0.4669  0.0546  1.5247
 8138SOL     OW36049   4.731   2.171  11.844  0.2499  0.0364 -0.5743
 8138SOL    HW136050   0.053   2.192  11.917 -1.0657 -1.8583  1.0274
 8138SOL    HW236051   4.676   2.249  11.837  0.2926 -0.0421 -1.9168
 8139SOL     OW36052   1.857   0.373  11.016  0.1267  0.0178  0.5006
 8139SOL    HW136053   1.914   0.299  11.038  0.1490  0.2130  1.0822
 8139SOL    HW236054   1.878   0.388  10.924  1.3726  1.9177  1.0908
 8140SOL     OW36055   4.717   4.020   3.461  0.0770 -1.0115 -0.2613
 8140SOL    HW136056   4.680   4.084   3.522  0.7968 -0.3107 -0.5602
 8140SOL    HW236057   4.718   4.060   3.374  1.4567 -2.1183 -0.7386
 8141SOL     OW36058   3.648   4.336   1.901 -0.1233  0.0693  0.4629
 8141SOL    HW136059   3.734   4.353   1.940 -0.9378  3.5244  0.7720
 8141SOL    HW236060   3.668   4.314   1.810  2.1814  0.0186  0.9906
 8142SOL     OW36061   1.647   4.258   7.469  0.3733 -0.0129 -0.1143
 8142SOL    HW136062   1.694   4.188   7.423  0.6265  1.0452 -1.4512
 8142SOL    HW236063   1.687   4.249   7.556  0.3562 -1.5033 -0.2649
 8143SOL     OW36064   4.353   0.497   6.058 -0.3161  0.0569  0.2569
 8143SOL    HW136065   4.265   0.518   6.028 -0.7644 -0.0457  1.5297
 8143SOL    HW236066   4.356   0.521   6.150 -1.2790 -3.4090  1.1700
 8144SOL     OW36067   1.087   4.088   1.833  0.2300 -0.2186  0.6452
 8144SOL    HW136068   1.173   4.109   1.799 -0.2970 -0.4204 -0.7965
 8144SOL    HW236069   1.119   4.082   1.923 -0.2032 -0.2852  0.7956
 8145SOL     OW36070   3.776   0.962   2.024 -0.1256 -0.5507  0.6782
 8145SOL    HW136071   3.739   1.016   1.954  0.4569 -1.7675 -0.5763
 8145SOL    HW236072   3.714   0.956   2.097  0.6121  1.5590  1.4592
 8146SOL     OW36073   0.199   0.798   6.083  0.1067  0.4022  0.3531
 8146SOL    HW136074   0.224   0.836   5.999 -0.4828  1.8930  0.8467
 8146SOL    HW236075   0.273   0.821   6.140 -0.2323  0.8468  0.6164
 8147SOL     OW36076   1.950   1.364  17.674  0.4897 -0.3360 -0.2530
 8147SOL    HW136077   2.029   1.310  17.678 -0.2373 -1.1800  2.5486
 8147SOL    HW236078   1.952   1.389   0.021  0.9018  1.3974 -0.7108
 8148SOL     OW36079   2.611   4.479   9.572 -0.1243 -0.5380 -0.2584
 8148SOL    HW136080   2.656   4.562   9.557 -2.5696  0.8221 -0.1159
 8148SOL    HW236081   2.558   4.509   9.646  0.4096 -0.7878  0.2178
 8149SOL     OW36082   4.113   2.607   3.048 -0.4047  0.0984 -0.8769
 8149SOL    HW136083   4.186   2.667   3.035 -2.0499  1.5793 -3.3038
 8149SOL    HW236084   4.064   2.630   3.127  1.8298 -0.3912  0.6516
 8150SOL     OW36085   2.579   4.272   3.319  0.9479  0.1820 -0.3532
 8150SOL    HW136086   2.510   4.276   3.253  0.8357 -0.5808 -0.2841
 8150SOL    HW236087   2.528   4.205   3.366  1.7961 -0.3594 -0.1953
 8151SOL     OW36088   0.807   1.243   3.487  0.2668 -0.0602 -1.0736
 8151SOL    HW136089   0.756   1.324   3.480  1.1050  0.3472 -2.4951
 8151SOL    HW236090   0.790   1.206   3.400  1.2038 -1.2585 -0.7366
 8152SOL     OW36091   3.783   1.881   8.254  0.1422 -0.7583  0.1025
 8152SOL    HW136092   3.747   1.961   8.293 -0.9087 -2.0277  1.7181
 8152SOL    HW236093   3.837   1.840   8.321 -2.0280 -1.0104  1.6898
 8153SOL     OW36094   3.829   1.204   7.611  0.3130  0.7980  0.6635
 8153SOL    HW136095   3.757   1.267   7.607 -0.4514 -0.3987 -4.9454
 8153SOL    HW236096   3.892   1.229   7.543  1.0255 -0.2330  0.9461
 8154SOL     OW36097   3.767   4.449   3.959  0.7136 -0.0460  0.4404
 8154SOL    HW136098   3.703   4.378   3.955  1.6531 -0.9352  1.2500
 8154SOL    HW236099   3.712   4.526   3.949 -0.4572 -0.5335  3.0514
 8155SOL     OW36100   3.310   3.466  12.772 -0.2684  0.3798 -0.7589
 8155SOL    HW136101   3.340   3.487  12.860 -0.6952 -3.1241  0.2123
 8155SOL    HW236102   3.324   3.555  12.738 -1.3983  1.2029  0.9318
 8156SOL     OW36103   3.468   1.618   9.144  0.2371  0.4660 -0.5580
 8156SOL    HW136104   3.468   1.669   9.225  0.8960  0.2916 -0.4455
 8156SOL    HW236105   3.403   1.671   9.098  0.3039  1.0875  0.0554
 8157SOL     OW36106   0.789   0.439   1.105 -0.6230 -0.4671  0.2740
 8157SOL    HW136107   0.713   0.409   1.055  0.0049 -1.5330 -0.0423
 8157SOL    HW236108   0.819   0.515   1.056 -0.3545  0.7328  2.2696
 8158SOL     OW36109   0.657   0.476   5.114  0.5727 -0.1651 -0.1084
 8158SOL    HW136110   0.587   0.532   5.147 -0.2023 -1.3465  0.2329
 8158SOL    HW236111   0.648   0.486   5.019 -0.2282 -1.4054 -0.1505
 8159SOL     OW36112   4.090   0.548  15.416  0.1530  0.6167  0.2192
 8159SOL    HW136113   4.052   0.635  15.408  1.1700  0.9456 -0.8352
 8159SOL    HW236114   4.135   0.545  15.501  0.4499  1.8282  0.0992
 8160SOL     OW36115   3.458   0.862   7.205 -0.6418  0.5495  0.3443
 8160SOL    HW136116   3.544   0.889   7.235  0.3426 -1.3143 -0.7856
 8160SOL    HW236117   3.413   0.866   7.290 -0.9101  0.0316  0.2290
 8161SOL     OW36118   1.706   1.443  16.775 -0.2547  0.1818  0.0623
 8161SOL    HW136119   1.630   1.469  16.826 -1.3929 -1.3870 -0.8402
 8161SOL    HW236120   1.686   1.477  16.687 -2.3423  0.3927  0.6299
 8162SOL     OW36121   4.715   0.809   7.109 -0.1563 -0.5447  0.3064
 8162SOL    HW136122   0.069   0.789   7.086  0.5810  0.6701  2.2057
 8162SOL    HW236123   4.686   0.848   7.027  1.3572 -0.1741 -0.0365
 8163SOL     OW36124   2.568   2.273   8.614  0.2147  0.2321  0.2195
 8163SOL    HW136125   2.498   2.316   8.663 -1.0416 -0.0250 -1.3364
 8163SOL    HW236126   2.557   2.195   8.668  0.1591 -0.5644 -0.9468
 8164SOL     OW36127   1.087   1.074  14.080 -0.2248  0.1031 -0.7567
 8164SOL    HW136128   1.089   0.980  14.067 -2.7924  0.0294 -0.5755
 8164SOL    HW236129   1.165   1.094  14.028 -0.5672 -1.6975 -1.9351
 8165SOL     OW36130   1.142   0.320   6.250 -0.0099 -0.0354  0.0502
 8165SOL    HW136131   1.197   0.250   6.215 -0.2037  0.1546 -0.6381
 8165SOL    HW236132   1.080   0.267   6.300 -0.5218 -0.7037 -1.3079
 8166SOL     OW36133   0.880   3.626   5.904  0.5258 -0.3540 -0.1782
 8166SOL    HW136134   0.835   3.542   5.912  1.6458 -1.1196 -1.7976
 8166SOL    HW236135   0.817   3.664   5.842  3.0591  1.1295 -1.8314
 8167SOL     OW36136   1.642   2.169   5.601 -1.0269  0.1659 -0.1404
 8167SOL    HW136137   1.604   2.100   5.546  1.5617 -1.3898 -0.0230
 8167SOL    HW236138   1.727   2.128   5.618 -0.0987  1.7803 -0.9630
 8168SOL     OW36139   2.248   4.398   9.662  0.4996  0.7501 -0.4309
 8168SOL    HW136140   2.162   4.372   9.696  0.1773 -1.0674 -2.5961
 8168SOL    HW236141   2.234   4.492   9.651 -0.1767  0.5212 -1.5899
 8169SOL     OW36142   4.209   3.467   7.160 -0.9318  0.5344  0.0142
 8169SOL    HW136143   4.213   3.375   7.187  1.1912  0.0723 -1.8450
 8169SOL    HW236144   4.230   3.514   7.240  0.0469  0.7344 -0.3568
 8170SOL     OW36145   3.405   0.900   6.129 -0.6026  0.3273  0.3547
 8170SOL    HW136146   3.374   0.810   6.117  0.2718 -0.0191  0.6169
 8170SOL    HW236147   3.498   0.877   6.122 -0.8364  0.1664 -2.1882
 8171SOL     OW36148   2.611   0.930   9.113  0.3720 -0.1415 -0.0099
 8171SOL    HW136149   2.580   0.996   9.175  1.2268 -1.2466  1.6045
 8171SOL    HW236150   2.608   0.854   9.171 -2.2065  0.1237  0.1957
 8172SOL     OW36151   0.675   0.962  13.659  0.2671 -0.6698 -0.4280
 8172SOL    HW136152   0.742   0.968  13.727 -0.5550  1.1768  0.2051
 8172SOL    HW236153   0.603   0.937  13.717  0.5847 -0.0068  0.2504
 8173SOL     OW36154   2.378   2.793   1.867 -0.0300 -0.4042  0.2615
 8173SOL    HW136155   2.402   2.859   1.931  1.3888 -0.9250  0.2570
 8173SOL    HW236156   2.332   2.724   1.916  0.2066 -0.9024 -0.2138
 8174SOL     OW36157   0.610   0.559   5.525 -0.5513 -0.2170 -0.6852
 8174SOL    HW136158   0.567   0.628   5.574 -1.5956  0.9768 -3.2610
 8174SOL    HW236159   0.670   0.619   5.481 -0.6310 -0.4660 -1.1417
 8175SOL     OW36160   1.987   3.275  12.443  0.1210  0.8442  0.4634
 8175SOL    HW136161   1.937   3.343  12.489 -1.3540 -0.5249  0.9133
 8175SOL    HW236162   1.933   3.272  12.364 -1.7030  0.0622  1.7184
 8176SOL     OW36163   1.040   2.319  10.364 -0.4893 -0.1541 -0.2335
 8176SOL    HW136164   1.073   2.239  10.404  0.4993 -0.6121 -1.9575
 8176SOL    HW236165   1.071   2.393  10.418  0.1812  0.5668 -1.5934
 8177SOL     OW36166   3.897   1.235   5.383  0.5583  0.5626 -0.0477
 8177SOL    HW136167   3.969   1.178   5.408 -1.2995 -1.2692  1.1634
 8177SOL    HW236168   3.882   1.205   5.293  1.4904 -0.7967  0.2507
 8178SOL     OW36169   0.070   3.092   0.338  0.2084  0.1840 -0.0877
 8178SOL    HW136170   0.064   3.108   0.433 -0.6609 -1.0938  0.0674
 8178SOL    HW236171   0.008   3.155   0.302 -0.5570  0.7077  2.1286
 8179SOL     OW36172   1.131   3.040  16.931  0.4597 -0.0911 -0.6509
 8179SOL    HW136173   1.079   3.086  16.865 -1.1296 -0.1031  0.5733
 8179SOL    HW236174   1.135   3.102  17.004 -0.1627 -1.6143  0.6872
 8180SOL     OW36175   2.514   2.046   1.155  0.5983  0.1641  0.1779
 8180SOL    HW136176   2.517   2.140   1.135  2.5089 -0.2396 -1.4709
 8180SOL    HW236177   2.596   2.042   1.206 -0.0074 -1.0469  1.0522
 8181SOL     OW36178   4.658   3.626   3.841  0.2463 -0.0619 -0.1411
 8181SOL    HW136179   4.693   3.585   3.762  0.6934 -0.1516  0.1014
 8181SOL    HW236180   4.577   3.577   3.845 -0.3176  1.1018  2.5254
 8182SOL     OW36181   0.769   2.170   7.521  0.0883 -0.1891  0.7838
 8182SOL    HW136182   0.777   2.107   7.592 -0.0832 -0.2044  0.7886
 8182SOL    HW236183   0.825   2.132   7.453 -0.5288  2.1794 -1.0588
 8183SOL     OW36184   1.655   2.279   5.852 -0.1942 -0.7939 -0.3935
 8183SOL    HW136185   1.629   2.228   5.775  0.4527 -1.6771 -0.0362
 8183SOL    HW236186   1.636   2.213   5.919  1.6705 -0.4645  0.4721
 8184SOL     OW36187   1.588   0.614  11.100  0.2564 -0.7373 -0.6283
 8184SOL    HW136188   1.594   0.518  11.104  0.7846 -0.5748  2.4744
 8184SOL    HW236189   1.680   0.634  11.119  0.1967 -0.4137 -0.6891
 8185SOL     OW36190   1.622   0.922   6.718  0.5121 -0.4808  0.4146
 8185SOL    HW136191   1.646   0.842   6.671 -0.2363 -0.9457  0.8318
 8185SOL    HW236192   1.683   0.905   6.790  1.4928  1.8177  0.1263
 8186SOL     OW36193   0.906   2.613   7.213  0.3076 -0.0495  0.1073
 8186SOL    HW136194   0.901   2.614   7.309 -0.1563  2.2350  0.0743
 8186SOL    HW236195   0.815   2.597   7.188  0.9645 -1.0899 -1.5858
 8187SOL     OW36196   3.731   0.646   2.742  0.5083  0.6267 -0.0308
 8187SOL    HW136197   3.798   0.646   2.811  0.8291  1.0045 -0.3390
 8187SOL    HW236198   3.783   0.620   2.665  1.5487 -3.0236  1.9186
 8188SOL     OW36199   1.571   1.630  11.975 -0.7164  0.0464  0.6183
 8188SOL    HW136200   1.643   1.656  12.033 -0.7362 -1.5894  1.3804
 8188SOL    HW236201   1.585   1.537  11.992  2.9021  0.4375 -0.1942
 8189SOL     OW36202   1.743   4.433   2.530  0.2790 -0.2168 -0.3501
 8189SOL    HW136203   1.763   4.381   2.608 -2.4225 -0.8592 -0.0857
 8189SOL    HW236204   1.819   4.492   2.530 -1.0473  1.4640  1.4297
 8190SOL     OW36205   1.029   2.405  11.796 -0.1572 -0.1415 -0.0114
 8190SOL    HW136206   1.055   2.470  11.861 -0.5095  0.3817 -0.3880
 8190SOL    HW236207   1.030   2.461  11.718  0.6866  3.1697  2.3637
 8191SOL     OW36208   0.655   4.185   7.147 -0.5180 -0.0980 -0.0880
 8191SOL    HW136209   0.691   4.236   7.219 -0.4026  1.6606 -1.3782
 8191SOL    HW236210   0.737   4.170   7.099 -0.5156  1.7225 -0.6486
 8192SOL     OW36211   2.652   4.621   6.810  0.3143  0.3202 -0.2421
 8192SOL    HW136212   2.694   4.584   6.887  3.1219  1.3742 -1.2557
 8192SOL    HW236213   2.701   4.571   6.744  0.6358 -0.7386  0.8057
 8193SOL     OW36214   0.624   3.348   5.254 -0.3198 -0.3148 -0.3150
 8193SOL    HW136215   0.596   3.334   5.164  0.5358  0.3711 -0.6896
 8193SOL    HW236216   0.656   3.438   5.253 -2.1026  0.3242  1.1443
 8194SOL     OW36217   4.050   0.259  13.849  0.0211 -0.2296 -0.0895
 8194SOL    HW136218   3.981   0.271  13.785 -0.9597 -0.0351  1.0176
 8194SOL    HW236219   4.017   0.309  13.922 -0.3735  0.9577 -1.0873
 8195SOL     OW36220   0.590   3.267   4.223 -1.0197  0.1683  0.0269
 8195SOL    HW136221   0.644   3.215   4.282  1.5979  1.6820 -1.0150
 8195SOL    HW236222   0.635   3.351   4.228 -0.8238  0.1128 -0.7945
 8196SOL     OW36223   4.445   4.510   9.085 -0.9583 -0.1399  0.2903
 8196SOL    HW136224   4.375   4.561   9.126  0.0255  1.0977  0.4525
 8196SOL    HW236225   4.519   4.571   9.090 -0.5459 -0.6387  0.2860
 8197SOL     OW36226   1.164   0.611   8.447  0.7827  0.4808  0.5037
 8197SOL    HW136227   1.145   0.567   8.530  0.2414 -1.9738 -0.9322
 8197SOL    HW236228   1.159   0.703   8.473  2.9587  1.0226 -0.9510
 8198SOL     OW36229   1.151   4.574   4.753  0.0341 -0.5486 -0.0567
 8198SOL    HW136230   1.213   4.508   4.722  1.1067  0.6282 -0.4117
 8198SOL    HW236231   1.202   4.653   4.735 -1.2663  0.8397  2.3401
 8199SOL     OW36232   2.978   0.689   6.484 -0.3753  0.0664  0.1656
 8199SOL    HW136233   2.912   0.628   6.453 -1.1353  2.1859 -2.3980
 8199SOL    HW236234   2.927   0.769   6.471 -1.0550 -0.6274 -1.4176
 8200SOL     OW36235   1.238   2.856   8.605  0.5070 -0.0855  0.2690
 8200SOL    HW136236   1.220   2.804   8.684  0.4898 -2.0623 -1.0298
 8200SOL    HW236237   1.198   2.933   8.647 -1.9314 -0.2995 -1.6440
 8201SOL     OW36238   4.349   2.259   8.501  0.3790  0.0677 -0.0345
 8201SOL    HW136239   4.391   2.332   8.454  1.1193 -0.2029  0.2117
 8201SOL    HW236240   4.335   2.198   8.428  3.1088 -0.2673 -0.2704
 8202SOL     OW36241   1.614   2.085   3.425 -0.3825 -0.2605  0.3731
 8202SOL    HW136242   1.578   2.172   3.441  0.3018 -0.2064  1.6897
 8202SOL    HW236243   1.571   2.027   3.488 -0.0336  1.7624  2.4587
 8203SOL     OW36244   2.355   2.140  12.331 -0.3250  0.4083 -0.0784
 8203SOL    HW136245   2.320   2.123  12.244 -0.1993  0.0967 -0.0705
 8203SOL    HW236246   2.321   2.228  12.346  0.1883  0.4923  0.6069
 8204SOL     OW36247   4.154   2.357   6.513  0.1436 -0.2219  0.0171
 8204SOL    HW136248   4.185   2.301   6.441 -0.9547 -0.7208 -0.0700
 8204SOL    HW236249   4.220   2.426   6.509 -1.2032  1.0864  0.8922
 8205SOL     OW36250   0.581   2.673   1.664  0.3109 -0.0392  0.1648
 8205SOL    HW136251   0.538   2.747   1.621  2.9208  2.2640  1.5398
 8205SOL    HW236252   0.543   2.679   1.752 -0.2846 -2.9413  0.1029
 8206SOL     OW36253   4.514   3.478   3.314  0.7803 -0.0669  0.2525
 8206SOL    HW136254   4.520   3.383   3.305  2.5456  0.0560 -0.0258
 8206SOL    HW236255   4.520   3.493   3.219 -3.8134 -1.7218 -0.2882
 8207SOL     OW36256   3.614   0.314   3.567 -0.4955 -0.0896 -0.0979
 8207SOL    HW136257   3.617   0.262   3.487 -3.6971 -0.2291 -0.1397
 8207SOL    HW236258   3.535   0.367   3.557 -2.0225 -2.3680 -0.1258
 8208SOL     OW36259   2.906   1.717  17.340 -0.0925 -0.1051  0.2778
 8208SOL    HW136260   2.970   1.646  17.356  1.3222  1.1599  0.2517
 8208SOL    HW236261   2.837   1.708  17.406  0.7173  0.2336  1.1744
 8209SOL     OW36262   3.470   3.820  16.578  0.4393  0.1034 -0.3384
 8209SOL    HW136263   3.384   3.787  16.551  1.3331 -1.6186 -1.0930
 8209SOL    HW236264   3.486   3.785  16.665  0.4562  0.5937 -0.1444
 8210SOL     OW36265   0.116   4.138   1.104  0.1113 -0.1101 -0.1287
 8210SOL    HW136266   0.161   4.212   1.063  0.0372 -0.4472 -0.8164
 8210SOL    HW236267   0.043   4.127   1.044  0.7298  2.6425 -1.3754
 8211SOL     OW36268   4.144   0.432   8.240  0.1411  0.0943 -0.1241
 8211SOL    HW136269   4.050   0.450   8.236  0.0415 -0.0208  1.8323
 8211SOL    HW236270   4.149   0.360   8.303  0.1723 -0.7961 -1.1454
 8212SOL     OW36271   4.473   1.388   6.002  0.2681 -0.7576 -0.2321
 8212SOL    HW136272   4.554   1.344   5.979 -0.5503 -2.6072  0.3682
 8212SOL    HW236273   4.478   1.463   5.943 -3.3684  0.6381  1.1816
 8213SOL     OW36274   1.031   4.038   4.026 -0.8495  0.2646  0.0106
 8213SOL    HW136275   0.988   4.106   4.077  1.1808  1.0048  0.6815
 8213SOL    HW236276   1.123   4.059   4.040 -0.4973 -1.0327 -0.2818
 8214SOL     OW36277   4.450   1.041   5.161  0.2480 -0.0473  0.2434
 8214SOL    HW136278   4.521   0.981   5.184  0.3703 -0.1971 -0.5234
 8214SOL    HW236279   4.410   0.991   5.089  2.4940  1.0019 -1.7492
 8215SOL     OW36280   3.247   4.121   6.912 -0.7662  0.0169 -0.0256
 8215SOL    HW136281   3.337   4.114   6.945 -1.3227 -2.8955  0.8424
 8215SOL    HW236282   3.206   4.045   6.952 -0.4031 -0.7761 -1.1856
 8216SOL     OW36283   0.319   0.964   9.066 -0.2428  0.1291 -0.5241
 8216SOL    HW136284   0.226   0.979   9.055 -0.3902  0.0854  0.5898
 8216SOL    HW236285   0.345   1.026   9.135  0.6508 -0.6841 -0.1132
 8217SOL     OW36286   3.594   3.425   2.728  0.7510 -0.4740  0.6242
 8217SOL    HW136287   3.688   3.414   2.712  1.4574  1.2527  3.5193
 8217SOL    HW236288   3.586   3.506   2.778 -0.6618 -0.0494 -0.2958
 8218SOL     OW36289   4.332   0.588   8.769  0.8200  0.6150 -0.0653
 8218SOL    HW136290   4.391   0.535   8.716  0.6464  0.0085  0.3452
 8218SOL    HW236291   4.337   0.671   8.722  0.1732  0.4659 -0.3986
 8219SOL     OW36292   3.403   3.166   8.980  0.1837 -0.6028  0.1571
 8219SOL    HW136293   3.469   3.111   9.021  0.8987 -0.0918 -0.3134
 8219SOL    HW236294   3.466   3.212   8.924  0.3859 -1.7857 -0.5793
 8220SOL     OW36295   4.041   2.143   2.870 -0.1904  0.4293 -0.5292
 8220SOL    HW136296   3.974   2.201   2.834 -0.3238  0.2501 -0.5630
 8220SOL    HW236297   4.114   2.202   2.891  0.8705 -0.9183 -0.4165
 8221SOL     OW36298   1.663   2.045  14.017  0.0708  0.2085  0.0562
 8221SOL    HW136299   1.678   2.006  14.103  0.6045  1.0460  0.3500
 8221SOL    HW236300   1.627   2.127  14.051 -0.2128 -0.2449  0.8555
 8222SOL     OW36301   1.935   1.914  12.030 -0.0269 -0.5724  0.5774
 8222SOL    HW136302   1.946   1.824  12.059  0.4255  0.2620  3.0371
 8222SOL    HW236303   2.022   1.954  12.033 -0.1364 -0.2032 -0.9987
 8223SOL     OW36304   0.351   4.376  12.252 -0.2829  0.1800 -0.2355
 8223SOL    HW136305   0.420   4.357  12.189 -1.4729 -0.5555 -1.2880
 8223SOL    HW236306   0.340   4.471  12.248 -1.2159  0.0218 -1.2165
 8224SOL     OW36307   0.201   3.787   4.628 -0.5178  0.3832 -0.2537
 8224SOL    HW136308   0.288   3.826   4.623 -0.7454  0.8492 -0.6217
 8224SOL    HW236309   0.212   3.697   4.599  1.1100 -0.1348  1.9676
 8225SOL     OW36310   2.900   2.284   9.047 -0.1592  0.0889  0.4768
 8225SOL    HW136311   2.819   2.234   9.041  0.6648 -1.5810  3.2909
 8225SOL    HW236312   2.960   2.226   8.999 -1.5392  0.6183 -1.9039
 8226SOL     OW36313   1.622   0.545   2.194  0.8135  0.3659  0.1406
 8226SOL    HW136314   1.653   0.622   2.242  1.4799 -0.8777  1.7234
 8226SOL    HW236315   1.701   0.492   2.185  0.3916 -0.0983 -0.7560
 8227SOL     OW36316   0.628   0.105  15.285 -0.1821 -0.1516 -0.4025
 8227SOL    HW136317   0.597   0.142  15.202  1.4032  1.2927 -0.3410
 8227SOL    HW236318   0.565   0.149  15.342 -0.4378 -1.1026  0.0597
 8228SOL     OW36319   4.225   1.816  15.003  0.0224  0.0565  0.6031
 8228SOL    HW136320   4.293   1.815  15.069  0.6646 -0.8537 -0.0780
 8228SOL    HW236321   4.147   1.790  15.053 -0.4432  1.3725  0.5657
 8229SOL     OW36322   2.965   3.459   1.720  0.1992  0.3385  0.6331
 8229SOL    HW136323   2.980   3.542   1.674  1.7721 -0.6221 -0.6134
 8229SOL    HW236324   2.873   3.476   1.738  0.3587  0.5258  1.2705
 8230SOL     OW36325   4.174   3.444  13.383 -0.0976 -0.4046  0.3187
 8230SOL    HW136326   4.166   3.432  13.478 -1.1769  1.2422  0.4278
 8230SOL    HW236327   4.087   3.421  13.350 -0.9908  1.1390  1.6195
 8231SOL     OW36328   3.387   3.058   4.197 -0.8460 -0.2978 -0.2738
 8231SOL    HW136329   3.406   3.058   4.291 -1.4732  1.9220 -0.1329
 8231SOL    HW236330   3.444   2.985   4.174  0.3648  0.4554  0.3122
 8232SOL     OW36331   1.880   2.072  15.050 -0.3699 -0.6852 -0.3793
 8232SOL    HW136332   1.830   2.059  14.970 -1.5351 -2.2630  0.5937
 8232SOL    HW236333   1.956   2.127  15.033 -1.8357  1.1334 -1.0726
 8233SOL     OW36334   1.305   1.675  15.521 -0.2531  0.1804 -0.4772
 8233SOL    HW136335   1.268   1.759  15.548 -1.4543 -0.0996 -1.2785
 8233SOL    HW236336   1.261   1.623  15.588  0.8434 -0.7224 -0.4543
 8234SOL     OW36337   1.078   0.844   1.920  0.2328  0.1187  0.1311
 8234SOL    HW136338   1.036   0.822   1.837 -2.0484 -0.0889  1.3180
 8234SOL    HW236339   1.086   0.756   1.956  1.2702  0.6809  1.2543
 8235SOL     OW36340   2.100   2.027   6.874 -0.1376  0.1079 -0.5149
 8235SOL    HW136341   2.040   2.076   6.817  2.0350  2.9665 -0.3754
 8235SOL    HW236342   2.044   1.980   6.935  0.3407  0.2735  0.0579
 8236SOL     OW36343   1.922   3.224   1.766  0.0550  1.1103 -0.2201
 8236SOL    HW136344   1.997   3.170   1.793 -0.3559 -0.0752 -1.4215
 8236SOL    HW236345   1.910   3.281   1.842  0.5676  0.6417  0.2176
 8237SOL     OW36346   0.649   0.174  10.077  0.1420  0.2650  0.0915
 8237SOL    HW136347   0.587   0.128  10.133 -0.2034  1.4179  0.6581
 8237SOL    HW236348   0.633   0.263  10.107 -0.7857  0.6802 -1.6333
 8238SOL     OW36349   3.971   1.485   3.686 -0.4748 -0.1405 -0.5905
 8238SOL    HW136350   4.059   1.487   3.649  0.3530  0.5680  1.4039
 8238SOL    HW236351   3.994   1.518   3.773 -0.0105  0.5462 -0.9760
 8239SOL     OW36352   0.392   2.352   5.266 -0.4499  0.4262  0.1087
 8239SOL    HW136353   0.310   2.357   5.216 -1.7291  2.0522  2.3673
 8239SOL    HW236354   0.358   2.323   5.351  0.8090 -1.9814 -0.2060
 8240SOL     OW36355   3.872   0.716   4.467  0.5995 -0.3184 -0.2183
 8240SOL    HW136356   3.937   0.646   4.454  2.7972  1.4861  1.1051
 8240SOL    HW236357   3.860   0.702   4.561 -0.8988 -0.9191 -0.4970
 8241SOL     OW36358   2.129   3.099  15.367 -0.4406 -0.2575  0.2454
 8241SOL    HW136359   2.072   3.113  15.443  1.1283 -0.9530  1.5468
 8241SOL    HW236360   2.079   3.143  15.299 -1.3169  2.5040  2.6792
 8242SOL     OW36361   3.822   1.472   1.949  0.3083 -0.3949 -0.4341
 8242SOL    HW136362   3.805   1.501   2.038  1.1970  0.8402 -0.6679
 8242SOL    HW236363   3.763   1.531   1.901  1.2253  0.7862 -0.1003
 8243SOL     OW36364   3.248   0.824   5.260 -0.2978 -0.1419  0.1376
 8243SOL    HW136365   3.340   0.836   5.282 -0.1706  0.7669 -0.9170
 8243SOL    HW236366   3.209   0.804   5.345  1.8839  1.7722  1.5717
 8244SOL     OW36367   1.866   4.482   1.098  0.4852  0.3740  0.5787
 8244SOL    HW136368   1.793   4.527   1.141 -0.3049 -0.2014 -0.1778
 8244SOL    HW236369   1.895   4.547   1.034  1.3464 -0.0427  0.5480
 8245SOL     OW36370   1.823   3.704   7.839  0.0620  0.7617  0.4807
 8245SOL    HW136371   1.884   3.774   7.818  0.7187  0.6114  1.8796
 8245SOL    HW236372   1.781   3.734   7.919  2.3962 -0.1842  2.0513
 8246SOL     OW36373   3.634   2.102   0.320 -0.0015 -0.3841 -0.2907
 8246SOL    HW136374   3.643   2.191   0.285 -0.0854 -0.8372 -1.4555
 8246SOL    HW236375   3.600   2.058   0.242 -2.5711 -0.1267  0.6811
 8247SOL     OW36376   0.687   2.238   0.111 -0.1994 -0.1891  0.2612
 8247SOL    HW136377   0.627   2.265   0.180 -1.3617 -1.0224 -0.4216
 8247SOL    HW236378   0.724   2.155   0.143  0.5180  1.7263  4.3917
 8248SOL     OW36379   2.157   1.763   4.233 -0.2773  0.0677 -0.0133
 8248SOL    HW136380   2.133   1.832   4.171  0.4849  1.4611  1.2556
 8248SOL    HW236381   2.097   1.692   4.211 -0.4436  0.9864 -2.4941
 8249SOL     OW36382   3.020   1.278   4.689  0.3049  0.2987  0.4744
 8249SOL    HW136383   2.972   1.361   4.695 -1.8143 -0.6817 -2.8074
 8249SOL    HW236384   2.962   1.234   4.627  0.8758  1.0126 -0.5623
 8250SOL     OW36385   2.562   4.081  16.478  0.5782  0.0074  0.5664
 8250SOL    HW136386   2.468   4.066  16.489  0.5480  0.2768  0.6734
 8250SOL    HW236387   2.583   4.095  16.570 -2.8339  0.0968  1.3411
 8251SOL     OW36388   0.986   3.364   4.439  0.3527  0.1920 -0.0125
 8251SOL    HW136389   1.003   3.310   4.361  1.4559  0.7809 -0.1931
 8251SOL    HW236390   0.909   3.415   4.415  0.3269 -1.0345 -2.5981
 8252SOL     OW36391   4.016   2.198   8.389  0.2309  0.0363 -0.3946
 8252SOL    HW136392   4.022   2.193   8.485  3.6279 -1.3851 -0.6732
 8252SOL    HW236393   4.063   2.277   8.365 -1.8024  1.3432 -0.0741
 8253SOL     OW36394   0.536   1.080  17.136 -0.4116 -0.0080 -0.0654
 8253SOL    HW136395   0.519   1.075  17.042 -0.5124 -1.2700  0.0166
 8253SOL    HW236396   0.450   1.049  17.164  1.6386 -3.0750  2.8762
 8254SOL     OW36397   4.646   1.960   7.376  0.0698 -0.2728 -0.4798
 8254SOL    HW136398   4.637   1.900   7.450  1.2159  1.7096  1.2386
 8254SOL    HW236399   4.671   2.042   7.419  2.6722 -1.5363  0.4230
 8255SOL     OW36400   2.331   1.040   4.349  0.4898 -0.2867 -0.6583
 8255SOL    HW136401   2.317   1.011   4.439 -1.5236 -0.0641 -0.8914
 8255SOL    HW236402   2.336   0.954   4.308 -0.4946 -1.0142  0.7198
 8256SOL     OW36403   3.760   0.682   4.213 -0.0087  0.3706  0.0062
 8256SOL    HW136404   3.835   0.637   4.173 -1.2924 -1.7946  0.0555
 8256SOL    HW236405   3.791   0.689   4.304 -3.1522 -3.0267  1.2967
 8257SOL     OW36406   0.396   1.701   7.992 -0.1080 -0.2028 -0.5958
 8257SOL    HW136407   0.448   1.705   8.073 -1.8560  0.2160  0.5100
 8257SOL    HW236408   0.307   1.689   8.025  0.4940 -0.5750  0.9307
 8258SOL     OW36409   2.534   0.691   9.754  0.0396  0.3989  0.0813
 8258SOL    HW136410   2.617   0.644   9.757 -0.7840 -0.8526  2.9460
 8258SOL    HW236411   2.467   0.625   9.774  1.1624 -1.5505 -2.6550
 8259SOL     OW36412   4.217   2.446   5.399  0.6201 -0.3691  0.2739
 8259SOL    HW136413   4.165   2.502   5.456 -1.9038  0.0882 -2.4903
 8259SOL    HW236414   4.210   2.363   5.447  1.7337 -0.3756  0.4369
 8260SOL     OW36415   2.206   4.618   3.557 -0.3960 -0.4667 -0.1745
 8260SOL    HW136416   2.276   4.553   3.565 -0.1930  0.0780  2.6611
 8260SOL    HW236417   2.126   4.569   3.539 -0.3252 -0.4980 -0.3964
 8261SOL     OW36418   0.338   2.238   1.947  0.0749 -0.0094 -0.5132
 8261SOL    HW136419   0.397   2.244   1.871 -1.3351 -0.9427 -1.6722
 8261SOL    HW236420   0.327   2.332   1.964  2.0836  0.1664 -0.1794
 8262SOL     OW36421   0.396   1.300   4.182  0.6258 -0.8600  0.6592
 8262SOL    HW136422   0.350   1.248   4.116  0.6346  1.0041 -0.8115
 8262SOL    HW236423   0.476   1.249   4.197  1.3099  0.4383  1.4362
 8263SOL     OW36424   0.123   2.467   6.788  0.0854 -0.1450 -0.8441
 8263SOL    HW136425   0.136   2.407   6.861 -0.1809 -0.6676 -1.2321
 8263SOL    HW236426   0.084   2.408   6.724 -0.3663 -0.5902 -0.1520
 8264SOL     OW36427   2.755   2.187  17.109 -0.1930 -0.4036 -0.2812
 8264SOL    HW136428   2.690   2.194  17.179 -1.7884  2.9406 -2.1176
 8264SOL    HW236429   2.786   2.097  17.120  0.2831 -0.2071  0.0177
 8265SOL     OW36430   2.900   2.089   1.735  0.4512  0.1380  0.9916
 8265SOL    HW136431   2.909   2.025   1.665  1.9096  1.6996 -0.2456
 8265SOL    HW236432   2.919   2.042   1.816 -0.1933 -2.2258 -0.2242
 8266SOL     OW36433   2.618   0.604   8.110 -0.6624  0.4370 -0.5277
 8266SOL    HW136434   2.581   0.524   8.148  0.4400  1.0582  1.9174
 8266SOL    HW236435   2.547   0.624   8.050 -1.6210  1.1907  0.8616
 8267SOL     OW36436   1.700   2.385   3.709  0.4154  0.1773 -0.4597
 8267SOL    HW136437   1.691   2.454   3.774  0.9768  0.3771 -0.5961
 8267SOL    HW236438   1.702   2.303   3.758 -1.0070  0.2473 -0.2804
 8268SOL     OW36439   1.645   0.160   2.410  0.2622 -0.2507  0.0945
 8268SOL    HW136440   1.681   0.099   2.345  0.4449 -0.4211  0.3540
 8268SOL    HW236441   1.561   0.182   2.370  0.3057  0.2391  0.2750
 8269SOL     OW36442   1.811   3.608   4.643 -0.5971 -0.0410 -0.1581
 8269SOL    HW136443   1.865   3.566   4.709 -0.3850  0.2298 -0.1613
 8269SOL    HW236444   1.744   3.542   4.628  1.0216 -1.8140  0.5140
 8270SOL     OW36445   4.404   4.400   1.793  0.1780 -0.3560 -0.2751
 8270SOL    HW136446   4.422   4.493   1.806 -1.2156  0.3075 -2.9808
 8270SOL    HW236447   4.431   4.390   1.702 -0.9585 -1.4978 -0.4886
 8271SOL     OW36448   2.810   0.236   5.252 -0.3767 -0.3942  0.2999
 8271SOL    HW136449   2.734   0.247   5.195  0.4481  1.6868 -0.4046
 8271SOL    HW236450   2.848   0.324   5.243 -1.7480  0.2336  0.6569
 8272SOL     OW36451   1.424   4.633   3.641 -0.2564  0.1484  0.1172
 8272SOL    HW136452   1.425   4.729   3.649 -1.8181  0.2837 -1.1902
 8272SOL    HW236453   1.402   4.630   3.734  0.0812 -3.1374  0.0798
 8273SOL     OW36454   1.897   3.616   2.371  0.0773  0.1949 -0.2732
 8273SOL    HW136455   1.850   3.699   2.373  0.8177  0.6407 -1.5959
 8273SOL    HW236456   1.984   3.652   2.353 -0.1694  1.3135  0.7835
 8274SOL     OW36457   3.189   4.555  12.232  0.0754 -0.4161  0.4338
 8274SOL    HW136458   3.250   4.526  12.165 -0.2892 -0.3489  0.0733
 8274SOL    HW236459   3.201   4.485  12.296 -1.2932 -1.0783 -0.0174
 8275SOL     OW36460   4.346   0.826   2.487 -0.1881 -0.5733 -0.2839
 8275SOL    HW136461   4.358   0.737   2.454  1.5197 -1.0280  1.5571
 8275SOL    HW236462   4.307   0.806   2.572 -0.1989  0.2226 -0.1002
 8276SOL     OW36463   1.860   1.764  16.690  0.5465  0.1368  0.1661
 8276SOL    HW136464   1.927   1.763  16.621  0.6318  1.9687  0.2129
 8276SOL    HW236465   1.910   1.764  16.771 -2.6331  0.6483  2.1381
 8277SOL     OW36466   1.591   2.187   2.353  0.1041 -0.0601 -0.2888
 8277SOL    HW136467   1.578   2.253   2.420  0.2691 -1.4615  1.1230
 8277SOL    HW236468   1.539   2.116   2.392 -1.3201 -0.1860 -2.4275
 8278SOL     OW36469   2.057   1.187   0.253 -0.0603  0.3793  0.0449
 8278SOL    HW136470   2.151   1.199   0.268 -0.1079 -1.7540  2.1060
 8278SOL    HW236471   2.024   1.259   0.199 -1.3276 -0.8215 -0.7968
 8279SOL     OW36472   2.218   0.390  10.846 -0.0064  0.5457  0.0059
 8279SOL    HW136473   2.285   0.418  10.783 -0.8639  2.1026 -0.2083
 8279SOL    HW236474   2.182   0.324  10.787  0.5749  0.0302  0.2285
 8280SOL     OW36475   2.735   2.156   6.126  0.0195 -0.5409  0.1646
 8280SOL    HW136476   2.738   2.083   6.189  1.2684 -0.7842 -0.1693
 8280SOL    HW236477   2.810   2.213   6.145 -0.1963 -0.2733  0.2004
 8281SOL     OW36478   0.250   0.757   4.416  0.0141  0.0059 -0.5219
 8281SOL    HW136479   0.184   0.803   4.364  0.4792  0.5916 -0.5911
 8281SOL    HW236480   0.210   0.758   4.503 -1.2889 -1.4454 -1.1103
 8282SOL     OW36481   1.697   3.812   2.284  0.1922  0.3275  0.2185
 8282SOL    HW136482   1.658   3.732   2.249  3.3582 -0.0353 -2.4877
 8282SOL    HW236483   1.637   3.836   2.354  0.0293  0.0115  0.1878
 8283SOL     OW36484   3.003   0.561   7.401  0.1311  0.4594 -0.3102
 8283SOL    HW136485   2.927   0.517   7.364 -0.6468  1.8642 -0.4010
 8283SOL    HW236486   3.013   0.637   7.343  1.5138 -0.2355 -0.9703
 8284SOL     OW36487   4.220   2.727   8.742 -0.0674 -0.2991 -0.0144
 8284SOL    HW136488   4.286   2.748   8.676 -0.5295  2.4455  0.4214
 8284SOL    HW236489   4.151   2.791   8.729 -1.4083 -1.4101  1.6759
 8285SOL     OW36490   2.649   2.929   8.453  0.5785  0.2224 -0.4488
 8285SOL    HW136491   2.719   2.870   8.481 -0.7760 -2.0061 -1.7082
 8285SOL    HW236492   2.569   2.884   8.482  0.4648  0.1388 -0.8844
 8286SOL     OW36493   0.037   1.203   2.483 -0.5575 -0.7515 -0.3057
 8286SOL    HW136494   0.006   1.112   2.475  2.5361 -1.9072  0.8610
 8286SOL    HW236495   0.000   1.223   2.397  0.3783 -1.7211 -0.9267
 8287SOL     OW36496   3.487   4.211   0.945  0.2603 -0.0114  0.4608
 8287SOL    HW136497   3.427   4.254   0.884  0.6046 -1.0427 -0.6073
 8287SOL    HW236498   3.439   4.129   0.949 -0.8073  0.6294  0.8005
 8288SOL     OW36499   1.629   0.779   6.450  0.5468  0.2675 -0.0904
 8288SOL    HW136500   1.594   0.827   6.375 -3.1013 -1.5750  0.4358
 8288SOL    HW236501   1.720   0.810   6.454  0.2441  1.2877 -1.3074
 8289SOL     OW36502   0.538   4.430  15.617 -0.5461 -0.1473 -0.0586
 8289SOL    HW136503   0.535   4.469  15.530 -1.3838  1.1729  0.5460
 8289SOL    HW236504   0.596   4.356  15.606  1.2765  1.1682  0.6812
 8290SOL     OW36505   3.446   2.614   2.951 -0.1645 -0.2521  1.0300
 8290SOL    HW136506   3.484   2.683   3.006  2.2925 -3.0741  2.8692
 8290SOL    HW236507   3.412   2.545   3.008  1.6014  0.7495  3.2856
 8291SOL     OW36508   0.199   3.948   8.372 -0.4287  0.1470  0.3046
 8291SOL    HW136509   0.213   3.873   8.314 -1.5984 -0.1212  0.3567
 8291SOL    HW236510   0.163   3.917   8.456 -2.0991 -0.0672 -0.4807
 8292SOL     OW36511   3.209   4.309   3.992 -0.5538  0.2156  0.0535
 8292SOL    HW136512   3.283   4.340   4.044 -0.4102 -0.8768  0.4802
 8292SOL    HW236513   3.251   4.280   3.911 -1.3382 -3.4391  0.9773
 8293SOL     OW36514   0.921   2.297   3.256  0.2264  0.0577 -0.0864
 8293SOL    HW136515   0.864   2.231   3.296  0.2556 -0.3972 -0.7918
 8293SOL    HW236516   0.871   2.372   3.289 -0.4105 -0.9220  1.1345
 8294SOL     OW36517   2.017   2.731   5.789 -0.3557 -0.4300  0.6645
 8294SOL    HW136518   1.922   2.729   5.787 -0.3888 -1.9268  3.3139
 8294SOL    HW236519   2.031   2.644   5.750  0.4726  0.0882 -0.1863
 8295SOL     OW36520   4.262   2.290   6.996 -0.3249 -0.2651 -0.2678
 8295SOL    HW136521   4.186   2.339   6.967 -0.1540  0.7480  0.9858
 8295SOL    HW236522   4.246   2.200   6.968  0.7424 -0.8608  0.9785
 8296SOL     OW36523   2.534   3.129   9.453  0.0913 -0.0999 -0.1124
 8296SOL    HW136524   2.536   3.033   9.453  0.1398 -0.1021 -0.4967
 8296SOL    HW236525   2.503   3.152   9.540  0.3427  1.1069 -0.3400
 8297SOL     OW36526   2.318   0.954   8.631  0.1098 -0.0416 -0.1092
 8297SOL    HW136527   2.281   0.948   8.719  1.2326  0.6282  0.4126
 8297SOL    HW236528   2.291   1.041   8.600  0.1024  0.6394  1.7802
 8298SOL     OW36529   0.355   2.832   7.686  0.6470  0.2098  0.7302
 8298SOL    HW136530   0.389   2.803   7.770  0.0841  0.6261  1.1005
 8298SOL    HW236531   0.281   2.880   7.723 -0.7655 -2.1118  0.8827
 8299SOL     OW36532   3.378   0.368   3.471  0.0182 -0.5909 -0.5260
 8299SOL    HW136533   3.392   0.461   3.453 -0.7417  0.3075  3.5183
 8299SOL    HW236534   3.394   0.325   3.387 -1.2541  0.9489 -1.5567
 8300SOL     OW36535   2.561   3.827   4.321 -0.6727 -0.3182  0.3508
 8300SOL    HW136536   2.651   3.846   4.348 -0.1078 -1.6428 -0.5910
 8300SOL    HW236537   2.566   3.743   4.275 -0.2233 -1.0375  1.6955
 8301SOL     OW36538   3.896   4.496   5.943 -0.3198 -0.0455 -0.1163
 8301SOL    HW136539   3.913   4.416   5.893 -0.7055 -1.7059  2.3887
 8301SOL    HW236540   3.845   4.458   6.014  0.0278 -0.5261 -0.1167
 8302SOL     OW36541   1.218   2.749   5.528  0.1928  0.3353  0.3375
 8302SOL    HW136542   1.197   2.731   5.437 -0.1372  1.5207  0.1727
 8302SOL    HW236543   1.223   2.658   5.559 -2.4717  1.2918  3.6533
 8303SOL     OW36544   0.941   4.070  10.460  0.3353  0.6199 -0.4309
 8303SOL    HW136545   0.928   4.141  10.524  0.5500  0.3367 -0.0734
 8303SOL    HW236546   0.937   4.123  10.381  1.2604  2.2425  0.5986
 8304SOL     OW36547   4.442   1.587   8.093 -0.0319 -0.2356 -0.1783
 8304SOL    HW136548   4.431   1.651   8.163 -1.2249 -1.7722  1.0257
 8304SOL    HW236549   4.400   1.643   8.027  1.5977 -0.5117 -1.4347
 8305SOL     OW36550   4.048   1.758   3.469 -0.2648  0.3698 -0.4884
 8305SOL    HW136551   4.109   1.827   3.495  1.4768 -1.5221  0.4617
 8305SOL    HW236552   4.105   1.688   3.501 -1.6480  0.0132  1.1986
 8306SOL     OW36553   4.476   2.197   3.155 -0.1079  0.2101  0.4228
 8306SOL    HW136554   4.470   2.140   3.078 -0.2192  1.1208 -0.2553
 8306SOL    HW236555   4.538   2.266   3.132 -0.9281  0.0946 -2.1592
 8307SOL     OW36556   4.519   1.933   9.510  0.2869  0.5183 -0.1036
 8307SOL    HW136557   4.583   1.987   9.558  1.9293 -2.1494  0.6779
 8307SOL    HW236558   4.502   1.972   9.424  0.6329 -0.5188 -0.6439
 8308SOL     OW36559   1.969   0.658   7.388 -0.5728  0.2642  0.8652
 8308SOL    HW136560   1.921   0.618   7.460 -2.4670  1.1039  0.0657
 8308SOL    HW236561   2.055   0.630   7.420 -0.5641  0.0211  0.6253
 8309SOL     OW36562   3.971   1.611   1.655  0.5351 -0.1519  0.4129
 8309SOL    HW136563   3.957   1.603   1.560 -3.6781 -0.0817  1.0465
 8309SOL    HW236564   3.891   1.577   1.696 -0.6734  0.6302 -1.3043
 8310SOL     OW36565   0.603   0.501   3.076  0.1297  0.3008 -0.0071
 8310SOL    HW136566   0.643   0.583   3.106  2.7694 -1.0720  0.2017
 8310SOL    HW236567   0.677   0.473   3.021  0.3414 -0.7509  0.8266
 8311SOL     OW36568   1.731   3.189   5.472  0.3337 -0.2923 -0.2193
 8311SOL    HW136569   1.736   3.141   5.389 -1.7759 -1.5127  0.3802
 8311SOL    HW236570   1.815   3.233   5.485  0.8633 -1.0913 -0.8983
 8312SOL     OW36571   1.572   1.655   5.607 -0.7919  0.3975 -0.1780
 8312SOL    HW136572   1.554   1.564   5.583 -0.0951  0.4965 -1.0470
 8312SOL    HW236573   1.611   1.684   5.525 -0.1859  2.6927  0.9291
 8313SOL     OW36574   4.427   2.301   2.239 -0.3118  0.5561  0.3261
 8313SOL    HW136575   4.387   2.388   2.233  0.0647  0.7879  1.1478
 8313SOL    HW236576   4.389   2.271   2.157 -0.5383 -0.1069  0.6766
 8314SOL     OW36577   0.252   0.833   2.827  0.1328  0.0109 -0.1692
 8314SOL    HW136578   0.187   0.876   2.882  0.3252 -0.9946  0.8504
 8314SOL    HW236579   0.285   0.899   2.766  0.3470 -0.5569 -0.6687
 8315SOL     OW36580   2.163   2.398   1.518 -0.2707  0.0085 -0.5709
 8315SOL    HW136581   2.246   2.435   1.487 -0.8341  1.6740 -0.1342
 8315SOL    HW236582   2.154   2.353   1.434  1.1950 -2.0198  0.3777
 8316SOL     OW36583   0.900   3.025   2.266 -0.7243  0.3340 -0.0189
 8316SOL    HW136584   0.859   3.077   2.334  1.1575  0.0535  1.3477
 8316SOL    HW236585   0.854   2.943   2.285 -0.9194  0.2189 -0.9538
 8317SOL     OW36586   3.307   4.515  15.087 -0.3023  0.0948 -0.4748
 8317SOL    HW136587   3.296   4.448  15.019 -0.8854  0.3738 -0.6616
 8317SOL    HW236588   3.297   4.598  15.039  0.0622 -0.9816 -2.4319
 8318SOL     OW36589   0.671   3.348   1.661 -0.0541 -0.1701 -0.3126
 8318SOL    HW136590   0.664   3.438   1.629  1.4891  0.9474  2.4404
 8318SOL    HW236591   0.667   3.362   1.756  0.0732  1.6836 -0.5848
 8319SOL     OW36592   4.173   0.112   5.055  0.2342  0.3746  0.7637
 8319SOL    HW136593   4.112   0.067   4.996 -0.9955  2.0337  0.7465
 8319SOL    HW236594   4.117   0.187   5.076 -2.0823 -1.3860  0.8374
 8320SOL     OW36595   4.056   4.543   1.590  0.0744  0.8928 -0.8874
 8320SOL    HW136596   4.014   4.549   1.505 -1.4136 -1.2095 -0.2989
 8320SOL    HW236597   4.039   4.450   1.605  0.5307  0.4908 -2.8658
 8321SOL     OW36598   1.858   1.112   8.307 -0.1077  0.2333  0.0661
 8321SOL    HW136599   1.770   1.136   8.337  0.5523  0.8636  1.4933
 8321SOL    HW236600   1.871   1.144   8.218  0.2833 -0.5267 -0.1499
 8322SOL     OW36601   2.673   3.346  10.481 -0.7002  0.3456 -0.4131
 8322SOL    HW136602   2.731   3.294  10.426  0.0374 -0.7631  1.4281
 8322SOL    HW236603   2.593   3.350  10.428 -0.7444  0.0131 -0.3715
 8323SOL     OW36604   2.805   4.396  16.788 -0.4081 -0.1750 -0.0452
 8323SOL    HW136605   2.828   4.323  16.845 -1.1804 -1.7538 -1.7361
 8323SOL    HW236606   2.726   4.414  16.839 -1.4781  1.5372 -2.2955
 8324SOL     OW36607   3.233   1.248   7.497  0.3177  0.9666  0.0847
 8324SOL    HW136608   3.307   1.188   7.508  0.8679  1.4516 -0.8773
 8324SOL    HW236609   3.216   1.226   7.405 -0.5432 -1.9510  0.9344
 8325SOL     OW36610   2.409   2.734   3.978  0.4052 -0.0257  0.1488
 8325SOL    HW136611   2.488   2.729   4.033  1.7985  0.9442 -1.7565
 8325SOL    HW236612   2.406   2.643   3.947  2.2594 -0.0649  0.0335
 8326SOL     OW36613   1.682   3.643   5.791  0.2412 -0.9889  0.4013
 8326SOL    HW136614   1.595   3.608   5.771 -1.0502  3.3344 -1.4689
 8326SOL    HW236615   1.686   3.611   5.881 -1.3801 -0.0710  0.7885
 8327SOL     OW36616   4.053   0.102   8.207  0.0542  0.5825  0.2184
 8327SOL    HW136617   4.119   0.039   8.176 -0.2001  0.3985  0.0488
 8327SOL    HW236618   4.099   0.157   8.270  1.7745  0.3359 -0.8284
 8328SOL     OW36619   0.608   0.743   2.191  0.7298 -0.0487  0.1542
 8328SOL    HW136620   0.547   0.683   2.147  0.4188  1.1713 -1.0958
 8328SOL    HW236621   0.643   0.683   2.257  0.5941 -0.0400  0.2321
 8329SOL     OW36622   2.284   2.326   5.410 -0.4098 -0.3051  0.2254
 8329SOL    HW136623   2.270   2.276   5.330 -0.5878  1.4427 -0.8393
 8329SOL    HW236624   2.366   2.294   5.447  0.0374  0.1885 -0.3269
 8330SOL     OW36625   3.295   2.863   9.193  0.1754 -0.5977 -0.5411
 8330SOL    HW136626   3.357   2.807   9.146  0.2347 -1.2077  0.2645
 8330SOL    HW236627   3.338   2.867   9.279 -0.3784  2.8824 -0.4467
 8331SOL     OW36628   3.352   2.269  16.566 -0.3389 -0.2034  0.2258
 8331SOL    HW136629   3.269   2.292  16.524  0.1118  0.3028 -0.3866
 8331SOL    HW236630   3.326   2.267  16.658 -0.6291  0.7469  0.1663
 8332SOL     OW36631   1.995   0.241   8.445  0.3216 -0.4230  0.8235
 8332SOL    HW136632   1.943   0.183   8.501 -0.1653  0.2799  1.0993
 8332SOL    HW236633   1.927   0.305   8.425  0.5431 -0.8877 -1.4186
 8333SOL     OW36634   2.289   1.399   5.432  0.2767  0.0203 -0.0372
 8333SOL    HW136635   2.244   1.395   5.516 -1.4970 -1.2027 -1.0279
 8333SOL    HW236636   2.337   1.480   5.443 -1.0668  0.7693  0.3255
 8334SOL     OW36637   3.025   4.253   0.893  0.2701  0.1670 -0.7546
 8334SOL    HW136638   2.943   4.238   0.846  0.2782 -0.2319 -0.6410
 8334SOL    HW236639   3.061   4.164   0.885 -2.1053 -0.6079 -2.8610
 8335SOL     OW36640   4.606   1.992   4.005  0.2772 -0.2382  0.4030
 8335SOL    HW136641   4.606   2.008   4.099 -3.3325 -2.6762  0.8400
 8335SOL    HW236642   4.699   1.984   3.984  0.1143 -0.4090 -0.2561
 8336SOL     OW36643   1.373   1.026   4.396 -0.2897  0.5290  0.3317
 8336SOL    HW136644   1.442   1.092   4.405 -0.6707  1.2120 -1.5691
 8336SOL    HW236645   1.341   1.055   4.310  0.0242 -2.1345 -0.6858
 8337SOL     OW36646   2.881   2.026  16.477 -0.2492  0.2069  0.2029
 8337SOL    HW136647   2.811   2.077  16.437 -0.9469  1.1339  2.5712
 8337SOL    HW236648   2.908   2.079  16.552  0.6286 -0.2236  0.1900
 8338SOL     OW36649   0.724   4.035  15.983 -0.2442 -0.7807 -0.0415
 8338SOL    HW136650   0.721   3.958  15.926  1.5704 -0.5260 -0.4914
 8338SOL    HW236651   0.659   4.011  16.049  0.8986  0.2808  1.4517
 8339SOL     OW36652   1.170   3.325   3.534  0.1503 -0.2265 -0.2732
 8339SOL    HW136653   1.075   3.340   3.539  0.2934  0.7424 -0.5648
 8339SOL    HW236654   1.189   3.347   3.443  1.0442 -0.9880 -0.2755
 8340SOL     OW36655   1.062   3.462  15.279  0.2127  0.2380 -0.4105
 8340SOL    HW136656   1.064   3.544  15.229 -0.6582  1.6681  1.9037
 8340SOL    HW236657   1.050   3.489  15.369 -1.7398 -0.3458 -0.4923
 8341SOL     OW36658   4.604   0.795   1.787 -0.3698  0.0952  0.8709
 8341SOL    HW136659   4.586   0.885   1.760  1.8001 -0.0864 -1.2126
 8341SOL    HW236660   4.631   0.755   1.704  1.7713  2.1888  0.5575
 8342SOL     OW36661   0.041   1.211   3.173  0.0243  0.4225 -0.6204
 8342SOL    HW136662   0.037   1.239   3.265  0.0559 -1.9845  0.1084
 8342SOL    HW236663   0.013   1.294   3.135 -1.7411 -0.6177 -1.5478
 8343SOL     OW36664   2.656   2.228  13.129  0.1466 -0.2609 -0.1763
 8343SOL    HW136665   2.594   2.291  13.166  0.2411 -0.3511  0.1350
 8343SOL    HW236666   2.734   2.239  13.183 -0.3322  2.7333 -0.1289
 8344SOL     OW36667   3.754   4.127   0.231  0.1320  0.5687 -0.2318
 8344SOL    HW136668   3.771   4.064   0.301  3.1274  0.2274 -1.2893
 8344SOL    HW236669   3.667   4.156   0.258 -0.1385 -0.9406  0.4912
 8345SOL     OW36670   1.782   1.225  12.953 -0.1853  0.0799 -0.3746
 8345SOL    HW136671   1.702   1.212  12.903  0.4602  0.1815 -1.4301
 8345SOL    HW236672   1.769   1.155  13.017  1.1413 -1.4526 -1.7750
 8346SOL     OW36673   2.478   4.236  12.121  0.3079 -0.5892 -0.0174
 8346SOL    HW136674   2.446   4.321  12.152  0.3215 -0.4745 -0.3220
 8346SOL    HW236675   2.537   4.219  12.195 -0.7851  1.4913  1.3283
 8347SOL     OW36676   0.690   2.560   5.573 -0.0243  0.0391 -0.1890
 8347SOL    HW136677   0.716   2.482   5.524 -1.1528 -0.6231  0.2544
 8347SOL    HW236678   0.675   2.622   5.502  0.7719  1.7739  1.1632
 8348SOL     OW36679   4.567   3.263   4.413  0.3165  0.4201  0.1727
 8348SOL    HW136680   4.515   3.291   4.338 -1.6777 -2.2772  0.5286
 8348SOL    HW236681   4.576   3.345   4.462  0.2547  0.9102 -0.6330
 8349SOL     OW36682   0.180   1.748   5.529 -0.4006  0.0952  0.2015
 8349SOL    HW136683   0.117   1.814   5.500 -0.5144 -0.4206 -0.7363
 8349SOL    HW236684   0.261   1.800   5.530  0.2358 -0.8755 -0.6891
 8350SOL     OW36685   4.639   1.779   7.609  0.3939 -0.0874  0.0687
 8350SOL    HW136686   4.726   1.753   7.580  0.7666 -2.9964  3.8162
 8350SOL    HW236687   4.647   1.811   7.698  0.6603 -0.9756  0.3664
 8351SOL     OW36688   0.591   1.855  12.282  0.4698 -0.7578 -0.0218
 8351SOL    HW136689   0.659   1.800  12.244  0.8460 -1.6022  1.8598
 8351SOL    HW236690   0.543   1.878  12.203  0.7142  3.7994  1.1292
 8352SOL     OW36691   2.193   4.033   5.267  0.0041 -0.0305  0.3525
 8352SOL    HW136692   2.127   4.019   5.199  0.7637 -0.4039 -0.3166
 8352SOL    HW236693   2.148   3.995   5.342  0.1654 -0.7577  0.0844
 8353SOL     OW36694   1.217   3.374   6.201 -0.8028 -0.0476 -0.2755
 8353SOL    HW136695   1.222   3.281   6.226 -0.2249  0.2013  0.5614
 8353SOL    HW236696   1.264   3.376   6.117  0.0993 -2.4240  0.1527
 8354SOL     OW36697   2.888   4.624   8.236  0.2236 -0.4885 -0.4923
 8354SOL    HW136698   2.916   4.544   8.190  0.7860 -0.5775  0.0026
 8354SOL    HW236699   2.908   4.588   8.322 -0.4538  1.2587  0.3748
 8355SOL     OW36700   4.418   2.157   6.618  0.4707 -0.8244 -0.2476
 8355SOL    HW136701   4.365   2.093   6.666  0.5567 -0.8664 -0.2099
 8355SOL    HW236702   4.383   2.148   6.529 -1.5173 -0.0361  0.4460
 8356SOL     OW36703   4.549   0.295   7.074  0.2900  0.2155 -0.4139
 8356SOL    HW136704   4.550   0.383   7.037 -1.0984  0.0451 -0.8612
 8356SOL    HW236705   4.467   0.258   7.043 -0.5581  0.4707  1.5030
 8357SOL     OW36706   0.635   4.571   3.689 -0.3189 -0.2088 -0.0726
 8357SOL    HW136707   0.709   4.631   3.679  0.0006 -0.9531 -2.2521
 8357SOL    HW236708   0.567   4.625   3.729 -1.9496 -0.3104 -2.6775
 8358SOL     OW36709   1.988   3.428  15.954  0.8954 -0.2426 -0.0586
 8358SOL    HW136710   1.979   3.507  15.901  0.2633  1.5598  2.7387
 8358SOL    HW236711   2.040   3.462  16.027  1.5377  1.5531 -1.3611
 8359SOL     OW36712   2.825   0.005   4.812 -0.3914  0.2508 -0.4379
 8359SOL    HW136713   2.773   0.072   4.857 -1.1769 -2.0068  2.0168
 8359SOL    HW236714   2.799   4.669   4.869 -1.5150 -0.1940 -1.5287
 8360SOL     OW36715   3.021   1.243  17.235 -0.1947  0.2543  0.2003
 8360SOL    HW136716   3.107   1.223  17.198 -1.0203 -2.1886 -0.3629
 8360SOL    HW236717   3.033   1.338  17.229 -0.2189  0.2741  0.4641
 8361SOL     OW36718   0.220   4.572   2.814  0.9289  0.0070  0.5886
 8361SOL    HW136719   0.314   4.590   2.819  1.3406 -0.9381 -3.8194
 8361SOL    HW236720   0.222   4.484   2.853 -2.4253 -0.7816 -1.0264
 8362SOL     OW36721   3.405   0.004   8.006  0.3498 -0.1076  0.2856
 8362SOL    HW136722   3.466   4.668   8.018  0.5595  0.4840  2.7411
 8362SOL    HW236723   3.448   0.073   8.057 -3.3319  0.5085  2.4638
 8363SOL     OW36724   2.388   4.225   3.122  0.1967  0.2936 -0.6218
 8363SOL    HW136725   2.393   4.143   3.072  1.2255 -0.9422  1.4967
 8363SOL    HW236726   2.295   4.235   3.145  0.4896 -0.9116  1.1144
 8364SOL     OW36727   0.793   1.572   8.830  0.0955  0.1895 -0.0513
 8364SOL    HW136728   0.858   1.554   8.898 -1.3487 -3.1036  0.4520
 8364SOL    HW236729   0.772   1.664   8.850  0.4250 -0.0123  1.2579
 8365SOL     OW36730   0.864   0.166   8.138 -0.5299  0.0540  0.2401
 8365SOL    HW136731   0.794   0.167   8.204  0.2218 -0.0942  1.0334
 8365SOL    HW236732   0.942   0.173   8.192 -1.8169 -0.9369  2.2363
 8366SOL     OW36733   3.957   3.661   5.604  0.3115 -0.0133  0.3228
 8366SOL    HW136734   3.916   3.714   5.535  0.2837 -1.7097 -0.9634
 8366SOL    HW236735   3.936   3.573   5.573  1.0632 -0.2453  0.4748
 8367SOL     OW36736   3.113   2.146   8.932 -0.0514 -0.3915  0.0339
 8367SOL    HW136737   3.139   2.130   8.842  2.2336 -0.7783  0.7481
 8367SOL    HW236738   3.126   2.059   8.969 -0.7653 -0.5325 -0.0663
 8368SOL     OW36739   2.345   1.128   7.301 -0.1536  0.5465 -0.1413
 8368SOL    HW136740   2.284   1.057   7.282  2.1444 -1.2759 -0.6639
 8368SOL    HW236741   2.337   1.174   7.218 -0.0526  1.0917  0.1516
 8369SOL     OW36742   1.584   2.931   5.930  0.4387  0.5949  0.0822
 8369SOL    HW136743   1.540   2.877   5.995 -1.1147  1.5338 -0.1871
 8369SOL    HW236744   1.596   3.016   5.972 -0.1257  1.0664 -0.7039
 8370SOL     OW36745   0.192   0.238   4.097  0.4862  0.4073  0.0338
 8370SOL    HW136746   0.261   0.209   4.156  0.3268 -1.2388 -0.6031
 8370SOL    HW236747   0.242   0.249   4.016 -0.1200 -0.0976 -0.4122
 8371SOL     OW36748   4.185   4.379   7.861  0.1095 -0.6451  0.8465
 8371SOL    HW136749   4.206   4.462   7.817  0.3027 -0.5716  1.0756
 8371SOL    HW236750   4.174   4.319   7.787  1.1052  0.9369 -0.5846
 8372SOL     OW36751   0.711   1.605   4.385 -0.1123 -0.2460  0.2204
 8372SOL    HW136752   0.745   1.553   4.312 -1.9615  0.6545 -1.2838
 8372SOL    HW236753   0.744   1.555   4.460  1.5740  0.4329 -0.0760
 8373SOL     OW36754   2.964   2.502  11.081 -0.4092 -0.0814  0.2802
 8373SOL    HW136755   3.039   2.549  11.046 -0.6245  0.2398  0.2479
 8373SOL    HW236756   2.937   2.563  11.150  0.1476  1.2618 -0.6855
 8374SOL     OW36757   3.577   0.642   6.081 -0.4122 -0.2600 -0.3147
 8374SOL    HW136758   3.542   0.590   6.153 -0.8537  0.6055  0.0971
 8374SOL    HW236759   3.672   0.633   6.083 -0.2338  1.2539 -1.4978
 8375SOL     OW36760   3.699   3.276   1.263 -0.2582  0.1405 -0.3644
 8375SOL    HW136761   3.623   3.263   1.206  0.4776  0.3563 -1.4047
 8375SOL    HW236762   3.734   3.188   1.269 -1.2626 -0.2832 -0.6484
 8376SOL     OW36763   0.347   0.887   8.267 -0.4333  0.2245  0.4819
 8376SOL    HW136764   0.326   0.951   8.336  1.1680  0.4688  0.7442
 8376SOL    HW236765   0.262   0.847   8.248 -0.8825  1.8907 -1.0243
 8377SOL     OW36766   3.634   1.586   2.139  0.4749 -0.3511 -0.2528
 8377SOL    HW136767   3.558   1.540   2.105  1.8979 -1.8351 -1.4137
 8377SOL    HW236768   3.634   1.669   2.092 -0.5383  0.1716  0.6711
 8378SOL     OW36769   3.827   3.130  10.598 -0.1827 -0.0606 -0.1803
 8378SOL    HW136770   3.753   3.188  10.618  0.3825  0.2654  1.0121
 8378SOL    HW236771   3.777   3.060  10.557 -0.6433  0.9665 -1.3596
 8379SOL     OW36772   3.934   0.143   3.191 -0.7312  0.2719  0.2919
 8379SOL    HW136773   4.011   0.109   3.145 -0.6605  2.3191 -1.0774
 8379SOL    HW236774   3.953   0.237   3.192 -0.8931  0.3112 -0.7184
 8380SOL     OW36775   1.908   2.431   5.170  0.3053 -0.1356 -0.0818
 8380SOL    HW136776   1.845   2.469   5.231 -0.1857 -0.3800 -0.4342
 8380SOL    HW236777   1.985   2.485   5.188  0.2633  0.0164 -0.3513
 8381SOL     OW36778   0.660   4.578   4.936  0.0779 -0.0007 -0.2273
 8381SOL    HW136779   0.695   4.645   4.877 -1.2162  1.5826  0.7931
 8381SOL    HW236780   0.568   4.603   4.939  0.0580 -0.1369  0.2154
 8382SOL     OW36781   4.709   1.816   4.656 -0.1531 -0.1065  0.2891
 8382SOL    HW136782   4.716   1.862   4.739 -2.4950 -1.1371  1.0687
 8382SOL    HW236783   0.064   1.788   4.649 -0.6900 -0.9443 -3.2389
 8383SOL     OW36784   4.209   3.797  10.415  0.7508  0.0320 -0.2011
 8383SOL    HW136785   4.132   3.853  10.413  1.1011  0.6389  3.0655
 8383SOL    HW236786   4.169   3.710  10.411  2.0201 -0.6125  0.7553
 8384SOL     OW36787   2.061   0.804   2.600  0.1140 -0.2400  0.4005
 8384SOL    HW136788   2.120   0.862   2.552  0.2451  0.1227  1.0035
 8384SOL    HW236789   1.977   0.849   2.606 -0.4320 -0.8835 -2.4849
 8385SOL     OW36790   2.834   1.447   5.804 -0.3872  0.2047 -0.1624
 8385SOL    HW136791   2.760   1.407   5.759 -2.3302  0.1344  3.1743
 8385SOL    HW236792   2.911   1.414   5.756 -0.5247 -0.6384  0.1999
 8386SOL     OW36793   0.911   1.916  11.753 -0.8265 -0.5651  0.3450
 8386SOL    HW136794   0.922   2.008  11.780 -1.7193 -0.5329  0.5710
 8386SOL    HW236795   0.822   1.914  11.718 -1.0258  0.7400  0.7668
 8387SOL     OW36796   3.523   2.821   4.249 -0.0414 -0.0307 -0.5437
 8387SOL    HW136797   3.490   2.750   4.304 -1.7915  1.8700  0.8609
 8387SOL    HW236798   3.595   2.845   4.308  0.0081 -0.4802 -0.4207
 8388SOL     OW36799   0.344   0.514   7.727  0.0753  0.0202  0.4501
 8388SOL    HW136800   0.399   0.585   7.760 -0.4074  1.5837 -2.0913
 8388SOL    HW236801   0.304   0.477   7.805  0.2177  2.0040  1.4761
 8389SOL     OW36802   3.822   2.928   0.770 -0.5608  0.0872 -0.3490
 8389SOL    HW136803   3.887   2.990   0.737 -0.1668 -0.3804 -0.4359
 8389SOL    HW236804   3.780   2.896   0.691 -2.9747  0.1003  0.9041
 8390SOL     OW36805   1.731   0.525   7.213 -0.0866 -0.0015  0.8690
 8390SOL    HW136806   1.748   0.487   7.127  0.4323  1.2467  0.4139
 8390SOL    HW236807   1.788   0.471   7.267  1.1915 -0.6545 -1.1794
 8391SOL     OW36808   2.637   2.827   6.812  0.0878  0.2588  0.0567
 8391SOL    HW136809   2.587   2.881   6.750  1.4011 -0.4392 -1.6201
 8391SOL    HW236810   2.686   2.893   6.861  0.1042  0.6347 -0.4720
 8392SOL     OW36811   0.815   0.208   4.978  0.3270  0.5584  0.4107
 8392SOL    HW136812   0.766   0.146   4.925  0.1014  0.8550  0.2753
 8392SOL    HW236813   0.898   0.220   4.932  0.6370 -3.0688 -0.0274
 8393SOL     OW36814   3.193   0.430   5.788  0.0029 -0.5343  0.0598
 8393SOL    HW136815   3.183   0.337   5.808 -0.1007 -1.0645 -2.3991
 8393SOL    HW236816   3.152   0.465   5.867  0.7289 -1.9173  1.0533
 8394SOL     OW36817   1.611   0.272   4.624 -0.1138 -0.0553  0.6648
 8394SOL    HW136818   1.640   0.364   4.623  0.0585 -0.1024  2.7971
 8394SOL    HW236819   1.516   0.279   4.624 -0.2426 -1.9622 -0.0002
 8395SOL     OW36820   3.290   3.673   5.094 -0.0823 -0.5057 -0.0989
 8395SOL    HW136821   3.299   3.581   5.120 -0.4804 -0.5752 -0.2092
 8395SOL    HW236822   3.323   3.719   5.171 -1.1542  0.8292 -0.4450
 8396SOL     OW36823   1.298   4.306   4.973 -0.0705  0.0738 -0.3841
 8396SOL    HW136824   1.220   4.360   4.976 -1.6217 -2.1237 -1.2476
 8396SOL    HW236825   1.361   4.363   5.017  0.0215 -1.7681  1.8629
 8397SOL     OW36826   3.293   2.642  10.412  0.1945 -0.1355  0.4399
 8397SOL    HW136827   3.360   2.628  10.345 -0.8000 -0.3749 -0.5015
 8397SOL    HW236828   3.310   2.567  10.469  2.3661 -0.1665 -0.2253
 8398SOL     OW36829   1.883   3.099  10.934  0.0183 -0.0916 -0.3356
 8398SOL    HW136830   1.895   3.175  10.992 -3.4388 -0.1795  0.4734
 8398SOL    HW236831   1.971   3.069  10.910 -0.8131 -1.3105 -1.8431
 8399SOL     OW36832   0.177   1.482   5.484 -0.6826  0.0301 -0.3349
 8399SOL    HW136833   0.182   1.577   5.488  0.0500 -0.0673  1.0706
 8399SOL    HW236834   0.118   1.452   5.553  1.6927 -1.6471  0.9585
 8400SOL     OW36835   0.080   2.935   7.692 -0.3937 -0.3463 -0.5112
 8400SOL    HW136836   0.053   3.025   7.714  0.8535 -0.0326 -0.2541
 8400SOL    HW236837   0.010   2.887   7.736 -1.7260  2.2870  0.2464
 8401SOL     OW36838   0.255   3.170   4.015 -0.2474  0.5928 -0.0964
 8401SOL    HW136839   0.260   3.225   4.094  1.3014 -0.9739  0.9068
 8401SOL    HW236840   0.347   3.177   3.992  0.9275 -0.8551  4.1767
 8402SOL     OW36841   0.082   3.393   4.739 -0.4474 -0.2180  0.2610
 8402SOL    HW136842   0.059   3.302   4.719 -0.1809 -0.1464 -0.3592
 8402SOL    HW236843   4.729   3.420   4.762 -0.4654  0.9929 -1.2532
 8403SOL     OW36844   0.845   1.364   6.802 -0.0978 -0.2796  0.1338
 8403SOL    HW136845   0.893   1.322   6.730  0.0342  0.1095 -0.0068
 8403SOL    HW236846   0.840   1.449   6.757  1.5406  0.0421  0.5514
 8404SOL     OW36847   4.456   2.002   4.959 -0.3765 -0.0180  0.4719
 8404SOL    HW136848   4.428   1.912   4.940  0.3502 -0.3830  1.1520
 8404SOL    HW236849   4.438   2.013   5.052 -0.8897 -0.3049  0.4069
 8405SOL     OW36850   2.384   4.469   0.269  0.2340  0.5917 -0.0267
 8405SOL    HW136851   2.321   4.538   0.248 -0.8483 -0.2187  0.6002
 8405SOL    HW236852   2.354   4.396   0.215  2.6131 -1.2583  1.1684
 8406SOL     OW36853   4.004   4.629   6.185  0.1540  0.0457  0.4837
 8406SOL    HW136854   3.989   4.692   6.114 -1.0593 -1.0809 -0.2457
 8406SOL    HW236855   3.948   4.558   6.156 -0.2470  0.1783  0.9302
 8407SOL     OW36856   4.206   4.267   7.616  0.1340  0.3759  0.0452
 8407SOL    HW136857   4.172   4.225   7.537  0.2407  3.3958 -1.6199
 8407SOL    HW236858   4.266   4.334   7.585  1.6810  0.3289  2.8756
 8408SOL     OW36859   2.134   1.921   3.994 -0.0771 -0.2815 -0.0873
 8408SOL    HW136860   2.113   2.012   4.018 -2.3994 -1.0142  0.6234
 8408SOL    HW236861   2.052   1.882   3.964 -1.0416  0.8240  1.0562
 8409SOL     OW36862   4.403   0.233   1.617  0.6952  0.3386  0.2260
 8409SOL    HW136863   4.497   0.216   1.627  0.2349 -3.1935 -1.7662
 8409SOL    HW236864   4.363   0.148   1.603  1.3995 -0.1809  1.3839
 8410SOL     OW36865   4.002   1.509   8.945 -0.8064  0.2538 -0.3813
 8410SOL    HW136866   4.034   1.571   9.011  0.1271 -1.6870  1.0026
 8410SOL    HW236867   3.962   1.445   9.003  0.8068 -0.4444 -0.0386
 8411SOL     OW36868   4.588   1.395  15.096  0.2427  0.2185 -0.2497
 8411SOL    HW136869   4.520   1.448  15.138 -0.8394  0.9975 -3.0001
 8411SOL    HW236870   4.579   1.314  15.147 -0.5671 -0.5757 -1.6676
 8412SOL     OW36871   2.168   1.893   6.334 -0.0839 -0.2898  0.1158
 8412SOL    HW136872   2.109   1.934   6.397  1.2605  0.2234  1.0532
 8412SOL    HW236873   2.173   1.953   6.259 -0.3085  1.7577  1.7171
 8413SOL     OW36874   4.417   0.171   9.021  0.0781 -0.3957 -0.2461
 8413SOL    HW136875   4.356   0.244   9.033  0.9407  0.1527  0.7628
 8413SOL    HW236876   4.362   0.106   8.977  0.1114  0.4084 -1.4789
 8414SOL     OW36877   0.578   1.346  15.061 -0.2056 -0.9143 -0.8627
 8414SOL    HW136878   0.485   1.369  15.064 -0.5694 -2.5511  0.2468
 8414SOL    HW236879   0.586   1.304  14.976  2.2982 -2.0598 -0.0628
 8415SOL     OW36880   0.820   1.464   4.582 -0.0644  0.3972  0.1506
 8415SOL    HW136881   0.755   1.423   4.640 -1.1538 -0.2951 -1.5646
 8415SOL    HW236882   0.890   1.401   4.565  0.3664  0.8056  0.3943
 8416SOL     OW36883   4.480   2.739  15.863 -0.0701 -0.1970 -0.3825
 8416SOL    HW136884   4.490   2.647  15.887  0.3094 -0.0547  0.0081
 8416SOL    HW236885   4.386   2.746  15.850 -0.3899 -1.6841  1.1504
 8417SOL     OW36886   2.558   3.517   2.792  0.0773 -0.7780  0.1581
 8417SOL    HW136887   2.575   3.443   2.850 -0.6120 -0.8328  0.2922
 8417SOL    HW236888   2.642   3.564   2.800 -0.2489  0.0408 -1.2682
 8418SOL     OW36889   3.321   1.362   4.632 -0.8695 -0.1888  0.0444
 8418SOL    HW136890   3.253   1.355   4.700  1.2140 -0.1325  2.1361
 8418SOL    HW236891   3.392   1.402   4.682 -0.7716  0.4080 -0.5828
 8419SOL     OW36892   2.684   0.934   4.497 -0.0198 -0.3108 -0.2588
 8419SOL    HW136893   2.712   0.850   4.461 -0.6583 -0.5049 -0.2923
 8419SOL    HW236894   2.591   0.919   4.511  0.1419 -0.7124  0.3706
 8420SOL     OW36895   0.323   4.718  15.544  0.2858  0.0661 -0.5438
 8420SOL    HW136896   0.384   4.657  15.503  0.6376  0.3589 -0.4450
 8420SOL    HW236897   0.383   0.055  15.544 -0.2709  0.5188  1.6562
 8421SOL     OW36898   2.985   3.368   7.750 -0.7878 -0.1025  0.6784
 8421SOL    HW136899   2.905   3.419   7.766  1.4596  3.3529  0.8968
 8421SOL    HW236900   2.990   3.310   7.825  1.8343  2.3935  2.4225
 8422SOL     OW36901   3.944   4.272   5.825 -0.2671 -0.1779  0.8012
 8422SOL    HW136902   3.953   4.240   5.735 -2.2790 -0.9070  0.8683
 8422SOL    HW236903   3.903   4.195   5.864  0.0290 -1.2512 -0.9842
 8423SOL     OW36904   1.971   3.135   7.763  0.1890  0.7814  0.0640
 8423SOL    HW136905   1.876   3.133   7.777  0.5703 -3.1209  2.1176
 8423SOL    HW236906   1.996   3.147   7.855 -1.1890 -4.3969  1.1027
 8424SOL     OW36907   1.257   1.328   3.792 -0.3291 -0.0957  0.3321
 8424SOL    HW136908   1.267   1.363   3.704 -1.1460 -1.5048 -0.3209
 8424SOL    HW236909   1.340   1.350   3.834  0.0373 -1.7924  0.5110
 8425SOL     OW36910   3.221   3.312   6.385  0.2477  0.7328  0.0658
 8425SOL    HW136911   3.144   3.332   6.438  1.0531  0.1551  1.4552
 8425SOL    HW236912   3.253   3.396   6.353  0.6809  1.2615  1.8654
 8426SOL     OW36913   3.908   0.501   9.412 -0.3505  0.3596 -0.4884
 8426SOL    HW136914   3.863   0.476   9.331  3.0181 -2.1115 -1.5727
 8426SOL    HW236915   3.901   0.597   9.408 -2.0604  0.3949  3.0424
 8427SOL     OW36916   3.924   4.010   6.175  0.6593  0.4712 -0.1078
 8427SOL    HW136917   3.982   3.961   6.116 -0.2039  1.3718 -1.7219
 8427SOL    HW236918   3.895   3.939   6.232  0.2027 -0.2822 -1.2749
 8428SOL     OW36919   0.943   4.225   7.074 -0.4185  0.2120 -0.2056
 8428SOL    HW136920   0.959   4.210   7.167 -0.8931 -0.6982 -0.2714
 8428SOL    HW236921   1.004   4.155   7.050 -0.9201 -0.1832 -0.3298
 8429SOL     OW36922   0.952   2.676   4.508  0.2890 -0.1966 -0.7529
 8429SOL    HW136923   0.990   2.596   4.546  0.9882  0.4067 -0.1758
 8429SOL    HW236924   0.953   2.737   4.582  1.8299 -0.5845 -0.4522
 8430SOL     OW36925   4.409   3.147   5.696 -0.0419 -0.1886 -0.4334
 8430SOL    HW136926   4.347   3.206   5.652  2.7559  2.7781 -0.3850
 8430SOL    HW236927   4.373   3.138   5.784 -0.4120 -0.2062 -0.5859
 8431SOL     OW36928   4.523   2.480  15.956  0.9314  0.2585  0.2763
 8431SOL    HW136929   4.494   2.408  15.900  0.0303  2.0753 -1.5634
 8431SOL    HW236930   4.572   2.438  16.027 -0.7962  0.2069  1.4161
 8432SOL     OW36931   1.680   1.706   7.877 -0.7208 -0.2450  0.1432
 8432SOL    HW136932   1.619   1.693   7.949  0.2311  1.9873  1.3363
 8432SOL    HW236933   1.720   1.790   7.901 -0.0434 -0.6619  0.4779
 8433SOL     OW36934   4.272   0.683   5.061 -0.1536 -0.0746 -0.1615
 8433SOL    HW136935   4.232   0.670   4.975  0.7611 -0.9041 -0.4579
 8433SOL    HW236936   4.357   0.726   5.053 -0.8999  1.5729  0.6990
 8434SOL     OW36937   3.221   3.570   6.306  0.3319 -0.2021 -0.1313
 8434SOL    HW136938   3.277   3.644   6.281 -0.0432 -0.3283 -1.3264
 8434SOL    HW236939   3.200   3.534   6.220 -0.6236  2.4019 -0.9883
 8435SOL     OW36940   4.493   2.928   6.898 -0.4925 -0.1323 -0.2535
 8435SOL    HW136941   4.398   2.919   6.900 -0.6217  1.3039 -0.4879
 8435SOL    HW236942   4.520   2.841   6.867 -2.0677 -0.5698 -0.3873
 8436SOL     OW36943   3.096   0.199   8.833 -0.0093 -0.0773 -0.4234
 8436SOL    HW136944   3.050   0.246   8.902 -1.5003 -0.4413 -1.1816
 8436SOL    HW236945   3.033   0.219   8.764 -0.1749 -0.5939 -0.4201
 8437SOL     OW36946   0.208   3.086  12.356  1.1343 -0.4648 -0.0979
 8437SOL    HW136947   0.234   3.173  12.324  0.0361  0.3846  1.3746
 8437SOL    HW236948   0.290   3.038  12.345  1.6928  0.8510 -1.7009
 8438SOL     OW36949   2.029   4.071   4.151 -0.1426 -0.0671  0.4414
 8438SOL    HW136950   2.120   4.040   4.155 -0.1587 -0.1936 -0.2520
 8438SOL    HW236951   1.993   3.987   4.122  0.2438 -0.6873  1.7324
 8439SOL     OW36952   3.468   3.992  15.255 -0.1306 -0.7178 -0.3978
 8439SOL    HW136953   3.530   4.014  15.185  0.4232  0.8026  0.5591
 8439SOL    HW236954   3.505   4.044  15.326 -2.6998 -0.4728  0.7774
 8440SOL     OW36955   1.808   1.443   2.295  0.3230  0.0229 -0.3657
 8440SOL    HW136956   1.826   1.357   2.256  2.7839  1.1656 -1.7470
 8440SOL    HW236957   1.713   1.453   2.299  0.6814  2.5739  1.1709
 8441SOL     OW36958   1.611   4.273   5.333  0.3487  0.4492  0.4064
 8441SOL    HW136959   1.614   4.275   5.428 -1.9642 -0.7339  0.5046
 8441SOL    HW236960   1.682   4.209   5.324  0.1560  0.0992  1.3602
 8442SOL     OW36961   2.455   0.158  11.565  0.4583  0.3266 -0.3702
 8442SOL    HW136962   2.436   0.147  11.658  0.7413 -3.4586 -0.7396
 8442SOL    HW236963   2.369   0.143  11.524 -0.1736 -1.4024  1.5962
 8443SOL     OW36964   4.223   1.716  12.495  0.0975  0.4140 -0.5517
 8443SOL    HW136965   4.315   1.742  12.491  0.0730  0.2109 -2.4651
 8443SOL    HW236966   4.181   1.801  12.506  1.8669  1.2208  0.1188
 8444SOL     OW36967   1.190   1.422  11.379 -0.6134 -0.3401 -0.4257
 8444SOL    HW136968   1.253   1.459  11.318  0.2802  2.2859  2.1184
 8444SOL    HW236969   1.112   1.471  11.351 -1.3830 -1.8205 -0.9031
 8445SOL     OW36970   1.446   4.585   1.150 -0.3839 -0.3093  0.0795
 8445SOL    HW136971   1.370   4.530   1.169 -0.6406  0.1559  0.4155
 8445SOL    HW236972   1.512   4.519   1.128 -0.1196 -0.8285  2.4166
 8446SOL     OW36973   1.344   2.137   9.671  0.2146  0.4072  0.2118
 8446SOL    HW136974   1.418   2.076   9.663  0.0071  0.0679  0.8708
 8446SOL    HW236975   1.301   2.114   9.754  0.6037  2.7511  1.0464
 8447SOL     OW36976   0.578   3.748   4.074  0.4184 -0.2112 -0.2796
 8447SOL    HW136977   0.505   3.695   4.107 -0.4023  0.0419 -1.6630
 8447SOL    HW236978   0.625   3.763   4.156 -0.0196 -2.1663  0.3101
 8448SOL     OW36979   2.305   2.329   3.454 -0.0738 -0.4302 -0.3382
 8448SOL    HW136980   2.309   2.383   3.533 -1.6691  2.3708 -2.1962
 8448SOL    HW236981   2.333   2.387   3.383  0.0536 -0.2437 -0.1340
 8449SOL     OW36982   0.067   1.254   3.901 -0.7499  0.2390 -0.3063
 8449SOL    HW136983   0.149   1.206   3.914 -0.4159  0.5624 -1.1971
 8449SOL    HW236984   0.054   1.295   3.986  0.3774  0.1416 -0.0907
 8450SOL     OW36985   0.363   1.881   4.171  0.2806  0.5507  0.5332
 8450SOL    HW136986   0.360   1.953   4.234 -0.4252 -1.1720  2.5181
 8450SOL    HW236987   0.386   1.804   4.223  1.0177  0.6693  0.3730
 8451SOL     OW36988   0.823   4.081   6.032 -0.9271  0.6254  0.7779
 8451SOL    HW136989   0.793   4.125   6.111  0.7159  3.0407  0.0659
 8451SOL    HW236990   0.781   3.996   6.043 -1.2444  0.9955  2.3710
 8452SOL     OW36991   1.782   2.664  16.147 -0.1913 -0.1026  0.2508
 8452SOL    HW136992   1.755   2.755  16.142 -1.7151 -0.5793  0.0239
 8452SOL    HW236993   1.720   2.638  16.215 -0.4776 -1.8408 -0.6719
 8453SOL     OW36994   2.865   1.277   0.612  0.0845  0.1241 -0.4053
 8453SOL    HW136995   2.779   1.315   0.597  0.3088  1.1612  0.9861
 8453SOL    HW236996   2.838   1.186   0.626 -0.4426  0.2863 -0.3717
 8454SOL     OW36997   2.063   0.546   1.925 -0.3707 -0.1113 -0.0703
 8454SOL    HW136998   2.059   0.574   2.016 -2.3263  0.0354 -0.2056
 8454SOL    HW236999   2.089   0.626   1.879 -0.2726 -0.4867 -0.6728
 8455SOL     OW37000   1.888   4.165   4.379 -0.0894  0.6635 -0.5952
 8455SOL    HW137001   1.927   4.121   4.303 -0.0509  1.3739 -0.9956
 8455SOL    HW237002   1.845   4.236   4.331 -1.3424 -0.3120 -0.9083
 8456SOL     OW37003   1.636   4.189  16.162  0.1168  0.2929  0.6964
 8456SOL    HW137004   1.568   4.223  16.104  0.3256  0.0725  0.3220
 8456SOL    HW237005   1.650   4.104  16.122 -1.3177  0.3639  0.0452
 8457SOL     OW37006   2.128   0.692  12.997 -0.1514  0.0728  0.0877
 8457SOL    HW137007   2.133   0.699  12.902  0.3658 -1.3061  0.0104
 8457SOL    HW237008   2.218   0.717  13.016  0.0883 -1.6321  1.2254
 8458SOL     OW37009   0.176   2.072   8.021  0.2272  0.6526 -0.1701
 8458SOL    HW137010   0.092   2.026   8.029 -0.1097  0.9004 -2.1176
 8458SOL    HW237011   0.186   2.126   8.099 -0.9534 -1.0321  1.1422
 8459SOL     OW37012   0.350   0.497   5.944 -0.1969  0.1148 -0.0447
 8459SOL    HW137013   0.302   0.577   5.924  0.5067  0.6733  0.5361
 8459SOL    HW237014   0.441   0.520   5.929 -0.1081  0.5695  1.1661
 8460SOL     OW37015   3.871   3.593   2.826 -0.1471 -0.3046 -0.2402
 8460SOL    HW137016   3.959   3.560   2.845  0.1057 -0.0951 -1.0454
 8460SOL    HW237017   3.865   3.684   2.853  0.2578  0.3054 -2.1607
 8461SOL     OW37018   1.161   1.921   1.777 -0.5122 -0.1298  0.2454
 8461SOL    HW137019   1.108   1.984   1.728  0.6130 -0.5350 -1.4939
 8461SOL    HW237020   1.107   1.842   1.782  0.6756 -1.0532 -1.3969
 8462SOL     OW37021   4.130   2.234   8.658  0.3560  0.2497  0.0052
 8462SOL    HW137022   4.191   2.239   8.585  1.2715 -1.1678  0.6656
 8462SOL    HW237023   4.131   2.320   8.701 -1.5417 -0.5841  1.7132
 8463SOL     OW37024   1.744   0.854   5.002 -0.2607 -0.4450 -0.0304
 8463SOL    HW137025   1.831   0.816   5.012 -0.2100 -0.1525  0.7134
 8463SOL    HW237026   1.706   0.822   5.084 -1.4513 -0.3210 -0.5315
 8464SOL     OW37027   1.833   3.864   3.847  0.0041 -0.1374 -0.3332
 8464SOL    HW137028   1.795   3.949   3.828 -0.9065 -0.8154 -1.5937
 8464SOL    HW237029   1.894   3.841   3.776  0.1360 -0.5575 -0.0835
 8465SOL     OW37030   0.601   2.872   8.957  0.2197 -0.5603  0.3002
 8465SOL    HW137031   0.553   2.790   8.970  0.9228 -0.8792  0.8616
 8465SOL    HW237032   0.537   2.935   8.989 -0.4811 -0.3763 -1.4632
 8466SOL     OW37033   1.162   1.182   5.211 -0.3171 -0.6834  0.8546
 8466SOL    HW137034   1.094   1.138   5.160 -1.0265  1.8844 -0.4030
 8466SOL    HW237035   1.221   1.108   5.224 -1.1359 -1.2168  1.5020
 8467SOL     OW37036   0.105   3.205   1.140 -0.2658  0.3166  0.1844
 8467SOL    HW137037   0.104   3.135   1.075 -0.1897  2.5493 -2.2194
 8467SOL    HW237038   0.101   3.287   1.090  1.3452  1.5658  2.0797
 8468SOL     OW37039   1.023   4.611   5.122  0.5161 -0.1692  0.2895
 8468SOL    HW137040   1.097   4.586   5.177  0.1417  2.0049  1.7934
 8468SOL    HW237041   1.049   4.698   5.091 -1.2010  0.6752  1.1982
 8469SOL     OW37042   1.875   0.522  17.300 -0.5311 -0.4189 -0.0343
 8469SOL    HW137043   1.887   0.494  17.391 -1.3247  1.8267  0.7624
 8469SOL    HW237044   1.803   0.586  17.302 -0.5540 -0.3686 -2.7398
 8470SOL     OW37045   0.015   2.594   1.999 -0.2199 -0.7013  0.7782
 8470SOL    HW137046   0.008   2.656   1.926 -0.4740 -1.0878  0.4714
 8470SOL    HW237047   4.659   2.579   2.017 -0.2883 -1.5480 -0.2688
 8471SOL     OW37048   0.247   3.674   8.869 -0.0532 -0.6965 -0.0802
 8471SOL    HW137049   0.291   3.728   8.935 -1.6261 -1.5005  1.6278
 8471SOL    HW237050   0.319   3.659   8.808  0.2231  0.8834 -0.1310
 8472SOL     OW37051   4.184   1.925   3.197 -0.4855 -0.3122  0.3767
 8472SOL    HW137052   4.140   2.006   3.224  0.2145 -0.4773  2.0357
 8472SOL    HW237053   4.112   1.865   3.177  1.9635 -2.8525 -0.7337
 8473SOL     OW37054   0.506   3.140   2.625 -0.6652  0.7795 -0.0245
 8473SOL    HW137055   0.539   3.057   2.658 -1.2856  1.0153  1.1968
 8473SOL    HW237056   0.582   3.199   2.629 -0.4709  0.4929  0.4427
 8474SOL     OW37057   3.404   1.908   3.640 -0.6645 -0.2416 -0.5228
 8474SOL    HW137058   3.436   1.878   3.555  0.6668  0.6238 -0.3261
 8474SOL    HW237059   3.470   1.972   3.667  0.6306 -1.0243 -1.8540
 8475SOL     OW37060   3.606   0.194   8.160  0.0339 -0.0450 -0.2646
 8475SOL    HW137061   3.618   0.150   8.244  2.1016  0.9934 -0.0140
 8475SOL    HW237062   3.665   0.264   8.188  1.7071 -1.1891 -0.9451
 8476SOL     OW37063   1.390   1.802  15.162  1.0407  0.2638  0.3114
 8476SOL    HW137064   1.355   1.787  15.074  1.5670  1.2799 -0.0698
 8476SOL    HW237065   1.457   1.734  15.158 -0.2426 -1.0102  0.2504
 8477SOL     OW37066   3.156   0.466   7.036 -0.0981  0.0567  0.2896
 8477SOL    HW137067   3.192   0.547   7.072  1.1435  0.6155 -2.1621
 8477SOL    HW237068   3.149   0.490   6.943  0.8541 -2.6532 -0.4843
 8478SOL     OW37069   2.716   3.360   6.552 -0.4703  0.2495  0.3458
 8478SOL    HW137070   2.663   3.288   6.517  2.3864 -1.1005 -1.2514
 8478SOL    HW237071   2.746   3.310   6.628  0.4868  0.6085  0.2108
 8479SOL     OW37072   3.565   0.407  13.512 -0.1736 -0.2101 -0.3171
 8479SOL    HW137073   3.503   0.339  13.538 -1.9317  1.6044  0.2517
 8479SOL    HW237074   3.518   0.490  13.506 -2.1970 -1.2477  1.3594
 8480SOL     OW37075   4.689   0.649   3.140  0.1895  0.2608 -0.3766
 8480SOL    HW137076   4.638   0.637   3.060  1.1411 -0.5731 -0.8759
 8480SOL    HW237077   4.698   0.744   3.145  2.2308 -0.0232  1.8625
 8481SOL     OW37078   3.439   2.944  10.184  0.1479  0.0786  0.1006
 8481SOL    HW137079   3.362   2.978  10.229  1.0780  1.2256  0.8487
 8481SOL    HW237080   3.396   2.889  10.119 -1.2490  0.0881  1.0148
 8482SOL     OW37081   4.038   2.593   1.075 -0.4053 -0.1197 -0.6542
 8482SOL    HW137082   4.074   2.541   1.146  2.6605 -2.7019 -4.0783
 8482SOL    HW237083   4.013   2.679   1.110  1.5658  0.0883  0.2317
 8483SOL     OW37084   1.077   2.533   5.006  0.2678  0.1471  0.3095
 8483SOL    HW137085   1.126   2.451   4.998  0.9263  0.6089 -0.4739
 8483SOL    HW237086   1.094   2.580   4.924  0.1867 -0.1217  0.1397
 8484SOL     OW37087   1.688   1.032   0.791  0.3283 -0.5513  0.2167
 8484SOL    HW137088   1.712   0.942   0.811 -1.8406 -0.8613  1.4883
 8484SOL    HW237089   1.602   1.029   0.750 -0.0385 -0.8790  1.0072
 8485SOL     OW37090   0.723   2.845   9.584  0.2948  0.0811 -0.5465
 8485SOL    HW137091   0.760   2.824   9.670 -1.7484 -1.2307  0.0138
 8485SOL    HW237092   0.764   2.782   9.525  1.6186  1.9803 -1.6677
 8486SOL     OW37093   4.578   3.211   3.282 -0.3153  0.2759 -0.2916
 8486SOL    HW137094   4.511   3.158   3.239 -1.0431 -0.2236  1.4694
 8486SOL    HW237095   4.636   3.138   3.305 -0.9107  0.4036  1.6411
 8487SOL     OW37096   2.483   3.164   6.199  0.3086 -0.4547 -0.5822
 8487SOL    HW137097   2.474   3.175   6.293  0.6068  0.0063 -0.6064
 8487SOL    HW237098   2.411   3.217   6.164 -0.6298 -1.4139 -0.1183
 8488SOL     OW37099   3.817   0.353   4.299 -0.2551  0.1641  0.3915
 8488SOL    HW137100   3.752   0.338   4.368 -0.3753  1.5905  0.6058
 8488SOL    HW237101   3.894   0.326   4.349  0.6331 -0.5279 -1.3704
 8489SOL     OW37102   3.921   4.299   7.532  0.3536  0.0872  0.0006
 8489SOL    HW137103   3.983   4.226   7.536  0.1487 -0.1582 -1.2218
 8489SOL    HW237104   3.961   4.358   7.468  1.5367  0.7518  1.3516
 8490SOL     OW37105   0.061   3.669   5.600  0.8574 -0.9866 -0.3829
 8490SOL    HW137106   0.059   3.694   5.507 -1.2549 -1.5191 -0.4691
 8490SOL    HW237107   0.019   3.583   5.600  0.4095 -0.7624  0.7474
 8491SOL     OW37108   1.506   2.550  13.866 -0.1792 -0.1309 -0.0922
 8491SOL    HW137109   1.558   2.474  13.843 -1.0565 -0.5878 -0.5865
 8491SOL    HW237110   1.435   2.540  13.802  0.2964  0.3465 -0.7002
 8492SOL     OW37111   4.417   0.562  12.188 -0.4844  0.0457  0.4241
 8492SOL    HW137112   4.482   0.566  12.259 -0.4045  0.9261  0.3001
 8492SOL    HW237113   4.356   0.499  12.225 -1.4944  1.2618  0.8154
 8493SOL     OW37114   4.231   0.441   1.670  0.2787 -0.2599 -0.5558
 8493SOL    HW137115   4.290   0.378   1.628 -0.3611 -1.1811 -0.0746
 8493SOL    HW237116   4.258   0.425   1.760  0.6215  0.8148 -0.4614
 8494SOL     OW37117   3.675   3.922   0.697  0.1193 -0.3533  0.2391
 8494SOL    HW137118   3.587   3.937   0.663  1.2754  0.1603 -2.5051
 8494SOL    HW237119   3.672   3.827   0.714 -0.4838 -0.8959 -2.9468
 8495SOL     OW37120   2.885   4.362  16.334 -0.6730  0.5344 -0.0604
 8495SOL    HW137121   2.963   4.321  16.298 -0.0679  1.7127 -0.0854
 8495SOL    HW237122   2.898   4.451  16.300  1.4864  0.1191 -0.3261
 8496SOL     OW37123   0.981   4.280   3.729 -0.3191  0.1512  0.1971
 8496SOL    HW137124   0.976   4.373   3.754 -1.5282  0.6309 -1.8010
 8496SOL    HW237125   1.073   4.255   3.734  0.2930  2.2671 -0.2551
 8497SOL     OW37126   1.497   4.259   9.502  0.0740  0.2196 -0.0627
 8497SOL    HW137127   1.474   4.226   9.415  0.5462  0.8780 -0.4371
 8497SOL    HW237128   1.519   4.173   9.539  0.8664  0.7166  0.6251
 8498SOL     OW37129   3.512   2.764  15.685 -0.4903 -0.3729 -0.8469
 8498SOL    HW137130   3.484   2.697  15.622 -0.3682  0.6047 -1.9584
 8498SOL    HW237131   3.536   2.706  15.757 -0.8011  1.1534  0.4872
 8499SOL     OW37132   2.374   4.101   3.420 -0.1910  0.1991 -0.3727
 8499SOL    HW137133   2.393   4.009   3.400  1.1323  0.4351 -0.2067
 8499SOL    HW237134   2.428   4.123   3.496 -0.5767  0.3948 -0.1538
 8500SOL     OW37135   3.686   1.417   7.614 -0.5587 -0.2234 -0.0386
 8500SOL    HW137136   3.625   1.464   7.557  0.9793  1.2539 -0.4369
 8500SOL    HW237137   3.641   1.424   7.699 -2.2768  1.3645 -1.0808
 8501SOL     OW37138   0.971   0.938   0.697 -0.0083  0.0116 -0.2758
 8501SOL    HW137139   1.049   0.957   0.645 -2.2492  0.2605 -3.5657
 8501SOL    HW237140   1.002   0.862   0.746 -0.4025  0.5311  0.7738
 8502SOL     OW37141   2.912   0.868   9.015 -0.0652  0.1962 -0.2543
 8502SOL    HW137142   2.918   0.778   8.983 -0.0432 -0.1632  0.7725
 8502SOL    HW237143   2.995   0.905   8.986 -0.4455  0.5287 -0.9226
 8503SOL     OW37144   2.637   0.605  15.903  0.7007 -0.1502  0.4234
 8503SOL    HW137145   2.585   0.525  15.911  0.0876  0.2422  0.3669
 8503SOL    HW237146   2.694   0.577  15.832  0.6611  1.1592 -0.1283
 8504SOL     OW37147   1.826   0.678  16.944 -0.0911  0.2487 -0.1580
 8504SOL    HW137148   1.748   0.700  16.995 -0.5080  0.9543 -1.1169
 8504SOL    HW237149   1.899   0.731  16.979 -2.2550  1.7056  2.1698
 8505SOL     OW37150   2.923   4.181   1.136  0.0415 -0.0963 -0.1863
 8505SOL    HW137151   2.861   4.246   1.169 -0.4535 -1.7730  2.1452
 8505SOL    HW237152   2.971   4.234   1.072 -0.9673  1.5999  0.4703
 8506SOL     OW37153   3.878   1.308   2.595  0.3245  0.4192  0.0466
 8506SOL    HW137154   3.919   1.382   2.639  0.4836  0.6164 -0.4362
 8506SOL    HW237155   3.796   1.352   2.569 -0.5324 -1.7786 -0.9593
 8507SOL     OW37156   3.507   2.601  15.441  0.1553  0.0634 -0.0728
 8507SOL    HW137157   3.476   2.510  15.432 -0.7535  0.8980 -5.6725
 8507SOL    HW237158   3.481   2.640  15.357 -1.3740  0.7841  0.7320
 8508SOL     OW37159   3.595   2.429   6.741 -0.0612  0.3302  0.1127
 8508SOL    HW137160   3.541   2.366   6.789 -0.9735  1.1381  0.1456
 8508SOL    HW237161   3.679   2.393   6.769 -0.4323 -0.5368  0.1336
 8509SOL     OW37162   3.377   3.145   5.738  0.0494 -0.0106  0.0153
 8509SOL    HW137163   3.317   3.218   5.754 -1.1858 -0.7519 -1.2207
 8509SOL    HW237164   3.463   3.176   5.766 -0.6951  2.1742 -0.1350
 8510SOL     OW37165   2.629   2.349   5.033  0.3038 -0.4118  0.0014
 8510SOL    HW137166   2.657   2.264   5.067 -0.8678 -1.2534 -1.1761
 8510SOL    HW237167   2.612   2.404   5.110 -1.8441  1.2075 -1.6025
 8511SOL     OW37168   4.212   4.459   6.897  0.1140 -0.6321  0.0438
 8511SOL    HW137169   4.261   4.537   6.921  0.7581 -0.5765 -1.4433
 8511SOL    HW237170   4.193   4.478   6.805 -1.9173  1.7724  0.9415
 8512SOL     OW37171   0.134   2.167   7.394 -0.1458 -0.3854 -0.2345
 8512SOL    HW137172   0.110   2.117   7.472 -2.0093  1.8696  0.6445
 8512SOL    HW237173   0.181   2.242   7.431  0.0867  0.2575 -1.8125
 8513SOL     OW37174   3.434   4.211   8.442 -0.1262  0.2326 -0.1552
 8513SOL    HW137175   3.493   4.144   8.406  0.4238 -0.0362  1.2387
 8513SOL    HW237176   3.487   4.285   8.413  0.6958 -0.5682 -0.7282
 8514SOL     OW37177   3.825   0.263  17.124  0.3091 -0.5648  0.2961
 8514SOL    HW137178   3.835   0.201  17.196  0.2193 -2.7313 -1.5499
 8514SOL    HW237179   3.797   0.341  17.172  0.9139  0.8316 -1.6184
 8515SOL     OW37180   4.631   3.398   5.160  0.8241  0.1749 -0.0383
 8515SOL    HW137181   4.555   3.433   5.207  0.2801 -0.8229 -0.1936
 8515SOL    HW237182   4.618   3.308   5.187 -2.2589  0.6812  0.2315
 8516SOL     OW37183   0.172   0.529   7.051  0.4534  0.5686 -0.2407
 8516SOL    HW137184   0.153   0.460   6.988 -2.0099  0.7071  0.3533
 8516SOL    HW237185   0.257   0.564   7.021 -0.0977  0.8670 -1.4655
 8517SOL     OW37186   2.610   0.800   9.997  0.0155  0.0820 -0.4947
 8517SOL    HW137187   2.705   0.792  10.009 -0.0513 -0.7642 -0.5433
 8517SOL    HW237188   2.591   0.766   9.910 -2.4512  0.3108 -0.0470
 8518SOL     OW37189   0.742   1.555  15.092 -0.0893  0.0347  0.0628
 8518SOL    HW137190   0.775   1.537  15.180 -3.2416 -2.0387  0.7921
 8518SOL    HW237191   0.690   1.475  15.085 -2.1511  1.5394 -1.8195
 8519SOL     OW37192   1.177   0.750  12.915  0.2449  0.2848 -0.4545
 8519SOL    HW137193   1.229   0.785  12.987 -0.4651  0.2810  0.0661
 8519SOL    HW237194   1.184   0.827  12.858 -1.0808 -0.7146 -1.9539
 8520SOL     OW37195   1.912   0.384   6.330 -0.5345 -0.6003  0.2559
 8520SOL    HW137196   1.970   0.352   6.261  1.0042  1.4022  0.6275
 8520SOL    HW237197   1.973   0.398   6.403  0.3735 -0.3492 -0.5458
 8521SOL     OW37198   2.571   1.899   3.200 -0.5257 -0.1423  0.4009
 8521SOL    HW137199   2.484   1.883   3.164 -0.1243 -1.7670  0.1672
 8521SOL    HW237200   2.571   1.995   3.205  0.9743 -0.0596 -1.0198
 8522SOL     OW37201   0.743   2.208   5.630 -0.2080  0.2473  0.6679
 8522SOL    HW137202   0.649   2.211   5.648 -0.4493 -0.6270 -0.4708
 8522SOL    HW237203   0.752   2.251   5.546  0.0861 -2.1322 -0.5315
 8523SOL     OW37204   0.517   0.292   7.187  0.3293 -0.0142 -0.9414
 8523SOL    HW137205   0.526   0.328   7.098 -1.6475  1.0054 -0.7067
 8523SOL    HW237206   0.598   0.251   7.217  0.9463  2.2572  0.4152
 8524SOL     OW37207   2.669   0.197   4.919  0.3065 -0.1608 -0.4199
 8524SOL    HW137208   2.687   0.290   4.926 -1.6250  0.3007 -1.4879
 8524SOL    HW237209   2.603   0.185   4.988 -0.7532 -0.1384 -1.4335
 8525SOL     OW37210   0.605   4.722   1.670 -0.2118 -0.2767  0.3728
 8525SOL    HW137211   0.568   4.675   1.745 -2.3771  0.3416 -0.3235
 8525SOL    HW237212   0.580   0.075   1.694 -0.5951  0.0300 -1.1471
 8526SOL     OW37213   0.052   2.981   9.017 -0.6061  0.1330  0.6057
 8526SOL    HW137214   0.043   2.963   9.111  0.0706 -1.0750  0.4332
 8526SOL    HW237215   0.109   2.914   8.982  2.2154  3.2900 -0.8651
 8527SOL     OW37216   0.467   4.734   8.324 -0.4056  0.3107  0.0573
 8527SOL    HW137217   0.449   0.087   8.352  1.4856  0.8087 -0.3300
 8527SOL    HW237218   0.427   4.687   8.397 -0.8933 -0.1384 -0.5005
 8528SOL     OW37219   4.525   1.754   3.327 -0.0911  0.8094 -0.3096
 8528SOL    HW137220   4.535   1.840   3.366  2.8214 -0.2656  1.3035
 8528SOL    HW237221   4.509   1.705   3.408  0.5795  0.4184 -0.4145
 8529SOL     OW37222   0.410   0.019   7.844  0.9174  0.0149 -0.8184
 8529SOL    HW137223   0.434   0.072   7.920  1.9780 -0.0519 -1.1050
 8529SOL    HW237224   0.355   0.082   7.799  1.1623 -1.1828 -2.8120
 8530SOL     OW37225   3.300   2.319   8.390  0.3962  0.2351  0.4089
 8530SOL    HW137226   3.337   2.277   8.312  0.1442 -1.5602  1.2722
 8530SOL    HW237227   3.370   2.378   8.418  1.2641 -1.0401  0.8856
 8531SOL     OW37228   2.255   0.662   3.082  0.1367  0.2208 -0.6173
 8531SOL    HW137229   2.347   0.660   3.054 -0.7375 -0.0389 -3.4421
 8531SOL    HW237230   2.274   0.627   3.169  0.6635 -1.8712 -1.5709
 8532SOL     OW37231   0.517   0.067   1.966  0.3919 -0.0486 -0.3572
 8532SOL    HW137232   0.485   0.009   2.034 -2.6041  1.6575 -0.2883
 8532SOL    HW237233   0.438   0.088   1.916 -0.3112 -0.4673  0.5883
 8533SOL     OW37234   2.194   2.244  17.660 -0.3016  0.8589 -0.1508
 8533SOL    HW137235   2.287   2.255  17.643 -0.1774  1.0966  0.7111
 8533SOL    HW237236   2.182   2.285  17.745 -0.7889  1.1485 -0.3566
 8534SOL     OW37237   2.577   2.648  12.074  0.1430 -0.3443  0.1962
 8534SOL    HW137238   2.574   2.672  12.167 -0.8931 -1.1603  0.3629
 8534SOL    HW237239   2.658   2.678  12.032  0.3396 -1.4271 -0.2016
 8535SOL     OW37240   2.060   1.892   5.324 -0.0503 -0.0061 -0.3820
 8535SOL    HW137241   1.990   1.886   5.388  0.4688  2.0599  0.3877
 8535SOL    HW237242   2.094   1.803   5.330  0.2663  0.1992  0.8255
 8536SOL     OW37243   3.733   4.542  16.649 -0.1320  0.2054  0.7473
 8536SOL    HW137244   3.644   4.533  16.614  0.3769 -0.2137 -0.4391
 8536SOL    HW237245   3.725   4.566  16.741 -1.4163 -0.1976  0.7458
 8537SOL     OW37246   4.409   1.688  11.304  0.3901  0.1307 -0.4360
 8537SOL    HW137247   4.342   1.624  11.328  0.7600 -0.2873 -0.5280
 8537SOL    HW237248   4.385   1.760  11.362 -2.3468 -0.5771 -0.7198
 8538SOL     OW37249   3.801   4.571   6.984 -0.3108  0.2266  0.5736
 8538SOL    HW137250   3.743   4.502   6.953  0.1374  0.0043  0.2366
 8538SOL    HW237251   3.757   4.588   7.068 -2.3573 -1.8542 -0.0852
 8539SOL     OW37252   1.957   3.122   6.256  0.2311 -0.1881 -0.2515
 8539SOL    HW137253   1.952   3.063   6.181 -1.1173 -1.8473  1.1505
 8539SOL    HW237254   2.029   3.079   6.304 -0.4980 -0.4849  0.5671
 8540SOL     OW37255   0.185   2.682   6.617  0.2314  0.0050  0.0471
 8540SOL    HW137256   0.279   2.671   6.628  0.1005 -0.2089  0.8963
 8540SOL    HW237257   0.155   2.602   6.660 -0.6524 -0.6936 -1.8909
 8541SOL     OW37258   1.396   3.657   0.695  0.2699  0.4888  0.4235
 8541SOL    HW137259   1.310   3.659   0.653  0.0244  0.4318  0.9169
 8541SOL    HW237260   1.443   3.605   0.630  0.0788 -0.7660  1.2839
 8542SOL     OW37261   3.057   4.487   1.909  0.1860 -0.1793 -0.2733
 8542SOL    HW137262   2.963   4.495   1.923  0.4163  2.3662 -0.2024
 8542SOL    HW237263   3.085   4.486   2.000  0.7768  0.9682 -0.4405
 8543SOL     OW37264   1.073   4.710  17.093 -0.9602 -0.0567 -0.3402
 8543SOL    HW137265   1.005   0.028  17.055  0.7035  0.7286 -2.1983
 8543SOL    HW237266   1.158   4.737  17.059 -1.7428 -0.6873 -2.7780
 8544SOL     OW37267   2.038   0.890   5.715 -0.8592 -0.8546  0.5122
 8544SOL    HW137268   2.111   0.914   5.773 -0.0227  0.2444 -1.0011
 8544SOL    HW237269   2.044   0.796   5.698 -1.3602 -0.8454  0.2918
 8545SOL     OW37270   2.385   1.709   3.691 -0.4442  0.3689 -0.1394
 8545SOL    HW137271   2.439   1.753   3.625  0.9353  2.7500  2.5876
 8545SOL    HW237272   2.360   1.636   3.635  3.3755 -0.5525 -0.6345
 8546SOL     OW37273   3.771   0.719   1.846  0.7394  0.3154  0.4260
 8546SOL    HW137274   3.858   0.686   1.821  0.5088  0.9257 -1.2030
 8546SOL    HW237275   3.788   0.786   1.912 -1.0017  1.0239  0.1358
 8547SOL     OW37276   1.621   4.297   7.860 -0.5879 -0.3887 -0.5308
 8547SOL    HW137277   1.659   4.217   7.895 -0.8503 -0.8916 -1.4043
 8547SOL    HW237278   1.693   4.321   7.801 -0.6686  1.1040 -0.0316
 8548SOL     OW37279   1.445   1.154   7.784 -0.1739 -0.0541 -0.5024
 8548SOL    HW137280   1.412   1.224   7.728 -1.0159 -0.4769 -0.5242
 8548SOL    HW237281   1.526   1.152   7.733  0.7631 -0.2368  0.9906
 8549SOL     OW37282   1.091   2.387   7.678  0.3568  0.4014 -0.2977
 8549SOL    HW137283   1.099   2.292   7.672  2.0848  0.4930  0.2965
 8549SOL    HW237284   1.049   2.411   7.596 -0.4121 -0.0529 -0.0355
 8550SOL     OW37285   0.419   1.618  10.925  0.2108 -0.1878 -0.6680
 8550SOL    HW137286   0.485   1.612  10.994 -1.2130 -0.4503  0.6592
 8550SOL    HW237287   0.375   1.701  10.944  1.3826 -0.0779  1.5710
 8551SOL     OW37288   4.006   4.294  10.103 -0.0227  0.2694 -0.2799
 8551SOL    HW137289   3.915   4.272  10.122 -0.3464  1.3251 -0.5711
 8551SOL    HW237290   4.005   4.387  10.128 -1.2623  0.6317 -1.7056
 8552SOL     OW37291   3.123   0.689  16.177  0.0336  0.1870 -0.2085
 8552SOL    HW137292   3.050   0.683  16.238  1.0791  0.7162  1.0839
 8552SOL    HW237293   3.083   0.629  16.114 -0.6488  1.0330 -0.5762
 8553SOL     OW37294   3.194   1.265   6.955 -0.7786  0.2511 -0.9344
 8553SOL    HW137295   3.171   1.259   7.048  0.5825  1.3934 -0.5258
 8553SOL    HW237296   3.174   1.175   6.927  0.5316 -0.4640  0.4156
 8554SOL     OW37297   1.653   2.932   4.824 -0.2344  0.4078 -0.4806
 8554SOL    HW137298   1.659   2.900   4.913 -1.3577 -1.8789 -1.2279
 8554SOL    HW237299   1.679   2.855   4.773  1.0033  0.0748  0.6780
 8555SOL     OW37300   1.247   1.204  17.493 -0.0290 -0.2409  0.2053
 8555SOL    HW137301   1.335   1.178  17.464 -0.8066 -1.8547 -0.7182
 8555SOL    HW237302   1.236   1.164  17.580  0.5070  2.1856  1.3814
 8556SOL     OW37303   1.627   1.630   1.946  0.3301 -0.2096  0.1194
 8556SOL    HW137304   1.683   1.558   1.917 -0.3867 -0.9703  0.6092
 8556SOL    HW237305   1.572   1.660   1.873  0.0008  0.5741  0.6895
 8557SOL     OW37306   0.479   4.398  13.738 -0.2539 -1.0877  0.0113
 8557SOL    HW137307   0.512   4.467  13.795 -1.1321 -0.5861 -0.0918
 8557SOL    HW237308   0.409   4.369  13.797 -1.5822 -0.1701 -1.1151
 8558SOL     OW37309   4.619   1.255   8.994  0.0295 -0.1165 -0.2104
 8558SOL    HW137310   4.567   1.203   9.055  0.8979 -1.2274 -0.4247
 8558SOL    HW237311   4.628   1.337   9.042  2.7874 -0.4570 -0.1843
 8559SOL     OW37312   2.877   0.083   8.056  0.3065 -0.0849 -0.3227
 8559SOL    HW137313   2.803   0.125   8.099 -0.6663 -1.7394 -0.3834
 8559SOL    HW237314   2.927   0.040   8.125 -1.5548 -0.4835  0.7566
 8560SOL     OW37315   0.915   4.660   7.992 -0.9765  0.2919  0.2619
 8560SOL    HW137316   0.904   0.010   8.031 -1.6734  0.4479 -0.2788
 8560SOL    HW237317   0.974   4.622   8.058  0.3762 -1.3424 -1.8724
 8561SOL     OW37318   4.293   1.240   5.242  0.3260  0.1136  0.0999
 8561SOL    HW137319   4.224   1.229   5.176 -0.2016 -1.7636  0.9491
 8561SOL    HW237320   4.335   1.157   5.220  0.8862  0.4508 -0.0987
 8562SOL     OW37321   0.837   1.001   3.126 -0.3062  0.4261 -0.0556
 8562SOL    HW137322   0.756   1.008   3.178 -0.2287 -1.0378  0.2469
 8562SOL    HW237323   0.848   1.093   3.102  2.3601 -0.6883 -2.9760
 8563SOL     OW37324   4.559   3.711   3.436 -0.2079 -0.4275  0.1383
 8563SOL    HW137325   4.504   3.635   3.416 -0.7538 -0.4699  1.8442
 8563SOL    HW237326   4.540   3.758   3.355 -1.4766 -0.9718  0.1285
 8564SOL     OW37327   1.424   1.661   2.492 -0.0731  0.2205 -0.1261
 8564SOL    HW137328   1.494   1.620   2.442 -0.3495 -1.1813  0.6397
 8564SOL    HW237329   1.474   1.730   2.536 -3.0758  1.6665  1.0387
 8565SOL     OW37330   2.722   4.475   2.132  0.0911 -0.7764 -0.0483
 8565SOL    HW137331   2.683   4.482   2.219  1.2539  1.3087  0.3046
 8565SOL    HW237332   2.770   4.558   2.134 -0.1930 -0.6276  1.0186
 8566SOL     OW37333   0.616   1.990  13.219  0.1117 -0.0483  0.3038
 8566SOL    HW137334   0.536   2.041  13.207  0.1991 -0.1692 -0.7617
 8566SOL    HW237335   0.632   1.958  13.130 -0.6712 -0.0631  0.1678
 8567SOL     OW37336   4.206   4.086   3.908  0.2464  0.3271  0.2424
 8567SOL    HW137337   4.265   4.011   3.902 -2.6372 -1.9173  0.3973
 8567SOL    HW237338   4.174   4.073   3.997  0.3294 -0.6050  0.1333
 8568SOL     OW37339   1.215   4.470   1.467 -0.6885 -0.0684  0.1004
 8568SOL    HW137340   1.157   4.396   1.487  0.2754 -1.0085 -0.5818
 8568SOL    HW237341   1.240   4.441   1.379  1.0106  4.0558 -0.7607
 8569SOL     OW37342   3.168   0.136  11.093  0.2168  0.5443 -0.2131
 8569SOL    HW137343   3.194   0.112  11.182  0.3008  0.2601 -0.3137
 8569SOL    HW237344   3.073   0.134  11.097  0.2283 -1.6837 -0.9409
 8570SOL     OW37345   0.335   2.415   6.472 -0.2809  0.3120 -0.2228
 8570SOL    HW137346   0.364   2.457   6.554 -1.5897  0.5235  0.1288
 8570SOL    HW237347   0.372   2.327   6.472 -3.6577 -1.0943  1.8171
 8571SOL     OW37348   2.462   1.129   0.829 -0.1726  0.6443  0.0023
 8571SOL    HW137349   2.409   1.058   0.866  1.0642  0.2313  0.9682
 8571SOL    HW237350   2.384   1.178   0.802 -0.4096  0.5426  0.5030
 8572SOL     OW37351   0.779   2.349   6.568 -0.2814  0.1574 -0.2254
 8572SOL    HW137352   0.827   2.267   6.559  0.2835  0.6586 -1.6771
 8572SOL    HW237353   0.700   2.312   6.607  0.1048  0.2394  0.6304
 8573SOL     OW37354   3.008   1.325   5.609  0.2099  0.0354  0.2971
 8573SOL    HW137355   3.038   1.406   5.568  1.2473 -0.6431 -0.3097
 8573SOL    HW237356   2.986   1.277   5.528  0.1829 -0.2727  0.4868
 8574SOL     OW37357   1.424   3.517  16.463 -0.6245  0.7162 -0.1094
 8574SOL    HW137358   1.479   3.452  16.420 -0.5316 -0.8315  2.3144
 8574SOL    HW237359   1.344   3.524  16.411 -0.9838  0.5244  0.4115
 8575SOL     OW37360   0.510   3.606   6.005  0.0187 -0.1735 -0.2257
 8575SOL    HW137361   0.487   3.558   5.926  1.3840  1.4071 -1.5979
 8575SOL    HW237362   0.516   3.695   5.970  0.7595  1.0720  3.0731
 8576SOL     OW37363   0.085   1.818   6.503  0.2233  0.0640  0.8113
 8576SOL    HW137364   0.140   1.886   6.542  0.0031  1.2189 -0.8731
 8576SOL    HW237365   0.006   1.826   6.556 -0.2972  0.7035 -0.0683
 8577SOL     OW37366   1.107   2.517  11.006 -0.0269 -0.0723 -0.2376
 8577SOL    HW137367   1.073   2.494  10.920 -1.7604  2.7616 -0.3163
 8577SOL    HW237368   1.032   2.505  11.065  0.6693 -0.5804  0.5333
 8578SOL     OW37369   4.203   4.218  14.648  0.1108 -0.3331 -0.3560
 8578SOL    HW137370   4.149   4.148  14.611  0.5205  0.1930 -1.9625
 8578SOL    HW237371   4.156   4.298  14.624  1.1819 -0.0729 -1.5777
 8579SOL     OW37372   2.600   0.259   6.155 -0.3347 -0.2805 -0.1583
 8579SOL    HW137373   2.506   0.240   6.148 -0.5553  0.6037  0.4552
 8579SOL    HW237374   2.610   0.334   6.096 -2.4150  1.0153  1.1157
 8580SOL     OW37375   1.470   4.492   0.076  0.0845  0.3076  0.7543
 8580SOL    HW137376   1.452   4.586   0.079 -1.5869 -0.0842  2.3693
 8580SOL    HW237377   1.562   4.505   0.051  0.6690 -1.6099  1.9154
 8581SOL     OW37378   1.799   0.688   5.464  0.6822 -0.5804 -0.1053
 8581SOL    HW137379   1.740   0.714   5.394  0.4931 -0.2852  0.1659
 8581SOL    HW237380   1.785   0.593   5.470  1.0617 -0.6241  0.1125
 8582SOL     OW37381   3.167   4.450   7.911  0.1002 -0.3389  0.5473
 8582SOL    HW137382   3.215   4.531   7.899 -1.3454  0.3590 -0.4950
 8582SOL    HW237383   3.233   4.396   7.954  0.7037 -2.6739 -3.2566
 8583SOL     OW37384   1.654   3.295  16.975  0.1018  0.1405  0.1043
 8583SOL    HW137385   1.661   3.323  16.884 -0.7894 -1.2490 -0.3808
 8583SOL    HW237386   1.569   3.328  17.005 -0.0982 -0.4001  0.1301
 8584SOL     OW37387   3.413   3.979   0.695  0.3648  0.1549 -0.4805
 8584SOL    HW137388   3.333   3.950   0.739  1.8892 -2.2511  0.6667
 8584SOL    HW237389   3.383   4.062   0.655  1.5358 -0.5679 -2.8856
 8585SOL     OW37390   1.279   4.234   3.157 -0.1754 -0.6481  0.5880
 8585SOL    HW137391   1.215   4.292   3.198  1.2089  0.1926  1.5723
 8585SOL    HW237392   1.295   4.181   3.235  0.4620 -0.7130  0.4186
 8586SOL     OW37393   3.300   1.789  13.353 -0.3104  0.0481 -0.6672
 8586SOL    HW137394   3.348   1.814  13.432  1.2152 -1.2693 -1.1788
 8586SOL    HW237395   3.335   1.703  13.333  0.0182 -0.8604  3.7979
 8587SOL     OW37396   2.251   2.277  12.578 -0.2681  0.6144 -0.1163
 8587SOL    HW137397   2.295   2.323  12.650  0.2865  1.1719 -0.8129
 8587SOL    HW237398   2.189   2.349  12.565 -0.1846  0.8435  0.6918
 8588SOL     OW37399   4.060   3.871   8.335  0.1265  0.5767 -0.0156
 8588SOL    HW137400   4.055   3.832   8.248  0.7945  1.8939 -0.6465
 8588SOL    HW237401   3.971   3.862   8.370  0.2221 -0.3394 -0.0204
 8589SOL     OW37402   3.337   1.588   7.745 -0.0143 -0.2227 -0.4033
 8589SOL    HW137403   3.374   1.505   7.776 -0.6234 -0.6067 -0.6788
 8589SOL    HW237404   3.408   1.649   7.762 -0.3961  0.5766 -1.7340
 8590SOL     OW37405   1.903   0.767   6.510 -0.2426  0.0874 -0.3444
 8590SOL    HW137406   1.967   0.774   6.580 -0.1224  0.4390 -0.4928
 8590SOL    HW237407   1.959   0.761   6.432 -1.3207  0.2441 -1.1352
 8591SOL     OW37408   0.308   0.287   3.844 -0.5081 -0.0087  0.1968
 8591SOL    HW137409   0.383   0.340   3.872 -0.4007  0.2566 -0.6172
 8591SOL    HW237410   0.256   0.343   3.787  0.3919 -1.1526 -1.7505
 8592SOL     OW37411   3.101   3.146   4.185 -0.1788  0.2766  0.1706
 8592SOL    HW137412   3.192   3.120   4.177  0.6521  2.4488  2.6740
 8592SOL    HW237413   3.120   3.231   4.146  1.3496 -0.5076 -0.7896
 8593SOL     OW37414   3.193   3.064  13.970 -0.3666 -0.2618 -0.0462
 8593SOL    HW137415   3.141   3.140  13.946 -1.8342 -1.2500 -0.0433
 8593SOL    HW237416   3.246   3.049  13.892  0.8705 -0.6807  0.8782
 8594SOL     OW37417   0.841   2.633   3.690 -0.1620  0.1022 -0.2768
 8594SOL    HW137418   0.936   2.638   3.686 -0.0776 -1.5432 -0.3117
 8594SOL    HW237419   0.820   2.689   3.615 -1.6306  0.1675  0.1898
 8595SOL     OW37420   2.525   4.005   9.141 -0.1226  0.2118 -0.3578
 8595SOL    HW137421   2.584   3.930   9.146  0.2735  0.4862 -0.8949
 8595SOL    HW237422   2.579   4.067   9.191 -1.3529 -0.6056  1.9425
 8596SOL     OW37423   2.337   4.653  15.760 -0.5837 -0.2071 -0.2467
 8596SOL    HW137424   2.393   4.575  15.758  1.3126  1.1569 -1.3858
 8596SOL    HW237425   2.279   4.643  15.684 -0.7927 -0.6148 -0.0309
 8597SOL     OW37426   2.653   4.130   9.601  0.3182 -0.0488  0.7634
 8597SOL    HW137427   2.705   4.201   9.637 -1.6652  0.3515  2.8460
 8597SOL    HW237428   2.571   4.132   9.651  0.3475 -1.1452  0.8625
 8598SOL     OW37429   1.589   0.921  11.955  0.3053 -0.2888  0.2914
 8598SOL    HW137430   1.587   0.891  11.864  1.4565  1.8623 -0.4422
 8598SOL    HW237431   1.684   0.927  11.946  0.4743  0.2040  2.5647
 8599SOL     OW37432   3.595   1.173   5.713 -0.1485  0.4904 -0.6193
 8599SOL    HW137433   3.631   1.095   5.671  2.1735  0.2382  1.8349
 8599SOL    HW237434   3.503   1.148   5.724  0.1048  0.4893  1.5087
 8600SOL     OW37435   0.307   1.408   8.212  0.1128  0.2224  0.1112
 8600SOL    HW137436   0.317   1.315   8.190 -1.7069 -0.4342  2.0199
 8600SOL    HW237437   0.231   1.404   8.270  2.2264  0.8490  2.9153
 8601SOL     OW37438   1.790   1.910  11.802  0.1284 -0.0001 -0.0084
 8601SOL    HW137439   1.862   1.883  11.858  0.3302 -0.4491 -0.4790
 8601SOL    HW237440   1.765   1.987  11.853 -0.9225 -0.6315  0.4295
 8602SOL     OW37441   1.987   3.867   6.809 -0.2805  0.6321 -0.2020
 8602SOL    HW137442   2.057   3.929   6.789  0.5743  0.3115  1.7879
 8602SOL    HW237443   1.917   3.928   6.788  1.4705  2.3030 -1.1672
 8603SOL     OW37444   0.307   1.605   0.825  0.7965  0.4048  0.1053
 8603SOL    HW137445   0.239   1.647   0.879 -0.0524 -2.8468  1.5692
 8603SOL    HW237446   0.292   1.658   0.747 -1.9010 -0.6737 -0.1140
 8604SOL     OW37447   0.381   0.380   1.499 -0.1395  0.6812 -0.0715
 8604SOL    HW137448   0.310   0.349   1.443 -1.0629  1.6689  0.5281
 8604SOL    HW237449   0.443   0.418   1.437 -0.3938 -0.1929 -0.8465
 8605SOL     OW37450   3.511   0.148   6.991 -0.0553 -0.2134  0.7721
 8605SOL    HW137451   3.518   0.116   6.901 -3.2425  2.5543 -0.4450
 8605SOL    HW237452   3.438   0.208   6.974  0.5668  0.3830  0.1904
 8606SOL     OW37453   0.722   3.477   4.725  0.2517  0.4632  0.6590
 8606SOL    HW137454   0.728   3.525   4.808  0.4489  0.1149  0.8453
 8606SOL    HW237455   0.729   3.554   4.669 -4.1747 -0.6819 -1.5028
 8607SOL     OW37456   2.245   1.691   3.340  0.1402 -0.1802  0.0061
 8607SOL    HW137457   2.321   1.748   3.353  0.7144 -1.2426  1.2717
 8607SOL    HW237458   2.286   1.609   3.368  1.2845  0.2268 -0.4899
 8608SOL     OW37459   1.647   3.194   8.417 -0.0310 -0.7185 -0.2171
 8608SOL    HW137460   1.607   3.223   8.335 -0.2800  1.5203  0.7026
 8608SOL    HW237461   1.657   3.280   8.458 -1.3016 -0.4324 -0.5381
 8609SOL     OW37462   3.663   0.951   5.021 -0.0785  0.0441  0.2686
 8609SOL    HW137463   3.729   0.951   4.953 -1.9894  0.1352 -1.5766
 8609SOL    HW237464   3.590   1.001   4.986 -0.4675 -0.7785 -0.0862
 8610SOL     OW37465   3.758   0.922   8.176 -0.1105  0.1506  0.0106
 8610SOL    HW137466   3.705   0.856   8.222 -1.6077  2.2902  1.4279
 8610SOL    HW237467   3.743   1.005   8.223  2.6235  1.4981 -1.5110
 8611SOL     OW37468   2.700   4.102   8.897 -0.3479 -0.1030  0.3150
 8611SOL    HW137469   2.680   4.009   8.882 -1.1216 -0.0757  1.1866
 8611SOL    HW237470   2.756   4.093   8.973 -0.4598  2.8717  0.7286
 8612SOL     OW37471   0.213   2.003   6.640 -0.3680  0.3885 -0.2116
 8612SOL    HW137472   0.198   2.040   6.726  0.5090  1.1545 -0.3992
 8612SOL    HW237473   0.308   1.999   6.634 -0.5032 -0.3203 -2.1884
 8613SOL     OW37474   2.618   1.523   1.749  0.0761 -0.0914 -0.3262
 8613SOL    HW137475   2.615   1.601   1.804 -1.8579  0.6625 -1.5115
 8613SOL    HW237476   2.572   1.459   1.804  1.1069 -0.4593  0.1010
 8614SOL     OW37477   0.396   4.348   2.468  0.2632  0.4803  0.2400
 8614SOL    HW137478   0.447   4.315   2.542  0.5990  2.8331  1.0703
 8614SOL    HW237479   0.308   4.325   2.497 -0.2069  1.5876 -0.3047
 8615SOL     OW37480   1.517   0.208   9.380  0.1260 -0.1803  0.2268
 8615SOL    HW137481   1.561   0.273   9.434 -1.1120  0.2403  0.7211
 8615SOL    HW237482   1.439   0.253   9.350 -0.0009 -0.9175 -0.5413
 8616SOL     OW37483   3.070   2.344   3.605  0.0467  0.4165 -0.6025
 8616SOL    HW137484   2.975   2.335   3.602  0.1680 -0.5823 -1.6296
 8616SOL    HW237485   3.081   2.292   3.685 -1.5888  0.3229 -0.4379
 8617SOL     OW37486   3.522   3.530   4.904  0.3768 -0.1153 -0.1239
 8617SOL    HW137487   3.523   3.526   5.000  2.5893 -1.3877 -0.1758
 8617SOL    HW237488   3.553   3.439   4.899  0.9437  0.1544 -1.4913
 8618SOL     OW37489   4.634   3.194   4.664  0.1807 -0.1351  0.7059
 8618SOL    HW137490   4.614   3.202   4.571  0.2040 -0.0303  0.7094
 8618SOL    HW237491   4.547   3.169   4.694  0.3944 -0.6010  0.9433
 8619SOL     OW37492   2.649   1.809   8.959  0.6649 -0.4709 -0.5737
 8619SOL    HW137493   2.612   1.721   8.969 -0.0199  0.0387  1.3608
 8619SOL    HW237494   2.567   1.857   8.955  1.2312  0.4689 -1.0337
 8620SOL     OW37495   3.672   1.500   0.679  0.2205 -0.0049 -0.0396
 8620SOL    HW137496   3.593   1.453   0.653  0.8465 -0.3474 -1.3484
 8620SOL    HW237497   3.713   1.430   0.731  1.9498  1.2273  0.2620
 8621SOL     OW37498   3.979   3.813   2.065  0.1283  0.9723 -0.1647
 8621SOL    HW137499   4.070   3.784   2.068  0.2227  1.3373  0.7457
 8621SOL    HW237500   3.939   3.740   2.112  0.0276  0.2948 -1.3105
 8622SOL     OW37501   4.059   1.346  13.609  0.5538  0.1968 -0.2680
 8622SOL    HW137502   4.089   1.367  13.521 -0.8062  2.2287 -0.2497
 8622SOL    HW237503   3.993   1.414  13.626  0.4552 -0.1953  0.9102
 8623SOL     OW37504   3.164   1.727   2.178 -0.3225 -0.6246 -0.0699
 8623SOL    HW137505   3.106   1.652   2.162 -1.8035  0.3287  0.8615
 8623SOL    HW237506   3.193   1.738   2.087  2.5507 -0.9354  0.8074
 8624SOL     OW37507   0.130   0.514   7.323  0.1081  0.3692 -0.2025
 8624SOL    HW137508   0.146   0.516   7.229  3.1179  1.0415  0.3068
 8624SOL    HW237509   0.051   0.568   7.322 -0.3328 -0.2896 -0.3906
 8625SOL     OW37510   3.741   3.889   8.092 -0.3083  0.6970 -0.0138
 8625SOL    HW137511   3.689   3.947   8.147  0.0889  0.9083  0.1412
 8625SOL    HW237512   3.746   3.941   8.011 -0.0523 -1.4975 -1.4246
 8626SOL     OW37513   3.776   3.423   7.595 -0.9489 -1.2248 -0.3255
 8626SOL    HW137514   3.684   3.429   7.618 -0.8510  0.7042 -0.4657
 8626SOL    HW237515   3.776   3.466   7.509 -0.1953 -1.7859 -0.6056
 8627SOL     OW37516   0.327   1.499   5.944  0.2943  0.2032  0.4353
 8627SOL    HW137517   0.341   1.483   6.037 -0.8208  2.9861  1.0937
 8627SOL    HW237518   0.312   1.594   5.948 -1.7620 -0.0515 -0.8432
 8628SOL     OW37519   2.317   2.894   5.261  0.3442  0.2873 -0.0708
 8628SOL    HW137520   2.408   2.893   5.293  0.2162  0.6631  0.3154
 8628SOL    HW237521   2.324   2.909   5.167  0.1676  0.0199 -0.1275
 8629SOL     OW37522   2.168   3.686  14.425  0.1670 -0.2279  0.7137
 8629SOL    HW137523   2.126   3.737  14.494  0.0960  1.2416 -0.4115
 8629SOL    HW237524   2.258   3.698  14.453  1.2630  0.6475 -3.1601
 8630SOL     OW37525   0.274   3.145  17.547  0.5044 -0.1517 -0.1412
 8630SOL    HW137526   0.276   3.226  17.599  0.5885  0.0250 -0.4145
 8630SOL    HW237527   0.356   3.154  17.496  0.0530  0.4471 -0.7721
 8631SOL     OW37528   0.988   1.380  13.867  0.0651  0.1709 -0.8101
 8631SOL    HW137529   0.973   1.415  13.779 -1.4309  0.2096 -0.5461
 8631SOL    HW237530   1.071   1.336  13.850 -0.3473 -1.1853  0.7453
 8632SOL     OW37531   1.420   1.675   6.286  0.5101  0.0505 -0.3859
 8632SOL    HW137532   1.443   1.729   6.361 -0.0910 -0.4120  0.1332
 8632SOL    HW237533   1.325   1.684   6.292  0.4771  0.0785 -0.9715
 8633SOL     OW37534   4.009   3.813   4.082 -0.6412 -0.6280  0.1544
 8633SOL    HW137535   4.051   3.888   4.125 -0.1194  0.6939 -2.6842
 8633SOL    HW237536   4.022   3.826   3.989  1.4968 -0.8162  0.4367
 8634SOL     OW37537   1.871   4.455   1.582  0.2686  0.0010  0.1266
 8634SOL    HW137538   1.897   4.522   1.645 -0.8033 -0.2695  0.8540
 8634SOL    HW237539   1.835   4.391   1.643 -0.0208  1.0727  1.0718
 8635SOL     OW37540   3.140   4.418   6.664 -0.0007 -0.6138 -0.5160
 8635SOL    HW137541   3.119   4.509   6.688 -1.3632 -0.3388 -2.7094
 8635SOL    HW237542   3.206   4.434   6.597 -1.6059 -1.7581 -2.3789
 8636SOL     OW37543   1.590   2.287   1.758 -0.3016 -0.2018  0.1360
 8636SOL    HW137544   1.665   2.273   1.816 -1.3145  0.7162  1.6657
 8636SOL    HW237545   1.629   2.359   1.710 -2.7796  1.0613  0.0159
 8637SOL     OW37546   4.351   4.379   9.656 -0.1362  0.4213  0.3919
 8637SOL    HW137547   4.264   4.340   9.646  0.5230 -1.0182  0.1868
 8637SOL    HW237548   4.381   4.333   9.734 -1.6255 -0.3480  0.5146
 8638SOL     OW37549   3.861   4.321   1.204  0.0225  0.6227 -0.0367
 8638SOL    HW137550   3.798   4.377   1.158 -0.6075 -1.3772 -1.5954
 8638SOL    HW237551   3.803   4.297   1.277  3.0333 -0.1870  2.1012
 8639SOL     OW37552   0.188   1.471   7.032  0.2863  0.4039  0.1544
 8639SOL    HW137553   0.228   1.384   7.025  0.3366  0.2728  2.3043
 8639SOL    HW237554   0.230   1.513   6.956  0.2533  2.9983  1.5466
 8640SOL     OW37555   3.417   3.925  14.918  0.0915 -0.6165 -0.1807
 8640SOL    HW137556   3.375   3.871  14.986  1.2946 -0.0812  0.9811
 8640SOL    HW237557   3.487   3.862  14.901 -0.5037 -1.5712  0.8064
 8641SOL     OW37558   4.296   2.489   3.771 -0.2357 -0.2268  0.1548
 8641SOL    HW137559   4.249   2.470   3.851  3.3515 -1.1034  2.0773
 8641SOL    HW237560   4.350   2.560   3.806  2.1339 -1.4769 -0.8981
 8642SOL     OW37561   3.478   1.347   7.791  0.4128 -0.6365 -0.0892
 8642SOL    HW137562   3.528   1.290   7.849  2.1163  0.3727 -0.5590
 8642SOL    HW237563   3.443   1.285   7.727 -1.7703 -0.0567  0.5458
 8643SOL     OW37564   3.353   4.193   8.836 -0.3627 -0.0110  0.2364
 8643SOL    HW137565   3.431   4.247   8.824  0.6254 -1.1880  1.2594
 8643SOL    HW237566   3.309   4.233   8.911  1.7954  1.8778  0.5047
 8644SOL     OW37567   4.289   3.569   9.218 -0.2213  0.0938  0.3100
 8644SOL    HW137568   4.318   3.650   9.177  3.2016 -1.2322  0.0305
 8644SOL    HW237569   4.299   3.586   9.312 -1.1209 -2.8484  0.9593
 8645SOL     OW37570   1.034   1.348   2.382 -0.6184  0.1165 -0.1088
 8645SOL    HW137571   0.969   1.285   2.412 -2.0190  1.7122  0.2195
 8645SOL    HW237572   1.095   1.361   2.455 -0.8989  0.8553 -0.0057
 8646SOL     OW37573   0.791   4.024   4.454  0.1127  0.2429  0.0055
 8646SOL    HW137574   0.783   4.100   4.396 -1.3995 -0.0321 -0.1539
 8646SOL    HW237575   0.848   4.049   4.527  2.5102 -1.5240 -1.2643
 8647SOL     OW37576   2.221   3.542  10.046  0.1482 -0.3239 -0.1033
 8647SOL    HW137577   2.248   3.522   9.956  0.6371  0.7830 -0.2132
 8647SOL    HW237578   2.306   3.546  10.089  0.0051  0.1455  0.1326
 8648SOL     OW37579   0.386   1.978  11.302 -0.1383  0.1092 -0.0669
 8648SOL    HW137580   0.397   2.008  11.392  2.2386 -2.3424  0.4448
 8648SOL    HW237581   0.324   2.042  11.268 -0.8540  0.5021  2.0275
 8649SOL     OW37582   2.379   0.812   4.812 -0.5307  0.2704 -0.3559
 8649SOL    HW137583   2.291   0.774   4.809  0.5253 -2.3935  3.4275
 8649SOL    HW237584   2.361   0.875   4.881 -2.0045 -2.4029  1.7167
 8650SOL     OW37585   2.483   3.461   9.375  0.3557 -0.4588  0.6975
 8650SOL    HW137586   2.521   3.377   9.401  1.7961 -0.0086  0.0333
 8650SOL    HW237587   2.408   3.428   9.324 -0.1401  0.5520  0.7721
 8651SOL     OW37588   1.226   1.842   7.564 -0.0299  0.5498 -0.2951
 8651SOL    HW137589   1.203   1.858   7.655  0.4419 -0.2993 -0.0331
 8651SOL    HW237590   1.192   1.914   7.511 -0.6644 -0.3978 -1.1765
 8652SOL     OW37591   1.863   3.275   3.195 -0.2959 -0.9499  0.6350
 8652SOL    HW137592   1.855   3.344   3.261 -0.4944 -0.9849  0.6489
 8652SOL    HW237593   1.893   3.202   3.249  1.7219 -1.4870 -1.2027
 8653SOL     OW37594   4.700   0.823   9.111  0.2433  0.6659 -0.1206
 8653SOL    HW137595   4.606   0.820   9.129  0.3462  1.3103  0.5392
 8653SOL    HW237596   4.699   0.883   9.037 -0.2516  1.9654  0.9334
 8654SOL     OW37597   2.792   3.508   3.161  0.5686 -0.2230 -0.9336
 8654SOL    HW137598   2.861   3.535   3.100  0.0239  0.8923 -1.0567
 8654SOL    HW237599   2.835   3.516   3.246  0.3123 -0.4285 -0.7832
 8655SOL     OW37600   1.546   1.890  13.820  0.2088  0.4812  0.0759
 8655SOL    HW137601   1.602   1.925  13.889 -1.0442 -2.9802  2.8537
 8655SOL    HW237602   1.547   1.967  13.764  0.2603 -1.0575 -2.0726
 8656SOL     OW37603   0.811   3.726   7.245  0.1627  0.5681  0.0191
 8656SOL    HW137604   0.848   3.752   7.329  0.1076 -0.4713  0.3637
 8656SOL    HW237605   0.876   3.766   7.187  0.6052  2.8846  2.1445
 8657SOL     OW37606   4.578   1.620   4.508 -0.2822 -0.1020  0.1709
 8657SOL    HW137607   4.662   1.654   4.479 -0.9035 -1.2671 -2.9641
 8657SOL    HW237608   4.546   1.697   4.556 -0.4603 -0.9108  1.3386
 8658SOL     OW37609   1.341   1.811   5.621  0.2518 -0.3791  0.3268
 8658SOL    HW137610   1.406   1.743   5.610  1.4963  0.8941 -0.1784
 8658SOL    HW237611   1.265   1.765   5.656 -0.0828 -0.0220  0.0798
 8659SOL     OW37612   4.223   1.138   1.748 -0.1511 -0.7191 -0.1679
 8659SOL    HW137613   4.150   1.086   1.715 -1.1325 -0.3129  1.3498
 8659SOL    HW237614   4.172   1.208   1.788  0.0813  0.3345 -1.7013
 8660SOL     OW37615   2.302   1.841   4.980  0.1293 -0.0668  0.7770
 8660SOL    HW137616   2.259   1.907   4.925  3.0625  0.3018 -1.0839
 8660SOL    HW237617   2.346   1.789   4.913 -4.1303 -1.1858 -1.2100
 8661SOL     OW37618   4.619   3.866   6.210 -0.0257 -0.0053 -0.4068
 8661SOL    HW137619   4.632   3.827   6.123 -1.8242 -2.3640  0.3617
 8661SOL    HW237620   4.636   3.789   6.264 -0.5658 -1.1586 -1.8627
 8662SOL     OW37621   1.856   1.365   6.970 -0.5027  0.0405  0.4878
 8662SOL    HW137622   1.852   1.279   6.928  1.9235 -0.4737  1.2840
 8662SOL    HW237623   1.817   1.354   7.056 -0.2615  0.5864  0.6686
 8663SOL     OW37624   1.368   2.929   3.139  0.1324  0.4937  0.1195
 8663SOL    HW137625   1.298   2.894   3.085 -0.6852  2.2039  0.0758
 8663SOL    HW237626   1.430   2.856   3.146 -1.1521 -0.7396 -1.4681
 8664SOL     OW37627   0.851   3.545   4.035  0.4685  0.0345 -0.0609
 8664SOL    HW137628   0.845   3.474   3.971 -1.9834  0.3395 -0.1709
 8664SOL    HW237629   0.872   3.626   3.988  1.2483 -0.5472 -0.7047
 8665SOL     OW37630   0.331   3.963   6.445  0.6394  0.2299  0.5947
 8665SOL    HW137631   0.386   4.025   6.493  0.9817  0.0438  0.4448
 8665SOL    HW237632   0.301   3.910   6.519 -1.2349 -0.0647 -0.3915
 8666SOL     OW37633   0.029   2.168   6.295 -0.3732 -0.0089  0.2729
 8666SOL    HW137634   0.055   2.230   6.363 -0.9224 -0.4883  0.9082
 8666SOL    HW237635   4.672   2.173   6.315 -0.1470 -0.2682  1.3539
 8667SOL     OW37636   0.160   2.830   0.344  0.9967  0.1809  0.7372
 8667SOL    HW137637   0.135   2.922   0.350 -1.8172 -0.6842  2.1258
 8667SOL    HW237638   0.089   2.797   0.289 -0.9367  2.2413  1.9921
 8668SOL     OW37639   2.125   4.710   0.772  0.0796 -0.0856 -0.5768
 8668SOL    HW137640   2.188   4.703   0.844  0.7766 -0.9767 -1.2733
 8668SOL    HW237641   2.057   4.648   0.798  0.2030 -0.7451 -1.8528
 8669SOL     OW37642   0.795   0.079  15.931 -0.5223  0.4662 -0.4214
 8669SOL    HW137643   0.741   0.132  15.990  3.3292  0.7211  2.8235
 8669SOL    HW237644   0.871   0.132  15.908 -0.1594  0.6686  1.2345
 8670SOL     OW37645   1.141   2.325   2.618 -0.8755 -0.2119  0.1164
 8670SOL    HW137646   1.212   2.370   2.574 -0.4262 -3.5202 -2.5546
 8670SOL    HW237647   1.067   2.347   2.561 -2.0774  0.4175  1.8853
 8671SOL     OW37648   0.704   3.315   6.292  0.2536  0.4836 -0.0539
 8671SOL    HW137649   0.612   3.304   6.318  0.1128 -1.8200 -1.5769
 8671SOL    HW237650   0.751   3.286   6.370  1.5006  2.4425 -0.0676
 8672SOL     OW37651   4.267   1.082   3.393  0.3449  0.0806  0.6952
 8672SOL    HW137652   4.272   1.088   3.297  0.0038 -0.6048  0.6339
 8672SOL    HW237653   4.335   1.017   3.407  0.9114  0.5632  0.1969
 8673SOL     OW37654   1.787   3.771   5.263 -0.1722 -0.0933  0.1596
 8673SOL    HW137655   1.696   3.746   5.283  0.3002 -2.4349 -0.6342
 8673SOL    HW237656   1.807   3.743   5.174  0.8019  0.5142  0.1861
 8674SOL     OW37657   3.880   3.358   3.915 -0.2493  0.2498 -0.6696
 8674SOL    HW137658   3.832   3.276   3.904 -1.4533  0.6336  1.6595
 8674SOL    HW237659   3.965   3.317   3.929  0.2925  1.5898  0.0494
 8675SOL     OW37660   3.977   4.732  13.741  0.1851  0.3984  0.1572
 8675SOL    HW137661   4.002   0.086  13.728  3.8097 -0.5997  0.0974
 8675SOL    HW237662   3.972   4.736  13.836 -3.5999  1.9879 -0.1095
 8676SOL     OW37663   4.722   3.755   3.070 -0.1565  0.3016 -0.7652
 8676SOL    HW137664   0.033   3.789   3.146  0.9185 -0.8503 -0.9396
 8676SOL    HW237665   0.049   3.779   3.003 -0.4097  2.2406 -0.3185
 8677SOL     OW37666   4.385   2.974   2.281 -0.0737  0.9125  0.0436
 8677SOL    HW137667   4.372   2.887   2.243 -1.8661  0.7814  0.9569
 8677SOL    HW237668   4.479   2.975   2.297 -0.4470  0.8713  2.2069
 8678SOL     OW37669   2.727   1.109  16.003 -0.1530  0.1924 -0.1609
 8678SOL    HW137670   2.743   1.051  16.077  4.1669  2.1347  0.3913
 8678SOL    HW237671   2.781   1.185  16.023 -1.2356  0.7839  0.4884
 8679SOL     OW37672   4.011   0.979   8.072 -0.2255  0.8138  0.3290
 8679SOL    HW137673   4.007   1.031   7.992 -0.2866 -0.6487 -0.6265
 8679SOL    HW237674   3.991   1.042   8.141 -1.5355  1.4533 -0.6238
 8680SOL     OW37675   3.609   4.712   2.450 -0.4263 -0.6540 -0.0322
 8680SOL    HW137676   3.604   4.735   2.357  1.6870  1.4626  0.3925
 8680SOL    HW237677   3.543   4.645   2.469 -0.2355 -0.8283  0.0130
 8681SOL     OW37678   3.268   3.688  13.762 -0.6164 -0.5169 -0.1816
 8681SOL    HW137679   3.278   3.753  13.693 -0.7423  0.5231  0.7710
 8681SOL    HW237680   3.356   3.654  13.772  0.0971  1.0623 -1.0932
 8682SOL     OW37681   2.451   4.330   6.490 -0.8791  0.4905 -0.4303
 8682SOL    HW137682   2.358   4.308   6.485 -0.5708 -1.1975  1.1371
 8682SOL    HW237683   2.453   4.365   6.579 -0.8018  1.4253 -0.8019
 8683SOL     OW37684   3.528   1.364   3.449  0.2088 -0.0264  0.0190
 8683SOL    HW137685   3.583   1.436   3.481  1.4473 -2.0996  2.4969
 8683SOL    HW237686   3.598   1.300   3.437  0.1488 -0.1578  0.3874
 8684SOL     OW37687   3.437   4.449   5.480  0.3813 -0.4289  0.2338
 8684SOL    HW137688   3.490   4.517   5.520  0.1010  0.7276 -1.3649
 8684SOL    HW237689   3.490   4.411   5.409 -0.0532  0.0420 -0.3436
 8685SOL     OW37690   4.442   0.603   2.948 -0.0697  0.5648  0.4730
 8685SOL    HW137691   4.374   0.664   2.977  0.1205 -0.3383  2.8310
 8685SOL    HW237692   4.410   0.595   2.858 -0.0474 -0.5734  0.5594
 8686SOL     OW37693   3.317   0.593   0.353 -0.3519  0.1346  0.8255
 8686SOL    HW137694   3.298   0.548   0.270  0.6085  0.4548  0.4325
 8686SOL    HW237695   3.361   0.671   0.317 -0.0333  0.2748  1.5211
 8687SOL     OW37696   2.429   4.147   6.056  0.0080  0.4658  0.1001
 8687SOL    HW137697   2.486   4.209   6.102 -0.0551  0.0046  0.8070
 8687SOL    HW237698   2.350   4.158   6.110  0.7027  2.1433  0.8137
 8688SOL     OW37699   3.442   4.726  16.957 -0.1292 -0.4839 -0.3859
 8688SOL    HW137700   3.415   0.070  17.000 -0.5497  0.5302 -2.5246
 8688SOL    HW237701   3.402   4.731  16.870 -3.1217  1.4785  1.1014
 8689SOL     OW37702   2.545   3.878   5.800  0.2059 -0.1986 -0.1434
 8689SOL    HW137703   2.566   3.812   5.734 -0.0041 -0.4189  0.0103
 8689SOL    HW237704   2.451   3.884   5.784  0.0845  0.1733  0.6777
 8690SOL     OW37705   4.380   2.567   7.772 -0.3823 -0.2893 -0.2722
 8690SOL    HW137706   4.413   2.582   7.860 -3.0925 -1.6752  1.0162
 8690SOL    HW237707   4.438   2.494   7.750  0.2464 -0.2117  1.1402
 8691SOL     OW37708   3.751   2.260   8.626 -0.8967 -0.5766  0.6618
 8691SOL    HW137709   3.847   2.261   8.626 -0.9057  0.9340 -0.9160
 8691SOL    HW237710   3.736   2.343   8.581 -0.0969 -0.8793 -0.1716
 8692SOL     OW37711   4.286   4.674   9.213 -0.0361  0.1290  0.6384
 8692SOL    HW137712   4.278   4.689   9.307 -1.4331 -0.5554  0.6293
 8692SOL    HW237713   4.255   0.023   9.184 -0.0652  0.2030  0.8884
 8693SOL     OW37714   1.070   0.478   8.665 -0.7298  0.2086  0.1275
 8693SOL    HW137715   1.055   0.469   8.759 -0.6547 -1.0820  0.0227
 8693SOL    HW237716   0.981   0.502   8.642 -0.9351 -2.4954 -1.9333
 8694SOL     OW37717   0.661   2.366   1.843  0.4117 -0.7948  0.1640
 8694SOL    HW137718   0.742   2.396   1.802  0.2528  2.3124  2.1248
 8694SOL    HW237719   0.667   2.409   1.929  1.7581  0.9982 -0.8214
 8695SOL     OW37720   4.494   0.474   8.585  0.5176  0.1848 -0.4311
 8695SOL    HW137721   4.462   0.492   8.497  0.1877 -0.3150 -0.4104
 8695SOL    HW237722   4.452   0.390   8.603 -0.7010  0.8617 -0.1398
 8696SOL     OW37723   0.292   4.131   4.471  0.3514  0.3019  0.5928
 8696SOL    HW137724   0.352   4.153   4.542  0.9250 -0.0541  0.2193
 8696SOL    HW237725   0.210   4.107   4.514  0.6173  0.5078  1.1979
 8697SOL     OW37726   2.192   1.727   8.228 -0.2715  0.0633  0.0200
 8697SOL    HW137727   2.167   1.636   8.241  0.2186 -0.3538 -1.8534
 8697SOL    HW237728   2.275   1.725   8.276 -0.3867  0.5632  0.2397
 8698SOL     OW37729   2.800   1.373   5.247  0.1726  0.1266 -0.7168
 8698SOL    HW137730   2.741   1.320   5.192 -1.1498 -1.3210  2.1261
 8698SOL    HW237731   2.742   1.446   5.266 -0.3306 -0.1202 -1.2903
 8699SOL     OW37732   1.784   0.625   5.793  0.2774 -0.2275  0.8086
 8699SOL    HW137733   1.790   0.604   5.700 -3.6072  0.8161  0.2862
 8699SOL    HW237734   1.791   0.538   5.832 -0.9543 -0.6439  0.1388
 8700SOL     OW37735   4.444   2.335   4.259  0.1597 -0.1587 -0.1343
 8700SOL    HW137736   4.533   2.304   4.241  0.4519  1.1628 -0.9349
 8700SOL    HW237737   4.460   2.429   4.254 -0.7430 -0.0343 -0.6446
 8701SOL     OW37738   0.971   1.211   1.953 -0.0508  0.1429  0.4248
 8701SOL    HW137739   0.876   1.209   1.965  0.0464  1.1998  1.3287
 8701SOL    HW237740   0.997   1.153   2.025 -0.2056  2.4358  2.3450
 8702SOL     OW37741   3.073   4.007  12.017  0.2768  0.2855 -0.3772
 8702SOL    HW137742   2.983   3.993  11.985  0.4229  0.9014 -1.0360
 8702SOL    HW237743   3.118   4.042  11.941 -2.3304  3.6334 -0.3868
 8703SOL     OW37744   2.755   3.347   9.696 -0.2840 -0.3373  0.2743
 8703SOL    HW137745   2.748   3.324   9.603 -0.4466 -1.5827  0.5908
 8703SOL    HW237746   2.784   3.263   9.731  0.8173  0.3751  1.0553
 8704SOL     OW37747   1.396   2.736   8.406 -0.4232  0.5650 -0.3334
 8704SOL    HW137748   1.434   2.675   8.470 -0.9962  1.9666  1.3224
 8704SOL    HW237749   1.348   2.771   8.481  0.1236  0.0800  0.2545
 8705SOL     OW37750   4.056   1.613   5.995  0.3248  0.1319  0.1354
 8705SOL    HW137751   4.095   1.700   6.004  0.5307  0.0462  0.0558
 8705SOL    HW237752   3.995   1.632   6.067  0.0386 -2.5332  0.6086
 8706SOL     OW37753   2.963   2.027   8.717  0.1037  0.6145  0.2865
 8706SOL    HW137754   2.920   1.973   8.650  0.0456  1.3266 -0.2418
 8706SOL    HW237755   3.013   2.087   8.662 -0.2389  0.6248 -0.0166
 8707SOL     OW37756   0.494   4.212   2.704  0.7480 -0.5791  0.6604
 8707SOL    HW137757   0.529   4.143   2.760  0.1633  0.4215  2.2677
 8707SOL    HW237758   0.572   4.262   2.682 -0.2286  0.7948  0.2940
 8708SOL     OW37759   0.533   3.072   0.479  0.2638  0.4634 -0.2329
 8708SOL    HW137760   0.589   3.015   0.531 -2.1896  0.4007  2.3165
 8708SOL    HW237761   0.477   3.005   0.441 -1.3298 -0.2077  3.3159
 8709SOL     OW37762   4.678   2.627   2.944 -0.2741  0.8475 -0.7962
 8709SOL    HW137763   0.027   2.647   2.906 -0.6272  1.3218 -1.3464
 8709SOL    HW237764   4.635   2.705   2.908  0.5218  0.5087 -2.4807
 8710SOL     OW37765   3.111   2.692   7.262 -0.3385  0.8587 -0.3237
 8710SOL    HW137766   3.089   2.600   7.269  2.7020  0.2700  1.4014
 8710SOL    HW237767   3.183   2.694   7.199 -0.2354  0.5603 -0.2139
 8711SOL     OW37768   1.859   4.646   5.619  0.0378 -0.5503 -0.2338
 8711SOL    HW137769   1.848   4.569   5.675  0.9135 -1.2658 -1.0452
 8711SOL    HW237770   1.790   4.626   5.556  0.4371 -1.1271 -0.4883
 8712SOL     OW37771   2.230   0.325   7.067  0.3801  0.4694 -0.2266
 8712SOL    HW137772   2.254   0.289   7.152  1.0440  1.8982  0.1891
 8712SOL    HW237773   2.197   0.250   7.018 -0.5160  0.1566  0.8521
 8713SOL     OW37774   0.680   1.961   6.858 -0.6615 -0.6273  0.0117
 8713SOL    HW137775   0.752   2.021   6.838 -0.3822 -1.3172 -1.0534
 8713SOL    HW237776   0.634   1.995   6.935 -1.6114 -1.0001 -0.3838
 8714SOL     OW37777   0.063   1.428   5.066  0.3682 -0.1182  0.4648
 8714SOL    HW137778   0.143   1.405   5.114  1.2811  1.3928 -0.3434
 8714SOL    HW237779   4.730   1.420   5.131 -0.0542 -1.3786 -0.1465
 8715SOL     OW37780   1.158   0.634   9.190 -0.1868  0.0833 -0.5571
 8715SOL    HW137781   1.171   0.723   9.158 -0.4815 -0.5058 -2.2994
 8715SOL    HW237782   1.220   0.632   9.263  2.0115 -2.8179 -2.4792
 8716SOL     OW37783   3.738   2.735   3.461  0.1267  0.6631 -0.5649
 8716SOL    HW137784   3.647   2.706   3.469  0.8824 -1.8172 -1.0844
 8716SOL    HW237785   3.762   2.690   3.542 -1.6326  1.5277  0.4545
 8717SOL     OW37786   3.881   0.782   9.386  0.2718 -0.4367  0.0770
 8717SOL    HW137787   3.907   0.831   9.464  0.0819  1.2107 -0.9103
 8717SOL    HW237788   3.813   0.838   9.348  2.7731  1.0181 -2.2117
 8718SOL     OW37789   1.166   0.549  10.908 -0.3723 -0.4503 -0.4251
 8718SOL    HW137790   1.253   0.523  10.937  0.3711 -1.2859 -3.4028
 8718SOL    HW237791   1.176   0.644  10.913  0.3859 -0.5862  0.7847
 8719SOL     OW37792   2.863   0.806   3.342  0.1181  0.7485 -0.6546
 8719SOL    HW137793   2.953   0.825   3.313  1.3040 -0.9647  1.9382
 8719SOL    HW237794   2.846   0.876   3.405  1.8118  1.2405 -0.7500
 8720SOL     OW37795   4.221   2.547  13.554 -0.0814  0.1092  0.1537
 8720SOL    HW137796   4.286   2.550  13.483  1.3420  5.6650  1.6798
 8720SOL    HW237797   4.136   2.568  13.515 -0.2622  1.4136  1.2370
 8721SOL     OW37798   1.869   3.368   6.640 -0.1030 -0.9116  0.4471
 8721SOL    HW137799   1.833   3.280   6.628 -1.7217 -0.1429 -0.3493
 8721SOL    HW237800   1.846   3.421   6.564  0.1715  2.8919  3.0543
 8722SOL     OW37801   0.828   1.332  16.646  0.5659 -0.0639  0.6093
 8722SOL    HW137802   0.909   1.280  16.646  1.5143  1.3942  0.2593
 8722SOL    HW237803   0.845   1.411  16.698 -0.7382  1.3923 -1.1720
 8723SOL     OW37804   2.767   3.218   6.811  0.1985 -0.0088  0.1566
 8723SOL    HW137805   2.827   3.245   6.880 -0.8031  1.6465  0.3708
 8723SOL    HW237806   2.690   3.188   6.860 -0.7330  1.5794 -0.3289
 8724SOL     OW37807   2.298   2.402   7.802 -0.2412  0.1271 -0.6203
 8724SOL    HW137808   2.385   2.430   7.828 -1.2242  2.0400  0.6089
 8724SOL    HW237809   2.318   2.354   7.721  1.2414  0.9196 -0.7311
 8725SOL     OW37810   1.837   1.375   7.608  0.5764  0.4928 -0.2409
 8725SOL    HW137811   1.797   1.438   7.547 -1.0439  2.1535  2.5608
 8725SOL    HW237812   1.922   1.358   7.568 -0.2152 -1.4774 -1.1334
 8726SOL     OW37813   1.096   3.771   3.970 -0.2070 -0.1915 -0.1644
 8726SOL    HW137814   1.138   3.816   3.897 -0.5257 -0.4126 -0.4857
 8726SOL    HW237815   1.050   3.845   4.011 -1.4163 -0.1716 -1.5557
 8727SOL     OW37816   0.562   3.196  15.700 -0.3314 -0.1894  0.1409
 8727SOL    HW137817   0.474   3.183  15.735 -0.4059 -1.1498 -0.4136
 8727SOL    HW237818   0.562   3.132  15.629  0.5408 -0.2449  0.1902
 8728SOL     OW37819   0.768   2.121  12.520 -0.5213 -0.0842  0.6263
 8728SOL    HW137820   0.737   2.036  12.552  0.0902 -1.0484 -1.2935
 8728SOL    HW237821   0.710   2.142  12.447 -0.4401  1.1468  0.9222
 8729SOL     OW37822   1.915   3.912  14.439 -0.0457 -0.3298  0.4833
 8729SOL    HW137823   1.879   3.955  14.516 -0.6890  1.5123 -0.8416
 8729SOL    HW237824   1.936   3.828  14.479 -0.3200 -2.4220 -3.7579
 8730SOL     OW37825   1.479   2.019   5.439  0.3205  0.0583 -0.2231
 8730SOL    HW137826   1.461   1.966   5.361 -0.1140  1.3735 -1.0324
 8730SOL    HW237827   1.419   1.991   5.507 -1.2432 -1.3505 -2.1789
 8731SOL     OW37828   2.626   1.649   3.086 -0.1141  0.4269 -0.3038
 8731SOL    HW137829   2.611   1.730   3.135  2.8030  0.5398  0.3904
 8731SOL    HW237830   2.619   1.593   3.164  0.3932  2.3954  1.1539
 8732SOL     OW37831   2.493   3.026  10.972  0.3981  0.0876 -0.1305
 8732SOL    HW137832   2.490   2.987  11.059  0.1932 -0.3216 -0.3186
 8732SOL    HW237833   2.403   3.007  10.946  0.4535  0.3808 -0.5340
 8733SOL     OW37834   3.237   3.433  10.784 -0.3977 -0.7946 -0.5009
 8733SOL    HW137835   3.144   3.428  10.807 -0.6972 -2.3258 -2.0632
 8733SOL    HW237836   3.274   3.425  10.872  0.4432  0.0409 -0.7821
 8734SOL     OW37837   3.785   1.039   1.208  0.2966  0.3277  0.2900
 8734SOL    HW137838   3.712   0.996   1.164 -0.7167  0.4962  1.8082
 8734SOL    HW237839   3.865   0.998   1.174 -2.2359 -2.4945 -2.2327
 8735SOL     OW37840   1.740   3.828   8.121 -0.4082 -0.3585  0.3073
 8735SOL    HW137841   1.830   3.857   8.134 -0.2251  0.8277 -3.7958
 8735SOL    HW237842   1.691   3.911   8.125  0.2639  0.1042 -1.3045
 8736SOL     OW37843   1.961   3.067   3.364  0.4905  0.0897  0.0272
 8736SOL    HW137844   2.039   3.051   3.310 -0.3464  0.4396 -1.2805
 8736SOL    HW237845   1.974   3.032   3.452 -0.3152 -0.0905  0.0725
 8737SOL     OW37846   3.029   3.466   3.764 -0.1938 -0.5349 -0.0161
 8737SOL    HW137847   3.043   3.419   3.846 -0.5747 -2.1381 -0.8711
 8737SOL    HW237848   3.031   3.395   3.700  1.5836  0.6900 -1.3279
 8738SOL     OW37849   0.943   0.698   8.017 -0.1555 -0.0276 -0.3748
 8738SOL    HW137850   0.897   0.782   8.007  0.9774  0.5754 -0.5695
 8738SOL    HW237851   0.939   0.671   7.925 -2.2491 -1.2534  0.0925
 8739SOL     OW37852   0.027   2.715  17.603  0.3829  0.1738 -0.6306
 8739SOL    HW137853   0.074   2.795  17.624 -0.4696  0.5216 -0.1024
 8739SOL    HW237854   4.680   2.746  17.570 -0.3786 -0.5523  0.6343
 8740SOL     OW37855   2.093   4.157   7.024 -0.0859  0.1573  0.1270
 8740SOL    HW137856   2.058   4.080   7.068  0.3677  0.2421  0.6286
 8740SOL    HW237857   2.142   4.206   7.091  0.2322  1.8493 -1.3342
 8741SOL     OW37858   2.033   3.903   7.096  0.2507  0.6243  0.8003
 8741SOL    HW137859   2.123   3.912   7.125 -0.4184 -1.4753  3.5045
 8741SOL    HW237860   2.044   3.882   7.003  1.5994 -1.9234  1.5437
 8742SOL     OW37861   1.328   0.394  16.774 -0.4460 -0.0968 -0.0604
 8742SOL    HW137862   1.249   0.341  16.780 -1.0880  0.7590 -1.0883
 8742SOL    HW237863   1.358   0.379  16.864 -0.0534  1.1480  0.0222
 8743SOL     OW37864   1.009   1.790   5.618  0.1023 -0.4241  0.2930
 8743SOL    HW137865   0.923   1.791   5.575  0.9680 -0.1804 -1.4108
 8743SOL    HW237866   1.020   1.885   5.616 -0.1192 -0.3672  2.0216
 8744SOL     OW37867   3.858   0.599   8.225  0.4081 -0.5895 -0.3655
 8744SOL    HW137868   3.889   0.667   8.285  1.6470 -0.3678 -1.2806
 8744SOL    HW237869   3.874   0.653   8.148  0.1858 -0.1654 -0.1175
 8745SOL     OW37870   0.009   0.012   5.965  0.1673 -0.4428 -0.4450
 8745SOL    HW137871   4.727   4.714   6.052  0.7878 -0.2577 -0.2349
 8745SOL    HW237872   0.085   4.702   5.930  0.7557  0.9105 -0.9840
 8746SOL     OW37873   3.639   4.022  13.199 -0.6447  0.6841  0.4066
 8746SOL    HW137874   3.555   4.036  13.242 -1.1282  1.6198 -0.8459
 8746SOL    HW237875   3.615   4.031  13.107  0.2515 -3.4041 -0.2465
 8747SOL     OW37876   1.645   2.350  16.246  0.0066  0.0445  0.0943
 8747SOL    HW137877   1.695   2.403  16.308 -2.6191  2.5150  0.0982
 8747SOL    HW237878   1.707   2.360  16.174  0.6641  0.4820  0.7183
 8748SOL     OW37879   2.185   3.659   1.516 -0.2771 -0.2608  0.2169
 8748SOL    HW137880   2.132   3.654   1.436  0.6468  1.8970 -0.5211
 8748SOL    HW237881   2.227   3.573   1.525  2.4894  0.9990 -0.6754
 8749SOL     OW37882   2.440   2.988   7.384 -0.3665 -0.4148 -0.6730
 8749SOL    HW137883   2.367   3.024   7.334  0.1926  2.8025  0.7974
 8749SOL    HW237884   2.404   2.910   7.426 -0.6883  0.3999  0.5826
 8750SOL     OW37885   2.630   2.738   5.028 -0.2020 -0.1184  0.2825
 8750SOL    HW137886   2.623   2.698   4.941  1.1167  0.6171 -0.1592
 8750SOL    HW237887   2.569   2.688   5.082  1.1325 -1.6808  0.3380
 8751SOL     OW37888   3.893   2.327  12.246 -0.4593 -0.1981 -0.0192
 8751SOL    HW137889   3.867   2.261  12.181  0.7027 -0.1662 -0.5146
 8751SOL    HW237890   3.839   2.401  12.218 -0.4166 -0.7681 -1.6400
 8752SOL     OW37891   1.579   3.502   2.840 -0.4679  0.4557 -0.1712
 8752SOL    HW137892   1.578   3.475   2.748  0.5210 -2.9131  0.8065
 8752SOL    HW237893   1.653   3.461   2.884 -0.0182  2.5557  1.0047
 8753SOL     OW37894   0.497   2.856   8.332  0.2327 -0.0423  0.0736
 8753SOL    HW137895   0.586   2.887   8.316  0.6759 -0.3448  1.9599
 8753SOL    HW237896   0.479   2.895   8.418 -0.6824 -0.6229  0.1458
 8754SOL     OW37897   2.377   2.003   2.643 -0.8754 -0.5550  0.4087
 8754SOL    HW137898   2.388   2.074   2.706 -0.3624 -2.3246  2.2883
 8754SOL    HW237899   2.288   1.982   2.673 -0.5327 -1.4709  0.7775
 8755SOL     OW37900   1.703   1.639  17.105 -0.5587 -0.3354 -0.0310
 8755SOL    HW137901   1.733   1.594  17.184 -1.7613 -2.2602 -0.6733
 8755SOL    HW237902   1.776   1.698  17.084 -1.6842  1.3121  0.6936
 8756SOL     OW37903   3.744   0.796  16.149 -0.0175  0.3301  0.0520
 8756SOL    HW137904   3.800   0.719  16.144 -1.0485 -0.4461  0.4349
 8756SOL    HW237905   3.677   0.767  16.087 -1.8875  0.3244  2.0888
 8757SOL     OW37906   1.461   2.575  10.530  0.0279 -0.0522  0.2024
 8757SOL    HW137907   1.538   2.554  10.478 -0.2126  1.6779 -0.8640
 8757SOL    HW237908   1.500   2.636  10.594  0.8123 -0.9412  0.5741
 8758SOL     OW37909   2.840   0.307  15.977 -0.1254  0.0762  0.5849
 8758SOL    HW137910   2.746   0.316  15.959 -0.4733 -0.7387  1.9844
 8758SOL    HW237911   2.885   0.392  15.978 -1.0581  0.5803  0.5463
 8759SOL     OW37912   3.651   0.696   5.711  0.3579  0.7958  0.4833
 8759SOL    HW137913   3.650   0.605   5.681 -0.0409  1.0110 -0.1426
 8759SOL    HW237914   3.624   0.692   5.803 -1.1753  1.6899  0.0648
 8760SOL     OW37915   0.493   1.795   8.785 -0.4832 -0.5725  0.1536
 8760SOL    HW137916   0.521   1.747   8.863 -3.9082 -2.5762  0.1610
 8760SOL    HW237917   0.436   1.861   8.824 -1.1248 -0.0699 -1.6315
 8761SOL     OW37918   3.038   3.188   1.589  0.0694  0.0982  0.6620
 8761SOL    HW137919   3.071   3.125   1.653  0.0381 -2.0590 -1.4845
 8761SOL    HW237920   3.042   3.273   1.633  0.7293  0.8453 -0.8314
 8762SOL     OW37921   4.518   3.326   6.961  0.0100  0.8185  0.1169
 8762SOL    HW137922   4.436   3.290   6.928 -0.3017  2.7354 -1.1980
 8762SOL    HW237923   4.475   3.411   6.974  2.6488  2.0211  1.1117
 8763SOL     OW37924   0.454   4.181   9.442 -0.1155 -0.5889  0.4547
 8763SOL    HW137925   0.443   4.112   9.508 -0.2652 -2.6078 -1.6644
 8763SOL    HW237926   0.485   4.254   9.496  0.2868  2.3977 -3.7903
 8764SOL     OW37927   1.153   3.905  14.057  0.5901  0.4420  0.4730
 8764SOL    HW137928   1.060   3.927  14.053  0.2234 -0.7341  2.9179
 8764SOL    HW237929   1.149   3.836  14.123  0.9487  1.1286  1.2172
 8765SOL     OW37930   0.404   0.066   3.055 -0.1881  0.1137 -0.6929
 8765SOL    HW137931   0.372   0.028   3.136 -1.3810  0.6588 -0.9098
 8765SOL    HW237932   0.323   0.104   3.022  0.6583  0.9816 -1.8124
 8766SOL     OW37933   0.115   2.578   8.776  0.0852 -0.4529  0.2241
 8766SOL    HW137934   0.141   2.563   8.685  1.1545 -0.3520  0.5093
 8766SOL    HW237935   0.130   2.672   8.780  2.0473 -0.6592 -1.6080
 8767SOL     OW37936   1.407   3.661  15.794  0.1425 -0.1713 -0.5017
 8767SOL    HW137937   1.488   3.706  15.770 -0.2656 -0.0667 -1.6891
 8767SOL    HW237938   1.384   3.704  15.876  0.3096  0.3219 -0.7125
 8768SOL     OW37939   1.097   1.957   5.862 -0.2580 -0.1756 -0.7652
 8768SOL    HW137940   1.046   2.035   5.840  1.8464  1.9033  1.6796
 8768SOL    HW237941   1.115   1.923   5.775  0.5069 -1.7468  0.0089
 8769SOL     OW37942   0.889   0.733   9.251  0.1813 -0.0568  0.9357
 8769SOL    HW137943   0.934   0.816   9.270  1.6146 -0.7821  0.6861
 8769SOL    HW237944   0.961   0.675   9.227  0.2497  0.5154 -0.2710
 8770SOL     OW37945   2.449   3.294   4.696 -0.0054  0.1076 -0.1908
 8770SOL    HW137946   2.431   3.268   4.605  2.8922  0.1983 -0.7795
 8770SOL    HW237947   2.472   3.212   4.738  0.8401 -0.1382 -1.1413
 8771SOL     OW37948   3.278   1.155   6.590 -0.1265  0.2898 -0.6522
 8771SOL    HW137949   3.211   1.205   6.637  1.7986  1.2827  1.0367
 8771SOL    HW237950   3.236   1.070   6.591  0.3550  0.0666  1.1350
 8772SOL     OW37951   3.444   1.772  12.000  0.5721 -0.3837  0.1675
 8772SOL    HW137952   3.459   1.818  11.917 -2.3103  2.8421  1.4527
 8772SOL    HW237953   3.520   1.714  12.008  0.6971 -0.1958  0.3277
 8773SOL     OW37954   0.218   4.207   0.035  0.4206  0.3968  0.2011
 8773SOL    HW137955   0.203   4.255   0.116 -1.1704  3.1988 -1.7601
 8773SOL    HW237956   0.287   4.258  17.737  0.6749  0.5054  0.7321
 8774SOL     OW37957   0.431   2.020   8.382 -1.1289  0.4724 -0.7693
 8774SOL    HW137958   0.508   2.017   8.326 -0.3224 -1.0842  0.4282
 8774SOL    HW237959   0.441   1.950   8.447  0.9008  0.6085 -0.9498
 8775SOL     OW37960   4.207   2.603   4.691  0.1022  0.2244  0.2590
 8775SOL    HW137961   4.119   2.590   4.656 -0.7946 -0.0612  2.6011
 8775SOL    HW237962   4.264   2.611   4.615  0.1519 -2.3078  0.0457
 8776SOL     OW37963   3.678   1.755  15.034 -0.1822 -0.0287 -0.1694
 8776SOL    HW137964   3.739   1.723  15.101 -1.3103 -1.1481  0.3307
 8776SOL    HW237965   3.738   1.762  14.960 -0.2023 -1.9698 -0.3742
 8777SOL     OW37966   0.659   4.460   7.957 -0.8788 -0.3711  0.8086
 8777SOL    HW137967   0.675   4.465   8.051  2.1268  3.0989  0.1205
 8777SOL    HW237968   0.741   4.489   7.916 -0.8305 -0.7497  0.6285
 8778SOL     OW37969   4.609   1.165   8.689  0.5222  0.1033  0.1233
 8778SOL    HW137970   4.696   1.126   8.677  0.7393  0.7419 -0.4749
 8778SOL    HW237971   4.612   1.193   8.780 -0.0246  1.6202 -0.3108
 8779SOL     OW37972   3.149   4.143   6.657  0.4079 -0.4472  0.1288
 8779SOL    HW137973   3.170   4.138   6.751 -1.7985  0.8646  0.7020
 8779SOL    HW237974   3.160   4.236   6.642 -1.8409 -0.3324 -0.7355
 8780SOL     OW37975   3.776   4.326   2.356  0.0903  0.1359 -0.4213
 8780SOL    HW137976   3.782   4.408   2.307 -4.2141 -0.0010 -1.1978
 8780SOL    HW237977   3.824   4.267   2.298  1.0870  1.5623 -1.0257
 8781SOL     OW37978   1.194   1.512   7.487  0.3307 -0.0941  0.1499
 8781SOL    HW137979   1.262   1.579   7.480  1.0321 -0.8226 -0.1182
 8781SOL    HW237980   1.125   1.561   7.531  0.5305  2.0039 -1.8742
 8782SOL     OW37981   4.495   1.950  17.385  0.4238  0.3778  0.2185
 8782SOL    HW137982   4.553   1.989  17.320  0.3672  3.8077  2.1908
 8782SOL    HW237983   4.539   1.941  17.470 -1.9104 -2.4257  1.1495
 8783SOL     OW37984   2.805   1.348  16.261 -0.5087  0.4234  0.0184
 8783SOL    HW137985   2.852   1.340  16.344 -0.7523 -1.1107  0.0164
 8783SOL    HW237986   2.808   1.441  16.239  2.1275  0.0770 -1.0568
 8784SOL     OW37987   0.113   0.439   6.388 -0.1010 -0.2496  0.0556
 8784SOL    HW137988   0.075   0.519   6.350  1.9117  0.1061 -1.2289
 8784SOL    HW237989   0.129   0.470   6.478  2.4325 -0.8770 -0.1647
 8785SOL     OW37990   0.178   0.963   7.430 -0.0337 -0.3045 -0.0326
 8785SOL    HW137991   0.113   0.974   7.499 -0.9677  0.0169 -0.9568
 8785SOL    HW237992   0.136   1.002   7.353  0.8047  2.9387  1.1398
 8786SOL     OW37993   4.542   2.211  16.823  0.2091 -0.3540  0.0522
 8786SOL    HW137994   4.487   2.236  16.897 -1.5049 -0.1074 -1.2886
 8786SOL    HW237995   4.631   2.221  16.855  0.2806 -0.4750 -0.1071
 8787SOL     OW37996   2.134   0.459   7.980  0.1645 -0.1741 -0.0837
 8787SOL    HW137997   2.044   0.478   8.006  0.1813 -0.2973  0.0618
 8787SOL    HW237998   2.177   0.533   8.021 -0.7930  0.6804 -0.6093
 8788SOL     OW37999   2.660   3.970   7.375 -0.1747 -0.0084  0.2055
 8788SOL    HW138000   2.708   3.929   7.304  0.4389  0.2592  0.4655
 8788SOL    HW238001   2.700   4.057   7.380  0.7016 -0.3554 -0.8475
 8789SOL     OW38002   4.299   3.566   3.517  0.9062 -0.6746 -0.0676
 8789SOL    HW138003   4.238   3.563   3.443 -1.1974 -0.2909  1.6609
 8789SOL    HW238004   4.281   3.654   3.551  1.5339  0.0236 -1.5200
 8790SOL     OW38005   0.374   1.941   9.002  0.2428 -0.1160 -0.4463
 8790SOL    HW138006   0.344   1.998   8.930 -0.8503 -0.5607 -0.3397
 8790SOL    HW238007   0.291   1.933   9.049  0.5675 -1.9399 -0.2203
 8791SOL     OW38008   1.135   0.369   6.610 -0.7467  0.2623  0.2264
 8791SOL    HW138009   1.198   0.301   6.634  0.9979  2.4173  1.7969
 8791SOL    HW238010   1.074   0.321   6.555 -1.3030 -0.5765  1.6051
 8792SOL     OW38011   4.002   4.701   4.415  0.1033 -0.5707 -0.1022
 8792SOL    HW138012   3.984   4.612   4.386  0.2568 -0.4667 -0.5177
 8792SOL    HW238013   4.006   4.679   4.508 -1.0149  0.1725  0.1297
 8793SOL     OW38014   4.045   3.212  12.566 -0.3017  0.0703  0.2492
 8793SOL    HW138015   4.044   3.130  12.616 -1.2489  0.7883  1.4045
 8793SOL    HW238016   3.965   3.200  12.516 -1.1429 -2.5583  2.2258
 8794SOL     OW38017   1.956   2.960   4.131  0.2013 -0.0132  0.1926
 8794SOL    HW138018   1.888   2.928   4.072  1.3586 -0.5738 -0.8573
 8794SOL    HW238019   2.032   2.958   4.072  1.5439 -1.6636  2.0005
 8795SOL     OW38020   2.822   3.545   9.476 -0.7033  0.4494 -0.0333
 8795SOL    HW138021   2.804   3.460   9.436  3.2151 -1.7134  2.8140
 8795SOL    HW238022   2.773   3.536   9.557  0.4183 -0.2984  0.5583
 8796SOL     OW38023   1.650   4.329   8.698  0.3543 -0.4914  0.3770
 8796SOL    HW138024   1.563   4.317   8.737  0.2384  1.6976  0.7976
 8796SOL    HW238025   1.652   4.290   8.611  1.0358  0.8618 -0.2143
 8797SOL     OW38026   1.527   1.142  11.704  0.0609  0.2208 -0.1051
 8797SOL    HW138027   1.557   1.085  11.633 -1.1770  1.3150 -1.5275
 8797SOL    HW238028   1.614   1.160  11.740 -0.4779 -1.0020  1.7988
 8798SOL     OW38029   2.264   3.218   6.383 -0.6211  0.0864 -0.0945
 8798SOL    HW138030   2.244   3.125   6.390  3.3674 -0.5998  2.3560
 8798SOL    HW238031   2.280   3.245   6.473  0.1945  0.5702 -0.3878
 8799SOL     OW38032   3.048   0.261  15.378  0.1339 -0.0686 -0.3208
 8799SOL    HW138033   3.137   0.226  15.366  1.4675  2.9856  0.5791
 8799SOL    HW238034   3.046   0.286  15.286  0.8314  0.2136 -0.2632
 8800SOL     OW38035   4.461   2.633   8.030 -0.0385  0.3411 -0.4270
 8800SOL    HW138036   4.450   2.708   8.088 -1.8774  1.3076 -2.0133
 8800SOL    HW238037   4.463   2.558   8.089 -0.0907  2.8718  2.7635
 8801SOL     OW38038   0.096   4.648   7.717 -0.4335 -0.4715 -0.2615
 8801SOL    HW138039   0.170   4.663   7.659 -2.0491  0.4067 -2.1265
 8801SOL    HW238040   0.037   4.594   7.664 -1.7587  1.1949 -0.4839
 8802SOL     OW38041   0.860   0.325  13.126 -0.1686 -0.3763  0.4746
 8802SOL    HW138042   0.849   0.241  13.172  3.6376 -0.1936  1.7337
 8802SOL    HW238043   0.773   0.363  13.121  1.0211  2.4851  1.3509
 8803SOL     OW38044   3.761   4.166  10.924  0.3677 -0.3134  0.3502
 8803SOL    HW138045   3.838   4.109  10.928 -1.2210 -2.3794  1.7609
 8803SOL    HW238046   3.772   4.215  11.005  1.3822 -2.8902  1.7690
 8804SOL     OW38047   2.816   1.081   8.478 -0.7501  0.3843  0.0209
 8804SOL    HW138048   2.820   0.999   8.429  0.3507  0.3435  0.1649
 8804SOL    HW238049   2.902   1.078   8.521 -0.4762 -1.2042 -0.6438
 8805SOL     OW38050   1.711   2.844   6.541 -0.4982  0.0077 -0.1332
 8805SOL    HW138051   1.737   2.925   6.584  0.6156 -0.2240 -0.3650
 8805SOL    HW238052   1.671   2.798   6.615  2.0006  0.2396  1.3650
 8806SOL     OW38053   2.582   2.418  16.295  0.2740  0.1377  0.3729
 8806SOL    HW138054   2.528   2.493  16.270 -0.3451 -0.0468  1.1671
 8806SOL    HW238055   2.516   2.356  16.266 -0.1281  1.0125 -0.5829
 8807SOL     OW38056   1.636   1.772   0.340 -0.3064  0.4892 -0.0506
 8807SOL    HW138057   1.600   1.815   0.418 -1.9086 -0.7117 -0.1352
 8807SOL    HW238058   1.710   1.723   0.377  0.2451  0.3223 -1.3756
 8808SOL     OW38059   4.500   3.350   1.157 -0.2875  0.1519  0.7999
 8808SOL    HW138060   4.498   3.310   1.245 -5.6093 -0.3721  0.4152
 8808SOL    HW238061   4.541   3.429   1.191 -2.7851  1.2038  1.3562
 8809SOL     OW38062   2.115   1.057  17.691 -0.2773 -0.2015 -0.2934
 8809SOL    HW138063   2.149   1.141  17.722  1.5840  0.0159 -2.9790
 8809SOL    HW238064   2.132   0.994   0.015 -1.2196  0.8184  0.8643
 8810SOL     OW38065   3.324   1.106   9.196  0.5081 -0.3488  0.5254
 8810SOL    HW138066   3.263   1.124   9.124  1.9013  1.0201 -0.3011
 8810SOL    HW238067   3.414   1.109   9.163 -0.3461  0.0252 -1.7725
 8811SOL     OW38068   0.333   4.390   3.160 -0.3553 -0.1291 -0.5008
 8811SOL    HW138069   0.355   4.297   3.173 -1.3198 -0.0809  1.3280
 8811SOL    HW238070   0.399   4.420   3.096  1.6738 -0.2512  1.5421
 8812SOL     OW38071   0.036   0.087  10.602 -0.2532  0.1777  0.1510
 8812SOL    HW138072   0.086   0.139  10.538  0.1785  0.8620  1.0518
 8812SOL    HW238073   4.687   0.118  10.575  0.2736 -0.0022 -1.7276
 8813SOL     OW38074   2.498   3.256   4.417 -0.4168 -0.2989  0.1462
 8813SOL    HW138075   2.483   3.334   4.363  0.7733  0.5987  1.1302
 8813SOL    HW238076   2.446   3.196   4.363  2.1011 -0.5385 -1.9982
 8814SOL     OW38077   0.499   2.483   5.835  0.5067 -0.2918 -0.2564
 8814SOL    HW138078   0.458   2.530   5.907 -1.6821 -2.2690 -0.2040
 8814SOL    HW238079   0.497   2.541   5.759 -0.3422  2.2629  1.7401
 8815SOL     OW38080   0.935   2.654   7.499  0.6637 -0.5131  0.1525
 8815SOL    HW138081   0.856   2.604   7.520  1.6256 -1.2550  1.9794
 8815SOL    HW238082   0.947   2.717   7.570  0.0910 -1.4156  1.0542
 8816SOL     OW38083   1.024   3.622   8.099  0.5028  0.6271  0.5564
 8816SOL    HW138084   1.035   3.530   8.124 -1.3379  0.0007 -0.9995
 8816SOL    HW238085   1.114   3.645   8.123  1.1743 -2.3951  0.9595
 8817SOL     OW38086   1.886   1.220   6.355  0.5548 -0.1486 -0.4454
 8817SOL    HW138087   1.903   1.209   6.449 -0.4849 -1.4305 -0.4131
 8817SOL    HW238088   1.967   1.191   6.313  1.2138 -0.6951  1.2012
 8818SOL     OW38089   0.021   0.756   1.561  0.0014 -0.3861  0.0483
 8818SOL    HW138090   0.027   0.812   1.484  0.9519 -0.6081 -0.0387
 8818SOL    HW238091   0.105   0.780   1.601  0.0096  2.6376 -1.7634
 8819SOL     OW38092   1.676   2.307   6.522 -0.4207 -0.5626 -0.0071
 8819SOL    HW138093   1.685   2.234   6.583 -1.5081 -1.1087 -0.4965
 8819SOL    HW238094   1.742   2.286   6.455 -1.3734 -0.9560 -0.8203
 8820SOL     OW38095   2.580   1.212  16.301 -0.1694 -0.5659  0.0311
 8820SOL    HW138096   2.614   1.202  16.390  0.6870  1.5883 -0.0494
 8820SOL    HW238097   2.649   1.263  16.257  0.6789 -1.5810  0.1624
 8821SOL     OW38098   1.357   2.277   6.846 -0.3074  0.8326  0.2011
 8821SOL    HW138099   1.308   2.343   6.797 -0.3615 -0.0635 -0.9611
 8821SOL    HW238100   1.341   2.303   6.936  0.2795  0.1982  0.4880
 8822SOL     OW38101   0.505   1.973   6.634 -0.1531 -0.3049  0.6577
 8822SOL    HW138102   0.498   1.878   6.623  0.9412 -0.5883  2.2528
 8822SOL    HW238103   0.555   1.981   6.715 -0.2896  0.6728  0.6450
 8823SOL     OW38104   0.045   1.106   8.231  0.6649 -0.3926  0.2794
 8823SOL    HW138105   0.054   1.012   8.247 -0.7630 -0.8022 -1.4076
 8823SOL    HW238106   4.697   1.121   8.273 -0.0609  2.2116 -2.1390
 8824SOL     OW38107   4.399   2.905   0.707  0.1166  0.0742 -0.1601
 8824SOL    HW138108   4.490   2.923   0.732  0.1110 -0.1524  0.0209
 8824SOL    HW238109   4.362   2.865   0.786  2.4592  0.2853  1.0375
 8825SOL     OW38110   3.259   3.301   1.448 -0.1969  0.4833 -0.3973
 8825SOL    HW138111   3.278   3.280   1.539 -2.1291 -1.7620 -0.5071
 8825SOL    HW238112   3.171   3.264   1.434 -0.9715  1.5256  1.7175
 8826SOL     OW38113   3.033   0.820   4.684 -0.3340 -0.1069 -0.3057
 8826SOL    HW138114   3.091   0.803   4.758  1.3491  0.7737 -1.4264
 8826SOL    HW238115   2.984   0.738   4.682 -1.0114  0.2728  1.1828
 8827SOL     OW38116   1.569   0.515   7.742 -0.6736 -0.1950 -0.1154
 8827SOL    HW138117   1.566   0.575   7.816 -1.4519  0.4135 -0.6466
 8827SOL    HW238118   1.486   0.471   7.762 -0.4890 -0.7043 -0.4818
 8828SOL     OW38119   3.348   0.786   2.150 -0.5935 -0.2324  0.3647
 8828SOL    HW138120   3.394   0.740   2.080  2.4984 -1.6532  3.3079
 8828SOL    HW238121   3.311   0.712   2.197 -1.6195  0.5277  0.7470
 8829SOL     OW38122   3.960   3.342   8.556 -0.2996 -0.2295 -0.6714
 8829SOL    HW138123   3.956   3.252   8.524  0.5242  0.1098 -1.7097
 8829SOL    HW238124   4.054   3.360   8.564 -0.6321  1.1368  0.3467
 8830SOL     OW38125   3.257   4.719   1.911 -0.2191  0.3579  0.8588
 8830SOL    HW138126   3.218   4.643   1.954  0.5848  0.0784  1.1022
 8830SOL    HW238127   3.174   0.025   1.890 -1.1369 -0.9595  1.8124
 8831SOL     OW38128   2.674   1.251  11.343 -0.0859 -0.4281  0.3601
 8831SOL    HW138129   2.596   1.231  11.395  0.6575  1.7575  2.2884
 8831SOL    HW238130   2.724   1.297  11.410 -0.8986 -2.1228  2.1422
 8832SOL     OW38131   3.063   0.004  16.196  0.4334  0.9903 -0.3914
 8832SOL    HW138132   3.073   4.660  16.146  1.2444  0.7722  0.1230
 8832SOL    HW238133   3.010   4.704  16.267  1.0047 -1.5790 -1.2834
 8833SOL     OW38134   4.218   4.155  11.038 -0.1987  0.4863 -0.3990
 8833SOL    HW138135   4.288   4.100  11.073 -1.3565 -1.4869 -1.1740
 8833SOL    HW238136   4.261   4.180  10.957  1.2443  0.3919  0.3473
 8834SOL     OW38137   1.526   1.027  15.412 -0.7230  0.4270  0.2785
 8834SOL    HW138138   1.454   1.070  15.366 -0.1397  0.4093 -0.6468
 8834SOL    HW238139   1.569   0.968  15.351  0.9451  1.0690  0.8161
 8835SOL     OW38140   1.677   2.373   0.059  0.4369 -0.5092  0.3337
 8835SOL    HW138141   1.760   2.333   0.031 -0.5016 -1.2665 -1.3279
 8835SOL    HW238142   1.665   2.443  17.740  0.1669 -1.5056 -0.6904
 8836SOL     OW38143   0.439   1.669   4.322 -0.2032 -0.1915  0.4615
 8836SOL    HW138144   0.534   1.661   4.335  0.2311 -1.2034 -3.2092
 8836SOL    HW238145   0.418   1.608   4.392 -0.0659 -0.7097  0.0531
 8837SOL     OW38146   4.648   1.291   1.347  0.6115  0.2751  0.0082
 8837SOL    HW138147   4.641   1.320   1.256 -1.6634  1.5441  0.5730
 8837SOL    HW238148   4.693   1.207   1.345  0.9522  0.4543  0.2163
 8838SOL     OW38149   1.878   2.290   4.165 -0.1357  0.2352  0.3560
 8838SOL    HW138150   1.912   2.374   4.134 -1.1788  0.2425 -0.8023
 8838SOL    HW238151   1.783   2.304   4.161 -0.5328 -2.6699 -0.1338
 8839SOL     OW38152   3.865   1.879  14.311  0.1472 -0.3213 -0.6865
 8839SOL    HW138153   3.946   1.921  14.281  1.0867 -1.1504  0.6985
 8839SOL    HW238154   3.899   1.831  14.387  0.0859  2.5930  1.2326
 8840SOL     OW38155   2.932   1.308  15.987 -0.0819 -0.1913  0.4852
 8840SOL    HW138156   2.970   1.249  15.922 -0.2409  0.1423  0.0951
 8840SOL    HW238157   3.010   1.363  15.996 -1.2029  1.5680 -0.6684
 8841SOL     OW38158   3.624   2.979  16.267  0.6400  0.5763  0.6701
 8841SOL    HW138159   3.610   2.893  16.229  0.4080  1.9422 -2.3572
 8841SOL    HW238160   3.628   3.035  16.189 -1.2822  0.8705  0.7839
 8842SOL     OW38161   0.352   3.573   6.500  0.6647  0.2881 -0.1978
 8842SOL    HW138162   0.442   3.603   6.511  1.6688 -1.6791 -2.8954
 8842SOL    HW238163   0.366   3.526   6.418 -0.8955  0.4037 -0.5228
 8843SOL     OW38164   3.355   3.733   7.522  0.6452  0.4754  0.7572
 8843SOL    HW138165   3.406   3.814   7.517 -0.6041  1.2041 -0.2692
 8843SOL    HW238166   3.354   3.702   7.431  4.1032  0.0871  0.8421
 8844SOL     OW38167   4.482   3.731   5.576 -0.4609  0.3087  0.6389
 8844SOL    HW138168   4.475   3.718   5.671  0.8053  0.9494  0.8092
 8844SOL    HW238169   4.522   3.818   5.568 -0.9020  0.4563 -0.0018
 8845SOL     OW38170   3.305   2.156  12.941  0.0955 -0.6436  0.2034
 8845SOL    HW138171   3.390   2.193  12.963 -0.4204 -1.1033  2.9856
 8845SOL    HW238172   3.330   2.064  12.942  1.5788 -0.2331  0.3530
 8846SOL     OW38173   2.065   0.050   5.515  0.2239 -0.4546  0.3038
 8846SOL    HW138174   1.985   0.007   5.545 -0.0382 -1.2820 -1.5854
 8846SOL    HW238175   2.094   4.722   5.451  2.1381  0.7294 -0.0234
 8847SOL     OW38176   0.809   0.053   3.661 -0.1084  0.8850 -0.3482
 8847SOL    HW138177   0.784   0.106   3.585 -1.2714  1.8376  0.6863
 8847SOL    HW238178   0.806   0.118   3.731 -0.1354  0.1818  0.3064
 8848SOL     OW38179   1.813   0.955   7.469  0.3683  0.2738 -0.8405
 8848SOL    HW138180   1.776   0.883   7.418  1.9260 -1.0192 -0.1458
 8848SOL    HW238181   1.854   1.020   7.410  0.1479 -0.0493 -1.3478
 8849SOL     OW38182   4.448   3.135   1.786  0.1115  0.2451  0.3012
 8849SOL    HW138183   4.483   3.063   1.838  0.4040  1.7157  2.1847
 8849SOL    HW238184   4.410   3.085   1.714  0.0120 -1.1922  1.3560
 8850SOL     OW38185   3.047   3.005  16.268 -0.8120  0.4880 -0.2299
 8850SOL    HW138186   3.106   2.984  16.196  0.9184  0.4973  1.1986
 8850SOL    HW238187   3.061   3.100  16.270 -0.8991  0.5135 -1.2358
 8851SOL     OW38188   3.856   3.573   5.941  0.0668  0.0439  0.0899
 8851SOL    HW138189   3.860   3.501   6.003 -0.2274  1.2595  1.5267
 8851SOL    HW238190   3.760   3.580   5.939  0.1702  1.5203 -0.0488
 8852SOL     OW38191   0.913   4.305   9.006 -0.2218  0.4210  0.1234
 8852SOL    HW138192   0.917   4.213   8.983  0.1631 -0.1142  2.3332
 8852SOL    HW238193   0.874   4.293   9.092 -2.6182 -1.4318 -1.2309
 8853SOL     OW38194   0.169   2.771  11.363  0.0271  0.4504 -0.5684
 8853SOL    HW138195   0.132   2.843  11.414  2.0106  1.7374 -0.9511
 8853SOL    HW238196   0.185   2.807  11.275  3.0062 -1.1100 -0.6710
 8854SOL     OW38197   1.737   0.150   5.204  0.3095  0.1460 -0.3723
 8854SOL    HW138198   1.739   0.245   5.192  0.7741  0.2328  0.4300
 8854SOL    HW238199   1.752   0.143   5.298  0.8073  0.1686 -0.4503
 8855SOL     OW38200   1.672   3.438  16.698 -0.6445 -0.3532 -0.4084
 8855SOL    HW138201   1.674   3.532  16.682 -1.0781 -0.5004 -1.3239
 8855SOL    HW238202   1.654   3.412  16.607  1.2021 -3.3808  0.0904
 8856SOL     OW38203   4.038   3.217   3.193 -0.3534  0.0618 -0.1733
 8856SOL    HW138204   3.964   3.167   3.159 -0.6474 -0.5060  1.2806
 8856SOL    HW238205   4.023   3.217   3.288 -1.1148  2.8583 -0.2916
 8857SOL     OW38206   1.039   3.731   3.082  0.5602 -0.2376 -0.5278
 8857SOL    HW138207   0.959   3.773   3.113 -0.6752 -2.4203 -0.7643
 8857SOL    HW238208   1.098   3.800   3.112 -0.8179  1.0870 -0.8412
 8858SOL     OW38209   3.341   3.555   5.746 -0.4449 -0.0323 -0.3543
 8858SOL    HW138210   3.286   3.478   5.739 -2.9795  1.7735 -0.1212
 8858SOL    HW238211   3.402   3.546   5.673  0.9990  3.3240  0.3992
 8859SOL     OW38212   1.764   4.450  16.105 -0.4529  0.6319  0.5500
 8859SOL    HW138213   1.743   4.361  16.133  1.5300  0.4252  1.3823
 8859SOL    HW238214   1.764   4.495  16.190  1.1108  2.1817 -0.2464
 8860SOL     OW38215   3.700   1.184   8.261 -0.7879  0.3562 -0.0597
 8860SOL    HW138216   3.609   1.176   8.289 -0.9327 -0.6397 -0.7786
 8860SOL    HW238217   3.706   1.279   8.259  1.2120  0.2077 -1.2297
 8861SOL     OW38218   1.902   1.127   5.781 -0.4987 -0.1738 -0.0483
 8861SOL    HW138219   1.893   1.062   5.712 -0.9055 -3.2221  2.8397
 8861SOL    HW238220   1.911   1.065   5.854 -0.0537 -0.7061 -0.5569
 8862SOL     OW38221   1.800   1.058   1.910  0.0860  0.2345  0.0349
 8862SOL    HW138222   1.741   1.132   1.891 -1.5168 -1.7528 -2.6734
 8862SOL    HW238223   1.741   0.990   1.943 -0.5025  0.2528 -0.9759
 8863SOL     OW38224   4.385   4.072   4.946  0.5928  0.3398 -0.0809
 8863SOL    HW138225   4.468   4.120   4.938 -0.0937  1.9690  2.4549
 8863SOL    HW238226   4.408   3.994   4.997 -0.3754 -0.0106 -0.1834
 8864SOL     OW38227   2.512   2.013   4.473  0.1540 -0.3616  0.0136
 8864SOL    HW138228   2.443   1.982   4.531  2.2133 -2.4857  1.3206
 8864SOL    HW238229   2.470   1.978   4.394  2.3815  0.7215 -1.6361
 8865SOL     OW38230   0.902   1.342   7.290 -1.0704 -0.1041 -0.1828
 8865SOL    HW138231   0.955   1.317   7.214 -1.4632  0.7306 -0.7377
 8865SOL    HW238232   0.821   1.368   7.245 -2.5530  0.0406  2.5981
 8866SOL     OW38233   2.151   2.755   2.980  0.3177 -0.0200 -0.2818
 8866SOL    HW138234   2.209   2.830   2.967 -0.8807  0.8848 -0.3759
 8866SOL    HW238235   2.070   2.783   2.937 -1.9885 -0.4701  3.6810
 8867SOL     OW38236   0.791   3.649   6.896 -0.7131  0.4770  0.2913
 8867SOL    HW138237   0.883   3.628   6.880 -1.5236 -2.0044 -1.0649
 8867SOL    HW238238   0.758   3.662   6.807  0.3600  0.1604 -0.1511
 8868SOL     OW38239   0.721   1.688   6.790 -0.3030 -0.6798 -0.2076
 8868SOL    HW138240   0.733   1.781   6.770  0.8097 -0.4102  1.7364
 8868SOL    HW238241   0.798   1.672   6.845 -1.4282 -0.3061  1.4929
 8869SOL     OW38242   3.826   1.810   3.628  0.0454  0.7967  0.3361
 8869SOL    HW138243   3.908   1.795   3.580  0.5389 -1.2852  1.8451
 8869SOL    HW238244   3.835   1.902   3.655  2.2240  0.2665  1.4858
 8870SOL     OW38245   3.562   1.799  16.807  0.1404  0.2289  0.4667
 8870SOL    HW138246   3.511   1.878  16.828  1.4286  1.4367 -0.9188
 8870SOL    HW238247   3.595   1.773  16.893 -1.2684 -0.5941  0.7680
 8871SOL     OW38248   2.478   1.223   7.838 -0.1920 -0.1666 -0.1899
 8871SOL    HW138249   2.500   1.308   7.876 -0.3349  0.5576 -1.7205
 8871SOL    HW238250   2.450   1.260   7.754 -0.7084 -0.1169  0.0069
 8872SOL     OW38251   2.040   2.169   3.581 -0.3776 -0.0262  0.0851
 8872SOL    HW138252   2.116   2.114   3.598 -2.0428 -1.5054  2.7079
 8872SOL    HW238253   2.087   2.253   3.586  0.0191 -0.2380 -0.0658
 8873SOL     OW38254   3.107   0.151   6.865  0.3211  0.4026  0.1919
 8873SOL    HW138255   3.155   0.075   6.899 -0.4912  0.4870  1.5269
 8873SOL    HW238256   3.168   0.225   6.870  0.4880  0.0955  2.8316
 8874SOL     OW38257   0.761   3.591   8.963 -0.3628  0.0373  0.3072
 8874SOL    HW138258   0.818   3.549   8.899  0.7790  0.8938  0.7716
 8874SOL    HW238259   0.694   3.523   8.965 -2.2265  1.8915  0.8183
 8875SOL     OW38260   2.734   1.995   1.317  0.3252 -0.1231 -0.3908
 8875SOL    HW138261   2.752   1.976   1.409 -0.1976 -0.3106 -0.3247
 8875SOL    HW238262   2.820   2.030   1.292  1.8523 -1.8631  2.4643
 8876SOL     OW38263   1.703   0.675  15.605  0.3086 -0.0055  0.3210
 8876SOL    HW138264   1.754   0.609  15.652  0.3333 -0.8578 -0.9164
 8876SOL    HW238265   1.717   0.759  15.649  5.6371 -1.0163  0.4968
 8877SOL     OW38266   3.986   2.593   4.518 -0.3274 -0.2070 -0.1641
 8877SOL    HW138267   3.904   2.547   4.499 -0.8220  0.7042 -0.2403
 8877SOL    HW238268   4.004   2.617   4.428  0.7030  0.5255  0.2316
 8878SOL     OW38269   1.285   0.008   6.370  0.2740 -0.1886 -0.6217
 8878SOL    HW138270   1.361   4.686   6.380  0.7612  0.5366 -0.0533
 8878SOL    HW238271   1.303   0.049   6.455  0.6059  0.5323 -1.0377
 8879SOL     OW38272   1.986   3.619  10.116 -0.2159 -0.0752  0.1236
 8879SOL    HW138273   2.071   3.601  10.076 -0.3481  2.4157 -1.2263
 8879SOL    HW238274   1.992   3.558  10.190  0.6548  1.5717  1.4330
 8880SOL     OW38275   3.989   0.950   4.391  0.0875 -0.2170  0.0332
 8880SOL    HW138276   3.945   0.967   4.308  3.6035 -0.7749 -1.9449
 8880SOL    HW238277   3.934   0.874   4.412 -1.9907  1.3647  0.3100
 8881SOL     OW38278   3.797   1.594   4.429  0.1165  0.2937 -0.0921
 8881SOL    HW138279   3.711   1.556   4.412  0.2479 -0.9628  2.0106
 8881SOL    HW238280   3.771   1.685   4.443  1.1585  0.3709  1.3442
 8882SOL     OW38281   3.129   1.128   1.562 -0.1730  0.1938  0.1011
 8882SOL    HW138282   3.034   1.122   1.556 -0.1006 -0.1018 -0.7040
 8882SOL    HW238283   3.136   1.158   1.652  0.0059 -1.5655  0.6600
 8883SOL     OW38284   2.836   3.191   8.025 -0.0002 -0.3413  0.0469
 8883SOL    HW138285   2.784   3.180   7.945 -0.3497 -2.3359  0.5563
 8883SOL    HW238286   2.770   3.177   8.093  2.1158  1.7122  2.4994
 8884SOL     OW38287   0.659   3.772   5.143  0.1708 -0.4305  0.1570
 8884SOL    HW138288   0.625   3.741   5.227  0.3653 -3.0875 -0.7437
 8884SOL    HW238289   0.721   3.841   5.166  0.9101 -0.2811 -2.2857
 8885SOL     OW38290   3.581   0.978   2.608 -0.7008 -0.1831 -0.2132
 8885SOL    HW138291   3.583   0.938   2.694 -0.1234 -0.7102 -0.4677
 8885SOL    HW238292   3.674   0.980   2.583 -0.6592 -0.7058 -0.0884
 8886SOL     OW38293   1.642   0.047  16.460 -0.0270 -0.2447  0.1406
 8886SOL    HW138294   1.592   0.114  16.506  0.5797  1.4600 -1.6662
 8886SOL    HW238295   1.702   0.023  16.531  0.3099 -4.0766 -1.4404
 8887SOL     OW38296   2.472   3.482   2.066 -0.2175  0.0753  0.3002
 8887SOL    HW138297   2.453   3.409   2.007 -0.1727  1.4237 -1.3710
 8887SOL    HW238298   2.498   3.427   2.139  0.9504  0.4683  0.1782
 8888SOL     OW38299   1.230   3.138   1.885 -0.5310 -0.0096  0.1151
 8888SOL    HW138300   1.181   3.221   1.884 -1.4945 -0.5745  0.4371
 8888SOL    HW238301   1.250   3.128   1.792 -1.8895 -2.0083  0.0283
 8889SOL     OW38302   4.597   0.468   8.159  0.4607  0.2024  0.1162
 8889SOL    HW138303   4.692   0.463   8.150  0.6961  2.8177  1.0005
 8889SOL    HW238304   4.574   0.470   8.067 -0.2468  1.2019  0.3168
 8890SOL     OW38305   0.259   2.707   3.990  0.8681 -0.1760 -0.1132
 8890SOL    HW138306   0.222   2.619   4.005  1.7733 -0.2833  1.5210
 8890SOL    HW238307   0.209   2.754   4.057  0.5250 -0.4984 -0.1408
 8891SOL     OW38308   4.713   0.892   5.343 -0.0742  0.3989 -0.5478
 8891SOL    HW138309   0.046   0.841   5.385  0.1463  2.0451  1.1207
 8891SOL    HW238310   4.663   0.917   5.421  1.2868  0.7395  0.2305
 8892SOL     OW38311   2.124   0.623   3.680 -0.2705  0.3350  0.1738
 8892SOL    HW138312   2.170   0.559   3.625  2.8149  2.1917  0.5526
 8892SOL    HW238313   2.186   0.694   3.664 -0.9739  0.4982 -1.9214
 8893SOL     OW38314   0.031   2.480   6.314  0.2826  0.1937 -0.2384
 8893SOL    HW138315   0.112   2.466   6.362 -1.6154 -0.8772  2.6369
 8893SOL    HW238316   0.067   2.511   6.231 -1.2395 -0.3644 -1.1162
 8894SOL     OW38317   1.731   2.056  14.828 -0.1070 -0.5914  0.0738
 8894SOL    HW138318   1.714   2.149  14.845 -0.4153 -0.8840  1.4253
 8894SOL    HW238319   1.755   2.070  14.737 -0.7277  0.1290  0.0246
 8895SOL     OW38320   1.816   0.084   8.586  0.0035 -0.6861 -1.1752
 8895SOL    HW138321   1.748   0.134   8.631  0.8472  0.9802 -1.7387
 8895SOL    HW238322   1.832   0.010   8.644  0.1535  0.2629  0.0054
 8896SOL     OW38323   0.450   2.314   4.847  0.2624 -0.0004 -0.1259
 8896SOL    HW138324   0.458   2.409   4.856 -4.1028  0.2917  0.2824
 8896SOL    HW238325   0.440   2.300   4.753 -2.0517 -0.7996  0.2486
 8897SOL     OW38326   3.112   1.931  16.363 -0.0230 -0.0099  0.0929
 8897SOL    HW138327   3.047   1.961  16.426  2.1197  2.0970  1.3040
 8897SOL    HW238328   3.059   1.883  16.299  1.6256  0.1974 -1.4378
 8898SOL     OW38329   3.919   2.673   1.997  0.4004  0.0072 -0.2607
 8898SOL    HW138330   3.900   2.580   1.985  1.8275 -0.5458  1.8432
 8898SOL    HW238331   3.832   2.713   1.988 -0.3309 -1.9541 -1.8318
 8899SOL     OW38332   0.270   1.817   3.720 -0.1668  0.1561  0.5789
 8899SOL    HW138333   0.299   1.908   3.712  1.9615 -0.2480  3.8575
 8899SOL    HW238334   0.356   1.776   3.712  0.1889  1.6022 -3.1461
 8900SOL     OW38335   1.476   3.931   9.271  0.3707 -0.0290 -0.0123
 8900SOL    HW138336   1.506   3.972   9.352 -0.0459  0.6962 -0.2254
 8900SOL    HW238337   1.508   3.844   9.297 -1.2379 -0.0661  1.8813
 8901SOL     OW38338   2.835   2.321  12.932 -0.5615  0.2882  0.4433
 8901SOL    HW138339   2.763   2.300  12.993 -1.2476  0.8780 -0.1622
 8901SOL    HW238340   2.900   2.265  12.973 -1.3072 -0.1512  1.0367
 8902SOL     OW38341   3.647   4.030   4.370 -1.1753 -0.1572  0.3198
 8902SOL    HW138342   3.730   4.053   4.411 -0.9219 -0.5350  0.0321
 8902SOL    HW238343   3.577   4.043   4.433 -1.3016 -1.3146  0.4252
 8903SOL     OW38344   3.098   4.381  15.834 -0.0328 -0.2387  0.2356
 8903SOL    HW138345   3.053   4.299  15.814  0.6004 -0.7339  0.8191
 8903SOL    HW238346   3.050   4.441  15.777  2.4617  0.9900 -0.5768
 8904SOL     OW38347   3.894   4.571   4.684 -0.3861  0.2010 -0.0368
 8904SOL    HW138348   3.896   4.491   4.632  0.3296  0.6052 -0.6381
 8904SOL    HW238349   3.803   4.584   4.710 -0.3830  0.3051 -0.0779
 8905SOL     OW38350   0.399   3.264   3.334 -0.3093  0.4897 -0.7020
 8905SOL    HW138351   0.339   3.287   3.405  1.7811  1.0360  0.8795
 8905SOL    HW238352   0.356   3.289   3.253 -3.0255 -1.8306 -0.0019
 8906SOL     OW38353   3.230   1.034   4.246 -0.0053 -0.5012 -0.2684
 8906SOL    HW138354   3.161   0.976   4.216  0.7714 -1.2101 -0.6728
 8906SOL    HW238355   3.163   1.096   4.276  0.2940  1.1709 -3.1220
 8907SOL     OW38356   1.048   1.727   0.350 -0.2473 -0.1817 -0.4113
 8907SOL    HW138357   0.992   1.781   0.294 -1.1046  1.2598  1.8580
 8907SOL    HW238358   1.037   1.767   0.436  0.0808 -0.7073 -0.1201
 8908SOL     OW38359   4.274   0.411   3.188  0.6626  0.9618  0.2500
 8908SOL    HW138360   4.349   0.406   3.128  0.1068  0.6327 -0.4212
 8908SOL    HW238361   4.285   0.343   3.253  3.5383  1.4287  0.2265
 8909SOL     OW38362   1.290   3.724  15.518  0.3002 -0.3328 -0.3501
 8909SOL    HW138363   1.201   3.741  15.546 -0.6230 -5.5747 -0.1387
 8909SOL    HW238364   1.339   3.740  15.599  0.1750  2.1830 -0.7553
 8910SOL     OW38365   0.687   0.721   4.795 -0.0766 -0.0263  0.0990
 8910SOL    HW138366   0.701   0.626   4.793  0.8795  0.0992  0.9462
 8910SOL    HW238367   0.605   0.728   4.844  0.8720 -0.3245  1.7011
 8911SOL     OW38368   1.976   4.607   7.231 -0.0204 -0.4851  0.1048
 8911SOL    HW138369   1.947   4.516   7.243  0.2697 -0.7853 -1.4090
 8911SOL    HW238370   1.912   4.629   7.164 -0.0289 -0.5045  0.1064
 8912SOL     OW38371   3.113   2.524   8.253 -0.3747  0.2604  0.2959
 8912SOL    HW138372   3.106   2.446   8.309 -0.2393  0.3082  0.3786
 8912SOL    HW238373   3.207   2.524   8.235 -0.6418 -2.0045 -1.1202
 8913SOL     OW38374   2.801   0.121   3.790  0.0433  0.1583  0.5355
 8913SOL    HW138375   2.737   0.180   3.750  0.5285  0.2872 -0.0527
 8913SOL    HW238376   2.766   0.127   3.879  1.0695  1.8429  0.8324
 8914SOL     OW38377   4.330   3.344  11.840 -0.1966 -0.5338 -0.1948
 8914SOL    HW138378   4.335   3.438  11.861 -1.1737  0.0445 -2.5560
 8914SOL    HW238379   4.282   3.315  11.918  0.5249  0.8388  0.7708
 8915SOL     OW38380   2.013   0.943  17.052  0.4361  0.0783 -0.1655
 8915SOL    HW138381   1.949   0.958  16.983 -1.9382 -0.4088  1.9474
 8915SOL    HW238382   2.060   0.868  17.016  0.9962 -0.8334  2.4032
 8916SOL     OW38383   2.416   2.961  11.796  0.2510 -0.0258  0.1456
 8916SOL    HW138384   2.440   3.009  11.875 -1.0494 -0.2006  0.6398
 8916SOL    HW238385   2.398   3.029  11.731  0.0802 -0.2613 -0.0532
 8917SOL     OW38386   2.522   1.267   5.378  0.1318 -0.0073 -0.4792
 8917SOL    HW138387   2.567   1.316   5.309  0.0359  0.6025 -0.1052
 8917SOL    HW238388   2.437   1.311   5.369  0.5915  1.1070  0.7148
 8918SOL     OW38389   4.080   4.257   4.820  0.0044 -0.0794 -0.0135
 8918SOL    HW138390   4.018   4.287   4.753 -0.4821  0.8726  0.8582
 8918SOL    HW238391   4.127   4.341   4.824  2.6971 -1.3689 -4.1274
 8919SOL     OW38392   4.296   1.852   7.395  0.0825  0.0002 -0.1642
 8919SOL    HW138393   4.214   1.812   7.424 -0.9168  1.3810 -1.1195
 8919SOL    HW238394   4.314   1.787   7.327 -1.4759 -0.2084 -0.3911
 8920SOL     OW38395   1.770   4.120   8.030 -0.2313  0.6530 -0.2083
 8920SOL    HW138396   1.784   4.198   8.083  1.0867  0.1952  0.1118
 8920SOL    HW238397   1.862   4.107   8.007 -0.9498  1.2992 -3.5294
 8921SOL     OW38398   2.680   0.477   6.636 -0.3893  0.0422  0.5851
 8921SOL    HW138399   2.721   0.549   6.684 -0.0271  0.8830 -0.9872
 8921SOL    HW238400   2.737   0.464   6.560  1.9845 -0.5914  2.4917
 8922SOL     OW38401   3.961   2.413   9.084  0.0689  0.2304  0.3782
 8922SOL    HW138402   3.974   2.318   9.092 -2.1083 -0.1389 -0.5772
 8922SOL    HW238403   4.044   2.459   9.096 -0.2675  0.3805  2.0533
 8923SOL     OW38404   2.371   1.733   6.384 -0.3018  0.3846 -0.5209
 8923SOL    HW138405   2.306   1.801   6.367 -1.3016 -0.6411 -0.7900
 8923SOL    HW238406   2.348   1.689   6.466  1.7847 -1.8381 -1.1398
 8924SOL     OW38407   2.278   0.022   1.757 -0.3279  0.5208 -0.3103
 8924SOL    HW138408   2.311   0.025   1.847 -1.0641  1.1573 -0.0634
 8924SOL    HW238409   2.236   0.108   1.753  0.8238  1.0781 -0.4213
 8925SOL     OW38410   3.910   4.628   7.502  0.7859 -0.0215  0.3476
 8925SOL    HW138411   3.925   4.705   7.446  1.2742  1.0138  1.9076
 8925SOL    HW238412   3.957   4.570   7.442 -0.8787 -1.0111  0.0116
 8926SOL     OW38413   0.095   4.569   8.155 -0.0025 -0.3450  0.5680
 8926SOL    HW138414   0.028   4.636   8.144 -0.8104 -1.0905  0.9371
 8926SOL    HW238415   0.041   4.501   8.114  0.1567 -0.4243  0.4887
 8927SOL     OW38416   0.299   4.469   6.536 -0.0111 -0.2049 -0.1574
 8927SOL    HW138417   0.221   4.413   6.541  2.1635 -3.1961 -0.2000
 8927SOL    HW238418   0.300   4.479   6.441 -0.8823 -1.0660 -0.2582
 8928SOL     OW38419   1.236   4.162   3.796  0.0107  0.1171 -0.2004
 8928SOL    HW138420   1.316   4.118   3.768  0.1135 -0.7294  1.4777
 8928SOL    HW238421   1.271   4.220   3.863  2.3187 -0.8654 -0.5740
 8929SOL     OW38422   2.469   2.077   5.451  0.5834 -0.1198  0.1886
 8929SOL    HW138423   2.475   2.062   5.357 -0.4769 -2.8121  0.5527
 8929SOL    HW238424   2.429   1.992   5.470  1.6064 -1.4822 -3.7097
 8930SOL     OW38425   3.795   0.500   2.479 -0.1463  0.6287  0.4062
 8930SOL    HW138426   3.762   0.444   2.549  0.4173 -1.2645 -0.8556
 8930SOL    HW238427   3.863   0.453   2.431  1.2930  0.8410  2.2504
 8931SOL     OW38428   0.643   3.414  15.568 -0.1992 -0.3358 -0.0006
 8931SOL    HW138429   0.564   3.468  15.562 -0.7277 -1.0623  0.2918
 8931SOL    HW238430   0.617   3.337  15.618 -0.9185 -0.4871 -0.6087
 8932SOL     OW38431   4.138   1.485   6.884  0.1527  0.3468 -0.0210
 8932SOL    HW138432   4.067   1.441   6.838 -1.1091  0.2416  2.0004
 8932SOL    HW238433   4.186   1.525   6.811 -1.5300 -0.0895 -1.3721
 8933SOL     OW38434   2.746   4.644  16.590  0.6095 -0.5720 -0.0420
 8933SOL    HW138435   2.688   4.714  16.620  1.6634 -0.2380  1.1843
 8933SOL    HW238436   2.687   4.571  16.572 -1.1372  0.6504  0.7024
 8934SOL     OW38437   3.096   0.878   3.226 -0.5351 -0.4017  0.0457
 8934SOL    HW138438   3.182   0.855   3.262 -0.4345 -3.4296 -2.1202
 8934SOL    HW238439   3.114   0.958   3.177 -1.4716 -0.4309 -0.3465
 8935SOL     OW38440   0.345   3.327  12.235 -0.1087 -0.6483  0.2492
 8935SOL    HW138441   0.273   3.364  12.286  0.4474  2.0472 -0.9501
 8935SOL    HW238442   0.396   3.401  12.203  0.0618  0.0707  2.1718
 8936SOL     OW38443   0.666   1.434  12.863 -0.2409  0.1506 -0.5128
 8936SOL    HW138444   0.730   1.390  12.919  0.8910  1.7978 -0.5329
 8936SOL    HW238445   0.578   1.397  12.877  0.5873 -0.7253  2.3909
 8937SOL     OW38446   0.259   2.653   8.510  0.2051  0.5461  0.0298
 8937SOL    HW138447   0.256   2.701   8.428  0.9626  2.5298  1.1671
 8937SOL    HW238448   0.313   2.710   8.565 -0.7599  1.4680  0.0231
 8938SOL     OW38449   0.926   1.891   3.562  0.2590 -0.2343  0.2342
 8938SOL    HW138450   0.922   1.803   3.600 -0.7928 -0.2255  0.1256
 8938SOL    HW238451   0.862   1.896   3.491  1.5063  1.9033 -0.7593
 8939SOL     OW38452   4.728   2.037  14.774 -0.2880 -0.6752 -0.2647
 8939SOL    HW138453   0.045   2.110  14.803  0.2456 -2.0469  2.1703
 8939SOL    HW238454   0.022   2.013  14.686 -1.1587 -0.4308 -0.6379
 8940SOL     OW38455   3.684   4.686   2.882 -0.0028  0.1079  0.2243
 8940SOL    HW138456   3.759   4.707   2.827 -0.9946 -0.7278 -1.4657
 8940SOL    HW238457   3.728   4.651   2.959  1.4134 -0.4221 -0.8153
 8941SOL     OW38458   2.873   1.841  11.930 -0.0366 -0.2018 -0.3418
 8941SOL    HW138459   2.841   1.924  11.963  0.4358 -0.9068  1.9140
 8941SOL    HW238460   2.924   1.816  12.008 -0.0907  1.3807  0.2052
 8942SOL     OW38461   3.385   3.497   1.937  0.0337  0.4678 -0.5102
 8942SOL    HW138462   3.462   3.536   1.979 -0.5576 -0.5029  1.4862
 8942SOL    HW238463   3.311   3.523   1.991  0.2617 -0.2884  0.1684
 8943SOL     OW38464   0.425   2.329   7.639  0.5907 -0.1128  0.0074
 8943SOL    HW138465   0.480   2.351   7.714 -1.5819 -0.0670  1.5704
 8943SOL    HW238466   0.439   2.235   7.646 -2.3109 -0.5931 -0.8880
 8944SOL     OW38467   1.366   0.146   2.325 -0.2621 -0.1672  0.0115
 8944SOL    HW138468   1.275   0.119   2.321 -0.4721  0.1067  2.7211
 8944SOL    HW238469   1.349   0.226   2.276  0.0973  0.7793  1.4182
 8945SOL     OW38470   0.132   1.030  13.831  0.5205  0.7667  0.5664
 8945SOL    HW138471   0.081   0.950  13.827 -0.3771  1.3525  0.2564
 8945SOL    HW238472   0.073   1.090  13.876 -1.0850 -0.5991  0.2481
 8946SOL     OW38473   3.080   3.331   8.076 -0.0549  0.4692  0.4914
 8946SOL    HW138474   3.024   3.373   8.142 -1.2197 -0.4735  0.1076
 8946SOL    HW238475   3.013   3.264   8.060  0.5821 -0.1111  0.2907
 8947SOL     OW38476   2.392   2.021   6.861 -0.3957  0.7797 -0.4693
 8947SOL    HW138477   2.426   2.110   6.868 -0.6970  0.7306  1.6386
 8947SOL    HW238478   2.298   2.036   6.870 -0.3958 -0.7139  2.2409
 8948SOL     OW38479   2.558   2.518   7.492 -0.3774  0.0187  0.2676
 8948SOL    HW138480   2.590   2.544   7.579  2.4398 -1.3790 -0.3560
 8948SOL    HW238481   2.635   2.527   7.436  0.2020  1.1916  1.2401
 8949SOL     OW38482   3.104   0.228  12.560  0.2889 -0.3920  0.4588
 8949SOL    HW138483   3.157   0.152  12.535 -0.8016 -0.1352 -2.5613
 8949SOL    HW238484   3.020   0.194  12.529 -0.2732  1.3904  0.0550
 8950SOL     OW38485   2.161   2.984   6.407  0.0786 -0.0803  0.0986
 8950SOL    HW138486   2.110   2.999   6.487  0.0200  1.0617 -0.1500
 8950SOL    HW238487   2.167   2.890   6.388  0.6980 -0.2415  1.0866
 8951SOL     OW38488   1.053   4.040   3.459 -0.2762 -0.5778  0.3197
 8951SOL    HW138489   1.033   4.002   3.544  2.1020 -0.5978  0.8645
 8951SOL    HW238490   0.984   4.106   3.453  0.0070 -0.2216  1.1211
 8952SOL     OW38491   3.469   3.912   5.210 -0.8173  0.1866 -0.3363
 8952SOL    HW138492   3.390   3.965   5.220 -0.6939 -0.0738  2.0969
 8952SOL    HW238493   3.491   3.917   5.117 -1.2157 -2.1534 -0.5564
 8953SOL     OW38494   0.778   3.692   4.569  1.0176  0.0771 -0.1432
 8953SOL    HW138495   0.855   3.722   4.617 -1.3175  1.9645  2.4257
 8953SOL    HW238496   0.820   3.680   4.483  0.1047  2.7534 -0.9653
 8954SOL     OW38497   2.538   0.232  13.922 -0.3628 -0.5983  0.0586
 8954SOL    HW138498   2.622   0.239  13.968  0.3299  0.3936 -1.3591
 8954SOL    HW238499   2.554   0.280  13.841 -2.0660 -0.3897 -0.1438
 8955SOL     OW38500   1.669   2.574  17.613 -0.0189  0.0628 -0.0260
 8955SOL    HW138501   1.609   2.649  17.617  0.8214  0.7857 -0.9802
 8955SOL    HW238502   1.739   2.626  17.574  0.6363 -1.2766 -0.6328
 8956SOL     OW38503   0.349   1.818  16.671  0.7692 -0.1852  0.2751
 8956SOL    HW138504   0.377   1.803  16.761  1.6592 -0.4903 -0.0544
 8956SOL    HW238505   0.411   1.764  16.623  0.0185 -0.1333 -0.7695
 8957SOL     OW38506   2.531   3.092   4.822 -0.4060 -0.2358 -0.0141
 8957SOL    HW138507   2.613   3.072   4.867  1.7003  1.9665 -2.9355
 8957SOL    HW238508   2.505   3.006   4.788 -2.4269  0.3151  0.1275
 8958SOL     OW38509   3.588   2.026  13.369 -0.1594 -0.2821  0.2393
 8958SOL    HW138510   3.632   2.111  13.380  3.1787 -1.7458 -1.9935
 8958SOL    HW238511   3.498   2.059  13.377 -1.2452 -3.8185  2.3734
 8959SOL     OW38512   3.871   2.537   1.624  0.2727 -0.1547  0.2070
 8959SOL    HW138513   3.864   2.471   1.555 -1.1469  0.4052 -0.1987
 8959SOL    HW238514   3.828   2.491   1.696  0.6368 -0.4589  0.2295
 8960SOL     OW38515   1.487   3.170  15.351  0.3779 -0.1525  0.2104
 8960SOL    HW138516   1.410   3.226  15.345 -1.3230 -2.3362  2.0586
 8960SOL    HW238517   1.455   3.109  15.416 -1.3025 -2.1981 -2.5375
 8961SOL     OW38518   0.265   2.253  11.720  0.3257  0.0254  0.3008
 8961SOL    HW138519   0.222   2.335  11.698 -2.1996 -1.1435  0.9201
 8961SOL    HW238520   0.190   2.197  11.739 -0.8814  1.7582  0.5928
 8962SOL     OW38521   1.568   1.599  15.590  0.4517 -0.5881  0.3312
 8962SOL    HW138522   1.599   1.688  15.578 -0.2145 -0.6634 -2.1341
 8962SOL    HW238523   1.479   1.601  15.555  1.4362  2.1782 -2.0306
 8963SOL     OW38524   2.064   1.060  12.547  0.3319 -0.1956  0.0213
 8963SOL    HW138525   2.091   1.126  12.484 -1.4817 -0.6374 -1.2326
 8963SOL    HW238526   2.014   1.113  12.609 -0.4185 -1.3523  0.4154
 8964SOL     OW38527   1.416   1.629  11.752  0.5536  0.1788 -0.1085
 8964SOL    HW138528   1.344   1.578  11.789 -0.5471  0.2204 -2.2209
 8964SOL    HW238529   1.471   1.642  11.829  1.8097  3.3693 -1.5477
 8965SOL     OW38530   4.053   4.447   8.412 -0.3035  0.2432 -0.7327
 8965SOL    HW138531   3.979   4.389   8.426  0.0736 -0.1141 -0.2062
 8965SOL    HW238532   4.001   4.517   8.372 -0.0754  0.6738 -0.2797
 8966SOL     OW38533   1.643   4.649   9.073 -0.0132  0.1887  0.3190
 8966SOL    HW138534   1.625   4.664   9.166  0.6352  3.6834 -0.1165
 8966SOL    HW238535   1.671   4.558   9.073 -2.1705 -0.4597  0.5173
 8967SOL     OW38536   2.478   1.260  16.050 -0.0067 -0.3101  0.5034
 8967SOL    HW138537   2.545   1.198  16.023 -0.9220 -1.0368 -0.1313
 8967SOL    HW238538   2.477   1.250  16.145  1.4877 -0.0829  0.5343
 8968SOL     OW38539   0.997   2.145   8.669 -0.2956 -0.4175 -0.4769
 8968SOL    HW138540   1.054   2.108   8.602  0.5568  0.9425 -0.5022
 8968SOL    HW238541   1.063   2.181   8.729 -0.5458  0.3463 -0.6620
 8969SOL     OW38542   3.248   4.052   8.201  0.0921 -0.1616 -1.3711
 8969SOL    HW138543   3.271   4.070   8.292  1.0683 -2.0836 -1.2442
 8969SOL    HW238544   3.228   3.958   8.205 -0.5569 -0.0382 -1.6191
 8970SOL     OW38545   3.837   2.389   4.786  0.1111  0.4718  0.0116
 8970SOL    HW138546   3.906   2.329   4.757 -0.4625 -1.3604  2.3889
 8970SOL    HW238547   3.785   2.405   4.707  1.4191  0.1774 -0.9206
 8971SOL     OW38548   1.421   4.536   6.829 -0.0760  0.2394  0.2391
 8971SOL    HW138549   1.378   4.602   6.884 -1.3941 -1.3085  1.0531
 8971SOL    HW238550   1.487   4.501   6.889 -0.6829 -0.4577  0.5008
 8972SOL     OW38551   4.427   2.238  11.263  0.1141 -0.2258  0.3308
 8972SOL    HW138552   4.368   2.169  11.295  1.6764 -2.0265 -0.6816
 8972SOL    HW238553   4.369   2.291  11.208 -0.0688  0.3054  1.0430
 8973SOL     OW38554   4.033   4.652   4.901 -0.3517 -0.1382  0.2944
 8973SOL    HW138555   4.120   4.615   4.884  0.9316  1.6914  2.9762
 8973SOL    HW238556   3.992   4.627   4.818 -0.6090  1.7726 -0.1369
 8974SOL     OW38557   1.266   1.385   6.424 -0.2493 -0.1181 -0.2746
 8974SOL    HW138558   1.353   1.347   6.435 -0.4688 -0.1434  1.3611
 8974SOL    HW238559   1.247   1.435   6.504  0.8646 -0.3415  0.1278
 8975SOL     OW38560   3.168   2.782   4.032  0.3555 -0.5644  0.1600
 8975SOL    HW138561   3.079   2.747   4.025 -0.9308  2.6126  0.9630
 8975SOL    HW238562   3.168   2.829   4.115  2.7174  1.2418 -0.8466
 8976SOL     OW38563   4.028   2.543  14.364  0.3757  0.3547 -0.4954
 8976SOL    HW138564   4.052   2.549  14.457  0.3594 -0.4776 -0.4384
 8976SOL    HW238565   4.075   2.468  14.330 -0.9809 -0.5717 -0.3498
 8977SOL     OW38566   3.824   2.237   5.598 -0.0956  0.2299 -0.1682
 8977SOL    HW138567   3.759   2.175   5.566 -0.3695 -0.1320  1.0771
 8977SOL    HW238568   3.832   2.298   5.524  0.0787 -0.2509 -0.5413
 8978SOL     OW38569   3.440   2.668   9.604 -0.0492 -0.3219 -0.3131
 8978SOL    HW138570   3.526   2.631   9.587 -0.9373 -3.5981  2.2365
 8978SOL    HW238571   3.396   2.584   9.621 -1.0991  0.6729  1.8448
 8979SOL     OW38572   2.745   0.087   6.388  0.0767  0.3733  0.7628
 8979SOL    HW138573   2.699   0.135   6.319  0.2505  0.2109  0.5357
 8979SOL    HW238574   2.821   0.145   6.390  0.0615  0.4351 -0.3691
 8980SOL     OW38575   0.894   3.345   3.541 -0.5771  0.2407 -0.0814
 8980SOL    HW138576   0.890   3.419   3.480  2.1964  0.3666 -0.1030
 8980SOL    HW238577   0.826   3.287   3.507 -1.7130  1.3839  0.2328
 8981SOL     OW38578   3.116   2.063   5.587  0.2120  0.4559 -0.4337
 8981SOL    HW138579   3.107   2.156   5.570  0.6415  0.5007 -0.4301
 8981SOL    HW238580   3.090   2.023   5.504 -1.0816  0.7802 -0.1766
 8982SOL     OW38581   3.829   3.089   1.039 -0.5620 -0.2130  0.0618
 8982SOL    HW138582   3.870   3.174   1.023  0.8029 -0.5920  1.4851
 8982SOL    HW238583   3.757   3.087   0.976  0.7094 -0.6001 -1.3605
 8983SOL     OW38584   0.842   0.969   9.865  0.2192 -0.0829 -0.6203
 8983SOL    HW138585   0.885   0.937   9.785 -3.4547 -2.4038 -1.6373
 8983SOL    HW238586   0.884   1.055   9.861 -1.3990  0.5511 -4.1613
 8984SOL     OW38587   1.605   1.705   0.969 -0.4786 -0.1456  0.0301
 8984SOL    HW138588   1.686   1.656   0.953  0.0985 -0.7178  4.5411
 8984SOL    HW238589   1.543   1.637   0.993 -2.4810  1.2549 -1.2179
 8985SOL     OW38590   3.063   1.280   6.681  0.6949 -0.0971 -0.0161
 8985SOL    HW138591   3.066   1.354   6.742  0.2455  1.3463 -1.7601
 8985SOL    HW238592   3.027   1.314   6.599 -0.6232 -1.0717  0.1579
 8986SOL     OW38593   3.776   1.876  12.207  0.1213  0.5982  0.4585
 8986SOL    HW138594   3.728   1.926  12.140  0.9421  2.2145  1.0820
 8986SOL    HW238595   3.863   1.880  12.167  1.8827  1.3848  4.4057
 8987SOL     OW38596   0.549   0.499  16.194  0.6705 -0.0021 -0.2175
 8987SOL    HW138597   0.460   0.489  16.229  1.1728  1.3702  1.4739
 8987SOL    HW238598   0.579   0.586  16.223 -0.6790 -0.1986  1.8431
 8988SOL     OW38599   0.628   3.625   3.120  0.0737  0.3546 -0.0668
 8988SOL    HW138600   0.620   3.570   3.042 -0.9288 -0.5549  0.6745
 8988SOL    HW238601   0.537   3.652   3.131 -0.7096 -2.2595 -0.2243
 8989SOL     OW38602   3.785   0.104   9.258 -0.1315  0.3680 -0.6663
 8989SOL    HW138603   3.726   0.179   9.256  0.6631  1.0193 -0.0080
 8989SOL    HW238604   3.779   0.070   9.347  0.8739  2.2570  0.1255
 8990SOL     OW38605   2.430   1.794   0.061 -0.1789  0.0109 -0.1360
 8990SOL    HW138606   2.357   1.781   0.000  0.1976 -1.9192 -0.1775
 8990SOL    HW238607   2.396   1.852   0.129  0.9239 -2.1154  2.2295
 8991SOL     OW38608   4.231   3.086  16.273 -0.0171  0.3267  0.0733
 8991SOL    HW138609   4.257   3.153  16.210  0.4049  0.2609  0.1770
 8991SOL    HW238610   4.263   3.012  16.221 -2.7833 -0.7374 -0.1023
 8992SOL     OW38611   3.500   4.155   1.221  1.0821 -0.4342 -0.1168
 8992SOL    HW138612   3.512   4.173   1.128  1.8379  1.4557  0.3537
 8992SOL    HW238613   3.522   4.062   1.229  1.2225 -0.2168  2.0954
 8993SOL     OW38614   0.961   4.564   7.439  0.0040  0.2073  0.0572
 8993SOL    HW138615   1.050   4.593   7.420 -0.0537 -0.3402 -1.0626
 8993SOL    HW238616   0.909   4.625   7.387  1.3464 -0.0645 -1.6078
 8994SOL     OW38617   4.442   2.719  11.349 -0.4447  0.7301  0.2154
 8994SOL    HW138618   4.435   2.772  11.271  0.4713 -0.0694 -0.4110
 8994SOL    HW238619   4.491   2.779  11.405 -0.5292  0.6479  0.3780
 8995SOL     OW38620   0.647   0.822   9.152  0.3135 -0.7351 -0.3580
 8995SOL    HW138621   0.724   0.779   9.191  0.7872  0.0445 -0.4445
 8995SOL    HW238622   0.607   0.856   9.231  1.9920  0.5679 -0.0718
 8996SOL     OW38623   0.533   3.261   5.019  0.1328 -0.0525  0.0637
 8996SOL    HW138624   0.530   3.189   4.957 -1.2677  0.8423 -0.8887
 8996SOL    HW238625   0.467   3.319   4.982  0.9753  0.1825 -1.0881
 8997SOL     OW38626   1.309   1.251   8.950 -0.0108 -0.2860 -0.4362
 8997SOL    HW138627   1.294   1.287   9.037 -1.7374 -0.3100 -0.7229
 8997SOL    HW238628   1.333   1.160   8.966 -0.0552  0.1156  1.9277
 8998SOL     OW38629   1.192   3.904  17.381  1.1224  0.3350 -0.0840
 8998SOL    HW138630   1.260   3.970  17.369  1.7507 -0.3591 -0.3877
 8998SOL    HW238631   1.224   3.869  17.465 -0.1556 -0.6343  0.0047
 8999SOL     OW38632   0.884   3.264   2.636 -0.4110  0.4012 -0.2229
 8999SOL    HW138633   0.912   3.181   2.675  0.0982 -0.0900 -1.6396
 8999SOL    HW238634   0.961   3.318   2.653 -0.3094  0.3873 -0.6563
 9000SOL     OW38635   1.320   1.577   2.755 -0.2366 -0.6157 -0.3209
 9000SOL    HW138636   1.416   1.586   2.759 -0.3030 -0.3556  0.7442
 9000SOL    HW238637   1.300   1.630   2.832 -0.1344  2.2042 -2.2005
 9001SOL     OW38638   2.477   1.406  15.731  0.0476 -0.4614  0.0636
 9001SOL    HW138639   2.443   1.328  15.688 -0.2844 -0.5966  0.5732
 9001SOL    HW238640   2.487   1.464  15.655  2.4207 -0.2638  0.5284
 9002SOL     OW38641   2.169   2.742   2.501  0.8389 -0.3906  0.0563
 9002SOL    HW138642   2.096   2.802   2.514  1.2715  0.6448 -2.4668
 9002SOL    HW238643   2.143   2.697   2.420 -1.2454 -0.7995  0.9381
 9003SOL     OW38644   3.910   2.843   5.224 -0.4630 -0.3332 -0.5199
 9003SOL    HW138645   3.982   2.858   5.163  0.9071 -0.6312  1.0434
 9003SOL    HW238646   3.905   2.748   5.219 -1.7737 -0.4297  2.3233
 9004SOL     OW38647   0.128   0.150   5.678  0.1200  0.1150 -0.0463
 9004SOL    HW138648   0.068   0.213   5.718  1.1560  0.3950  1.0585
 9004SOL    HW238649   0.207   0.171   5.727  0.7067  1.6541 -1.6294
 9005SOL     OW38650   0.438   3.342   4.448  0.4523  0.1943  0.4059
 9005SOL    HW138651   0.454   3.307   4.361 -2.2434 -0.2592  0.0862
 9005SOL    HW238652   0.459   3.435   4.438 -1.3870  0.5280 -0.3525
 9006SOL     OW38653   2.927   2.417   5.296  0.0207 -0.5437 -0.3269
 9006SOL    HW138654   2.921   2.453   5.385 -0.0793  2.7119 -1.6326
 9006SOL    HW238655   3.004   2.464   5.265 -2.0521  1.7183 -2.0409
 9007SOL     OW38656   3.567   3.839   2.228 -0.2634  0.2799 -0.2128
 9007SOL    HW138657   3.612   3.883   2.156 -2.6655 -0.0773 -1.9083
 9007SOL    HW238658   3.639   3.833   2.291  0.1119  1.5102 -0.5246
 9008SOL     OW38659   0.093   2.889   1.512  0.3343  0.3585 -0.5805
 9008SOL    HW138660   0.061   2.825   1.576 -3.1425  2.6021 -0.0433
 9008SOL    HW238661   0.071   2.839   1.434 -1.5568  0.1292  0.0932
 9009SOL     OW38662   3.080   4.285  12.032  0.5855  0.4128  0.0722
 9009SOL    HW138663   3.066   4.193  12.053 -0.3706  0.5357 -0.0285
 9009SOL    HW238664   3.029   4.321  12.104 -2.9435 -3.0513 -0.6698
 9010SOL     OW38665   4.085   1.899   8.644  0.4108 -0.3331 -0.3304
 9010SOL    HW138666   4.161   1.941   8.603 -0.0943 -0.5736 -1.5130
 9010SOL    HW238667   4.122   1.871   8.728 -1.9333 -0.5361  0.6420
 9011SOL     OW38668   3.450   3.072   5.244  0.1197 -0.6113  0.7339
 9011SOL    HW138669   3.386   3.004   5.265 -1.9125  1.3479  0.9251
 9011SOL    HW238670   3.507   3.015   5.193 -0.6582  0.8429 -1.7379
 9012SOL     OW38671   1.216   1.162  16.312 -0.5407 -0.2474  0.6759
 9012SOL    HW138672   1.171   1.236  16.352  1.1546  0.5374  1.1264
 9012SOL    HW238673   1.258   1.122  16.388  0.2469 -0.3276  0.1994
 9013SOL     OW38674   0.082   1.815  16.552 -0.3075 -0.4144  0.8870
 9013SOL    HW138675   0.103   1.909  16.555  2.1534 -0.8585 -1.7031
 9013SOL    HW238676   0.154   1.784  16.607 -0.9016 -1.2875  1.1670
 9014SOL     OW38677   4.173   2.676   9.560  0.0083 -0.4924 -0.0461
 9014SOL    HW138678   4.199   2.760   9.599  1.4329 -1.4254  0.9765
 9014SOL    HW238679   4.250   2.624   9.579 -0.5525 -1.9521 -1.7796
 9015SOL     OW38680   3.662   3.670   3.341  0.7759 -0.2569  0.6031
 9015SOL    HW138681   3.735   3.708   3.389 -0.1798  1.9215  0.3305
 9015SOL    HW238682   3.698   3.617   3.270  3.7196  0.9181  1.2135
 9016SOL     OW38683   3.492   0.421   1.189  0.0553  0.1260 -0.0017
 9016SOL    HW138684   3.495   0.508   1.229 -3.9539  1.4806 -2.7100
 9016SOL    HW238685   3.429   0.375   1.245 -0.2286  2.5353  1.6439
 9017SOL     OW38686   3.904   4.614   2.196 -0.1334 -0.2150 -0.1024
 9017SOL    HW138687   3.999   4.606   2.197 -0.2577 -1.7621 -1.7165
 9017SOL    HW238688   3.876   4.660   2.117 -2.8081 -1.0039  0.3655
 9018SOL     OW38689   0.020   0.419   6.064 -0.0466  0.6293  0.2219
 9018SOL    HW138690   0.045   0.509   6.085 -2.7285  1.4197 -0.0588
 9018SOL    HW238691   4.722   0.385   6.146  1.5467  0.2950  0.7630
 9019SOL     OW38692   4.035   3.809   7.529 -0.0611  0.1813  0.3016
 9019SOL    HW138693   4.099   3.851   7.587 -0.5702 -3.4162  3.5234
 9019SOL    HW238694   3.958   3.813   7.586 -0.6751 -0.0203 -0.5075
 9020SOL     OW38695   0.040   4.433   3.195  0.6464 -0.1337 -0.5058
 9020SOL    HW138696   0.131   4.427   3.167  0.7416 -0.5619 -0.1165
 9020SOL    HW238697   4.727   4.447   3.115 -0.6501 -0.1135  0.2970
 9021SOL     OW38698   4.179   0.180   5.564  0.6242  0.8483  0.1987
 9021SOL    HW138699   4.224   0.126   5.499 -0.1997 -1.1482  1.2875
 9021SOL    HW238700   4.090   0.172   5.528  1.2048 -0.5892 -0.9156
 9022SOL     OW38701   2.863   3.704   5.807 -0.3244 -0.0209  0.5739
 9022SOL    HW138702   2.906   3.753   5.878 -1.5729  1.8257  0.0773
 9022SOL    HW238703   2.793   3.660   5.856 -1.7140  1.0064 -0.4677
 9023SOL     OW38704   0.493   3.315   8.266  0.2296  0.4228  0.6678
 9023SOL    HW138705   0.568   3.348   8.316  0.6005  0.6681 -0.0474
 9023SOL    HW238706   0.492   3.371   8.188  0.9103 -0.6962 -0.1434
 9024SOL     OW38707   1.855   0.593   3.373 -0.0619  0.0106 -0.1830
 9024SOL    HW138708   1.850   0.526   3.441  1.2936 -0.7846 -0.8699
 9024SOL    HW238709   1.909   0.551   3.306 -0.4949 -1.9942  0.7156
 9025SOL     OW38710   0.444   2.299   1.709  0.2140  0.4294 -0.0159
 9025SOL    HW138711   0.530   2.332   1.734  0.5275 -1.9470  2.0052
 9025SOL    HW238712   0.402   2.372   1.662 -1.0670 -0.2164  0.1091
 9026SOL     OW38713   4.327   2.562  14.208 -0.0001 -0.1339 -0.5417
 9026SOL    HW138714   4.406   2.562  14.264  1.0370 -2.0072 -2.0058
 9026SOL    HW238715   4.274   2.493  14.247  0.4596  0.6798  1.5506
 9027SOL     OW38716   3.845   3.997   0.467  0.0310 -0.4617 -0.2724
 9027SOL    HW138717   3.806   3.996   0.554  2.0713 -0.3488  0.6266
 9027SOL    HW238718   3.858   3.902   0.465 -1.8228 -0.7872  3.4076
 9028SOL     OW38719   4.415   3.630   1.764 -0.3928 -0.1502 -0.2062
 9028SOL    HW138720   4.467   3.672   1.695  1.3610  0.2662  1.3751
 9028SOL    HW238721   4.474   3.613   1.838 -1.8135  1.0970  1.1995
 9029SOL     OW38722   0.770   0.433   8.387  0.1631  0.2658  0.6426
 9029SOL    HW138723   0.791   0.480   8.468  1.0241 -2.5084  2.0360
 9029SOL    HW238724   0.817   0.482   8.319  2.7053 -0.9464  1.5178
 9030SOL     OW38725   2.584   3.255   7.413 -0.1042 -0.0323 -0.8356
 9030SOL    HW138726   2.667   3.287   7.377 -1.3934  0.6682 -3.2016
 9030SOL    HW238727   2.605   3.162   7.417 -2.3990 -0.4909  0.5416
 9031SOL     OW38728   1.150   1.702   6.587  0.1053 -0.4461  0.0038
 9031SOL    HW138729   1.167   1.703   6.492 -1.5460 -0.5194 -0.2992
 9031SOL    HW238730   1.069   1.753   6.590 -0.2182 -0.7341 -3.3106
 9032SOL     OW38731   4.523   4.399   4.765 -0.2464 -0.4099 -0.0640
 9032SOL    HW138732   4.544   4.307   4.778 -0.2659 -0.3211  0.5728
 9032SOL    HW238733   4.612   4.426   4.745  0.0237 -1.6982 -0.6103
 9033SOL     OW38734   2.375   3.696   9.446 -0.4017  0.1023 -0.2074
 9033SOL    HW138735   2.428   3.617   9.460  0.2922  0.6176  0.0899
 9033SOL    HW238736   2.417   3.722   9.364  1.3128 -1.3076  0.2057
 9034SOL     OW38737   2.177   4.169   6.136 -0.2390 -0.0391  0.5142
 9034SOL    HW138738   2.141   4.139   6.053  0.6537  3.3905 -1.1330
 9034SOL    HW238739   2.104   4.218   6.174 -0.0616 -0.4539  1.3721
 9035SOL     OW38740   0.662   1.939   8.202  0.3142 -0.4931 -0.3511
 9035SOL    HW138741   0.675   1.845   8.211 -0.8953 -0.5184  1.0979
 9035SOL    HW238742   0.724   1.956   8.130  1.8043 -0.9440  0.8415
 9036SOL     OW38743   4.203   2.102   1.668 -0.4969 -0.1273 -0.0375
 9036SOL    HW138744   4.136   2.035   1.682 -0.5389  0.7678  4.3387
 9036SOL    HW238745   4.245   2.097   1.754 -0.1424  1.5033 -0.1313
 9037SOL     OW38746   3.243   0.458   7.457  0.4510  0.4969  0.3806
 9037SOL    HW138747   3.168   0.507   7.424  2.1966  1.7384 -1.7955
 9037SOL    HW238748   3.219   0.468   7.549  0.5926 -0.4236  0.5151
 9038SOL     OW38749   3.587   3.156   3.041 -0.7622 -1.0107  0.2029
 9038SOL    HW138750   3.639   3.232   3.067 -0.9648 -1.2631  1.3368
 9038SOL    HW238751   3.533   3.208   2.981 -0.0499 -1.9287 -1.2369
 9039SOL     OW38752   4.231   1.654   5.225 -0.2666  0.4065 -0.4195
 9039SOL    HW138753   4.186   1.716   5.167 -0.5148 -0.9020 -1.6378
 9039SOL    HW238754   4.301   1.717   5.244 -0.0343 -0.0296  0.1653
 9040SOL     OW38755   4.009   0.434   3.839  0.1750  0.0318  0.6633
 9040SOL    HW138756   3.953   0.422   3.916 -0.0613 -0.5725  0.3978
 9040SOL    HW238757   3.954   0.415   3.763  1.1681 -0.2619  0.0196
 9041SOL     OW38758   0.222   1.872   1.229 -0.3085  0.2855  0.8612
 9041SOL    HW138759   0.149   1.932   1.244  0.1023  0.5010  2.0342
 9041SOL    HW238760   0.252   1.868   1.320 -0.1730 -3.4142  0.6497
 9042SOL     OW38761   4.571   0.305   7.662 -0.4857 -0.7063  0.0508
 9042SOL    HW138762   4.593   0.218   7.630  0.3346 -0.1910 -0.7755
 9042SOL    HW238763   4.502   0.330   7.600 -0.9544 -0.7586  0.5456
 9043SOL     OW38764   3.935   4.536   1.353 -0.2617 -0.0036  0.0488
 9043SOL    HW138765   3.900   4.474   1.288  0.6140  0.6036 -0.9889
 9043SOL    HW238766   3.856   4.590   1.360 -1.4137 -1.4944 -1.3793
 9044SOL     OW38767   2.748   4.729  11.309  0.2303  0.2152 -0.3665
 9044SOL    HW138768   2.661   4.692  11.317  0.6044 -0.0332  2.5794
 9044SOL    HW238769   2.744   0.068  11.368  1.4464  1.2576 -1.6164
 9045SOL     OW38770   1.183   3.458   3.280  0.5215 -0.0978  0.2948
 9045SOL    HW138771   1.141   3.530   3.328 -2.3408 -1.7186  0.2017
 9045SOL    HW238772   1.124   3.439   3.208  1.5697 -0.1864 -0.5440
 9046SOL     OW38773   3.021   2.811   9.219  0.0547 -0.0954 -0.0450
 9046SOL    HW138774   3.117   2.814   9.223  0.0233  1.0248 -0.1155
 9046SOL    HW238775   2.996   2.838   9.131 -0.1942  0.3034  0.1515
 9047SOL     OW38776   1.897   4.222   1.140  0.3220  0.3830  1.0867
 9047SOL    HW138777   1.877   4.311   1.112  2.2923 -0.0879 -1.8554
 9047SOL    HW238778   1.959   4.249   1.208  2.8309  1.6114 -1.6927
 9048SOL     OW38779   1.641   0.681   3.511  0.6343 -0.2588 -0.0787
 9048SOL    HW138780   1.678   0.769   3.515  0.2939 -0.1646  1.3360
 9048SOL    HW238781   1.694   0.638   3.445  1.0276  0.3745 -0.1705
 9049SOL     OW38782   2.419   4.151  11.514  0.0817  0.0048 -0.7732
 9049SOL    HW138783   2.374   4.090  11.573  1.8758  1.4823  2.1288
 9049SOL    HW238784   2.484   4.197  11.567 -0.9945 -0.0560  0.6090
 9050SOL     OW38785   2.126   0.201  16.632 -0.3162 -0.1049  0.5022
 9050SOL    HW138786   2.071   0.276  16.653 -1.0641 -1.3617  2.9423
 9050SOL    HW238787   2.192   0.235  16.570 -0.4821 -0.6173  0.0446
 9051SOL     OW38788   3.610   2.941   1.851 -0.0944 -0.6654  0.3025
 9051SOL    HW138789   3.615   2.887   1.930  1.2658  0.4239  0.9658
 9051SOL    HW238790   3.596   3.031   1.879 -1.2439 -0.5594 -0.6140
 9052SOL     OW38791   3.494   3.979  13.483 -0.4380 -0.0455  0.3621
 9052SOL    HW138792   3.574   3.931  13.463 -0.4577  0.2808 -0.4978
 9052SOL    HW238793   3.525   4.026  13.560 -0.5368  0.5023  0.0702
 9053SOL     OW38794   2.726   2.495   2.015 -0.2263 -0.5655  0.3486
 9053SOL    HW138795   2.728   2.438   2.091 -0.4079  0.2499  0.9614
 9053SOL    HW238796   2.633   2.513   2.025  0.2716  2.3341 -0.3252
 9054SOL     OW38797   1.839   1.461   2.932 -0.1002  0.1789 -0.5908
 9054SOL    HW138798   1.865   1.532   2.992  0.0613 -0.2653 -0.1357
 9054SOL    HW238799   1.911   1.459   2.869 -0.6835  0.5370 -1.2623
 9055SOL     OW38800   0.764   1.849  17.312 -0.0282  0.1593  0.4844
 9055SOL    HW138801   0.696   1.782  17.325  1.2424 -0.9115  1.5246
 9055SOL    HW238802   0.770   1.865  17.218 -0.9943  2.6986  0.8504
 9056SOL     OW38803   2.551   2.607   3.756 -0.7296  0.4478 -0.0641
 9056SOL    HW138804   2.516   2.693   3.733 -2.4444 -0.0689  0.6038
 9056SOL    HW238805   2.473   2.553   3.742 -0.3714  0.1586 -0.9365
 9057SOL     OW38806   0.462   0.256   2.182  0.1994  0.2273 -0.0666
 9057SOL    HW138807   0.511   0.190   2.134 -2.6519  0.0431 -2.6720
 9057SOL    HW238808   0.530   0.310   2.223  0.0449  1.2060 -1.1052
 9058SOL     OW38809   1.720   1.245  17.584 -0.4286 -0.2311 -0.1754
 9058SOL    HW138810   1.791   1.305  17.608 -0.7888 -0.3358  1.1436
 9058SOL    HW238811   1.674   1.297  17.518 -1.0342  1.0169  1.2223
 9059SOL     OW38812   2.756   1.568  17.173 -0.4324  0.0633 -0.2412
 9059SOL    HW138813   2.819   1.621  17.222 -0.6555  1.0265 -0.9794
 9059SOL    HW238814   2.718   1.631  17.112  1.8047  1.3419 -0.3160
 9060SOL     OW38815   0.874   1.827   1.778 -1.2008 -1.0825  0.2938
 9060SOL    HW138816   0.834   1.812   1.693  0.0554 -0.2254 -0.4413
 9060SOL    HW238817   0.902   1.739   1.804 -2.1459 -1.1027  1.2344
 9061SOL     OW38818   1.682   0.115   3.233 -0.4114 -0.0050 -0.0182
 9061SOL    HW138819   1.591   0.119   3.206 -0.7347 -0.6385  0.9787
 9061SOL    HW238820   1.676   0.102   3.327 -0.4959 -2.1385 -0.3286
 9062SOL     OW38821   0.839   2.969   6.846  0.2913 -0.3076 -0.2619
 9062SOL    HW138822   0.839   2.904   6.917 -1.5425 -0.6370 -0.5736
 9062SOL    HW238823   0.808   3.050   6.886  2.1266 -0.1847  0.9333
 9063SOL     OW38824   3.976   1.760  14.537 -0.4788  0.1051 -0.2653
 9063SOL    HW138825   3.947   1.669  14.536  1.1668 -0.4416  2.8619
 9063SOL    HW238826   4.047   1.762  14.602 -0.3927 -0.1839 -0.3483
 9064SOL     OW38827   3.285   0.812   6.378 -0.2025 -0.0021 -0.0715
 9064SOL    HW138828   3.223   0.834   6.308 -0.8107 -0.6599  0.2558
 9064SOL    HW238829   3.360   0.869   6.363 -1.0439  0.4056 -2.8740
 9065SOL     OW38830   4.102   1.299   9.794 -0.0999 -0.6070 -0.3463
 9065SOL    HW138831   4.168   1.357   9.832 -0.8917  0.3598 -0.4630
 9065SOL    HW238832   4.042   1.288   9.868  0.1916  1.2594  0.1738
 9066SOL     OW38833   2.135   0.397   5.243 -0.5228  0.4461  0.1921
 9066SOL    HW138834   2.097   0.377   5.329 -2.5351 -1.0900 -1.0424
 9066SOL    HW238835   2.209   0.452   5.268 -1.5935  1.3094  1.4596
 9067SOL     OW38836   4.213   0.826   6.418 -0.1945 -0.1481  0.4255
 9067SOL    HW138837   4.262   0.833   6.336  1.9857 -0.2797  1.7343
 9067SOL    HW238838   4.189   0.734   6.416  1.6727 -0.6935  2.3692
 9068SOL     OW38839   0.741   1.484   6.132  0.0848  0.1421 -0.1468
 9068SOL    HW138840   0.756   1.452   6.043 -0.0018 -3.0454  0.9720
 9068SOL    HW238841   0.686   1.413   6.165  0.8379  0.2391  1.3061
 9069SOL     OW38842   2.781   2.588   1.775 -0.3359 -0.3098 -0.6406
 9069SOL    HW138843   2.765   2.504   1.731 -4.3056 -0.3251  0.8261
 9069SOL    HW238844   2.756   2.560   1.863  0.8193 -0.2722 -0.2944
 9070SOL     OW38845   0.646   2.714   7.972 -0.1599  0.2760 -0.0275
 9070SOL    HW138846   0.706   2.768   8.023  1.4164 -1.9340  0.4289
 9070SOL    HW238847   0.696   2.633   7.968  0.9604  1.0257 -1.2132
 9071SOL     OW38848   3.416   3.796  16.202 -0.7016  0.2060 -0.8094
 9071SOL    HW138849   3.500   3.776  16.162 -0.8496  1.0886 -1.5629
 9071SOL    HW238850   3.390   3.708  16.229 -1.5352 -0.3093 -3.3135
 9072SOL     OW38851   0.106   4.250   3.781 -0.4302  0.6045 -0.2291
 9072SOL    HW138852   0.067   4.330   3.816  0.4783  2.2954 -3.1059
 9072SOL    HW238853   0.139   4.276   3.695 -1.4159 -1.2636 -1.1846
 9073SOL     OW38854   0.419   3.606   2.908  0.1614  0.1333 -0.2712
 9073SOL    HW138855   0.417   3.530   2.966  1.6643  0.5861  0.3517
 9073SOL    HW238856   0.382   3.564   2.830  0.1350  2.5607 -1.5844
 9074SOL     OW38857   1.451   4.585  10.943  0.0375 -0.0917  0.1281
 9074SOL    HW138858   1.441   4.534  10.863 -0.8884 -1.4558  1.1292
 9074SOL    HW238859   1.401   4.524  10.997  0.0156 -0.6776 -0.5556
 9075SOL     OW38860   3.898   1.906   7.556  0.5330  0.0300 -0.5154
 9075SOL    HW138861   3.822   1.885   7.610  0.7953  2.1152  0.6321
 9075SOL    HW238862   3.931   1.987   7.594  0.2363 -0.3163  0.5059
 9076SOL     OW38863   0.928   3.943  13.644 -0.0108 -0.2670  0.5593
 9076SOL    HW138864   0.855   3.995  13.676  0.9962  0.4818  1.6544
 9076SOL    HW238865   0.988   3.966  13.714  1.2604  1.2513 -1.0322
 9077SOL     OW38866   1.839   0.789   9.318 -0.2262  0.2606  0.5665
 9077SOL    HW138867   1.809   0.861   9.263  0.5919  2.3634  2.8612
 9077SOL    HW238868   1.931   0.814   9.325  0.1487 -0.5672 -1.2262
 9078SOL     OW38869   2.899   2.025   6.351  0.3076  0.2743 -0.4397
 9078SOL    HW138870   2.898   2.091   6.420 -0.5043 -0.6265  0.4114
 9078SOL    HW238871   2.819   1.973   6.355  0.0848  0.5059 -1.7187
 9079SOL     OW38872   3.067   2.133   7.105 -0.1509 -0.6137 -0.0554
 9079SOL    HW138873   2.999   2.161   7.167  0.1974 -0.4682  0.2672
 9079SOL    HW238874   3.131   2.110   7.172 -0.1120 -1.2117 -0.2982
 9080SOL     OW38875   4.176   1.854  15.277  0.0796 -0.3621  0.2103
 9080SOL    HW138876   4.193   1.899  15.360  1.2524 -1.9544  0.8411
 9080SOL    HW238877   4.213   1.924  15.224  0.3450 -1.4517 -1.0443
 9081SOL     OW38878   0.936   2.856   7.712 -0.3488 -0.2266  0.1823
 9081SOL    HW138879   0.961   2.942   7.745  1.2621 -1.6764  2.7537
 9081SOL    HW238880   0.960   2.805   7.790 -0.1495 -0.5724 -0.1059
 9082SOL     OW38881   4.299   1.318  11.170  0.2260 -0.3040  0.8683
 9082SOL    HW138882   4.300   1.335  11.076  1.5815  1.2692  1.1735
 9082SOL    HW238883   4.254   1.234  11.167 -0.1496 -0.0374 -1.4355
 9083SOL     OW38884   0.312   3.220  15.815  0.3235 -0.2655  0.1662
 9083SOL    HW138885   0.312   3.263  15.900 -2.5061  0.8108 -0.3812
 9083SOL    HW238886   0.229   3.171  15.819 -0.7542  1.4607 -0.9988
 9084SOL     OW38887   1.396   2.345   4.755  0.5390  0.0719 -0.1223
 9084SOL    HW138888   1.418   2.271   4.812 -0.4783  0.7103  1.0770
 9084SOL    HW238889   1.374   2.300   4.673 -0.1016 -0.1486  0.1784
 9085SOL     OW38890   2.140   1.636   5.345 -0.1555 -0.6050  0.2125
 9085SOL    HW138891   2.227   1.669   5.320 -1.1218 -0.3733 -2.8626
 9085SOL    HW238892   2.165   1.551   5.381 -2.9950 -1.9626 -1.0154
 9086SOL     OW38893   1.588   0.288  13.424  0.1024 -0.0900  0.1149
 9086SOL    HW138894   1.495   0.294  13.400  0.4309  3.3659 -0.2700
 9086SOL    HW238895   1.592   0.366  13.478  0.1432 -1.3046  1.8634
 9087SOL     OW38896   4.560   2.267   0.646  0.2555  0.1131 -0.4119
 9087SOL    HW138897   4.544   2.246   0.738 -0.7064 -1.6954 -0.9901
 9087SOL    HW238898   4.486   2.220   0.608  1.4963 -0.7072 -1.7855
 9088SOL     OW38899   2.858   0.736  17.156  0.0351  0.2192  0.1707
 9088SOL    HW138900   2.952   0.721  17.140 -0.5649 -1.8788 -1.4154
 9088SOL    HW238901   2.855   0.831  17.150 -0.3588  0.1344 -0.8113
 9089SOL     OW38902   4.076   0.697   3.807 -0.3230  0.0176  0.2315
 9089SOL    HW138903   4.168   0.689   3.783 -0.5228  1.2225 -0.9485
 9089SOL    HW238904   4.046   0.621   3.857  2.7022 -1.0552  0.4104
 9090SOL     OW38905   4.328   1.928   8.495 -0.4351 -0.2469  0.1240
 9090SOL    HW138906   4.389   1.943   8.566  0.8067 -1.0175 -0.7854
 9090SOL    HW238907   4.357   1.981   8.421 -0.3952  0.7022  0.8338
 9091SOL     OW38908   1.655   1.321   2.772 -0.7225 -0.1511 -0.0518
 9091SOL    HW138909   1.720   1.354   2.835 -1.1459 -4.0610  2.4459
 9091SOL    HW238910   1.710   1.294   2.699 -2.7461  0.9116 -1.9412
 9092SOL     OW38911   2.947   4.634  16.405 -0.0143  0.3181 -0.1003
 9092SOL    HW138912   2.873   4.639  16.465 -0.2179 -1.8324 -0.1729
 9092SOL    HW238913   3.019   4.659  16.462 -0.8894 -1.1043  1.6571
 9093SOL     OW38914   0.986   0.373  14.647  0.5452  0.3532  0.6509
 9093SOL    HW138915   1.022   0.400  14.731 -2.5650  3.1474  1.1009
 9093SOL    HW238916   0.919   0.441  14.642  1.8744  1.6261  0.1538
 9094SOL     OW38917   3.451   4.315   4.123 -0.1785  0.1673  0.4156
 9094SOL    HW138918   3.402   4.306   4.205 -1.0332 -0.7242 -0.2053
 9094SOL    HW238919   3.537   4.290   4.159  0.5808 -1.3339 -2.5007
 9095SOL     OW38920   2.031   1.703  16.307  0.8742 -0.4922  0.1150
 9095SOL    HW138921   1.981   1.648  16.247 -2.3795  2.9171 -0.2685
 9095SOL    HW238922   2.028   1.788  16.264  2.4120 -0.2444  0.4974
 9096SOL     OW38923   0.480   1.927   1.140  0.7172 -0.0060 -0.2578
 9096SOL    HW138924   0.473   1.982   1.218  1.1176 -0.6092  0.2115
 9096SOL    HW238925   0.403   1.870   1.144  0.4958  0.2666 -0.6976
 9097SOL     OW38926   2.716   0.588   5.035  0.0384  0.0378 -0.2729
 9097SOL    HW138927   2.805   0.618   5.058  0.2096 -1.5242  1.1004
 9097SOL    HW238928   2.671   0.593   5.119 -0.6986  1.1212 -0.7392
 9098SOL     OW38929   1.002   4.288   1.593 -0.1025 -0.4538 -0.0449
 9098SOL    HW138930   1.022   4.218   1.655 -1.0177 -0.8800 -0.2382
 9098SOL    HW238931   1.012   4.365   1.650 -0.3215  0.1385 -0.8094
 9099SOL     OW38932   3.402   3.089   9.664 -0.4482 -0.3710  0.3888
 9099SOL    HW138933   3.436   3.139   9.590 -2.5711 -0.2779 -0.5339
 9099SOL    HW238934   3.313   3.125   9.668  0.3558  1.6822 -0.2186
 9100SOL     OW38935   1.920   1.594   5.175  0.1800  0.0141  0.6235
 9100SOL    HW138936   1.953   1.652   5.107  1.1728  0.7398  1.7251
 9100SOL    HW238937   1.999   1.589   5.228 -1.2489 -1.0737  2.6466
 9101SOL     OW38938   2.059   2.727   6.612  0.1352  0.0017  0.6259
 9101SOL    HW138939   1.983   2.694   6.660 -0.9837 -0.0776 -1.1794
 9101SOL    HW238940   2.017   2.734   6.526 -0.2939 -0.3120  0.8099
 9102SOL     OW38941   3.649   2.517   6.184 -0.4865 -0.3287 -0.0303
 9102SOL    HW138942   3.622   2.454   6.251  0.6897  0.4853  1.2087
 9102SOL    HW238943   3.739   2.490   6.162 -0.1024  0.8914  0.0590
 9103SOL     OW38944   1.601   2.966   8.563  0.1920 -0.0166 -0.9896
 9103SOL    HW138945   1.636   3.037   8.509  0.4808 -0.7958 -1.8530
 9103SOL    HW238946   1.514   2.962   8.523 -0.3066  0.5983  0.0634
 9104SOL     OW38947   4.048   3.876  17.463 -0.1146 -0.6579  0.2261
 9104SOL    HW138948   4.077   3.870  17.372 -2.0610 -2.8557 -0.2565
 9104SOL    HW238949   4.116   3.934  17.496  1.1744 -0.5396 -2.6154
 9105SOL     OW38950   4.019   2.357   9.994 -0.1806  0.2598  0.3409
 9105SOL    HW138951   4.055   2.389  10.077 -1.5177  0.0746  0.9801
 9105SOL    HW238952   4.026   2.440   9.947 -0.5398  0.4914  0.6960
 9106SOL     OW38953   2.773   2.024  16.782  0.9691 -0.1104 -0.1693
 9106SOL    HW138954   2.864   2.047  16.768  0.4891  0.8931 -1.6747
 9106SOL    HW238955   2.785   1.931  16.803  0.5110 -0.3698 -1.0617
 9107SOL     OW38956   3.839   2.778   4.689  0.1522  0.1860 -0.2120
 9107SOL    HW138957   3.880   2.693   4.675  2.6014  1.0132  2.0340
 9107SOL    HW238958   3.747   2.759   4.667  0.2801  0.6213 -1.0945
 9108SOL     OW38959   0.480   3.359   5.541 -0.3608  0.2634 -0.2430
 9108SOL    HW138960   0.514   3.383   5.454 -0.9260  2.6379  0.1971
 9108SOL    HW238961   0.496   3.265   5.542 -0.8549  0.1787 -0.3539
 9109SOL     OW38962   0.088   3.525   8.290 -0.2853  0.0262  0.1740
 9109SOL    HW138963   0.021   3.586   8.258  1.0195  2.2407  1.6010
 9109SOL    HW238964   0.167   3.562   8.250 -0.1313  2.1144  2.3823
 9110SOL     OW38965   3.589   2.852   2.340  0.0053 -0.3371 -0.0164
 9110SOL    HW138966   3.593   2.780   2.403  1.6665  0.7058  1.0609
 9110SOL    HW238967   3.652   2.912   2.378 -1.3066  2.0513 -1.6464
 9111SOL     OW38968   1.127   2.482   3.045 -0.2208  0.4191  0.2694
 9111SOL    HW138969   1.111   2.415   2.978 -0.7862  0.3527  0.4699
 9111SOL    HW238970   1.042   2.501   3.086 -1.7044 -1.2027 -2.0520
 9112SOL     OW38971   3.557   0.820  15.943 -0.0260 -0.4515  0.6099
 9112SOL    HW138972   3.530   0.909  15.964  1.1878 -0.1632  0.9764
 9112SOL    HW238973   3.473   0.779  15.925 -1.1736  2.1193  0.2306
 9113SOL     OW38974   2.885   1.028   9.261 -0.4855  0.1685 -0.1509
 9113SOL    HW138975   2.869   1.119   9.238  2.2534  0.1374 -2.0060
 9113SOL    HW238976   2.871   0.990   9.175  3.0586  2.2417 -1.6001
 9114SOL     OW38977   3.975   2.770   8.207 -0.2683  0.7548 -0.6179
 9114SOL    HW138978   3.938   2.803   8.126  0.1706 -0.7005 -1.4042
 9114SOL    HW238979   4.037   2.840   8.230 -0.0034  0.2253  0.3106
 9115SOL     OW38980   0.820   1.510   4.919 -0.1511 -0.2205 -0.4087
 9115SOL    HW138981   0.766   1.432   4.934  1.3931 -1.1425  0.3979
 9115SOL    HW238982   0.784   1.574   4.981  0.3840 -0.9480  0.6471
 9116SOL     OW38983   3.865   0.103   3.928  0.0912  0.2295 -0.1904
 9116SOL    HW138984   3.849   0.180   3.983  1.5106  0.0955  0.3957
 9116SOL    HW238985   3.785   0.110   3.875 -0.6899 -0.4230  0.8963
 9117SOL     OW38986   3.020   3.758   9.400 -0.0090 -0.4709 -0.1497
 9117SOL    HW138987   2.936   3.712   9.402 -0.4816  0.4519  1.6153
 9117SOL    HW238988   3.084   3.691   9.424  0.7906  0.6429  0.8649
 9118SOL     OW38989   0.462   3.331  15.225 -0.0195 -0.0916  0.4840
 9118SOL    HW138990   0.479   3.407  15.282  1.9083 -1.1628  1.3611
 9118SOL    HW238991   0.478   3.368  15.138  2.3699  1.1444  1.4378
 9119SOL     OW38992   4.232   2.638   6.871  0.1652 -0.4812 -0.4764
 9119SOL    HW138993   4.176   2.566   6.903 -1.1485  0.0266 -1.6300
 9119SOL    HW238994   4.219   2.699   6.943 -2.7451  1.0169 -2.2763
 9120SOL     OW38995   2.620   0.850   3.748  0.1150  0.5698  0.0334
 9120SOL    HW138996   2.604   0.838   3.842  0.9507 -0.0925  0.0938
 9120SOL    HW238997   2.696   0.793   3.735  1.1498  2.7476 -3.5454
 9121SOL     OW38998   2.099   0.398   7.612 -0.0045  0.6230 -0.1825
 9121SOL    HW138999   2.151   0.435   7.541  0.5156 -0.8651 -0.5761
 9121SOL    HW239000   2.140   0.427   7.693  2.9068  0.5537 -1.6588
 9122SOL     OW39001   0.346   3.988   1.724  0.1499  0.0211 -0.1321
 9122SOL    HW139002   0.337   3.922   1.655 -1.3864 -0.1752  0.2668
 9122SOL    HW239003   0.376   3.935   1.797 -1.0291  1.0272  1.0738
 9123SOL     OW39004   0.551   1.493   0.853  0.6406  0.2512  0.3284
 9123SOL    HW139005   0.466   1.531   0.833  0.2727 -0.8106 -0.0968
 9123SOL    HW239006   0.577   1.552   0.924 -0.3904 -1.0942  1.8171
 9124SOL     OW39007   1.758   2.631  10.117  0.4847 -0.2257 -0.1005
 9124SOL    HW139008   1.715   2.564  10.170  1.2006 -1.3175 -0.9208
 9124SOL    HW239009   1.773   2.693  10.189  2.0061 -0.2616 -0.3805
 9125SOL     OW39010   1.814   4.605   6.332 -0.5104 -0.7958  0.2467
 9125SOL    HW139011   1.845   4.585   6.421  0.2006  1.1390  0.4324
 9125SOL    HW239012   1.772   4.523   6.307 -0.1605 -0.5945 -1.0009
 9126SOL     OW39013   4.540   1.053   5.835  0.2329  0.2881 -0.4361
 9126SOL    HW139014   4.454   1.094   5.840  0.1784  0.2069 -0.6762
 9126SOL    HW239015   4.601   1.124   5.855 -0.4762  1.3417 -2.0492
 9127SOL     OW39016   2.660   3.364   5.798  0.0854  0.3704  0.0115
 9127SOL    HW139017   2.566   3.344   5.796  0.0852  0.3463  0.3357
 9127SOL    HW239018   2.662   3.421   5.874  0.3035 -1.3253  1.2645
 9128SOL     OW39019   1.052   1.183  16.676  0.1711 -0.3290  0.3402
 9128SOL    HW139020   1.145   1.170  16.654 -0.1643 -0.9123 -0.7497
 9128SOL    HW239021   1.013   1.103  16.641 -0.0859  0.5033 -1.2800
 9129SOL     OW39022   0.415   3.606   4.785  0.7331  0.2966  0.1420
 9129SOL    HW139023   0.397   3.526   4.835 -2.8424  0.1182 -1.4379
 9129SOL    HW239024   0.365   3.673   4.831 -0.3998  0.8888 -1.9399
 9130SOL     OW39025   1.105   3.313  16.378 -0.3453 -0.2778  0.1959
 9130SOL    HW139026   1.098   3.309  16.474 -1.0710 -2.2339  0.0645
 9130SOL    HW239027   1.152   3.396  16.371  0.6371 -0.8493  0.1306
 9131SOL     OW39028   3.726   4.582   9.049  0.3581 -0.5890  0.1154
 9131SOL    HW139029   3.788   4.542   8.988  0.4887  2.0857 -1.5004
 9131SOL    HW239030   3.787   4.627   9.108  1.7377 -1.3363 -0.7443
 9132SOL     OW39031   1.666   0.826   4.078  0.1570 -0.1064  0.5093
 9132SOL    HW139032   1.675   0.921   4.086  1.8648 -0.1328 -0.9927
 9132SOL    HW239033   1.667   0.819   3.983  0.9146 -1.6694  0.6343
 9133SOL     OW39034   0.530   0.793   7.821  0.0265 -0.4180  0.2883
 9133SOL    HW139035   0.499   0.713   7.864  0.3730 -1.3631 -1.2063
 9133SOL    HW239036   0.549   0.854   7.892  1.7201 -0.4310 -0.1621
 9134SOL     OW39037   4.666   0.348  12.604  0.2651 -1.1411  0.7990
 9134SOL    HW139038   4.731   0.295  12.558  1.4755  0.1276  1.0430
 9134SOL    HW239039   4.588   0.293  12.591 -1.4981  1.3752  0.7838
 9135SOL     OW39040   0.274   1.520  12.215 -0.1276 -0.6927 -0.1313
 9135SOL    HW139041   0.366   1.497  12.228  0.2623  0.2070 -1.2232
 9135SOL    HW239042   0.228   1.437  12.214  1.9171 -1.8527  2.2679
 9136SOL     OW39043   4.027   3.337  17.101 -0.1021 -0.0780  0.0957
 9136SOL    HW139044   4.017   3.306  17.011  2.2339  0.7547 -0.4481
 9136SOL    HW239045   3.956   3.283  17.136 -0.0973 -0.5789 -0.6707
 9137SOL     OW39046   2.172   0.126   6.474  0.3661  0.5185  0.2736
 9137SOL    HW139047   2.105   0.153   6.536  0.1527  1.9969 -0.6160
 9137SOL    HW239048   2.247   0.112   6.532 -1.2211  0.7882  2.3691
 9138SOL     OW39049   3.290   4.304   4.363  0.2610  0.2282 -0.1729
 9138SOL    HW139050   3.196   4.320   4.352  0.4582 -0.5992 -2.9794
 9138SOL    HW239051   3.313   4.376   4.422  0.7645  1.3201 -1.7040
 9139SOL     OW39052   2.691   2.062  16.265  0.0808  0.0094 -0.3967
 9139SOL    HW139053   2.690   2.003  16.191 -0.9004 -0.5603  0.0703
 9139SOL    HW239054   2.600   2.092  16.270 -0.0461 -0.3639 -0.5007
 9140SOL     OW39055   1.294   0.374   9.288  0.1246 -0.0943 -0.3102
 9140SOL    HW139056   1.341   0.374   9.205 -1.0341 -0.9256 -0.9523
 9140SOL    HW239057   1.211   0.411   9.257 -0.6251 -0.7356  0.9156
 9141SOL     OW39058   1.530   4.496   2.071  0.0082  0.0544  0.3467
 9141SOL    HW139059   1.570   4.516   1.986  1.2188 -1.1355  0.6380
 9141SOL    HW239060   1.603   4.455   2.116  0.4493 -1.2978 -1.5976
 9142SOL     OW39061   3.459   3.432   5.170  0.3155 -0.1324 -0.9626
 9142SOL    HW139062   3.551   3.439   5.196 -0.3240  2.1766  0.5998
 9142SOL    HW239063   3.429   3.346   5.199 -0.9702  0.6330 -0.0770
 9143SOL     OW39064   1.951   3.503  14.317  0.5564 -0.6768 -0.3512
 9143SOL    HW139065   1.995   3.421  14.295 -1.2531 -1.6238 -0.4126
 9143SOL    HW239066   2.024   3.552  14.354  0.3381 -2.0604  1.8927
 9144SOL     OW39067   3.274   1.995  13.996 -0.6463 -0.0157  0.2483
 9144SOL    HW139068   3.260   1.948  13.914 -0.1146  0.3319 -0.0348
 9144SOL    HW239069   3.322   1.925  14.040 -0.3627 -0.0201 -0.0693
 9145SOL     OW39070   4.062   2.594   7.229 -0.2092 -0.4441  0.7567
 9145SOL    HW139071   4.141   2.585   7.282 -0.8599  2.1729  2.1804
 9145SOL    HW239072   4.000   2.646   7.280 -0.3178 -0.5462  0.7271
 9146SOL     OW39073   2.995   3.705   3.295 -0.5446 -0.2586  0.0652
 9146SOL    HW139074   3.008   3.799   3.307 -0.1492  0.0022 -2.6263
 9146SOL    HW239075   3.015   3.681   3.386  0.3298 -3.0759 -0.9077
 9147SOL     OW39076   3.031   3.247  17.028 -0.1626  0.6157  0.5544
 9147SOL    HW139077   2.961   3.236  16.963  0.9297  2.2289 -0.9181
 9147SOL    HW239078   3.105   3.274  16.974  0.1621 -0.8662  0.2587
 9148SOL     OW39079   4.213   3.677   7.364  0.0285 -0.6010  0.1477
 9148SOL    HW139080   4.300   3.689   7.402 -0.6225 -1.1504  1.8045
 9148SOL    HW239081   4.164   3.722   7.433  0.1934 -1.3662  0.7672
 9149SOL     OW39082   0.557   0.956   3.492 -0.2385 -0.1577  0.1297
 9149SOL    HW139083   0.566   0.983   3.401 -2.7882  2.1505  0.5525
 9149SOL    HW239084   0.497   1.026   3.517  0.4725 -0.4423  2.6038
 9150SOL     OW39085   4.428   3.326   8.201  0.1544 -0.6745 -0.4252
 9150SOL    HW139086   4.481   3.374   8.137  0.6492 -0.3472  0.2335
 9150SOL    HW239087   4.384   3.400   8.243 -2.2232 -1.8323 -0.8828
 9151SOL     OW39088   0.664   2.055   2.641 -0.2899  0.2149  0.3197
 9151SOL    HW139089   0.691   1.963   2.644 -1.0946 -0.1212 -2.2309
 9151SOL    HW239090   0.712   2.079   2.720 -0.5317 -0.3720  0.6460
 9152SOL     OW39091   3.551   3.543   8.394  0.7270  0.6201  0.0906
 9152SOL    HW139092   3.462   3.573   8.375  0.5868  0.5841  0.6993
 9152SOL    HW239093   3.595   3.580   8.317  1.2575  0.4596  0.3150
 9153SOL     OW39094   4.026   2.626   5.518  0.1659  0.3964 -0.4610
 9153SOL    HW139095   3.986   2.672   5.444  2.5589 -1.7378 -3.0209
 9153SOL    HW239096   3.953   2.636   5.580  0.4916 -0.8280  0.1108
 9154SOL     OW39097   0.427   1.559   7.749 -0.2484  1.0532 -0.3693
 9154SOL    HW139098   0.518   1.542   7.725 -0.1086  2.1594 -0.6260
 9154SOL    HW239099   0.438   1.591   7.838 -2.1419  1.1441 -0.1587
 9155SOL     OW39100   4.006   3.892  13.790  0.3657  0.6386  0.1698
 9155SOL    HW139101   4.003   3.968  13.849  0.4344  0.5349  0.3076
 9155SOL    HW239102   4.097   3.862  13.789 -0.3055 -1.4634  2.1046
 9156SOL     OW39103   2.131   2.542   5.295 -0.2869  0.1725 -0.8752
 9156SOL    HW139104   2.195   2.487   5.341  1.0636  0.3884 -2.4937
 9156SOL    HW239105   2.111   2.603   5.366 -0.5448 -1.8031  0.7547
 9157SOL     OW39106   0.495   2.434  13.096 -0.0543  0.2295 -0.3058
 9157SOL    HW139107   0.443   2.357  13.071 -0.9106  0.0854  1.9688
 9157SOL    HW239108   0.563   2.395  13.151  0.5522  0.5820 -0.8023
 9158SOL     OW39109   3.397   1.436   8.165  0.0684 -0.1299 -0.2551
 9158SOL    HW139110   3.389   1.391   8.249 -0.8543 -0.9576 -0.7874
 9158SOL    HW239111   3.415   1.362   8.107  0.2390  0.0975 -0.5006
 9159SOL     OW39112   2.355   0.460  11.930 -0.1903 -0.5828  1.0798
 9159SOL    HW139113   2.305   0.512  11.868 -1.1201 -1.9406  0.7082
 9159SOL    HW239114   2.394   0.529  11.984  2.7868 -1.0004 -0.5174
 9160SOL     OW39115   2.843   1.386   6.940 -0.2785 -0.2205 -0.3362
 9160SOL    HW139116   2.747   1.387   6.941 -0.2763 -0.2639 -0.1018
 9160SOL    HW239117   2.839   1.414   6.848  1.0009  1.0775  0.0167
 9161SOL     OW39118   4.147   4.554  14.528  0.4407  0.6850  0.9043
 9161SOL    HW139119   4.058   4.517  14.527  0.1441  1.4388 -0.8294
 9161SOL    HW239120   4.193   4.508  14.458 -0.8382 -0.6551  0.9343
 9162SOL     OW39121   4.308   1.713   8.309  0.1248 -0.5088 -0.0668
 9162SOL    HW139122   4.347   1.772   8.374 -0.2863 -0.6568  0.3146
 9162SOL    HW239123   4.242   1.772   8.273  0.8141  1.7101  2.3042
 9163SOL     OW39124   4.540   0.030   0.770  0.1096 -0.1130 -0.4394
 9163SOL    HW139125   4.454   0.006   0.804  1.2819 -0.6042  2.1700
 9163SOL    HW239126   4.591   0.030   0.851 -0.3614  0.5281 -0.1384
 9164SOL     OW39127   4.324   3.352  14.039  0.2211  0.0586 -0.1197
 9164SOL    HW139128   4.404   3.330  13.992  1.3126  0.1198  1.7038
 9164SOL    HW239129   4.322   3.289  14.111 -0.1242  0.1019 -0.0911
 9165SOL     OW39130   2.709   0.310   9.891 -0.2379  0.0610  0.0758
 9165SOL    HW139131   2.623   0.279   9.919  0.2412 -0.8599  0.5226
 9165SOL    HW239132   2.759   0.235   9.924  0.4755  1.0010  1.1275
 9166SOL     OW39133   0.966   1.185   7.007 -0.2391  0.1323  0.3827
 9166SOL    HW139134   0.943   1.239   6.932  3.0085  0.1779 -0.5515
 9166SOL    HW239135   1.045   1.150   6.968 -1.6978  0.1895 -2.5755
 9167SOL     OW39136   3.260   2.295   6.427 -0.3684 -0.2419  0.2732
 9167SOL    HW139137   3.256   2.256   6.515 -1.1349  1.7403  1.1067
 9167SOL    HW239138   3.198   2.367   6.442 -0.4375 -0.0268 -1.1229
 9168SOL     OW39139   2.502   0.211   9.282  0.4668  0.0916  0.0731
 9168SOL    HW139140   2.466   0.206   9.194  1.5202 -0.2051 -0.3371
 9168SOL    HW239141   2.538   0.125   9.305 -0.8786 -0.3388  0.5381
 9169SOL     OW39142   0.446   2.092  11.855 -0.4772 -0.2085 -0.1030
 9169SOL    HW139143   0.464   2.025  11.789  1.8576 -0.0899  0.4088
 9169SOL    HW239144   0.389   2.155  11.811 -0.9327 -0.1526  0.5588
 9170SOL     OW39145   0.183   2.799  12.517 -0.7594  0.8810 -0.0417
 9170SOL    HW139146   0.088   2.790  12.526 -0.7800  1.0702 -0.0732
 9170SOL    HW239147   0.205   2.892  12.525 -1.5050  1.2230 -1.8103
 9171SOL     OW39148   3.658   3.225   6.528 -0.3976  0.2492  0.3195
 9171SOL    HW139149   3.695   3.179   6.452 -2.3008  0.6397 -0.8454
 9171SOL    HW239150   3.722   3.292   6.550  2.0227 -1.8340 -0.3073
 9172SOL     OW39151   0.538   2.164  12.388  0.0260 -0.3448  0.1126
 9172SOL    HW139152   0.533   2.068  12.387  2.4526 -0.4734 -0.0105
 9172SOL    HW239153   0.465   2.183  12.329 -1.4751 -1.4673  1.6069
 9173SOL     OW39154   0.479   1.454   0.039  0.1796  0.0444 -0.6272
 9173SOL    HW139155   0.430   1.486  17.709  0.7136 -0.0231 -1.0036
 9173SOL    HW239156   0.538   1.393  17.739  0.2425  0.0523 -0.5561
 9174SOL     OW39157   1.979   0.087   6.962  0.3359 -0.8333 -0.3592
 9174SOL    HW139158   1.948   0.003   6.930  0.2072 -1.0767  0.3973
 9174SOL    HW239159   2.062   0.060   7.000 -0.0609  0.5152  1.4891
 9175SOL     OW39160   1.331   1.505  10.693  0.1476 -0.2802  0.1603
 9175SOL    HW139161   1.349   1.494  10.786 -1.5244  0.1009  0.5344
 9175SOL    HW239162   1.266   1.438  10.672  1.0881 -1.8448  2.2771
 9176SOL     OW39163   2.126   1.356   7.273  0.4303 -0.1873  0.0562
 9176SOL    HW139164   2.150   1.345   7.181  2.4441 -1.3957  0.7276
 9176SOL    HW239165   2.130   1.451   7.281 -4.6276 -0.0642  0.9496
 9177SOL     OW39166   1.537   3.023  14.734 -0.4325  0.3730  0.0171
 9177SOL    HW139167   1.587   3.048  14.656 -0.2030  0.0154  0.0516
 9177SOL    HW239168   1.478   3.095  14.755 -1.7872 -0.9593  0.7297
 9178SOL     OW39169   4.574   2.649   6.397 -0.5588  0.2836 -0.2166
 9178SOL    HW139170   4.651   2.595   6.377 -0.0530  0.2898  1.7137
 9178SOL    HW239171   4.612   2.707   6.463 -0.2112  0.6953 -0.7781
 9179SOL     OW39172   2.344   2.074   3.828  0.1776  0.2112  0.0518
 9179SOL    HW139173   2.290   2.021   3.769 -0.6278  1.6506 -0.5035
 9179SOL    HW239174   2.275   2.121   3.874 -1.4482  0.1974 -2.3642
 9180SOL     OW39175   2.616   2.168   9.027 -0.8956  0.0787 -0.1032
 9180SOL    HW139176   2.528   2.180   9.063 -1.3312 -1.9756 -0.4868
 9180SOL    HW239177   2.661   2.128   9.101 -1.7486  0.3906  0.5830
 9181SOL     OW39178   2.686   1.937  16.007  0.0375  0.3844  0.3476
 9181SOL    HW139179   2.649   1.992  15.938  0.5649  1.1413  0.6639
 9181SOL    HW239180   2.699   1.855  15.959  0.7801 -0.1562  1.4744
 9182SOL     OW39181   0.899   2.115   1.996 -0.0426  0.1545  0.2290
 9182SOL    HW139182   0.895   2.019   2.000  0.5183  0.0403 -2.0324
 9182SOL    HW239183   0.841   2.131   1.922  0.8014  1.4744 -0.1368
 9183SOL     OW39184   3.405   1.198   8.316  0.4683 -0.2674 -0.2844
 9183SOL    HW139185   3.364   1.151   8.243  1.5874 -1.9388  0.1500
 9183SOL    HW239186   3.357   1.173   8.396 -0.0229  1.0744 -0.1669
 9184SOL     OW39187   2.310   3.001  17.283 -0.1968 -0.0706  0.3914
 9184SOL    HW139188   2.280   3.087  17.310 -1.0439 -0.1475 -0.3165
 9184SOL    HW239189   2.243   2.970  17.222 -1.4770  2.7242  0.3548
 9185SOL     OW39190   4.259   3.217   5.933  0.0218 -0.0709  0.6056
 9185SOL    HW139191   4.242   3.304   5.897 -0.2087 -0.3349  0.0915
 9185SOL    HW239192   4.172   3.176   5.931  1.5116 -3.2668  1.1588
 9186SOL     OW39193   2.056   2.999   6.678  0.2668 -0.5568 -0.4127
 9186SOL    HW139194   1.964   3.011   6.704  0.1888  0.0667 -0.9758
 9186SOL    HW239195   2.060   2.904   6.686  1.7310 -0.5926 -1.6573
 9187SOL     OW39196   1.253   4.378   9.541  0.1234  0.3298  0.2894
 9187SOL    HW139197   1.211   4.318   9.603 -0.8070  1.2619  0.5493
 9187SOL    HW239198   1.339   4.341   9.524 -0.2329  0.1668 -1.1325
 9188SOL     OW39199   1.223   3.488   7.051  0.1375  0.4181 -0.6416
 9188SOL    HW139200   1.278   3.562   7.025  0.9389 -0.9582 -2.8797
 9188SOL    HW239201   1.286   3.428   7.091 -0.4275  0.5921  0.4986
 9189SOL     OW39202   1.400   0.696   9.928 -0.0339 -0.3905  0.8832
 9189SOL    HW139203   1.309   0.701   9.960  0.0416 -0.5364  1.1181
 9189SOL    HW239204   1.379   0.630   9.863  0.5487  1.5380 -1.2784
 9190SOL     OW39205   0.509   2.359   7.381  0.1537 -0.5811  0.0956
 9190SOL    HW139206   0.524   2.268   7.355  1.0421 -0.1250 -1.0137
 9190SOL    HW239207   0.474   2.352   7.469 -0.1820  1.6246  0.1421
 9191SOL     OW39208   3.996   4.271   8.701 -0.3744  0.0272  0.6392
 9191SOL    HW139209   4.087   4.295   8.687 -1.2291  1.7204 -1.9708
 9191SOL    HW239210   3.985   4.198   8.641 -0.7304  1.4230 -0.9909
 9192SOL     OW39211   2.616   3.552   5.336  0.4644  0.1256 -0.4286
 9192SOL    HW139212   2.623   3.457   5.327 -0.7555  0.0402 -0.3994
 9192SOL    HW239213   2.700   3.577   5.375  0.5981 -0.3507 -0.4030
 9193SOL     OW39214   3.493   0.566   8.766 -0.6990 -0.4957 -0.3539
 9193SOL    HW139215   3.398   0.564   8.772 -0.6595  0.0794  0.4978
 9193SOL    HW239216   3.514   0.476   8.741  0.1580 -0.4013  0.0305
 9194SOL     OW39217   0.624   1.477   7.326 -0.7109 -0.9619 -0.0702
 9194SOL    HW139218   0.627   1.438   7.238 -1.2227 -1.5805  0.1845
 9194SOL    HW239219   0.541   1.525   7.318 -0.5741 -0.5340  1.2083
 9195SOL     OW39220   0.253   2.701  12.241 -0.3817 -0.1343 -0.1540
 9195SOL    HW139221   0.321   2.765  12.220  1.8920 -1.5217  3.1594
 9195SOL    HW239222   0.225   2.746  12.320 -3.0682 -3.2773  0.7026
 9196SOL     OW39223   2.556   4.060  14.855 -0.4461 -0.0817  0.3696
 9196SOL    HW139224   2.621   4.077  14.923  0.8187 -0.7475 -0.6740
 9196SOL    HW239225   2.613   4.019  14.790 -0.5692 -0.4945  0.5216
 9197SOL     OW39226   3.455   0.045   2.754 -0.0577  0.2356 -0.5501
 9197SOL    HW139227   3.540   0.008   2.778 -0.3183  2.1614  3.3596
 9197SOL    HW239228   3.400   4.704   2.767  1.2986 -0.7625 -0.8465
 9198SOL     OW39229   2.510   2.397  13.270 -0.3367  0.0667  0.5029
 9198SOL    HW139230   2.488   2.344  13.346 -0.6420  1.1160  1.1512
 9198SOL    HW239231   2.479   2.482  13.301  2.8132  2.0928 -1.9758
 9199SOL     OW39232   2.899   1.862  15.660 -0.1109 -0.2057 -0.0570
 9199SOL    HW139233   2.948   1.848  15.740 -0.2064 -1.8079 -0.2848
 9199SOL    HW239234   2.952   1.847  15.581  0.7043 -0.4871  0.5471
 9200SOL     OW39235   3.046   3.608   2.497 -0.9521  0.0266 -0.8864
 9200SOL    HW139236   3.093   3.536   2.454  0.1973 -1.0657  2.2157
 9200SOL    HW239237   2.963   3.564   2.513 -0.2952  0.4651  3.6526
 9201SOL     OW39238   0.781   4.241  14.722  0.2570 -0.8059 -0.3786
 9201SOL    HW139239   0.718   4.170  14.706  0.1989 -0.8961  0.2583
 9201SOL    HW239240   0.854   4.201  14.677 -0.2563 -1.2398 -0.8244
 9202SOL     OW39241   0.992   1.725  11.961 -0.3823  0.0755  0.7111
 9202SOL    HW139242   0.941   1.762  11.888  0.2730 -0.4064  0.0045
 9202SOL    HW239243   1.046   1.801  11.982 -1.0505  0.1203  2.2415
 9203SOL     OW39244   4.405   2.881   5.681 -0.2846 -0.1018 -0.1744
 9203SOL    HW139245   4.443   2.967   5.662  1.3998 -0.3310  2.2054
 9203SOL    HW239246   4.458   2.828   5.622  0.1049  0.2290 -0.1242
 9204SOL     OW39247   1.930   4.337   8.495 -0.4652  0.5565 -0.0019
 9204SOL    HW139248   1.961   4.271   8.557  0.8382  1.6144  0.4761
 9204SOL    HW239249   2.016   4.376   8.480 -0.0361  0.1491  1.3730
 9205SOL     OW39250   1.103   2.170   4.159  0.4344 -0.0714  0.0173
 9205SOL    HW139251   1.016   2.178   4.119  1.5016 -1.7345 -2.6831
 9205SOL    HW239252   1.072   2.140   4.244 -2.8925  1.9622 -0.4699
 9206SOL     OW39253   0.009   3.642   5.273 -0.1897 -0.2545 -0.7063
 9206SOL    HW139254   0.075   3.578   5.300 -1.2278 -1.0584 -0.0558
 9206SOL    HW239255   4.690   3.580   5.225  0.0972 -0.3038 -0.9766
 9207SOL     OW39256   3.852   1.315   9.101 -0.5299 -0.3117 -0.4552
 9207SOL    HW139257   3.922   1.274   9.152  0.5041  0.9846 -0.7941
 9207SOL    HW239258   3.782   1.310   9.165 -0.6554 -1.3617 -0.6778
 9208SOL     OW39259   0.040   3.472  15.489  0.5335 -0.0414  0.0180
 9208SOL    HW139260   0.114   3.413  15.507  0.2787 -0.7110 -1.1230
 9208SOL    HW239261   0.080   3.533  15.427 -0.3839  1.9076  1.3527
 9209SOL     OW39262   0.275   3.766   9.398 -0.4575  0.1481  0.0829
 9209SOL    HW139263   0.296   3.679   9.365 -2.1230 -0.5850  0.9536
 9209SOL    HW239264   0.181   3.766   9.415 -0.3228 -0.3305  0.8235
 9210SOL     OW39265   0.265   1.177   6.765  0.8371 -0.3475  0.1346
 9210SOL    HW139266   0.329   1.139   6.825  0.0586 -0.0734  1.1539
 9210SOL    HW239267   0.314   1.252   6.731  1.9078 -1.8292 -1.5733
 9211SOL     OW39268   0.208   3.649  16.276 -0.3224 -0.0769 -0.4628
 9211SOL    HW139269   0.230   3.688  16.360 -1.6931 -2.6451  1.1039
 9211SOL    HW239270   0.238   3.719  16.218 -1.0632 -0.2028 -1.0079
 9212SOL     OW39271   0.659   3.249   3.427  0.1342 -0.3799  0.4200
 9212SOL    HW139272   0.627   3.193   3.498 -0.8630  2.0045  1.8195
 9212SOL    HW239273   0.580   3.256   3.372  0.8147  2.8036 -0.1130
 9213SOL     OW39274   4.188   1.959   1.063  0.7835 -0.1841 -0.5273
 9213SOL    HW139275   4.150   1.874   1.043 -0.1998  0.2661 -0.5959
 9213SOL    HW239276   4.272   1.939   1.104 -0.4060 -1.8179  1.0522
 9214SOL     OW39277   0.858   3.188  17.123 -0.5647 -0.6208  0.1625
 9214SOL    HW139278   0.845   3.094  17.128 -0.1046 -0.8274 -2.3805
 9214SOL    HW239279   0.811   3.212  17.203  1.0324 -0.3942  1.0353
 9215SOL     OW39280   2.568   4.214   2.050  0.2795 -0.4595  0.1207
 9215SOL    HW139281   2.619   4.287   2.086 -1.7519  1.5189 -1.0526
 9215SOL    HW239282   2.556   4.243   1.960 -0.4847 -0.3845  0.2531
 9216SOL     OW39283   3.877   1.014  13.910  0.1634  0.1094  0.4398
 9216SOL    HW139284   3.946   0.995  13.974  2.0961 -1.3472 -2.0962
 9216SOL    HW239285   3.877   0.927  13.869 -1.9162  0.6062 -0.5973
 9217SOL     OW39286   2.707   2.348  14.601 -1.0842  0.2500  0.4825
 9217SOL    HW139287   2.659   2.287  14.657  0.8972  0.2185  2.1366
 9217SOL    HW239288   2.709   2.303  14.516 -1.0743  0.2374  0.4894
 9218SOL     OW39289   0.399   0.607   4.117 -0.0382  0.0659 -0.3613
 9218SOL    HW139290   0.353   0.534   4.159  0.8706 -0.2395  0.1158
 9218SOL    HW239291   0.375   0.605   4.025  1.6073 -0.4187 -0.7770
 9219SOL     OW39292   4.282   1.580   6.385  0.1184  0.3104  0.1857
 9219SOL    HW139293   4.198   1.534   6.388 -0.2556  1.0042  0.3396
 9219SOL    HW239294   4.269   1.674   6.372  2.0264  0.7791  1.6799
 9220SOL     OW39295   3.108   4.004   6.430  0.2415  0.0240 -0.2969
 9220SOL    HW139296   3.121   4.054   6.510  1.0337 -0.0023 -0.4158
 9220SOL    HW239297   3.053   3.931   6.460 -2.3368  2.8913  2.0256
 9221SOL     OW39298   3.998   0.585   2.857  0.2216 -0.4051 -0.5970
 9221SOL    HW139299   4.044   0.642   2.919 -1.3466  1.2864 -0.9985
 9221SOL    HW239300   3.992   0.508   2.915  0.1536  0.4218  0.4929
 9222SOL     OW39301   2.186   2.624   7.985  0.1448  0.1918 -0.3440
 9222SOL    HW139302   2.269   2.644   8.027 -0.5079  0.2565  0.9267
 9222SOL    HW239303   2.200   2.534   7.957 -1.9267 -0.4401  0.6402
 9223SOL     OW39304   4.365   4.103   4.329  0.7195  0.0193 -0.4867
 9223SOL    HW139305   4.363   4.008   4.345 -2.1809  0.0199 -0.9476
 9223SOL    HW239306   4.447   4.108   4.280  0.1500 -1.7339 -1.6071
 9224SOL     OW39307   0.438   3.149   7.680  0.2305 -0.4623 -0.0745
 9224SOL    HW139308   0.468   3.237   7.700  1.5596 -0.5356 -1.7965
 9224SOL    HW239309   0.386   3.133   7.759 -0.4321 -0.6735 -0.5567
 9225SOL     OW39310   3.595   3.543   4.538  0.6009 -0.0236 -0.2829
 9225SOL    HW139311   3.617   3.570   4.627  0.8058 -0.5045 -0.1858
 9225SOL    HW239312   3.633   3.620   4.497  1.7362  0.4118  1.6077
 9226SOL     OW39313   2.714   1.756  15.813 -0.6376 -0.5475  0.8407
 9226SOL    HW139314   2.645   1.743  15.749  0.7223  0.8606 -0.9042
 9226SOL    HW239315   2.765   1.807  15.750 -0.6533 -0.4856  0.8774
 9227SOL     OW39316   0.159   1.943  16.959 -0.2056 -0.1947  0.0950
 9227SOL    HW139317   0.112   1.947  17.042 -2.4456 -1.2220 -1.1501
 9227SOL    HW239318   0.250   1.933  16.988 -0.1323 -3.1745 -1.1131
 9228SOL     OW39319   3.289   3.423   6.056  0.0645 -0.1854  0.0918
 9228SOL    HW139320   3.310   3.482   5.983 -0.7058  0.0117  0.0388
 9228SOL    HW239321   3.221   3.363   6.028  1.0535  0.0602 -2.9035
 9229SOL     OW39322   2.620   2.706   4.145 -0.2552  0.2297 -0.4075
 9229SOL    HW139323   2.595   2.753   4.225 -1.4190 -1.1772  0.0530
 9229SOL    HW239324   2.689   2.766   4.116 -0.1738 -0.3864 -1.4809
 9230SOL     OW39325   1.714   1.950   1.778  0.2742 -0.7954  0.3006
 9230SOL    HW139326   1.619   1.947   1.786  0.1026  0.9398 -0.8747
 9230SOL    HW239327   1.733   2.018   1.713  0.5666 -0.8271  0.3528
 9231SOL     OW39328   3.218   2.807   5.761 -0.1008 -0.2282 -0.1368
 9231SOL    HW139329   3.181   2.741   5.701 -1.0454 -0.5470  0.7945
 9231SOL    HW239330   3.265   2.870   5.706  1.4099 -0.1444  1.2607
 9232SOL     OW39331   1.131   4.357   5.400 -0.6866  0.5613  0.2456
 9232SOL    HW139332   1.046   4.328   5.367 -1.1731  1.3122  0.8455
 9232SOL    HW239333   1.151   4.432   5.344 -0.7240  0.7916  0.5435
 9233SOL     OW39334   1.811   3.472  13.164  0.5756 -0.1167  0.5331
 9233SOL    HW139335   1.740   3.437  13.218 -1.7012  2.7668 -0.6304
 9233SOL    HW239336   1.772   3.557  13.143  3.4360  1.3323  1.1936
 9234SOL     OW39337   3.833   4.030  17.548 -0.7772 -0.4400  0.2641
 9234SOL    HW139338   3.840   4.064  17.459 -0.6167 -0.5103  0.2505
 9234SOL    HW239339   3.911   3.976  17.533 -0.3790  0.2958 -0.3433
 9235SOL     OW39340   1.936   1.063   3.875 -0.6240  0.2295  0.2385
 9235SOL    HW139341   2.028   1.074   3.900 -1.0278 -0.3268  1.9176
 9235SOL    HW239342   1.911   1.155   3.869 -2.3021 -0.2583 -0.3436
 9236SOL     OW39343   1.158   0.275  12.763  0.0193 -0.3897 -0.4804
 9236SOL    HW139344   1.090   0.216  12.730 -1.2279  1.1753 -0.6778
 9236SOL    HW239345   1.099   0.349  12.777  1.0639 -0.1553  2.6981
 9237SOL     OW39346   3.947   3.677   9.241 -0.5616 -0.1374  0.0661
 9237SOL    HW139347   4.006   3.748   9.217  0.0164 -0.4492  0.5615
 9237SOL    HW239348   3.911   3.715   9.321 -1.3162  0.5300 -0.5874
 9238SOL     OW39349   4.300   1.149  13.195 -0.1183 -0.1464 -0.3177
 9238SOL    HW139350   4.367   1.126  13.259 -1.3920 -0.6697  0.8114
 9238SOL    HW239351   4.257   1.064  13.187 -0.5434  0.0738 -0.3897
 9239SOL     OW39352   3.054   2.279   4.425 -0.2277  0.1620  0.0813
 9239SOL    HW139353   2.975   2.276   4.371  0.2899  1.5696 -0.7240
 9239SOL    HW239354   3.018   2.300   4.512  0.3733  1.9159 -0.1075
 9240SOL     OW39355   2.097   1.479   8.422  0.3978 -0.9155 -0.1306
 9240SOL    HW139356   2.018   1.439   8.461  0.1189  1.5264  1.8186
 9240SOL    HW239357   2.114   1.428   8.343  4.8724  0.0710  0.2549
 9241SOL     OW39358   2.011   0.435   3.212 -0.3005 -0.4182 -0.3409
 9241SOL    HW139359   2.102   0.406   3.216 -0.2219 -0.2251 -0.6774
 9241SOL    HW239360   1.972   0.370   3.153  0.8589 -1.3559 -0.0518
 9242SOL     OW39361   0.579   3.926   1.494  0.0891  0.0789  0.2059
 9242SOL    HW139362   0.544   3.980   1.422 -2.5278 -1.9766 -0.0338
 9242SOL    HW239363   0.501   3.882   1.527 -0.8149  1.6995  0.2436
 9243SOL     OW39364   2.899   2.036   7.466 -0.4891 -0.9890  0.1148
 9243SOL    HW139365   2.810   2.001   7.464 -1.5456  1.6194  0.8387
 9243SOL    HW239366   2.955   1.985   7.409  1.8711 -1.6243  2.9951
 9244SOL     OW39367   1.358   0.488   3.113  0.3725  0.1320 -0.6500
 9244SOL    HW139368   1.304   0.416   3.079  2.8163  0.0453 -4.3752
 9244SOL    HW239369   1.356   0.473   3.207  2.6928 -0.5995 -0.7033
 9245SOL     OW39370   1.107   3.739   7.114  0.1778  0.3291  0.1624
 9245SOL    HW139371   1.185   3.755   7.167  0.3510  3.1426 -0.9565
 9245SOL    HW239372   1.131   3.648   7.094  0.0411 -0.0314  1.6408
 9246SOL     OW39373   2.943   4.638   7.232  0.2325 -0.3820  0.0895
 9246SOL    HW139374   2.935   4.564   7.292 -0.9453 -0.2597  0.0850
 9246SOL    HW239375   2.854   4.670   7.247 -0.0867 -0.5118 -1.5458
 9247SOL     OW39376   0.689   4.307  15.890  0.4874 -0.2238 -0.0879
 9247SOL    HW139377   0.731   4.243  15.832  1.9196  0.0806  0.6138
 9247SOL    HW239378   0.703   4.257  15.970  0.7127 -0.3276 -0.1917
 9248SOL     OW39379   1.517   0.086   1.740 -0.3715  0.1579 -0.2375
 9248SOL    HW139380   1.457   0.015   1.719  0.8926 -0.7657 -0.7255
 9248SOL    HW239381   1.530   0.124   1.653  0.0931  0.2486 -0.1272
 9249SOL     OW39382   0.024   2.344   8.069 -0.2845  0.0874 -0.2321
 9249SOL    HW139383   0.063   2.285   8.134 -0.9132  1.4044  1.3601
 9249SOL    HW239384   0.022   2.432   8.108 -1.6877 -0.5959  1.1974
 9250SOL     OW39385   4.339   3.299   2.013 -0.3034 -0.3680  0.0975
 9250SOL    HW139386   4.244   3.310   2.009 -0.4317 -1.0362  1.2280
 9250SOL    HW239387   4.351   3.219   1.961  1.3200  0.5510 -0.9461
 9251SOL     OW39388   1.825   0.743  14.177 -0.3654 -0.3518 -0.0948
 9251SOL    HW139389   1.800   0.782  14.261 -0.4861  0.8567 -0.6860
 9251SOL    HW239390   1.856   0.824  14.138 -0.1431 -0.7089 -0.6493
 9252SOL     OW39391   1.212   3.769   6.717 -0.0708 -0.6395 -0.1581
 9252SOL    HW139392   1.239   3.729   6.634 -0.5045 -1.2728  0.0012
 9252SOL    HW239393   1.285   3.825   6.740 -1.6129  1.0097  0.7002
 9253SOL     OW39394   2.809   1.475   6.700 -0.1130 -0.4937 -0.3308
 9253SOL    HW139395   2.815   1.410   6.631 -0.4169  0.6050 -1.3914
 9253SOL    HW239396   2.745   1.536   6.662  0.7732  0.4576 -0.3162
 9254SOL     OW39397   1.340   3.359   4.001 -0.0797 -0.4010  0.2126
 9254SOL    HW139398   1.365   3.415   4.074 -0.6016  2.4976 -1.8262
 9254SOL    HW239399   1.279   3.410   3.947 -0.6318 -1.5538 -0.2519
 9255SOL     OW39400   0.086   0.466   8.019 -0.1906  0.2793  0.1826
 9255SOL    HW139401   0.148   0.402   7.986 -0.7667  0.1593 -0.6459
 9255SOL    HW239402   0.092   0.538   7.956  1.5631  0.5192  0.6465
 9256SOL     OW39403   0.180   1.474   1.815  0.1636  0.2674 -0.0902
 9256SOL    HW139404   0.168   1.464   1.721  2.2498 -0.4146 -0.2750
 9256SOL    HW239405   0.167   1.382   1.839  0.1300 -0.0891 -1.5073
 9257SOL     OW39406   4.586   1.620   5.830 -0.5044  0.5400 -0.4904
 9257SOL    HW139407   4.649   1.671   5.880 -0.9479 -0.3352  0.9575
 9257SOL    HW239408   4.554   1.695   5.779 -3.5624 -1.8001 -2.0736
 9258SOL     OW39409   2.040   1.258   9.921  0.2734  1.1236  0.1287
 9258SOL    HW139410   2.027   1.353   9.919 -2.8074  0.7683  1.8926
 9258SOL    HW239411   2.059   1.228   9.832  0.6631 -1.1576  0.9670
 9259SOL     OW39412   3.124   3.001   4.734  0.3712  0.3936 -0.1088
 9259SOL    HW139413   3.029   2.988   4.732  0.4851 -0.6676  0.9557
 9259SOL    HW239414   3.121   3.091   4.767  0.3337  0.4165 -0.1746
 9260SOL     OW39415   2.794   1.230   8.092  0.2735  0.3719 -0.3813
 9260SOL    HW139416   2.881   1.246   8.127  0.4137  0.1007 -0.6072
 9260SOL    HW239417   2.810   1.200   8.003 -2.2820 -0.8084 -0.4384
 9261SOL     OW39418   2.325   3.854  15.432 -0.6575  0.0936  0.1614
 9261SOL    HW139419   2.412   3.814  15.426 -1.1118 -0.7722 -0.8628
 9261SOL    HW239420   2.354   3.936  15.470  0.6331 -0.1902 -0.2010
 9262SOL     OW39421   2.410   4.159   9.744  0.2663  0.5387 -0.2776
 9262SOL    HW139422   2.368   4.079   9.712  0.4804  0.3160 -0.0032
 9262SOL    HW239423   2.344   4.227   9.733  0.4402  0.5391 -1.2925
 9263SOL     OW39424   1.168   0.834   5.329 -0.4537 -0.4074  0.5028
 9263SOL    HW139425   1.090   0.846   5.275  0.2777  3.5818  0.3456
 9263SOL    HW239426   1.145   0.893   5.400  0.5281 -0.5885  0.9625
 9264SOL     OW39427   3.421   3.305   2.906 -0.1043 -0.7513 -0.1384
 9264SOL    HW139428   3.480   3.335   2.838 -1.2035 -2.5316 -1.8860
 9264SOL    HW239429   3.368   3.384   2.914  0.3501 -0.4206 -0.4285
 9265SOL     OW39430   3.299   0.884   2.519  0.3428  0.0841  0.1616
 9265SOL    HW139431   3.379   0.933   2.536  0.6594 -0.9372  1.5834
 9265SOL    HW239432   3.261   0.944   2.455 -0.9005 -1.6607 -0.7512
 9266SOL     OW39433   3.651   1.377   9.793  0.7360  0.0626 -0.1843
 9266SOL    HW139434   3.643   1.468   9.768  1.2074  0.1175 -0.1325
 9266SOL    HW239435   3.635   1.344   9.705  1.8734 -1.0818  0.0372
 9267SOL     OW39436   4.281   0.481   7.650 -1.3459 -0.6992  0.4583
 9267SOL    HW139437   4.201   0.487   7.598 -0.5265 -0.8704 -0.8118
 9267SOL    HW239438   4.340   0.441   7.586 -3.4483 -0.3099 -1.7356
 9268SOL     OW39439   0.038   3.868   6.534  0.5854 -0.2265 -0.0677
 9268SOL    HW139440   0.002   3.826   6.456 -1.0256  0.4678  0.3019
 9268SOL    HW239441   0.069   3.793   6.585  0.2143  0.3114  0.9502
 9269SOL     OW39442   0.207   3.478  10.965 -0.3787 -0.3246  0.5385
 9269SOL    HW139443   0.115   3.503  10.952 -0.0951  1.5841  2.2817
 9269SOL    HW239444   0.187   3.475  11.059 -0.0116  2.1679  0.7156
 9270SOL     OW39445   4.284   2.897   7.883 -0.4098  0.7343 -0.4877
 9270SOL    HW139446   4.288   2.982   7.928  1.6716 -0.5143  1.6293
 9270SOL    HW239447   4.202   2.860   7.915  0.2572  0.3911  0.8370
 9271SOL     OW39448   2.800   0.562  17.337 -0.3341 -0.5123 -0.3589
 9271SOL    HW139449   2.826   0.632  17.277  3.1411  0.8378  2.6841
 9271SOL    HW239450   2.808   0.615  17.417 -0.5207 -0.0205 -0.6659
 9272SOL     OW39451   1.371   1.024   5.123  0.2613  0.4042  0.5917
 9272SOL    HW139452   1.375   0.932   5.148 -2.1990  0.0313 -0.3935
 9272SOL    HW239453   1.397   1.022   5.031 -0.5449  0.1221  0.3726
 9273SOL     OW39454   2.678   3.763   1.451  0.6276  0.0645  0.8550
 9273SOL    HW139455   2.604   3.812   1.488  2.2229  0.4299  3.5723
 9273SOL    HW239456   2.710   3.830   1.391  0.2094 -0.8237 -0.3655
 9274SOL     OW39457   1.984   3.749  11.871  0.3132  0.4677 -0.0802
 9274SOL    HW139458   1.930   3.750  11.792  0.6442  2.6667 -0.2805
 9274SOL    HW239459   2.050   3.813  11.843 -1.5236  2.6013  0.4377
 9275SOL     OW39460   3.723   1.891   7.770 -0.9973  0.4486  0.1433
 9275SOL    HW139461   3.634   1.873   7.799 -0.7567  2.9641  2.4387
 9275SOL    HW239462   3.780   1.877   7.845  0.3668 -0.3541 -1.0409
 9276SOL     OW39463   3.394   1.159   2.510  0.2565  0.0019 -0.7074
 9276SOL    HW139464   3.469   1.101   2.521  0.5329  0.6033  0.5607
 9276SOL    HW239465   3.403   1.192   2.420 -3.1889  2.1224 -0.3075
 9277SOL     OW39466   4.025   1.322  14.770  0.5227  0.1312  0.4234
 9277SOL    HW139467   4.029   1.229  14.750  0.4677  0.1904  0.1347
 9277SOL    HW239468   3.999   1.339  14.860  1.5532 -1.2253  0.9585
 9278SOL     OW39469   2.891   1.589   7.992  0.4878 -0.4537 -0.1809
 9278SOL    HW139470   2.956   1.527   7.958 -0.2152 -0.5351 -1.3954
 9278SOL    HW239471   2.941   1.662   8.026 -1.6654 -0.0703  2.1488
 9279SOL     OW39472   3.288   2.380   9.978  0.1559 -0.1097  0.1751
 9279SOL    HW139473   3.333   2.327   9.912 -0.0451 -0.8472  0.6226
 9279SOL    HW239474   3.300   2.327  10.057 -1.9384  1.0273  1.2473
 9280SOL     OW39475   1.109   3.998   3.186  0.2887 -0.5672  0.3255
 9280SOL    HW139476   1.110   4.091   3.162 -1.8646 -0.4333  0.7201
 9280SOL    HW239477   1.078   4.002   3.276  0.5863  0.8113  0.3816
 9281SOL     OW39478   4.009   0.019   2.944  0.2912 -0.2368  0.2668
 9281SOL    HW139479   4.010   0.101   2.894 -0.0621 -1.1200 -1.1702
 9281SOL    HW239480   4.090   4.717   2.910  1.2306  1.9094  0.0597
 9282SOL     OW39481   3.392   1.432   6.197  0.0452 -0.1493  0.1893
 9282SOL    HW139482   3.370   1.345   6.164  1.9336  0.3417 -2.4173
 9282SOL    HW239483   3.411   1.417   6.290 -0.0749  1.9433  0.5508
 9283SOL     OW39484   3.586   3.564   6.028 -0.4584 -0.2894 -0.0904
 9283SOL    HW139485   3.563   3.518   6.109  1.7894  0.0823  0.7405
 9283SOL    HW239486   3.591   3.655   6.059  0.3459 -0.1369 -0.6622
 9284SOL     OW39487   2.196   2.360   2.298  0.0642 -0.1253  0.4324
 9284SOL    HW139488   2.278   2.338   2.342  1.1746  2.6671 -0.2277
 9284SOL    HW239489   2.138   2.361   2.375  0.0070 -1.0228  0.3988
 9285SOL     OW39490   3.558   1.091   0.774 -0.2209  0.0486  1.0043
 9285SOL    HW139491   3.543   1.068   0.866 -0.6282  0.5332  1.0582
 9285SOL    HW239492   3.506   1.171   0.781 -2.2829 -1.3208  1.4333
 9286SOL     OW39493   3.804   3.365  17.393 -0.6155 -0.1059  0.2829
 9286SOL    HW139494   3.797   3.283  17.344 -2.3904  1.1905 -1.6137
 9286SOL    HW239495   3.853   3.332  17.468 -0.9769 -1.5753 -0.1216
 9287SOL     OW39496   1.321   1.100  15.791 -0.1767  0.2096  0.6013
 9287SOL    HW139497   1.412   1.086  15.766  0.0244  0.6558  1.0985
 9287SOL    HW239498   1.329   1.057  15.876  2.5694 -0.5268 -0.0189
 9288SOL     OW39499   1.506   3.161   3.184 -0.1411  0.2327 -0.1371
 9288SOL    HW139500   1.565   3.115   3.244 -2.6269 -0.9452  1.3548
 9288SOL    HW239501   1.452   3.093   3.145 -0.2949 -1.0956  2.3616
 9289SOL     OW39502   3.558   3.675   2.834  0.2439 -0.5414 -0.2543
 9289SOL    HW139503   3.555   3.725   2.753  1.4573  1.7502  1.1194
 9289SOL    HW239504   3.468   3.685   2.867  0.2899  1.4816 -0.7405
 9290SOL     OW39505   3.549   4.377   3.003 -0.5669 -0.1217 -0.3941
 9290SOL    HW139506   3.554   4.471   2.984 -0.4376 -0.5090 -2.2256
 9290SOL    HW239507   3.459   4.367   3.035  0.0016 -1.8138  0.6494
 9291SOL     OW39508   1.644   1.160   7.544 -0.2134 -0.8240 -0.1658
 9291SOL    HW139509   1.687   1.075   7.532  2.3374  0.4307  0.0322
 9291SOL    HW239510   1.710   1.214   7.587 -1.1379 -0.1531  0.4129
 9292SOL     OW39511   2.228   1.607   7.334  0.0029 -0.4148 -0.3881
 9292SOL    HW139512   2.305   1.558   7.302 -1.6039 -0.1760 -4.6749
 9292SOL    HW239513   2.281   1.665   7.388  1.1429 -3.1087  1.4377
 9293SOL     OW39514   2.995   0.663   3.065  0.3780 -0.2505 -0.1939
 9293SOL    HW139515   3.035   0.646   2.980 -1.0168  0.6870 -1.0543
 9293SOL    HW239516   3.043   0.738   3.099  0.1304 -0.4160  0.5171
 9294SOL     OW39517   4.344   4.067   9.260  0.5677 -0.4237 -0.2652
 9294SOL    HW139518   4.319   4.093   9.171 -0.2075  0.6007  0.2382
 9294SOL    HW239519   4.257   4.060   9.299 -0.4063  1.4400 -2.0640
 9295SOL     OW39520   4.625   4.077   3.914  0.2016  0.3112 -0.9975
 9295SOL    HW139521   4.681   4.114   3.845  0.6854  0.3492 -0.5880
 9295SOL    HW239522   4.618   3.987   3.883  1.4878  0.0473 -0.5407
 9296SOL     OW39523   3.369   4.640   1.438  0.4077 -0.1381  0.5271
 9296SOL    HW139524   3.309   4.653   1.365  1.8887 -0.3939 -0.7156
 9296SOL    HW239525   3.324   4.684   1.510  3.4045  0.0682  2.3011
 9297SOL     OW39526   3.352   1.893   4.200  0.3779 -0.3782  0.6748
 9297SOL    HW139527   3.280   1.921   4.143 -1.7698 -3.6552  1.7703
 9297SOL    HW239528   3.312   1.913   4.285 -2.3259 -1.0058 -0.4520
 9298SOL     OW39529   2.766   0.252   1.303  0.8611 -0.1503 -0.0479
 9298SOL    HW139530   2.765   0.182   1.238  0.1186 -1.5028  1.4403
 9298SOL    HW239531   2.767   0.203   1.385 -0.6240  3.3302  2.0734
 9299SOL     OW39532   0.449   1.160   9.232  0.0341 -0.5228  0.6091
 9299SOL    HW139533   0.499   1.088   9.269  0.6819 -0.7092 -0.6248
 9299SOL    HW239534   0.510   1.208   9.176  0.8404  0.1907  2.0954
 9300SOL     OW39535   4.720   0.158   8.091  0.3269  0.6887  0.0111
 9300SOL    HW139536   0.025   0.234   8.050 -0.9707  0.6545 -1.3558
 9300SOL    HW239537   4.688   0.106   8.017  0.1561 -0.6141  1.0117
 9301SOL     OW39538   0.637   0.652   1.442 -0.0946 -0.3458  0.4588
 9301SOL    HW139539   0.680   0.566   1.442  0.3609 -0.1233 -1.7028
 9301SOL    HW239540   0.713   0.709   1.436  1.3767 -2.1081  2.3393
 9302SOL     OW39541   3.983   0.038   7.004 -0.4286  0.1196  0.2043
 9302SOL    HW139542   3.934   0.110   7.042  0.7663  0.5251  0.9798
 9302SOL    HW239543   3.913   4.709   7.000  1.3544 -1.7933  0.0505
 9303SOL     OW39544   3.021   0.943   7.784  0.1527  0.3773  0.1136
 9303SOL    HW139545   3.016   0.985   7.870 -0.1535 -1.5427  1.0514
 9303SOL    HW239546   3.039   0.855   7.819  0.7563  0.1048 -0.8811
 9304SOL     OW39547   2.934   0.010   9.358  0.3361 -0.2906  0.1638
 9304SOL    HW139548   3.007   0.071   9.358  0.3712 -0.3260  1.7435
 9304SOL    HW239549   2.890   0.033   9.440 -0.2966 -0.8716 -0.0190
 9305SOL     OW39550   2.071   3.279   4.552  0.2033  0.6734  0.2460
 9305SOL    HW139551   2.111   3.362   4.578  0.6716 -0.2672  2.4957
 9305SOL    HW239552   2.038   3.306   4.466 -0.5539  1.8727  0.9261
 9306SOL     OW39553   3.773   4.597   7.834  0.0104 -0.2302 -0.2193
 9306SOL    HW139554   3.858   4.640   7.847  0.1351 -1.0405  1.6339
 9306SOL    HW239555   3.734   4.641   7.758  0.3613 -0.0570 -0.3011
 9307SOL     OW39556   0.638   3.233   4.629 -0.0802 -0.0629 -0.2038
 9307SOL    HW139557   0.656   3.319   4.667  0.1757 -0.4250  0.5123
 9307SOL    HW239558   0.574   3.265   4.566  0.3522  0.2107 -0.4996
 9308SOL     OW39559   1.801   0.533  11.998 -0.0713  0.1795  0.0238
 9308SOL    HW139560   1.777   0.508  11.909 -0.5365 -0.2474  0.2695
 9308SOL    HW239561   1.744   0.605  12.025  1.4364  0.7700  1.6490
 9309SOL     OW39562   0.589   2.520   4.421 -0.1409 -0.3960  0.7874
 9309SOL    HW139563   0.658   2.462   4.387  1.1533  2.2426 -1.0569
 9309SOL    HW239564   0.563   2.549   4.334 -1.5964 -0.8145  1.0948
 9310SOL     OW39565   3.171   1.488   5.324  0.4552  0.2751  0.1507
 9310SOL    HW139566   3.212   1.414   5.367 -0.8833 -1.1090 -0.9480
 9310SOL    HW239567   3.153   1.446   5.240  0.3533  1.2351 -0.3071
 9311SOL     OW39568   2.642   3.860   6.919 -0.4240 -0.0564 -0.0562
 9311SOL    HW139569   2.603   3.947   6.931 -2.9687 -1.1722 -0.1070
 9311SOL    HW239570   2.722   3.881   6.871 -1.2953 -2.6840 -2.6715
 9312SOL     OW39571   4.575   3.198  11.893  0.1644 -0.0025  0.0532
 9312SOL    HW139572   4.494   3.246  11.878 -0.2218 -0.1892  1.5270
 9312SOL    HW239573   4.646   3.263  11.892 -1.3243  1.6068  0.3178
 9313SOL     OW39574   1.096   3.911   4.499 -0.0822 -0.4490 -0.4692
 9313SOL    HW139575   1.139   3.995   4.480  0.4777 -1.2628 -2.7371
 9313SOL    HW239576   1.105   3.900   4.594  3.3212  2.6989 -0.4347
 9314SOL     OW39577   3.812   1.342   0.865 -0.2028  0.2719 -0.1742
 9314SOL    HW139578   3.847   1.253   0.862 -0.9543  0.0726 -3.2820
 9314SOL    HW239579   3.731   1.323   0.912 -0.2436  0.5042 -0.1543
 9315SOL     OW39580   3.593   1.463   4.277 -0.5826 -0.3802 -0.4523
 9315SOL    HW139581   3.502   1.456   4.306 -0.3791  1.3301  0.5516
 9315SOL    HW239582   3.576   1.539   4.221 -0.9093  0.5328  0.9102
 9316SOL     OW39583   4.165   2.959   6.143 -0.4574 -0.3898 -0.2207
 9316SOL    HW139584   4.193   2.952   6.052  1.9291  1.8966  0.3514
 9316SOL    HW239585   4.168   2.871   6.182 -1.0528 -1.2543 -2.1085
 9317SOL     OW39586   3.160   2.434   7.034  0.1660 -0.3133  0.1891
 9317SOL    HW139587   3.106   2.420   7.112 -0.7881  0.6895 -0.3029
 9317SOL    HW239588   3.214   2.511   7.053  0.7205 -0.6035 -0.2057
 9318SOL     OW39589   4.373   0.993   0.038  0.2185 -0.2003  0.1473
 9318SOL    HW139590   4.399   0.908   0.073 -0.5669 -1.0827 -1.3867
 9318SOL    HW239591   4.442   1.043   0.079 -1.7941  0.8081  2.2858
 9319SOL     OW39592   4.008   4.463   8.075  0.6806 -0.3197  0.2983
 9319SOL    HW139593   4.065   4.432   8.004  0.4707  0.8660 -0.3889
 9319SOL    HW239594   4.032   4.555   8.083  0.2904 -0.1857 -0.0399
 9320SOL     OW39595   1.647   1.004   3.002 -0.2028  0.0498  0.0836
 9320SOL    HW139596   1.733   1.024   2.966  0.2243 -0.9729  0.5113
 9320SOL    HW239597   1.661   1.030   3.093 -0.0609  0.8580 -0.1703
 9321SOL     OW39598   1.391   1.971   2.444  0.3035 -0.7220  0.2777
 9321SOL    HW139599   1.350   1.950   2.359  1.2432 -0.5270 -0.2178
 9321SOL    HW239600   1.463   1.909   2.448  0.9004  0.1813  3.2708
 9322SOL     OW39601   1.028   0.653   3.747 -0.2675 -0.0041  0.2887
 9322SOL    HW139602   1.008   0.713   3.675  0.3076 -0.1280  0.0254
 9322SOL    HW239603   0.944   0.608   3.758 -1.3377  2.4574  2.1205
 9323SOL     OW39604   2.544   2.552   2.364 -0.1096  0.0910 -0.2555
 9323SOL    HW139605   2.469   2.513   2.408 -0.5767  0.5614 -0.6340
 9323SOL    HW239606   2.606   2.479   2.367 -1.0999 -0.8069 -1.5600
 9324SOL     OW39607   0.687   2.177  16.604 -0.6975 -0.3588  0.8948
 9324SOL    HW139608   0.597   2.145  16.590 -0.8718  0.5300  0.0351
 9324SOL    HW239609   0.711   2.096  16.650  0.2659 -0.9080 -0.5883
 9325SOL     OW39610   0.350   2.077   0.815  0.1824 -0.3373 -0.5310
 9325SOL    HW139611   0.372   2.170   0.817 -0.2278 -0.2510  0.1698
 9325SOL    HW239612   0.257   2.100   0.812  0.3094  0.9555  4.8180
 9326SOL     OW39613   1.082   4.035   8.411 -0.5857  0.1317  0.1820
 9326SOL    HW139614   1.013   4.066   8.352 -0.7755 -1.5838 -0.4841
 9326SOL    HW239615   1.158   4.070   8.364 -1.2023  2.1467  0.7026
 9327SOL     OW39616   2.625   3.670   9.236 -0.5930  0.4560  0.2551
 9327SOL    HW139617   2.699   3.705   9.287 -0.7999 -0.3409  1.0943
 9327SOL    HW239618   2.607   3.598   9.295 -1.5477  0.6165  0.1598
 9328SOL     OW39619   2.507   4.707   9.744  0.0086 -0.4673  0.7036
 9328SOL    HW139620   2.416   4.718   9.717  1.0732  1.6492 -2.0481
 9328SOL    HW239621   2.494   4.670   9.831 -1.3233 -1.2212  0.1775
 9329SOL     OW39622   3.622   1.783   1.935 -0.2350 -0.0799 -0.4587
 9329SOL    HW139623   3.690   1.848   1.920  0.3312 -0.2799  1.2694
 9329SOL    HW239624   3.630   1.722   1.861  0.4690  0.2068 -0.6097
 9330SOL     OW39625   3.569   0.772   8.317  0.2741 -0.2322 -0.5557
 9330SOL    HW139626   3.576   0.769   8.413  2.1792  0.0508 -0.6765
 9330SOL    HW239627   3.475   0.790   8.315  0.9310  3.0367 -1.6310
 9331SOL     OW39628   1.083   2.746   6.451 -0.1649  0.2782 -0.1243
 9331SOL    HW139629   1.060   2.814   6.514 -1.6306  0.9951 -1.4111
 9331SOL    HW239630   1.038   2.673   6.494  0.7776  0.4000  1.0638
 9332SOL     OW39631   0.928   4.470   7.781  0.3195  0.0227  0.0869
 9332SOL    HW139632   0.922   4.530   7.707  2.6336  1.2445  0.9161
 9332SOL    HW239633   0.918   4.528   7.856  0.8329 -0.5615  0.6035
 9333SOL     OW39634   4.626   0.660   9.755  0.3394 -0.0537  0.1287
 9333SOL    HW139635   4.606   0.604   9.679 -1.4279  1.8642 -0.8185
 9333SOL    HW239636   4.572   0.736   9.734  0.2668 -0.2328 -0.3320
 9334SOL     OW39637   3.972   3.126   6.289  0.0439  0.0447  0.5768
 9334SOL    HW139638   3.902   3.061   6.300  0.9603 -1.0056  0.2372
 9334SOL    HW239639   4.050   3.073   6.272 -0.7085 -0.4831 -1.2325
 9335SOL     OW39640   4.203   2.388   2.022  0.3814 -0.7105  0.2714
 9335SOL    HW139641   4.191   2.301   1.984  0.8525 -1.1586  1.1638
 9335SOL    HW239642   4.207   2.443   1.943  1.1087  0.0640  0.8507
 9336SOL     OW39643   2.770   2.481   3.901 -0.5030  0.5430  0.7030
 9336SOL    HW139644   2.818   2.562   3.917 -0.0408  0.2548  0.8007
 9336SOL    HW239645   2.688   2.513   3.865 -1.1946 -2.1977 -0.1894
 9337SOL     OW39646   4.479   1.153  12.966 -0.1891 -0.5156 -0.6309
 9337SOL    HW139647   4.427   1.178  13.043  0.2369 -2.7634  0.3834
 9337SOL    HW239648   4.401   1.145  12.911 -1.1712  1.0319  0.4982
 9338SOL     OW39649   1.948   3.350   1.139  0.3950  0.3716 -0.4495
 9338SOL    HW139650   1.902   3.288   1.196 -0.6022  0.0927 -1.5643
 9338SOL    HW239651   2.041   3.328   1.148  0.2317  0.3472  1.1407
 9339SOL     OW39652   2.100   4.728   4.130 -0.3124 -0.3743 -0.0408
 9339SOL    HW139653   2.153   4.714   4.052 -0.1915  1.1630 -0.2415
 9339SOL    HW239654   2.019   4.679   4.122 -1.0434  0.8737 -0.3479
 9340SOL     OW39655   4.105   0.204   5.951 -0.2550  0.1922  1.2011
 9340SOL    HW139656   4.056   0.126   5.924 -0.7474  0.6647  0.7401
 9340SOL    HW239657   4.076   0.266   5.885 -0.0968 -2.4258 -1.3533
 9341SOL     OW39658   0.202   2.424   5.654  0.2583 -0.4270  0.0714
 9341SOL    HW139659   0.265   2.486   5.691 -0.4137 -0.8146  1.8572
 9341SOL    HW239660   0.129   2.482   5.635 -1.5742 -3.0275 -0.9237
 9342SOL     OW39661   2.456   3.381   3.662 -0.0942  0.5323  0.0293
 9342SOL    HW139662   2.472   3.473   3.682  1.0060  0.6177 -1.2439
 9342SOL    HW239663   2.510   3.366   3.585 -1.2751  1.3782 -0.9562
 9343SOL     OW39664   4.618   0.486   3.380  0.6261  0.8090  0.2712
 9343SOL    HW139665   4.523   0.472   3.377  0.3887  2.9480 -1.6461
 9343SOL    HW239666   4.642   0.548   3.312  1.8519  0.7873  0.6881
 9344SOL     OW39667   4.480   1.762  15.144  0.5828 -0.0291  0.3145
 9344SOL    HW139668   4.556   1.782  15.198  0.4097 -0.5381  0.7565
 9344SOL    HW239669   4.487   1.843  15.094  2.2797 -0.3330  0.0538
 9345SOL     OW39670   3.611   2.265   1.590  0.0698  0.0539 -0.7942
 9345SOL    HW139671   3.559   2.185   1.598 -0.7416  0.8123  1.5477
 9345SOL    HW239672   3.650   2.287   1.675  0.0631 -1.0144 -0.5207
 9346SOL     OW39673   2.050   0.912  14.986  0.1034  0.4621  0.1488
 9346SOL    HW139674   2.081   0.835  14.938  3.0528  1.2989  0.7345
 9346SOL    HW239675   2.035   0.878  15.074  0.7500  0.7845  0.3776
 9347SOL     OW39676   2.698   3.188  11.006  0.0100  0.2940  0.2624
 9347SOL    HW139677   2.701   3.236  11.089  1.7886 -0.6773  0.7813
 9347SOL    HW239678   2.611   3.148  10.998  0.7493 -1.1085 -0.8511
 9348SOL     OW39679   0.012   1.027   2.857  0.0571 -0.1551  0.2556
 9348SOL    HW139680   4.681   1.084   2.892 -0.2669  1.6184 -3.2462
 9348SOL    HW239681   4.690   0.995   2.788  1.4005 -1.2933 -0.3803
 9349SOL     OW39682   1.808   4.593   8.758 -0.2459 -0.3409  0.1318
 9349SOL    HW139683   1.855   4.561   8.835  2.8951  0.3252 -1.5074
 9349SOL    HW239684   1.761   4.520   8.719 -0.4314 -1.1731  1.9292
 9350SOL     OW39685   0.334   2.942   0.134  0.6316 -0.0754 -0.0706
 9350SOL    HW139686   0.409   2.908   0.086 -0.2981 -2.2654  0.0084
 9350SOL    HW239687   0.298   2.871   0.186  1.7020  0.4290  1.3311
 9351SOL     OW39688   0.965   0.106   5.465  0.5439  0.2397 -0.1861
 9351SOL    HW139689   0.916   0.116   5.547  0.9362 -0.1483  0.0923
 9351SOL    HW239690   0.941   0.192   5.429 -2.5668 -0.1290  1.0039
 9352SOL     OW39691   3.233   3.363   4.011  0.1222  0.5104  0.2563
 9352SOL    HW139692   3.231   3.458   4.009  1.8889  0.5612  0.8831
 9352SOL    HW239693   3.326   3.345   3.995 -0.1292  0.9671 -1.7267
 9353SOL     OW39694   0.972   0.943  16.576 -0.6486 -0.2400 -0.3018
 9353SOL    HW139695   1.047   0.921  16.522 -1.0587 -3.6984  0.5339
 9353SOL    HW239696   0.940   0.853  16.579  1.3115 -0.9663 -1.5387
 9354SOL     OW39697   3.765   0.262   9.518 -0.2981  0.6425  0.0022
 9354SOL    HW139698   3.732   0.229   9.602 -0.1534 -0.6250 -0.4349
 9354SOL    HW239699   3.735   0.353   9.516 -0.3347  0.6850  2.3508
 9355SOL     OW39700   2.483   2.553   6.517  0.1129  0.1793  0.2616
 9355SOL    HW139701   2.544   2.617   6.482  1.1379 -0.1665  1.4174
 9355SOL    HW239702   2.442   2.602   6.589  0.5181  1.1649 -0.1764
 9356SOL     OW39703   3.354   1.731   1.981  0.6333  0.1511  0.0313
 9356SOL    HW139704   3.328   1.766   1.896  1.2158 -2.8418 -1.3930
 9356SOL    HW239705   3.445   1.762   1.984  0.1601  1.2574  3.1265
 9357SOL     OW39706   0.357   0.208   5.822 -0.6166 -0.0268 -0.0100
 9357SOL    HW139707   0.401   0.131   5.858 -1.5002  0.5143  2.2006
 9357SOL    HW239708   0.355   0.269   5.896 -1.1356 -2.2581  1.8152
 9358SOL     OW39709   1.522   0.673   0.366 -1.4107  0.1458  0.0892
 9358SOL    HW139710   1.553   0.755   0.403 -0.9677 -0.8741  2.0213
 9358SOL    HW239711   1.452   0.641   0.424 -0.8587 -0.4934  0.4015
 9359SOL     OW39712   3.017   1.268   9.634  0.1345  0.5477  0.7885
 9359SOL    HW139713   3.009   1.185   9.681  0.6399  0.1275  0.1379
 9359SOL    HW239714   3.048   1.242   9.547  2.6898  3.3461  0.8599
 9360SOL     OW39715   2.796   2.260   4.330  0.2267  0.0672 -0.1938
 9360SOL    HW139716   2.762   2.325   4.270 -0.4067 -0.3669 -0.3072
 9360SOL    HW239717   2.810   2.189   4.268 -0.6187 -1.6874  1.5979
 9361SOL     OW39718   1.098   1.401   7.841  0.0145  0.7658  0.1765
 9361SOL    HW139719   1.051   1.370   7.763  0.4933 -1.5295  0.8034
 9361SOL    HW239720   1.187   1.401   7.807  0.2704 -2.3377  0.8993
 9362SOL     OW39721   3.098   0.878   6.164  0.1164  0.0581  0.4449
 9362SOL    HW139722   3.084   0.875   6.069 -0.3705  0.9581  0.4873
 9362SOL    HW239723   3.107   0.972   6.178  1.4069  0.1686 -1.1587
 9363SOL     OW39724   3.066   1.227   4.339  0.1093  0.0217 -0.0928
 9363SOL    HW139725   2.985   1.277   4.349 -0.4692 -1.1833  1.2159
 9363SOL    HW239726   3.131   1.280   4.384 -0.6357  1.5182 -0.7867
 9364SOL     OW39727   3.779   4.683   1.975 -0.5815 -0.1612 -0.0538
 9364SOL    HW139728   3.803   4.651   1.889  1.7745  0.4779  0.3559
 9364SOL    HW239729   3.684   4.688   1.964 -0.7205 -2.9781  0.0674
 9365SOL     OW39730   1.735   4.145   2.069  0.2501 -0.5115  0.1845
 9365SOL    HW139731   1.695   4.063   2.039 -0.7342 -0.1557  0.5047
 9365SOL    HW239732   1.739   4.190   1.984 -0.1952 -1.5655 -0.3975
 9366SOL     OW39733   1.322   0.355   7.020 -0.0603  0.4129  0.6851
 9366SOL    HW139734   1.389   0.333   6.955 -1.2131 -0.4742 -0.2139
 9366SOL    HW239735   1.305   0.443   6.985 -2.6658  0.2513  1.5355
 9367SOL     OW39736   2.503   4.332   4.828 -0.3875  0.1811 -0.3343
 9367SOL    HW139737   2.522   4.307   4.737  0.4987  2.1959 -0.6899
 9367SOL    HW239738   2.577   4.389   4.850 -2.4424  3.1753 -1.3365
 9368SOL     OW39739   2.842   1.054   4.186 -0.0056  0.0405  0.3840
 9368SOL    HW139740   2.851   1.022   4.096 -4.5358 -0.0218 -0.0686
 9368SOL    HW239741   2.928   1.094   4.196 -0.0140  0.3581 -0.8553
 9369SOL     OW39742   2.178   1.166   5.266  0.0624  0.1069  0.3658
 9369SOL    HW139743   2.204   1.228   5.334 -1.2999  1.1895 -0.0818
 9369SOL    HW239744   2.083   1.160   5.276  0.0420  2.6178  1.8323
 9370SOL     OW39745   4.534   1.079   8.069  0.2127  0.0332  0.2223
 9370SOL    HW139746   4.440   1.065   8.066  0.1210  0.5786  0.6506
 9370SOL    HW239747   4.530   1.169   8.101 -1.5304  0.4562 -1.2118
 9371SOL     OW39748   0.490   1.612   8.260  0.2408  0.2620 -0.4085
 9371SOL    HW139749   0.565   1.554   8.269 -0.4807 -0.9734 -2.4541
 9371SOL    HW239750   0.423   1.544   8.261  0.3563  0.1461 -0.8709
 9372SOL     OW39751   4.332   4.609   9.511 -0.2227 -0.4118 -0.0857
 9372SOL    HW139752   4.411   4.589   9.461 -0.4333 -0.9233 -0.2127
 9372SOL    HW239753   4.344   4.544   9.580  0.5784 -1.2772 -1.0390
 9373SOL     OW39754   2.907   0.311   9.661 -0.2266 -0.1329  0.0863
 9373SOL    HW139755   2.980   0.362   9.696  0.6044 -1.9096  0.9050
 9373SOL    HW239756   2.838   0.307   9.727 -0.0008  1.7600  0.4328
 9374SOL     OW39757   1.169   0.126   5.014  0.1186 -0.4816  0.3582
 9374SOL    HW139758   1.150   0.192   4.947 -0.2197  0.0041  0.9394
 9374SOL    HW239759   1.254   0.156   5.046 -0.7152  0.6337  1.5025
 9375SOL     OW39760   2.795   4.072  14.976  0.0854 -0.1851 -0.7986
 9375SOL    HW139761   2.820   4.009  15.044  2.8969  1.5575 -0.2476
 9375SOL    HW239762   2.863   4.138  14.967 -0.4346  0.6682  1.6310
 9376SOL     OW39763   1.356   1.445   0.062 -0.0468 -0.2657  0.0441
 9376SOL    HW139764   1.300   1.464   0.138  2.7729  0.2073  2.0375
 9376SOL    HW239765   1.300   1.461  17.732 -1.5426  0.7740  1.3743
 9377SOL     OW39766   0.457   0.499   4.882  0.6451  0.0807 -0.3149
 9377SOL    HW139767   0.513   0.491   4.804 -1.3687 -2.1450 -1.5452
 9377SOL    HW239768   0.375   0.519   4.837  0.1376  0.3878  0.7528
 9378SOL     OW39769   1.161   2.610   5.284 -0.2399  0.4510 -0.2174
 9378SOL    HW139770   1.149   2.624   5.190  0.6748 -1.1365 -0.5755
 9378SOL    HW239771   1.250   2.576   5.275 -0.1543  0.3871  0.7986
 9379SOL     OW39772   2.028   4.144   5.867 -0.7554 -0.0062  0.4433
 9379SOL    HW139773   2.052   4.235   5.852 -0.8964 -0.2051 -1.0041
 9379SOL    HW239774   2.055   4.105   5.784 -1.6084  0.4886 -0.0751
 9380SOL     OW39775   4.660   0.205   3.861  0.2162  0.2387  0.3532
 9380SOL    HW139776   4.690   0.137   3.922  2.5230 -0.7800 -1.9414
 9380SOL    HW239777   4.736   0.263   3.865 -1.1443  1.9329  1.3580
 9381SOL     OW39778   2.213   1.764   8.501  0.2568  0.0445  0.3024
 9381SOL    HW139779   2.153   1.695   8.471  0.2462 -0.2728  1.0625
 9381SOL    HW239780   2.285   1.716   8.541 -0.3516 -1.6496 -0.6314
 9382SOL     OW39781   4.182   1.889   2.840 -0.4040  0.3097  0.0260
 9382SOL    HW139782   4.119   1.960   2.848  0.0827  0.9146 -1.4813
 9382SOL    HW239783   4.147   1.822   2.899  0.6492 -0.7212 -0.5181
 9383SOL     OW39784   0.955   3.906   0.065  0.0137  0.5708 -0.0041
 9383SOL    HW139785   0.975   3.814   0.085 -0.1262  1.0373  2.2649
 9383SOL    HW239786   0.950   3.905  17.714 -0.7907 -1.7320  0.0540
 9384SOL     OW39787   1.547   3.348   4.261 -0.2747  0.0511 -0.5022
 9384SOL    HW139788   1.578   3.315   4.345 -0.3092  2.1271  0.3209
 9384SOL    HW239789   1.458   3.376   4.284  0.1970  1.6228 -0.6148
 9385SOL     OW39790   3.289   0.813   5.687  0.4689 -0.6483 -0.2506
 9385SOL    HW139791   3.320   0.779   5.770  2.5217  0.0195 -0.7521
 9385SOL    HW239792   3.326   0.751   5.624 -0.0842 -1.0328 -0.1910
 9386SOL     OW39793   2.381   1.768   7.493  0.2921  0.0491  0.3286
 9386SOL    HW139794   2.453   1.770   7.431 -0.6644 -1.5261 -0.8186
 9386SOL    HW239795   2.426   1.780   7.577  1.0860  1.3015 -0.2711
 9387SOL     OW39796   0.019   3.407   5.509 -0.2265  0.0669  0.3114
 9387SOL    HW139797   0.074   3.435   5.435 -0.5905 -1.3519 -0.4851
 9387SOL    HW239798   0.068   3.329   5.533  0.2680  0.6867  1.3188
 9388SOL     OW39799   2.122   3.346   1.953  0.5296  0.3516  0.3317
 9388SOL    HW139800   2.115   3.409   2.025  0.5805  0.6204  0.0999
 9388SOL    HW239801   2.217   3.348   1.939  0.7974 -0.5412  1.9984
 9389SOL     OW39802   4.052   2.839   7.649 -0.2832 -0.1953  0.3971
 9389SOL    HW139803   4.028   2.821   7.740  0.4794 -2.6668  0.1036
 9389SOL    HW239804   4.147   2.838   7.641 -0.2907 -1.2050  0.5053
 9390SOL     OW39805   4.131   0.416  14.213 -0.4119 -0.4647 -0.5216
 9390SOL    HW139806   4.150   0.452  14.126  3.0225  1.4349  1.0584
 9390SOL    HW239807   4.048   0.375  14.187 -0.8723 -0.2042  0.5546
 9391SOL     OW39808   0.639   0.410   8.878  0.0235 -0.1750 -0.2963
 9391SOL    HW139809   0.610   0.467   8.949 -1.6145 -1.0578 -0.2354
 9391SOL    HW239810   0.604   0.457   8.803 -1.2000 -0.3314  0.1726
 9392SOL     OW39811   4.523   4.529  15.267 -0.7935 -0.3841 -0.3575
 9392SOL    HW139812   4.613   4.556  15.247  0.4221 -2.8141  1.8997
 9392SOL    HW239813   4.546   4.453  15.320 -2.7631 -0.6367  0.1469
 9393SOL     OW39814   3.773   4.258   2.886 -0.6693  0.1151  0.4117
 9393SOL    HW139815   3.699   4.291   2.938  0.0497  1.0873  0.8177
 9393SOL    HW239816   3.846   4.266   2.947 -0.9459  1.7708  0.5233
 9394SOL     OW39817   4.419   4.005  16.853  0.2947  0.0159 -0.8213
 9394SOL    HW139818   4.354   3.959  16.799 -2.3544 -0.9695  3.2399
 9394SOL    HW239819   4.475   4.054  16.792 -0.3498  1.4752 -0.2232
 9395SOL     OW39820   3.054   0.790   5.897  0.4261 -0.5682  0.3815
 9395SOL    HW139821   3.056   0.706   5.943 -1.6027 -1.9119 -1.9773
 9395SOL    HW239822   3.086   0.776   5.808 -0.0851  1.1753 -0.0708
 9396SOL     OW39823   1.481   2.299   3.562  0.2869 -0.2767 -0.0440
 9396SOL    HW139824   1.549   2.320   3.625 -0.0893  0.2257  0.1946
 9396SOL    HW239825   1.395   2.316   3.601  0.2825 -1.3096  0.3946
 9397SOL     OW39826   4.422   0.257  12.566  0.3805  0.3402 -0.7539
 9397SOL    HW139827   4.363   0.203  12.618  1.3916  0.3530  0.4001
 9397SOL    HW239828   4.374   0.335  12.536 -0.5811  0.5211  1.2821
 9398SOL     OW39829   1.421   2.305   3.857  0.1382 -0.4405  0.1052
 9398SOL    HW139830   1.453   2.256   3.933 -0.7557  0.6117  1.1627
 9398SOL    HW239831   1.471   2.385   3.873 -0.2117 -0.1020 -0.4770
 9399SOL     OW39832   3.085   1.190   9.384 -0.2944 -0.2799  0.3271
 9399SOL    HW139833   3.010   1.244   9.360 -0.0822  0.9859  2.5062
 9399SOL    HW239834   3.047   1.105   9.362  0.4935 -0.3413 -0.8111
 9400SOL     OW39835   1.700   3.125  15.043  0.1698  0.0598 -0.1254
 9400SOL    HW139836   1.637   3.193  15.064 -0.4282 -0.9811  1.4663
 9400SOL    HW239837   1.706   3.091  15.132 -1.4586  0.3688  0.0912
 9401SOL     OW39838   1.317   0.855   3.002 -0.9187  0.4891  0.2169
 9401SOL    HW139839   1.240   0.821   3.047 -0.2997 -0.7629  0.3397
 9401SOL    HW239840   1.383   0.835   3.068  0.4481  1.0890 -0.9516
 9402SOL     OW39841   3.762   1.236   3.491  0.7012  0.3037  0.4803
 9402SOL    HW139842   3.801   1.149   3.497  0.3203 -0.0320 -1.9742
 9402SOL    HW239843   3.747   1.257   3.583 -0.4950 -2.1768  0.8625
 9403SOL     OW39844   3.374   4.693   2.274  0.1394 -0.0273 -0.3458
 9403SOL    HW139845   3.339   4.685   2.363  1.1800 -0.6072  0.0075
 9403SOL    HW239846   3.333   4.617   2.232 -0.7813  0.7270 -0.8054
 9404SOL     OW39847   3.501   2.551  10.264 -0.1837 -0.4388 -0.0512
 9404SOL    HW139848   3.501   2.488  10.192 -1.3306 -0.5584  0.0497
 9404SOL    HW239849   3.547   2.624  10.224  1.7700 -2.1611 -0.9748
 9405SOL     OW39850   1.574   4.155  13.993  0.0872 -0.5381  0.3699
 9405SOL    HW139851   1.481   4.143  14.009  0.4351 -0.8772  2.1033
 9405SOL    HW239852   1.571   4.134  13.900 -0.3162 -1.5061  0.5971
 9406SOL     OW39853   1.623   4.586   8.116  0.1106 -0.6978  0.1811
 9406SOL    HW139854   1.597   4.612   8.204  0.1524  2.9572 -0.8543
 9406SOL    HW239855   1.541   4.570   8.068  0.4966 -3.1044  0.3290
 9407SOL     OW39856   2.829   2.193   5.199 -0.5094 -0.0565 -0.1298
 9407SOL    HW139857   2.908   2.151   5.232 -0.6005 -0.1783 -0.0649
 9407SOL    HW239858   2.860   2.283   5.210  0.7012 -0.2228 -2.1967
 9408SOL     OW39859   1.576   0.317  11.117 -0.0664  0.0174  0.2573
 9408SOL    HW139860   1.669   0.330  11.097 -0.3459  0.4491 -0.8085
 9408SOL    HW239861   1.552   0.244  11.060 -1.2425 -0.1285  0.9585
 9409SOL     OW39862   2.439   0.942   6.459 -0.0319  0.3871  0.7471
 9409SOL    HW139863   2.470   0.943   6.368  0.0879 -2.3334  0.7643
 9409SOL    HW239864   2.463   0.856   6.494  1.3633 -0.2126 -1.6577
 9410SOL     OW39865   0.308   1.286   8.827  0.0330  0.2345 -0.2927
 9410SOL    HW139866   0.399   1.302   8.851  0.3765 -2.7097  0.4539
 9410SOL    HW239867   0.288   1.197   8.857  0.4735 -0.1186 -1.0334
 9411SOL     OW39868   3.770   3.596   2.554  0.3450  0.3049 -0.2017
 9411SOL    HW139869   3.832   3.609   2.626  0.4885  1.7781 -0.5850
 9411SOL    HW239870   3.686   3.619   2.592  0.2525  0.8827 -0.7385
 9412SOL     OW39871   3.080   0.074  14.341  0.0947  0.4339  0.1333
 9412SOL    HW139872   3.158   0.019  14.334  0.6978  1.1967  0.8929
 9412SOL    HW239873   3.128   0.156  14.341  0.9046 -0.0680  3.5077
 9413SOL     OW39874   1.558   3.553   6.071  0.1518 -0.8828 -0.9521
 9413SOL    HW139875   1.532   3.467   6.039 -0.6733 -0.1782 -2.1586
 9413SOL    HW239876   1.491   3.605   6.025 -0.2997 -0.0445  0.6368
 9414SOL     OW39877   0.843   1.593   7.393 -0.1650 -0.5088 -0.5169
 9414SOL    HW139878   0.881   1.516   7.350  1.3302 -0.5191  0.8004
 9414SOL    HW239879   0.753   1.565   7.379 -0.2684  0.4725 -1.7413
 9415SOL     OW39880   0.931   0.737   6.266 -0.4219  0.6987 -0.1577
 9415SOL    HW139881   0.857   0.688   6.230  0.1127  0.0948 -0.4311
 9415SOL    HW239882   0.886   0.770   6.344  0.0546 -1.5300  1.0735
 9416SOL     OW39883   0.228   3.273   5.752  0.3033 -0.2932  0.0405
 9416SOL    HW139884   0.224   3.253   5.658 -1.7392  0.3604 -0.0112
 9416SOL    HW239885   0.191   3.189   5.777  1.0712 -0.5519  0.2932
 9417SOL     OW39886   2.034   4.409   2.226  0.1641 -0.1899 -0.1402
 9417SOL    HW139887   2.127   4.420   2.245  0.0341  0.6154  0.0145
 9417SOL    HW239888   2.012   4.368   2.309 -0.8839 -2.4470 -1.5171
 9418SOL     OW39889   3.010   1.720   2.995  0.3892 -0.5320  0.0107
 9418SOL    HW139890   3.013   1.769   3.076  2.1477 -0.5271 -0.0470
 9418SOL    HW239891   3.082   1.658   3.010  1.1731  1.2632  3.5229
 9419SOL     OW39892   4.082   1.341  14.345  0.3719 -0.2216  0.7776
 9419SOL    HW139893   3.986   1.334  14.348  0.3232  0.0747 -0.1897
 9419SOL    HW239894   4.088   1.424  14.392 -3.0265 -0.0219  0.8473
 9420SOL     OW39895   3.905   3.107  10.917  0.0670 -0.4448 -0.0332
 9420SOL    HW139896   3.856   3.025  10.911  0.7610 -0.7434 -1.5684
 9420SOL    HW239897   3.910   3.134  10.826 -0.2984  0.7992  0.3070
 9421SOL     OW39898   3.710   4.065   1.749  0.2542 -0.1178  0.6362
 9421SOL    HW139899   3.660   4.006   1.692 -0.8711  0.0494  1.4546
 9421SOL    HW239900   3.795   4.062   1.704  0.9863 -0.2216  2.0320
 9422SOL     OW39901   0.468   0.338  16.833  0.4506  0.5333 -0.2328
 9422SOL    HW139902   0.441   0.426  16.808 -2.3571 -0.0207  0.9087
 9422SOL    HW239903   0.393   0.302  16.879  0.1284  1.1824 -0.2551
 9423SOL     OW39904   4.493   0.721   2.221 -1.0104 -0.9256 -0.1227
 9423SOL    HW139905   4.475   0.665   2.296  0.2531  0.9036  1.5335
 9423SOL    HW239906   4.571   0.676   2.188 -0.5913 -0.7640  0.6498
 9424SOL     OW39907   1.282   3.106   9.102 -0.4448  0.4879 -0.7557
 9424SOL    HW139908   1.365   3.101   9.056  0.2361 -1.0843  0.6641
 9424SOL    HW239909   1.321   3.121   9.188  0.9277  1.7171 -1.5981
 9425SOL     OW39910   3.512   0.116  12.921  0.4358 -0.1901 -0.3995
 9425SOL    HW139911   3.503   0.037  12.974 -1.5223  0.7536  0.6483
 9425SOL    HW239912   3.423   0.147  12.934 -0.4731 -2.5097 -0.9559
 9426SOL     OW39913   2.231   4.587   6.404 -0.3170 -0.4992  0.3963
 9426SOL    HW139914   2.243   4.580   6.499  1.9325  2.0172  0.3007
 9426SOL    HW239915   2.193   4.675   6.400  0.5668 -0.1976 -1.1849
 9427SOL     OW39916   4.317   2.661  11.843  0.7438 -0.1994 -0.1776
 9427SOL    HW139917   4.331   2.704  11.759 -0.1235 -1.3091 -0.8825
 9427SOL    HW239918   4.244   2.601  11.827  0.7270 -0.3109  0.3145
 9428SOL     OW39919   2.425   3.404   3.217  0.0396 -0.2218 -0.7864
 9428SOL    HW139920   2.336   3.379   3.242  0.4632  0.1682  1.0992
 9428SOL    HW239921   2.417   3.473   3.151  3.8523 -0.2550 -1.2834
 9429SOL     OW39922   1.000   3.082   6.345  0.0920  0.2970 -0.5413
 9429SOL    HW139923   0.946   3.109   6.420  0.1015  0.9019 -0.7547
 9429SOL    HW239924   0.943   3.027   6.292  1.1083 -3.1442  1.9407
 9430SOL     OW39925   3.026   4.104   0.493 -0.0687  0.3886  0.2203
 9430SOL    HW139926   3.065   4.190   0.473  0.9650 -0.1660 -0.1496
 9430SOL    HW239927   3.096   4.051   0.457 -0.6813 -1.5985  1.9821
 9431SOL     OW39928   3.652   4.073  14.687 -0.4077 -0.2408  0.1350
 9431SOL    HW139929   3.646   4.158  14.730  1.5144  0.0118 -0.1242
 9431SOL    HW239930   3.742   4.052  14.713 -0.4627  0.5256  0.9499
 9432SOL     OW39931   2.380   1.840  11.961  0.3211 -0.1984  0.3025
 9432SOL    HW139932   2.386   1.753  12.000 -0.0371  0.0046  0.8055
 9432SOL    HW239933   2.318   1.814  11.893  0.3477 -1.7871  0.8688
 9433SOL     OW39934   4.510   0.560   6.910 -0.4868  0.2130  0.1257
 9433SOL    HW139935   4.565   0.612   6.969  1.4620 -0.0943 -1.3921
 9433SOL    HW239936   4.428   0.609   6.907  0.7074  2.2228  0.2371
 9434SOL     OW39937   0.869   0.002   8.750 -0.6016 -0.2441 -0.3131
 9434SOL    HW139938   0.845   0.083   8.796  1.7825  0.9074 -1.0762
 9434SOL    HW239939   0.846   4.676   8.818  1.4315 -0.0559  0.5405
 9435SOL     OW39940   3.729   2.200  10.975  0.1466 -0.3936 -0.7852
 9435SOL    HW139941   3.650   2.145  10.974  0.5369 -0.9461 -1.5926
 9435SOL    HW239942   3.785   2.154  11.038 -1.0499 -0.6999  0.0524
 9436SOL     OW39943   2.099   4.046   3.481 -0.1724  0.1500 -0.7688
 9436SOL    HW139944   2.116   3.974   3.419 -0.3851  0.5736 -1.3198
 9436SOL    HW239945   2.181   4.094   3.471 -1.1170  1.7139 -0.9760
 9437SOL     OW39946   2.580   4.540  10.421  0.3342 -0.4442 -0.1038
 9437SOL    HW139947   2.526   4.461  10.417 -1.6719  1.0039 -1.6135
 9437SOL    HW239948   2.667   4.500  10.431 -0.4424 -1.9863  0.4042
 9438SOL     OW39949   0.759   2.428   4.238  0.1776 -0.4019 -0.0661
 9438SOL    HW139950   0.717   2.482   4.171 -1.1071 -0.0305  1.0458
 9438SOL    HW239951   0.763   2.342   4.197  1.9399 -0.1467 -0.4340
 9439SOL     OW39952   4.046   4.370   4.103 -0.0644 -0.6299  0.0357
 9439SOL    HW139953   4.008   4.387   4.016  0.3509  3.5153  0.6696
 9439SOL    HW239954   4.123   4.426   4.101 -1.0696  0.7260 -0.3990
 9440SOL     OW39955   4.183   2.525  17.212 -0.2105  0.0511  0.2463
 9440SOL    HW139956   4.264   2.573  17.195 -0.7563  1.2753  1.0632
 9440SOL    HW239957   4.201   2.482  17.296 -0.2000  1.6141  1.0515
 9441SOL     OW39958   3.656   1.512   5.954 -0.1763  0.1188 -0.1640
 9441SOL    HW139959   3.699   1.567   6.020 -3.3509  0.3772  1.6551
 9441SOL    HW239960   3.724   1.508   5.886 -0.7190 -0.4292 -0.6628
 9442SOL     OW39961   3.292   2.237   0.410  0.5165 -0.1024 -0.4759
 9442SOL    HW139962   3.210   2.188   0.418  1.1633 -0.9004  1.3240
 9442SOL    HW239963   3.352   2.165   0.389  0.8684  0.1379 -0.2970
 9443SOL     OW39964   4.237   4.059  17.523  0.4625  0.0614 -0.5344
 9443SOL    HW139965   4.329   4.082  17.530  0.5728  0.0943 -2.2221
 9443SOL    HW239966   4.196   4.141  17.551  1.2052  0.3715 -0.3620
 9444SOL     OW39967   3.949   2.225   6.139 -0.1116 -0.4000 -0.3026
 9444SOL    HW139968   3.921   2.158   6.201  0.2909 -0.2037  0.0951
 9444SOL    HW239969   4.034   2.187   6.119  0.2001 -1.1095  2.3449
 9445SOL     OW39970   0.296   4.466   3.863 -0.8449 -0.1172  0.3079
 9445SOL    HW139971   0.262   4.457   3.774 -0.1065 -0.9239  0.1100
 9445SOL    HW239972   0.314   4.560   3.868  0.4935 -0.4845  2.1629
 9446SOL     OW39973   0.116   2.096   0.561 -0.6174 -0.3781 -0.1186
 9446SOL    HW139974   0.049   2.125   0.500 -1.7085 -1.5361  0.5117
 9446SOL    HW239975   0.129   2.175   0.612  0.6153 -0.8405  0.2869
 9447SOL     OW39976   1.081   1.477   0.242 -0.2574  0.3287 -0.0079
 9447SOL    HW139977   1.014   1.518   0.186  0.4334 -2.1410 -2.6638
 9447SOL    HW239978   1.067   1.524   0.324  1.3820 -2.9023  2.1167
 9448SOL     OW39979   3.960   3.822  17.160 -0.2152  0.0184 -0.0849
 9448SOL    HW139980   3.956   3.732  17.194 -0.0087  0.3614  0.8232
 9448SOL    HW239981   4.041   3.809  17.111 -1.9225  0.3832 -2.9929
 9449SOL     OW39982   2.765   2.514  12.722  0.0388 -1.0769 -0.3623
 9449SOL    HW139983   2.781   2.425  12.752  0.8356 -1.3338 -1.5263
 9449SOL    HW239984   2.708   2.545  12.792 -0.2309 -0.1956 -0.9630
 9450SOL     OW39985   1.833   1.737   2.754  0.2595  0.2594  0.2846
 9450SOL    HW139986   1.855   1.741   2.847  0.4685  0.1845  0.2377
 9450SOL    HW239987   1.827   1.827   2.724  1.5067  0.5131  0.7943
 9451SOL     OW39988   4.165   1.513  15.027 -0.0325 -0.4493 -0.0055
 9451SOL    HW139989   4.256   1.537  15.043 -0.7903  0.2294  3.4054
 9451SOL    HW239990   4.164   1.418  15.016 -2.3959 -0.6667  2.1962
 9452SOL     OW39991   1.402   3.300   4.604 -0.1209 -0.6824  0.0539
 9452SOL    HW139992   1.328   3.239   4.607  0.4271 -1.3912 -0.8069
 9452SOL    HW239993   1.377   3.335   4.519  1.4994  2.1663  0.7405
 9453SOL     OW39994   1.989   0.973   7.673 -0.4578 -0.2634 -0.4577
 9453SOL    HW139995   2.070   1.003   7.631 -0.7325  0.1846 -0.6623
 9453SOL    HW239996   1.937   0.958   7.595  0.2321 -2.2120 -0.5600
 9454SOL     OW39997   3.563   3.744   1.778 -0.3276 -0.0574 -0.0145
 9454SOL    HW139998   3.500   3.718   1.711  0.7312 -3.3095  0.2092
 9454SOL    HW239999   3.506   3.774   1.848  0.7364  0.8530  0.4596
 9455SOL     OW40000   3.138   2.957   9.824  0.2395  0.0280  0.2465
 9455SOL    HW140001   3.049   2.974   9.856  0.0089 -1.9011  0.6305
 9455SOL    HW240002   3.121   2.925   9.736  0.5188 -0.6216  0.4317
 9456SOL     OW40003   2.771   3.690   4.558 -0.1691  0.3584  0.7443
 9456SOL    HW140004   2.714   3.634   4.611  0.5057 -1.3795 -0.3735
 9456SOL    HW240005   2.747   3.777   4.591  2.0822  1.2088  0.1480
 9457SOL     OW40006   0.941   0.222   2.169  0.3062  0.9091  0.0247
 9457SOL    HW140007   1.006   0.175   2.221 -1.3517 -1.5235 -0.1406
 9457SOL    HW240008   0.902   0.160   2.108  0.0079  0.9381  0.1868
 9458SOL     OW40009   1.734   1.540   7.405 -0.0641  0.0624  0.1065
 9458SOL    HW140010   1.810   1.563   7.352 -1.5631  2.7489 -0.9078
 9458SOL    HW240011   1.675   1.616   7.406 -2.7343 -1.9829 -1.7057
 9459SOL     OW40012   0.977   0.143  12.184 -0.5376  0.6955  0.9588
 9459SOL    HW140013   1.021   0.221  12.217  0.0003  0.0799  1.6929
 9459SOL    HW240014   1.023   0.081  12.241  0.3753 -0.8487 -1.4682
 9460SOL     OW40015   0.042   0.665   6.230 -0.2296 -0.1899 -0.2604
 9460SOL    HW140016   0.103   0.711   6.173 -0.5700  1.8201  0.9777
 9460SOL    HW240017   0.016   0.739   6.286 -2.3068 -0.5415 -0.7417
 9461SOL     OW40018   3.944   2.139   1.063  0.0908  0.6899 -0.2539
 9461SOL    HW140019   3.953   2.063   1.120  0.2146  1.0298  0.1858
 9461SOL    HW240020   4.020   2.196   1.075 -0.0568  1.1357 -1.4476
 9462SOL     OW40021   2.592   1.153   4.170  0.4855 -0.1237  0.3283
 9462SOL    HW140022   2.677   1.108   4.166 -0.0658 -1.1375 -0.1917
 9462SOL    HW240023   2.578   1.135   4.263  2.2663  3.6276  1.2869
 9463SOL     OW40024   3.760   0.211  12.833  0.6573  0.4099  0.2252
 9463SOL    HW140025   3.737   0.304  12.833 -0.2938  0.1776 -1.0941
 9463SOL    HW240026   3.678   0.181  12.875  0.0721 -0.1612 -1.3467
 9464SOL     OW40027   2.866   2.961   6.913 -0.1247 -0.8491 -0.3616
 9464SOL    HW140028   2.835   3.026   6.850  1.0586 -0.6816 -0.7850
 9464SOL    HW240029   2.958   2.987   6.917 -0.6790  0.8858  1.1112
 9465SOL     OW40030   0.462   1.281   1.831  0.0556 -0.3467 -0.4714
 9465SOL    HW140031   0.380   1.329   1.828  0.4144  0.2326 -1.0250
 9465SOL    HW240032   0.509   1.286   1.748  0.7287 -0.3453 -0.0896
 9466SOL     OW40033   3.782   0.232   2.247 -0.2473 -0.1196  0.5772
 9466SOL    HW140034   3.828   0.247   2.165 -0.4164 -2.5243  0.0367
 9466SOL    HW240035   3.706   0.181   2.217  1.5443 -3.9607  2.4872
 9467SOL     OW40036   2.084   3.646   9.521  0.0316 -0.4814  0.2923
 9467SOL    HW140037   2.102   3.585   9.592 -0.2063 -0.9455 -0.0449
 9467SOL    HW240038   2.148   3.616   9.457 -0.9346 -1.1425 -0.3500
 9468SOL     OW40039   3.076   2.807   8.785 -0.3053  0.2213  0.0502
 9468SOL    HW140040   3.128   2.873   8.739 -2.7183  3.4694  1.9875
 9468SOL    HW240041   3.135   2.791   8.859  1.0403  2.7260 -0.4582
 9469SOL     OW40042   3.917   0.997  11.090  0.3220  0.0207  0.9410
 9469SOL    HW140043   3.909   0.919  11.035 -1.6756  1.2682 -0.5490
 9469SOL    HW240044   3.908   0.962  11.179 -2.2437 -2.3676 -0.2822
 9470SOL     OW40045   2.734   4.609   3.405  0.1740 -0.1875 -0.0482
 9470SOL    HW140046   2.776   4.688   3.372  0.8858 -0.8641 -0.7640
 9470SOL    HW240047   2.647   4.643   3.422  0.7774  1.6894 -0.7845
 9471SOL     OW40048   2.193   2.101   5.235 -0.2823 -0.0198  0.3759
 9471SOL    HW140049   2.150   2.022   5.268  0.0719 -0.4836 -0.2670
 9471SOL    HW240050   2.285   2.077   5.243 -0.8032 -1.6815  1.4755
 9472SOL     OW40051   1.351   2.688   8.155 -0.2149  0.1642 -0.3783
 9472SOL    HW140052   1.383   2.678   8.245  0.7257  1.0765 -0.6200
 9472SOL    HW240053   1.348   2.600   8.118 -2.1399  0.5902 -1.2309
 9473SOL     OW40054   1.184   1.817   4.089 -0.0376 -0.3238 -0.3397
 9473SOL    HW140055   1.217   1.907   4.092 -1.2120  0.0985  0.0614
 9473SOL    HW240056   1.129   1.820   4.168 -0.0018 -0.3491 -0.3138
 9474SOL     OW40057   3.125   3.638   6.871  0.0806  0.3874 -0.0572
 9474SOL    HW140058   3.037   3.622   6.835 -0.8055  0.8728  1.8702
 9474SOL    HW240059   3.137   3.562   6.929  1.0194  1.7490  1.5292
 9475SOL     OW40060   4.696   4.637   8.907  0.4626 -0.5364  0.5561
 9475SOL    HW140061   4.704   4.612   8.815 -2.7090  0.8807 -0.0948
 9475SOL    HW240062   4.704   4.732   8.907 -3.3786 -0.2163  0.8970
 9476SOL     OW40063   0.071   0.501   0.497 -0.2797  0.0826  0.2657
 9476SOL    HW140064   0.045   0.533   0.411  1.3692  1.2336  0.1781
 9476SOL    HW240065   0.044   0.572   0.555  0.4863 -0.3476  1.1474
 9477SOL     OW40066   0.730   3.073   4.339 -0.5760  0.4681  0.3154
 9477SOL    HW140067   0.760   3.050   4.427 -0.0490 -1.3258 -0.3160
 9477SOL    HW240068   0.788   3.015   4.290 -1.2343  0.9455 -1.0284
 9478SOL     OW40069   2.414   0.343   1.851  0.3210 -0.4897  0.5446
 9478SOL    HW140070   2.338   0.335   1.794 -0.8775  2.7726  1.6766
 9478SOL    HW240071   2.370   0.343   1.936 -0.4655 -0.7640  0.1391
 9479SOL     OW40072   4.005   4.450   4.372 -0.0992 -0.0299  0.5003
 9479SOL    HW140073   4.002   4.377   4.310 -2.2701  1.1381 -0.7538
 9479SOL    HW240074   4.082   4.421   4.422 -0.9558 -1.8730  0.7612
 9480SOL     OW40075   1.054   2.104  12.515 -0.5336  0.6536  0.5952
 9480SOL    HW140076   0.970   2.140  12.486  0.3001  1.5401 -0.7320
 9480SOL    HW240077   1.110   2.181  12.500 -1.9926  1.3365 -1.2964
 9481SOL     OW40078   1.558   1.334   1.675 -0.0382  0.3625 -0.0943
 9481SOL    HW140079   1.625   1.367   1.735 -0.2887 -0.7089  0.7721
 9481SOL    HW240080   1.591   1.245   1.659  0.5099  0.5550 -0.0358
 9482SOL     OW40081   3.884   4.373   0.342  0.2026 -0.0758 -0.4223
 9482SOL    HW140082   3.909   4.418   0.262 -4.2912  0.9483 -1.2400
 9482SOL    HW240083   3.832   4.302   0.305  0.3823 -0.0113 -0.7968
 9483SOL     OW40084   3.668   2.814  15.059 -0.1681 -0.2640  0.4425
 9483SOL    HW140085   3.589   2.776  15.097  0.9355  0.2794  3.2837
 9483SOL    HW240086   3.670   2.895  15.110  1.5974 -0.3529  0.4997
 9484SOL     OW40087   2.902   1.478   3.757  0.5151 -0.1974 -0.0366
 9484SOL    HW140088   2.874   1.423   3.831  1.3215 -0.1435  0.3058
 9484SOL    HW240089   2.868   1.563   3.785  0.5843 -0.5900  1.2619
 9485SOL     OW40090   1.851   3.469  12.569  0.1318 -0.1766 -0.1343
 9485SOL    HW140091   1.873   3.547  12.618  2.2294  0.1181 -1.5875
 9485SOL    HW240092   1.774   3.490  12.516  0.5196 -1.8417 -1.3722
 9486SOL     OW40093   1.439   2.903   4.510  0.5168  0.2496  0.6386
 9486SOL    HW140094   1.399   2.817   4.498  4.0161 -1.1438 -1.2575
 9486SOL    HW240095   1.392   2.933   4.587  0.2103  0.4364  0.3768
 9487SOL     OW40096   1.566   1.575   2.850  0.8143  0.6678  0.4262
 9487SOL    HW140097   1.582   1.482   2.837  0.1975  0.6868 -0.4909
 9487SOL    HW240098   1.652   1.599   2.815  0.9070  1.3198  1.1072
 9488SOL     OW40099   2.106   1.080   8.424  0.0512 -0.1039 -0.4451
 9488SOL    HW140100   2.016   1.090   8.392 -0.4858 -4.1202 -0.2441
 9488SOL    HW240101   2.160   1.073   8.346  1.6498  0.8207  0.5823
 9489SOL     OW40102   2.713   0.342   3.985 -0.4019 -0.0057 -0.0023
 9489SOL    HW140103   2.768   0.273   4.022 -0.0559  0.9530  1.2902
 9489SOL    HW240104   2.706   0.407   4.055  0.9718  1.3809 -1.1474
 9490SOL     OW40105   0.214   1.724   3.412 -0.1500 -0.3571 -0.2375
 9490SOL    HW140106   0.196   1.811   3.377  1.1680 -0.1908 -0.4983
 9490SOL    HW240107   0.306   1.705   3.396 -0.1740 -0.3871 -0.3370
 9491SOL     OW40108   1.658   3.876   4.258  0.2487  0.1432 -0.1798
 9491SOL    HW140109   1.677   3.891   4.351 -0.4217  0.3982 -0.0818
 9491SOL    HW240110   1.600   3.949   4.236 -0.3738 -0.7497 -1.4812
 9492SOL     OW40111   3.000   1.448   7.298  0.4025  0.4380 -0.3866
 9492SOL    HW140112   2.933   1.409   7.354  1.6574 -2.3216 -0.7712
 9492SOL    HW240113   2.955   1.527   7.269  0.0108 -0.0029 -0.9748
 9493SOL     OW40114   1.113   0.582  13.305  0.1796  0.2833 -0.2619
 9493SOL    HW140115   1.118   0.533  13.223  0.1448  0.1500 -0.1834
 9493SOL    HW240116   1.193   0.554  13.349  0.6403 -1.0418 -1.9153
 9494SOL     OW40117   3.696   3.159   0.280  0.0424 -0.1478  0.1495
 9494SOL    HW140118   3.675   3.152   0.373 -0.9844 -0.9327 -0.1371
 9494SOL    HW240119   3.619   3.113   0.246  0.0545  0.3568 -0.5669
 9495SOL     OW40120   4.077   1.925   0.704  0.1742  0.0545  0.1363
 9495SOL    HW140121   3.993   1.922   0.658  0.4683  1.6759 -0.5091
 9495SOL    HW240122   4.079   2.013   0.741 -1.2498 -0.3054  1.0674
 9496SOL     OW40123   3.273   3.857   4.770 -0.3925 -0.5319 -0.2623
 9496SOL    HW140124   3.265   3.766   4.742  0.9357 -1.5193  2.5844
 9496SOL    HW240125   3.198   3.859   4.831  1.6191 -2.0547  2.2431
 9497SOL     OW40126   2.335   0.622   5.181 -0.1348  0.2366  0.1390
 9497SOL    HW140127   2.294   0.705   5.208  4.8992  2.4434  1.0092
 9497SOL    HW240128   2.425   0.632   5.212  0.3992 -0.3657 -1.2150
 9498SOL     OW40129   1.048   4.220   7.336 -0.5146  0.0600 -0.0810
 9498SOL    HW140130   1.083   4.191   7.420 -1.2536 -0.4114  0.0660
 9498SOL    HW240131   1.119   4.263   7.288 -0.6283 -0.7399 -0.9699
 9499SOL     OW40132   0.535   2.680   5.320 -0.6192  0.1066  0.2522
 9499SOL    HW140133   0.453   2.641   5.349 -1.2970  1.2284 -0.1701
 9499SOL    HW240134   0.552   2.660   5.228  1.1611 -0.5743  0.7266
 9500SOL     OW40135   0.868   0.312   2.655 -0.5545  0.0316  0.7270
 9500SOL    HW140136   0.886   0.374   2.584  0.8713 -3.5852 -2.0324
 9500SOL    HW240137   0.907   0.229   2.629 -1.3479  0.7192 -2.6031
 9501SOL     OW40138   0.107   2.166  10.644 -0.2201 -0.3211 -0.1119
 9501SOL    HW140139   0.177   2.163  10.578  0.5945 -0.2577  0.7427
 9501SOL    HW240140   0.066   2.081  10.631 -0.3457 -0.4731  1.2176
 9502SOL     OW40141   4.455   1.761   2.851 -0.2268 -0.0331  0.2037
 9502SOL    HW140142   4.368   1.796   2.870 -0.4248  0.6086 -1.9516
 9502SOL    HW240143   4.492   1.776   2.938  1.6770  2.2533 -1.0090
 9503SOL     OW40144   0.548   2.086   4.559 -0.6313 -0.0966 -0.0966
 9503SOL    HW140145   0.620   2.147   4.575 -0.9403 -0.1136  1.3484
 9503SOL    HW240146   0.593   2.001   4.555  1.6265  1.1227 -0.6511
 9504SOL     OW40147   0.133   1.613   2.621 -0.3470  0.1508 -0.4858
 9504SOL    HW140148   0.063   1.668   2.587 -1.6047  0.3255  2.3397
 9504SOL    HW240149   0.075   1.547   2.658  1.5411 -0.3225  1.6268
 9505SOL     OW40150   3.284   2.764   1.220  0.1433  0.5089  0.4346
 9505SOL    HW140151   3.278   2.827   1.292 -1.7203 -0.5088  1.1453
 9505SOL    HW240152   3.218   2.792   1.157 -0.6540  0.4717  1.2552
 9506SOL     OW40153   1.939   1.429   0.184  0.0566 -0.6416 -0.0140
 9506SOL    HW140154   1.996   1.505   0.199  1.5687 -1.9490  0.8337
 9506SOL    HW240155   1.866   1.436   0.246  0.7569 -0.3908  0.7910
 9507SOL     OW40156   0.780   0.079   6.404  0.0802  1.0662  0.0515
 9507SOL    HW140157   0.747   0.142   6.468 -2.0295  0.1149 -0.0781
 9507SOL    HW240158   0.726   0.003   6.427  0.4537  0.0326 -2.5317
 9508SOL     OW40159   3.193   3.139   9.414 -0.1324  0.5159 -0.2294
 9508SOL    HW140160   3.187   3.232   9.436 -1.6110  0.0138  1.4658
 9508SOL    HW240161   3.182   3.128   9.319  3.2939 -1.7303 -0.4024
 9509SOL     OW40162   3.734   2.205   8.940 -0.1993  0.7576  0.5462
 9509SOL    HW140163   3.713   2.118   8.905 -1.1958  1.0164  0.4873
 9509SOL    HW240164   3.770   2.251   8.864 -1.0530 -0.2744 -0.4956
 9510SOL     OW40165   2.264   3.761   6.673  0.7137 -0.0425 -0.5951
 9510SOL    HW140166   2.237   3.732   6.586 -3.4133  0.3226  0.5616
 9510SOL    HW240167   2.213   3.841   6.692 -0.7373 -1.5586  1.9831
 9511SOL     OW40168   3.175   2.987   5.986  0.2640 -0.0581  0.0938
 9511SOL    HW140169   3.262   3.026   5.992  1.3406 -2.0563 -2.4290
 9511SOL    HW240170   3.176   2.935   5.905 -2.9208 -0.5779  0.3677
 9512SOL     OW40171   2.457   3.276   3.948  0.4220 -0.1755 -0.1491
 9512SOL    HW140172   2.531   3.334   3.966 -0.4518  0.5526  1.0303
 9512SOL    HW240173   2.447   3.300   3.856 -0.4542 -0.3116 -0.0854
 9513SOL     OW40174   3.958   0.661   7.271  0.3956 -0.1879  0.0289
 9513SOL    HW140175   3.935   0.736   7.326 -2.6656 -0.1835 -1.2883
 9513SOL    HW240176   3.972   0.595   7.339  1.2260 -1.3844 -1.2945
 9514SOL     OW40177   3.860   4.292   4.627  0.0736 -0.9191  0.4099
 9514SOL    HW140178   3.855   4.259   4.538 -0.9591 -1.9786  0.8680
 9514SOL    HW240179   3.794   4.236   4.668  2.1390 -2.3044  1.9080
 9515SOL     OW40180   0.480   2.037   2.120 -0.2756 -0.2728 -0.4506
 9515SOL    HW140181   0.434   2.046   2.203  0.0530  1.2002 -0.4349
 9515SOL    HW240182   0.454   2.116   2.071 -0.9939 -0.3613 -0.2224
 9516SOL     OW40183   2.389   4.694  16.472  0.3116  0.3451 -0.0293
 9516SOL    HW140184   2.460   4.712  16.411 -0.6402 -0.4576 -1.3595
 9516SOL    HW240185   2.421   4.609  16.502  2.2785  0.3112 -2.2322
 9517SOL     OW40186   2.742   3.617   7.608 -0.0427  0.0393  0.2272
 9517SOL    HW140187   2.654   3.641   7.637 -0.4618  1.2156 -2.0701
 9517SOL    HW240188   2.726   3.616   7.514  3.0592 -0.6365 -0.3032
 9518SOL     OW40189   1.597   2.361   4.178  0.6248  0.0897  0.0174
 9518SOL    HW140190   1.502   2.348   4.167  0.5123  0.3351  0.7340
 9518SOL    HW240191   1.604   2.349   4.273  0.3681  1.1849  0.1761
 9519SOL     OW40192   1.294   1.885   8.229  0.0663  0.0204 -0.1090
 9519SOL    HW140193   1.387   1.908   8.220 -0.5684  1.3009 -3.4437
 9519SOL    HW240194   1.258   1.973   8.239  0.5557  0.4441 -2.1828
 9520SOL     OW40195   0.949   1.674   9.093  0.0391 -0.5136  0.1083
 9520SOL    HW140196   0.948   1.745   9.029 -0.4656  2.9883  3.9544
 9520SOL    HW240197   0.957   1.723   9.175 -0.1558  2.2033 -1.4910
 9521SOL     OW40198   2.292   2.269   7.539 -0.1482 -0.0637  0.2062
 9521SOL    HW140199   2.271   2.195   7.484 -0.3747  0.5784 -0.5708
 9521SOL    HW240200   2.214   2.324   7.544  0.4362  0.5163  3.4588
 9522SOL     OW40201   0.871   4.034   2.969 -0.5664 -0.1216  0.3184
 9522SOL    HW140202   0.869   3.978   3.047 -1.1702  0.6351  0.8584
 9522SOL    HW240203   0.921   4.102   3.016 -2.1994  0.8288  0.6800
 9523SOL     OW40204   4.207   3.297   0.279 -0.7382 -0.4093  0.2349
 9523SOL    HW140205   4.210   3.202   0.268  1.9867 -0.3652  0.5644
 9523SOL    HW240206   4.220   3.334   0.192  2.4172  0.6963  1.1783
 9524SOL     OW40207   1.637   2.437   3.269 -0.4028  0.7377 -0.1458
 9524SOL    HW140208   1.709   2.443   3.206  0.5870 -1.1751  0.8105
 9524SOL    HW240209   1.686   2.428   3.350  0.3249 -0.7390 -0.7298
 9525SOL     OW40210   3.017   0.888   4.443  0.2012 -0.1329 -0.1224
 9525SOL    HW140211   3.028   0.870   4.536  1.4038  2.0435  0.1518
 9525SOL    HW240212   2.970   0.971   4.438 -0.7219 -0.9403 -4.4455
 9526SOL     OW40213   1.041   1.706   7.845  0.5438  0.2348 -0.9634
 9526SOL    HW140214   0.990   1.733   7.768 -0.8594 -0.6663 -0.3490
 9526SOL    HW240215   0.989   1.643   7.896 -0.5167 -0.3133 -2.6909
 9527SOL     OW40216   2.910   2.125   2.823 -0.3897 -0.6349 -0.2311
 9527SOL    HW140217   2.821   2.158   2.823 -0.0453  0.3040  0.5100
 9527SOL    HW240218   2.938   2.131   2.915  0.5624 -1.5643 -0.4690
 9528SOL     OW40219   3.606   2.147   6.139 -0.1059  0.4646  0.5937
 9528SOL    HW140220   3.604   2.115   6.049  1.0134  2.2122 -0.0543
 9528SOL    HW240221   3.701   2.152   6.149  0.0431  2.7601 -1.8851
 9529SOL     OW40222   0.606   4.104   2.309 -0.3209 -0.0604 -0.5530
 9529SOL    HW140223   0.621   4.046   2.383 -0.4870 -0.3874 -0.7746
 9529SOL    HW240224   0.697   4.101   2.279  0.0965  1.1973  0.5925
 9530SOL     OW40225   2.531   3.125   6.882  0.0175  0.0606  0.1280
 9530SOL    HW140226   2.477   3.145   6.806  0.0444  0.2490  0.1575
 9530SOL    HW240227   2.478   3.182   6.937 -0.3605 -0.4448  0.2774
 9531SOL     OW40228   1.090   3.131   3.754  0.2581  0.2633  0.1292
 9531SOL    HW140229   1.139   3.187   3.694  3.4568  1.1483  3.5875
 9531SOL    HW240230   1.155   3.086   3.808  0.6878 -1.2477 -1.6080
 9532SOL     OW40231   4.689   3.598   4.261 -0.1870  1.0833  0.2992
 9532SOL    HW140232   4.635   3.540   4.207  1.8731 -0.3127 -0.2381
 9532SOL    HW240233   4.725   3.536   4.325 -1.7671  0.7936  0.9122
 9533SOL     OW40234   2.360   2.216   2.796  0.0813  0.0051 -0.2345
 9533SOL    HW140235   2.448   2.254   2.792 -0.8619  1.9894 -2.3880
 9533SOL    HW240236   2.337   2.245   2.885  1.7926 -0.6297  0.4279
 9534SOL     OW40237   1.250   1.235   7.505  0.3646  0.6840 -0.2582
 9534SOL    HW140238   1.339   1.253   7.477 -0.8158  1.5529 -3.3969
 9534SOL    HW240239   1.218   1.325   7.513  3.2379  1.5630  1.2759
 9535SOL     OW40240   1.434   1.425   8.784  0.3527  0.7037 -0.3899
 9535SOL    HW140241   1.400   1.365   8.851 -1.1104  0.3975 -1.4098
 9535SOL    HW240242   1.359   1.484   8.793  1.0225  1.1839  2.0047
 9536SOL     OW40243   2.787   1.281   7.420 -0.2219  0.0820 -0.5486
 9536SOL    HW140244   2.812   1.273   7.512  1.6074  1.7804 -0.9136
 9536SOL    HW240245   2.695   1.306   7.423 -0.2255 -0.1208  1.4839
 9537SOL     OW40246   0.192   0.355   9.981 -0.1351  0.3043  0.1840
 9537SOL    HW140247   0.190   0.427  10.044 -4.4762  1.6762 -1.5504
 9537SOL    HW240248   0.099   0.346   9.964 -0.0043  2.7241 -1.6650
 9538SOL     OW40249   2.060   2.710   7.345 -0.2137 -0.3004 -0.5104
 9538SOL    HW140250   2.060   2.794   7.390 -0.0872  0.0978 -1.2433
 9538SOL    HW240251   2.084   2.653   7.418 -1.7255  1.2997  1.2336
 9539SOL     OW40252   0.340   3.656   7.478  0.1910 -0.3213 -0.3018
 9539SOL    HW140253   0.294   3.578   7.448 -0.6489  0.3648 -0.8218
 9539SOL    HW240254   0.397   3.672   7.402  0.4714 -1.6600 -0.3769
 9540SOL     OW40255   1.450   2.735  17.578 -0.0629 -0.2026  0.4944
 9540SOL    HW140256   1.436   2.682  17.499  1.4017  0.5172 -0.2485
 9540SOL    HW240257   1.375   2.708  17.630 -1.2160 -0.3485 -1.2469
 9541SOL     OW40258   2.248   2.995  14.318  0.0426  0.1690  0.2948
 9541SOL    HW140259   2.336   2.977  14.284 -0.9630 -0.7413 -1.8893
 9541SOL    HW240260   2.211   2.915  14.279  0.1837  1.1954 -1.9809
 9542SOL     OW40261   1.342   4.285  10.734 -1.2896 -0.0069 -0.5810
 9542SOL    HW140262   1.285   4.212  10.710 -0.0848 -0.3322 -2.4844
 9542SOL    HW240263   1.273   4.340  10.772  1.1038  1.5490  1.4912
 9543SOL     OW40264   3.356   4.712   8.372 -0.2226  0.2878 -0.2515
 9543SOL    HW140265   3.334   4.627   8.410 -2.2161  0.3971 -1.1248
 9543SOL    HW240266   3.296   4.714   8.297  0.0024  2.4508 -0.3947
 9544SOL     OW40267   2.237   3.840   7.813 -0.4867  0.9964  0.3959
 9544SOL    HW140268   2.157   3.882   7.782  0.6312  2.2722 -0.7230
 9544SOL    HW240269   2.229   3.829   7.908  0.0880 -0.2340  0.3109
 9545SOL     OW40270   1.324   0.626   9.399  0.1183  0.1487 -0.2409
 9545SOL    HW140271   1.320   0.618   9.494 -1.6630 -2.9072 -0.5726
 9545SOL    HW240272   1.339   0.535   9.371 -0.9959 -0.6401  1.6662
 9546SOL     OW40273   0.709   1.235   6.255 -0.1596  1.2774 -0.1842
 9546SOL    HW140274   0.639   1.171   6.266  1.4259 -0.7752 -2.2503
 9546SOL    HW240275   0.784   1.176   6.268  1.5482  3.3910 -0.3853
 9547SOL     OW40276   3.070   0.425   3.201  0.4201  0.0210  0.6934
 9547SOL    HW140277   3.066   0.369   3.124 -0.6760  1.5711 -0.3665
 9547SOL    HW240278   3.041   0.507   3.163 -0.5925 -0.7520 -0.2056
 9548SOL     OW40279   2.508   2.682   7.107  0.2982 -0.1353  0.5005
 9548SOL    HW140280   2.446   2.675   7.180 -0.3307 -0.5796 -0.0816
 9548SOL    HW240281   2.537   2.773   7.113  2.3787 -0.8786  1.5234
 9549SOL     OW40282   0.939   3.302   4.827 -0.4509 -0.0588 -1.1066
 9549SOL    HW140283   0.857   3.317   4.780 -0.6850 -0.5054 -0.8429
 9549SOL    HW240284   0.942   3.348   4.910  0.6503 -2.3092  0.0902
 9550SOL     OW40285   2.979   2.276   3.868  0.2521 -0.4376 -0.1617
 9550SOL    HW140286   3.050   2.313   3.921 -0.2906  0.8821 -0.3561
 9550SOL    HW240287   2.910   2.342   3.871  0.0062 -0.6982 -0.0814
 9551SOL     OW40288   2.178   1.683  16.852  0.0916  0.5849  0.1971
 9551SOL    HW140289   2.089   1.700  16.884  0.3219  2.0082  0.0729
 9551SOL    HW240290   2.151   1.672  16.761 -2.4702  0.2196  1.0022
 9552SOL     OW40291   0.466   2.051   6.103 -0.0438  0.3658  0.1758
 9552SOL    HW140292   0.512   2.117   6.051 -3.5818  0.7235 -2.4851
 9552SOL    HW240293   0.513   2.063   6.185  1.3523 -2.2867 -0.2292
 9553SOL     OW40294   2.801   1.953   7.098 -0.3880  0.3355 -0.0491
 9553SOL    HW140295   2.707   1.936   7.090 -0.1863 -0.3656 -1.0365
 9553SOL    HW240296   2.798   2.047   7.081  0.5106  0.0495 -1.7928
 9554SOL     OW40297   3.979   4.145   2.512  0.0140 -0.0661 -0.3626
 9554SOL    HW140298   4.001   4.085   2.441 -0.3489  2.1908 -2.3949
 9554SOL    HW240299   4.008   4.232   2.487 -0.7727  0.5631  0.8970
 9555SOL     OW40300   1.520   2.259  14.060 -0.5077  0.1065  0.1575
 9555SOL    HW140301   1.560   2.346  14.067 -0.9192  0.3176 -0.1275
 9555SOL    HW240302   1.427   2.278  14.056 -0.2593  0.8193 -2.3946
 9556SOL     OW40303   1.061   0.038  11.638  0.0495  0.1888  0.1323
 9556SOL    HW140304   1.096   0.071  11.555  0.2370  0.3644  0.2793
 9556SOL    HW240305   1.002   0.108  11.665  0.8669  0.5028  1.0935
 9557SOL     OW40306   3.175   0.252   3.601  0.3752 -0.2403  0.0526
 9557SOL    HW140307   3.250   0.297   3.563 -0.4270 -1.1508 -2.5779
 9557SOL    HW240308   3.206   0.241   3.691 -3.0498 -1.1057  1.1570
 9558SOL     OW40309   4.079   3.457  13.950 -0.5012  0.5099  0.4471
 9558SOL    HW140310   4.172   3.440  13.969 -0.7105 -0.8277  0.2911
 9558SOL    HW240311   4.069   3.542  13.992 -0.9702  0.4336  0.4917
 9559SOL     OW40312   4.022   2.564   8.590 -0.4162 -0.0260  0.4154
 9559SOL    HW140313   3.959   2.572   8.661 -0.3497  3.0270  0.1321
 9559SOL    HW240314   4.089   2.626   8.621  0.6893 -0.8652 -0.2953
 9560SOL     OW40315   2.081   3.009   5.369  0.5158 -0.8890  0.5719
 9560SOL    HW140316   2.155   2.976   5.319 -0.4661  0.6198 -1.8881
 9560SOL    HW240317   2.016   3.033   5.302 -0.2309  0.1749  1.6806
 9561SOL     OW40318   3.966   0.554  16.121 -0.2392 -0.7589  0.2366
 9561SOL    HW140319   4.030   0.513  16.179  1.7418  0.6411 -0.9442
 9561SOL    HW240320   4.035   0.610  16.085 -0.7078  0.1912  0.8144
 9562SOL     OW40321   0.620   2.940   0.038 -0.2980 -0.1103  0.2720
 9562SOL    HW140322   0.694   2.922   0.097  0.5059  2.4676  0.0710
 9562SOL    HW240323   0.591   2.863  17.736  1.2341  0.2313 -1.1969
 9563SOL     OW40324   2.600   2.247   4.539  0.4141 -0.1141 -0.0465
 9563SOL    HW140325   2.554   2.169   4.508  0.3147 -0.0301 -0.1131
 9563SOL    HW240326   2.663   2.273   4.472 -1.0089  1.2295 -0.8656
 9564SOL     OW40327   2.601   4.344   5.288  0.1569 -0.3113  0.0006
 9564SOL    HW140328   2.586   4.348   5.382 -0.5265 -0.2004 -0.1162
 9564SOL    HW240329   2.512   4.323   5.261  0.1892 -0.3394 -0.0850
 9565SOL     OW40330   1.188   0.907   4.550 -0.4237  0.5033  0.1019
 9565SOL    HW140331   1.238   0.955   4.484 -1.2262 -0.0677 -0.9269
 9565SOL    HW240332   1.178   0.826   4.500  0.3993  0.3124  0.2510
 9566SOL     OW40333   2.858   1.248  12.303  0.5130 -0.3808  0.0829
 9566SOL    HW140334   2.878   1.331  12.258 -0.3877 -0.1010  0.2055
 9566SOL    HW240335   2.922   1.250  12.374 -2.2495 -1.3174  2.5921
 9567SOL     OW40336   2.376   0.655   3.345 -0.2290  0.0938 -0.4403
 9567SOL    HW140337   2.331   0.612   3.418  0.0349  0.0023 -0.3312
 9567SOL    HW240338   2.448   0.592   3.335 -1.1645 -0.4859 -3.3308
 9568SOL     OW40339   1.018   4.295   4.538 -0.1924 -0.0404  0.9268
 9568SOL    HW140340   1.016   4.246   4.620  0.2411 -2.2332 -0.3780
 9568SOL    HW240341   1.002   4.383   4.573  1.4571  0.0536  1.4592
 9569SOL     OW40342   4.410   4.286  16.289 -0.1735 -0.0796 -0.4139
 9569SOL    HW140343   4.419   4.336  16.370  0.2021 -0.7305 -0.0550
 9569SOL    HW240344   4.397   4.198  16.323 -0.5401  0.5445  1.0601
   4.73672   4.73672  17.74532
