Membrane in water
40344
    1TMC1    C1    1   1.309   0.150  11.536  0.2297  0.0169 -0.2258
    1TMC1    C2    2   1.226   0.252  11.533 -0.4029  0.2862 -0.8009
    1TMC1    C3    3   1.278   0.383  11.533  0.3464 -0.4263 -0.2472
    1TMC1    C4    4   1.443   0.171  11.508  0.1131  0.5965 -0.5991
    1TMC1    C5    5   1.487   0.298  11.483 -0.0176 -0.4688 -0.4586
    1TMC1    C6    6   1.411   0.411  11.507  0.5414  0.1768 -0.0785
    1TMC1     C    7   1.259   0.031  11.587 -0.3244 -0.1706 -0.6585
    1TMC1     O    8   1.138   0.020  11.608 -0.0536  0.1249  0.5291
    1TMC1     H    9   1.120   0.232  11.532 -0.6586  1.3993  1.9945
    1TMC1    H1   10   1.506   0.086  11.483  0.7642  0.8716  0.1142
    1TMC1    H2   11   1.462   0.507  11.506  0.7998  0.0431  0.9066
    1TMC1    C7   12   1.635   0.306  11.478 -0.8859  0.0789 -0.2542
    1TMC1    C8   13   1.191   0.498  11.540  0.8958  0.6704 -0.1608
    1TMC1    O1   14   1.716   0.260  11.557 -0.2124 -0.2082  0.6266
    1TMC1    O2   15   1.229   0.606  11.586 -1.0429  0.4745 -0.1356
    1TMC1    O3   16   1.657   0.418  11.406  0.2906  0.1244 -0.0314
    1TMC1    H3   17   1.591   0.427  11.334 -0.1884  2.0800  0.6437
    1TMC1    O5   18   1.064   0.470  11.510  0.0214 -0.3412 -0.1842
    1TMC1    H5   19   1.055   0.389  11.455  0.2727 -1.2942  1.1918
    2MPD2     C   20   1.332   4.316  11.788 -0.4927 -0.6718  0.3982
    2MPD2    C1   21   1.218   4.395  11.793 -0.1841 -0.3854  0.2015
    2MPD2    C2   22   1.228   4.521  11.736  0.2443 -0.1442 -0.6540
    2MPD2    C3   23   1.344   4.561  11.667  0.3091  0.1941 -0.1079
    2MPD2    C4   24   1.454   4.482  11.673  0.3144 -0.3584 -0.5981
    2MPD2    C5   25   1.449   4.366  11.739  0.3482 -0.6183  0.1684
    2MPD2     H   26   1.143   4.588  11.741  0.8474  0.6032 -0.6184
    2MPD2    H1   27   1.553   4.511  11.640  0.1227  0.4065 -0.5046
    2MPD2    H2   28   1.341   4.215  11.827 -1.3041 -1.0503 -0.3827
    2MPD2    H3   29   1.541   4.311  11.754  1.2304  1.4188  2.1001
    2MPD2     N   30   1.365   4.686  11.603 -0.6570 -0.1105 -0.0077
    2MPD2    H5   31   1.458   4.711  11.572  0.1785 -2.8150  0.3041
    2MPD2    N1   32   1.097   4.360  11.855 -0.2429 -0.2328  0.2501
    2MPD2    H7   33   1.017   4.423  11.856 -1.1024 -1.3276  0.5794
    3TMC1    C1   34   0.541   0.853  10.658 -0.0347 -0.0354  0.1580
    3TMC1    C2   35   0.527   0.958  10.573 -0.0212  0.4432  0.0289
    3TMC1    C3   36   0.564   0.935  10.441 -0.0240 -0.0098  0.7381
    3TMC1    C4   37   0.582   0.730  10.622  0.3931 -0.2174  0.0136
    3TMC1    C5   38   0.605   0.713  10.485  0.3634 -0.2456  0.3168
    3TMC1    C6   39   0.603   0.815  10.395 -0.0883  0.1117 -0.4912
    3TMC1     C   40   0.478   0.855  10.786  0.3685 -0.4563  0.5112
    3TMC1     O   41   0.504   0.771  10.877 -0.1545 -0.1677  0.3859
    3TMC1     H   42   0.491   1.056  10.602  2.3639  1.2291  0.2916
    3TMC1    H1   43   0.605   0.647  10.687 -2.3752 -0.2463  0.9690
    3TMC1    H2   44   0.632   0.806  10.291 -0.9646 -0.3344 -0.6941
    3TMC1    C7   45   0.646   0.585  10.441  0.0110  0.0092 -0.4576
    3TMC1    C8   46   0.523   1.034  10.350  0.2515  0.1342  0.2452
    3TMC1    O1   47   0.712   0.584  10.338 -0.4294 -0.5957 -0.0111
    3TMC1    O2   48   0.481   1.024  10.240 -0.8468 -0.6320  0.4286
    3TMC1    O3   49   0.552   0.496  10.477 -0.1002 -0.3086 -0.1102
    3TMC1    H3   50   0.481   0.529  10.536 -0.2804 -1.7063  0.4545
    3TMC1    O5   51   0.585   1.149  10.389 -0.5860  0.0960 -0.1496
    3TMC1    H5   52   0.633   1.138  10.474  2.5789  0.6397 -1.8827
    4MPD2     C   53   0.144   1.086  11.110 -0.6315  0.1741  0.2795
    4MPD2    C1   54   0.164   1.167  11.000 -0.2180  1.2046  0.0403
    4MPD2    C2   55   0.252   1.132  10.899  0.3093  0.4436 -0.3314
    4MPD2    C3   56   0.311   1.011  10.907  0.3819  0.5792 -0.2094
    4MPD2    C4   57   0.295   0.929  11.014  0.4766  0.5571 -0.3105
    4MPD2    C5   58   0.210   0.967  11.114 -0.3032  0.0911  0.3103
    4MPD2     H   59   0.265   1.195  10.812  0.5637 -0.6064 -1.0618
    4MPD2    H1   60   0.330   0.827  11.025  0.4856  0.2986 -2.8056
    4MPD2    H2   61   0.075   1.111  11.190 -4.0729 -0.5729 -2.4814
    4MPD2    H3   62   0.203   0.909  11.206 -1.4009 -0.9285 -0.4287
    4MPD2     N   63   0.405   0.972  10.805 -0.1939  1.0866 -0.6048
    4MPD2    H5   64   0.406   1.030  10.722 -2.6297 -0.0196 -1.4178
    4MPD2    N1   65   0.102   1.291  10.969  0.2380 -0.0263 -0.0047
    4MPD2    H7   66   0.127   1.332  10.880 -1.9473 -1.2542 -1.1843
    5TCq1    O1   67   1.825   2.265  11.872  0.2897 -0.3007 -0.2058
    5TCq1    C1   68   1.742   2.334  11.792 -0.0217  0.1017  0.5720
    5TCq1    O2   69   1.641   2.392  11.825  0.2647 -0.3984 -0.0203
    5TCq1    C2   70   1.775   2.314  11.647 -0.1688 -0.1914  0.5047
    5TCq1    C3   71   1.855   2.208  11.607  0.1210 -0.1354 -0.2783
    5TCq1    C4   72   1.876   2.194  11.469 -0.7991  0.1820  0.5470
    5TCq1    C5   73   1.832   2.292  11.387 -0.0681 -0.4219 -0.0021
    5TCq1    C6   74   1.743   2.392  11.437  0.1376 -0.8549  0.7111
    5TCq1    C7   75   1.709   2.403  11.569  0.7258 -0.0758 -0.5469
    5TCq1    C8   76   1.663   2.468  11.342  0.1651  1.0775  0.2644
    5TCq1    O4   77   1.664   2.429  11.227  0.4491 -0.5518 -0.0330
    5TCq1    C9   78   1.941   2.078  11.414  0.4114  0.3040  0.4500
    5TCq1    O5   79   1.931   2.056  11.290  0.1184  0.6392 -0.1335
    5TCq1    O6   80   1.980   1.993  11.494  0.1926 -0.2166 -1.3457
    5TCq1    H1   81   1.897   2.219  11.824  0.3838 -0.5590  0.1793
    5TCq1    H2   82   1.906   2.133  11.665  1.4674  0.0213 -1.2432
    5TCq1    H3   83   1.852   2.298  11.280  0.0236 -0.2309  0.0251
    5TCq1    H4   84   1.650   2.481  11.616 -0.1410  0.1969 -2.0899
    6MPD2     C   85   1.456   2.773  11.402  0.6933  0.3646 -0.9896
    6MPD2    C1   86   1.499   2.657  11.343  0.0332 -0.5947 -0.6486
    6MPD2    C2   87   1.455   2.627  11.217  0.1728 -0.2623 -0.0654
    6MPD2    C3   88   1.343   2.694  11.160 -0.4227 -0.4085 -0.1503
    6MPD2    C4   89   1.294   2.806  11.230  0.1366 -0.8832 -0.0973
    6MPD2    C5   90   1.353   2.845  11.348  0.1479 -0.3411  0.7516
    6MPD2     H   91   1.493   2.547  11.154 -2.6929 -0.8894 -0.9732
    6MPD2    H1   92   1.216   2.867  11.187  2.6784  2.0650 -0.6169
    6MPD2    H2   93   1.490   2.815  11.495  0.5431 -0.0686 -0.7382
    6MPD2    H3   94   1.327   2.931  11.409 -0.4223 -0.2956  0.4493
    6MPD2     N   95   1.296   2.640  11.038 -0.0946  0.1707  0.4879
    6MPD2    H5   96   1.346   2.560  10.999  0.2839  1.0428 -0.8149
    6MPD2    N1   97   1.597   2.581  11.400 -0.2640  0.2118 -0.4861
    6MPD2    H7   98   1.632   2.609  11.491  0.6971  0.3476 -0.9043
    7TCq1    O1   99   3.713   2.698  13.243  0.2065  0.3117  0.7635
    7TCq1    C1  100   3.628   2.589  13.262  0.5102  0.1999  0.0923
    7TCq1    O2  101   3.578   2.523  13.173  0.1407 -0.2618  0.1465
    7TCq1    C2  102   3.613   2.559  13.401 -0.1301  0.2885 -0.0288
    7TCq1    C3  103   3.619   2.667  13.491 -0.1997 -0.6645  0.0260
    7TCq1    C4  104   3.624   2.636  13.626 -0.0067  0.5054  0.2110
    7TCq1    C5  105   3.606   2.511  13.680 -0.1442 -0.0045  0.8698
    7TCq1    C6  106   3.594   2.405  13.593  0.3660 -0.3854  0.1533
    7TCq1    C7  107   3.590   2.435  13.456  0.3681  0.4821  0.2571
    7TCq1    C8  108   3.674   2.290  13.633  0.0838 -0.8044  0.3611
    7TCq1    O4  109   3.751   2.251  13.549 -1.0749  0.1683 -0.4817
    7TCq1    C9  110   3.632   2.746  13.717  0.2535 -0.2625 -0.3902
    7TCq1    O5  111   3.603   2.723  13.840 -0.0791 -0.2278  0.3545
    7TCq1    O6  112   3.663   2.856  13.671 -0.0579  0.2869  0.1802
    7TCq1    H1  113   3.774   2.714  13.318  1.2989  0.1703 -0.1073
    7TCq1    H2  114   3.619   2.770  13.456  1.1333 -0.9899 -0.9531
    7TCq1    H3  115   3.621   2.492  13.786 -2.6094 -2.7529  0.7229
    7TCq1    H4  116   3.559   2.353  13.392 -1.0382  0.2560  1.2202
    8MPD2     C  117   3.914   2.007  13.982 -0.1197  0.2991 -0.1251
    8MPD2    C1  118   3.927   2.002  13.848 -0.1658 -0.0201  0.1841
    8MPD2    C2  119   3.844   2.083  13.772 -0.4114 -0.3841  0.4924
    8MPD2    C3  120   3.741   2.161  13.830 -0.5338  0.4352  0.0486
    8MPD2    C4  121   3.728   2.154  13.964  0.4487 -0.5899 -0.1213
    8MPD2    C5  122   3.815   2.079  14.037 -0.5166  0.0707  0.3163
    8MPD2     H  123   3.840   2.061  13.666  1.5914 -2.9539  0.9491
    8MPD2    H1  124   3.638   2.188  14.014  1.9971  1.1741  1.4235
    8MPD2    H2  125   3.979   1.946  14.043  1.8555  1.2747 -1.2513
    8MPD2    H3  126   3.793   2.056  14.140 -0.0005  0.8801  0.6014
    8MPD2     N  127   3.655   2.249  13.764  0.5718 -1.0072 -0.0284
    8MPD2    H5  128   3.589   2.300  13.823 -1.0766 -1.2192 -1.6882
    8MPD2    N1  129   4.027   1.919  13.786  0.5711 -0.1059  0.1372
    8MPD2    H7  130   4.093   1.881  13.853  2.2140  1.5151 -0.5695
    9TMC1    C1  131   0.785   1.378  11.321 -0.2934  0.9252  0.2043
    9TMC1    C2  132   0.809   1.281  11.226 -0.4609  0.1538 -0.2628
    9TMC1    C3  133   0.837   1.329  11.102 -0.9155  0.4737 -0.2603
    9TMC1    C4  134   0.778   1.510  11.288  0.3230  0.0565 -0.1484
    9TMC1    C5  135   0.807   1.554  11.169  0.4330  0.5349 -0.3200
    9TMC1    C6  136   0.850   1.466  11.076 -0.0252  0.4958 -0.1930
    9TMC1     C  137   0.724   1.342  11.445 -0.2349 -0.4620 -0.2374
    9TMC1     O  138   0.652   1.424  11.504  0.0884  0.0313 -0.0616
    9TMC1     H  139   0.785   1.176  11.236 -0.5811  0.2175  0.1131
    9TMC1    H1  140   0.731   1.580  11.357  0.2995  0.1482 -0.2584
    9TMC1    H2  141   0.888   1.510  10.984  0.3714 -1.3697 -0.9329
    9TMC1    C7  142   0.785   1.690  11.133 -0.1746 -0.4501  0.3881
    9TMC1    C8  143   0.851   1.223  11.001 -0.2846 -0.6767  0.8907
    9TMC1    O1  144   0.776   1.719  11.011  0.0611  0.0360  0.0714
    9TMC1    O2  145   0.780   1.122  11.016 -0.5314 -0.6338 -0.7340
    9TMC1    O3  146   0.827   1.773  11.231  0.3947 -0.0043 -0.5641
    9TMC1    H3  147   0.843   1.741  11.323  0.4503  1.8203  0.0651
    9TMC1    O5  148   0.884   1.286  10.884 -0.0258 -0.0312  0.3875
    9TMC1    H5  149   0.957   1.351  10.891  1.0327 -0.9431 -2.3095
   10MPD2     C  150   0.593   1.201  11.671 -0.0962  0.1424 -0.0632
   10MPD2    C1  151   0.705   1.153  11.608 -0.5075 -0.1699  0.1464
   10MPD2    C2  152   0.777   1.043  11.648  0.3578  0.3319  0.4557
   10MPD2    C3  153   0.718   0.963  11.741  0.4497  0.0383  0.3659
   10MPD2    C4  154   0.603   1.006  11.803 -0.3107  0.0087 -1.0761
   10MPD2    C5  155   0.543   1.125  11.769 -0.0498 -0.1886 -0.0581
   10MPD2     H  156   0.870   1.015  11.600  0.4457  0.4108  0.5782
   10MPD2    H1  157   0.570   0.966  11.898 -0.0505  2.4244  0.0342
   10MPD2    H2  158   0.540   1.289  11.639 -0.4185 -0.7616 -1.9996
   10MPD2    H3  159   0.459   1.168  11.823 -1.2496 -1.5637 -0.8397
   10MPD2     N  160   0.768   0.843  11.783 -0.0571  0.1759 -1.0578
   10MPD2    H5  161   0.705   0.793  11.844  2.0804 -1.0728  0.1246
   10MPD2    N1  162   0.753   1.214  11.490 -0.2355  0.1128  0.0652
   10MPD2    H7  163   0.834   1.179  11.440 -0.4353  0.3458 -0.4225
   11TCq1    O1  164   0.995   0.312  13.805  0.2926  0.2596  0.1883
   11TCq1    C1  165   1.082   0.339  13.704  0.2908 -0.2128 -0.1503
   11TCq1    O2  166   1.100   0.274  13.603  0.0947  0.3908 -0.0333
   11TCq1    C2  167   1.182   0.421  13.768  0.0276  0.3384  0.2238
   11TCq1    C3  168   1.146   0.518  13.861 -0.0178  1.0610  0.2439
   11TCq1    C4  169   1.238   0.570  13.951  0.0945  0.0690  0.3936
   11TCq1    C5  170   1.363   0.516  13.961  0.2034  0.1807 -0.0909
   11TCq1    C6  171   1.391   0.410  13.874 -0.1617 -0.5645  0.0388
   11TCq1    C7  172   1.299   0.361  13.782  0.0858 -0.6809 -0.3130
   11TCq1    C8  173   1.524   0.354  13.890  0.0411  0.0171 -0.2167
   11TCq1    O4  174   1.601   0.419  13.966  0.3520 -0.1262 -0.2005
   11TCq1    C9  175   1.206   0.671  14.054  0.5500  0.2877  0.2144
   11TCq1    O5  176   1.287   0.691  14.147  0.6953  0.4972  0.2481
   11TCq1    O6  177   1.089   0.719  14.053 -0.2780  0.3515  0.8705
   11TCq1    H1  178   1.020   0.365  13.883  0.6348  1.0541 -0.4658
   11TCq1    H2  179   1.044   0.557  13.865 -0.3759  0.3195 -1.7178
   11TCq1    H3  180   1.426   0.540  14.045  1.7088 -2.1757 -0.5281
   11TCq1    H4  181   1.320   0.279  13.716  1.3093  0.5995 -1.5057
   12MPD2     C  182   1.774   0.228  13.858  0.0328 -0.2924  0.2498
   12MPD2    C1  183   1.659   0.159  13.836 -0.2233  0.5183  0.6873
   12MPD2    C2  184   1.664   0.026  13.800 -0.3678  0.0378  0.7301
   12MPD2    C3  185   1.786   4.698  13.797 -0.1919  0.3568 -0.0498
   12MPD2    C4  186   1.903   0.030  13.805 -0.8460  0.1792 -1.5387
   12MPD2    C5  187   1.900   0.160  13.844  0.1616  0.0171  0.4149
   12MPD2     H  188   1.572   4.710  13.798  0.6875 -1.5179 -1.8082
   12MPD2    H1  189   2.000   4.734  13.774 -1.5285 -0.2660 -3.1077
   12MPD2    H2  190   1.788   0.335  13.874 -1.2966 -0.0373 -0.2907
   12MPD2    H3  191   1.994   0.212  13.856 -1.8654  3.2492  2.6282
   12MPD2     N  192   1.795   4.564  13.776  0.5100  0.3911  0.9608
   12MPD2    H5  193   1.887   4.520  13.783 -0.7214 -2.2659  0.3401
   12MPD2    N1  194   1.538   0.228  13.836  0.8375 -0.4792 -0.2280
   12MPD2    H7  195   1.456   0.181  13.799  0.0657  2.8239 -2.7294
   13TCq1    O1  196   1.650   0.837  10.887 -0.1125 -0.3750 -0.4136
   13TCq1    C1  197   1.682   0.937  10.807  0.2880  0.2615 -0.3649
   13TCq1    O2  198   1.797   0.972  10.788  0.4973 -0.1590 -0.4242
   13TCq1    C2  199   1.567   0.960  10.720 -0.0826 -0.2647  0.1880
   13TCq1    C3  200   1.585   0.990  10.588 -0.2799  0.0904  0.5861
   13TCq1    C4  201   1.472   1.007  10.509 -0.0036 -0.0392 -0.5976
   13TCq1    C5  202   1.347   0.996  10.561  0.0085  0.5555 -0.3032
   13TCq1    C6  203   1.330   0.966  10.691 -0.0154  0.3696  0.2269
   13TCq1    C7  204   1.442   0.949  10.773 -0.1962  0.5776 -0.4638
   13TCq1    C8  205   1.204   0.969  10.755 -0.2815 -0.8267 -0.4476
   13TCq1    O4  206   1.198   1.023  10.865 -0.0736 -0.0083  0.5339
   13TCq1    C9  207   1.483   1.013  10.363  0.4449  0.8489 -0.2830
   13TCq1    O5  208   1.598   1.034  10.321  0.4019 -0.1384  0.0370
   13TCq1    O6  209   1.383   0.997  10.292  0.4015  0.1220 -0.4052
   13TCq1    H1  210   1.555   0.819  10.877 -0.3747  0.4092  0.6222
   13TCq1    H2  211   1.685   0.993  10.547  0.0536  0.1433  1.4101
   13TCq1    H3  212   1.268   1.023  10.492  0.3564  2.0216 -0.1245
   13TCq1    H4  213   1.418   0.915  10.873 -2.1593  1.6632 -0.5570
   14MPD2     C  214   0.982   0.681  10.696 -0.2568 -0.8344 -0.1104
   14MPD2    C1  215   1.020   0.803  10.756  0.2579 -0.2486 -0.7955
   14MPD2    C2  216   0.951   0.855  10.862 -0.3557 -0.2635  0.3501
   14MPD2    C3  217   0.846   0.778  10.914  0.5249  0.5261 -0.0787
   14MPD2    C4  218   0.806   0.663  10.854 -0.2108 -0.1500  0.1207
   14MPD2    C5  219   0.878   0.602  10.753  0.4251 -0.3604 -0.0242
   14MPD2     H  220   0.981   0.952  10.900 -0.7792 -0.3791  0.9912
   14MPD2    H1  221   0.728   0.603  10.899  1.0313 -1.0938  1.0168
   14MPD2    H2  222   1.033   0.648  10.607  1.3575 -1.4307  1.0287
   14MPD2    H3  223   0.852   0.513  10.697  0.9786  0.1099 -1.0330
   14MPD2     N  224   0.784   0.827  11.038 -0.5047  0.0660  0.2579
   14MPD2    H5  225   0.800   0.926  11.052  1.1956  0.1699 -2.2703
   14MPD2    N1  226   1.126   0.874  10.698 -0.0257  0.2040  0.1560
   14MPD2    H7  227   1.163   0.830  10.614  0.1152  1.0228 -0.2122
   15TCq1    O1  228   3.987   4.166   2.501 -0.0106  0.0960  0.7927
   15TCq1    C1  229   3.869   4.122   2.454  0.1274  0.3101  0.0534
   15TCq1    O2  230   3.841   4.006   2.432  0.0770  0.1300  0.1415
   15TCq1    C2  231   3.813   4.233   2.385  0.5583 -0.4775  0.9842
   15TCq1    C3  232   3.776   4.339   2.467  0.5558  0.7112 -0.0291
   15TCq1    C4  233   3.712   4.440   2.400 -0.1051 -0.4194  0.4190
   15TCq1    C5  234   3.674   4.429   2.270 -0.4608  0.3483  0.2524
   15TCq1    C6  235   3.712   4.310   2.201  0.0942 -0.0723 -0.0183
   15TCq1    C7  236   3.784   4.220   2.258  0.1973 -0.0480 -0.2834
   15TCq1    C8  237   3.698   4.303   2.064  0.1212 -0.2868 -0.6106
   15TCq1    O4  238   3.776   4.232   2.003 -0.1659  0.3300  0.2678
   15TCq1    C9  239   3.691   4.552   2.477 -0.2360  0.0298 -0.3287
   15TCq1    O5  240   3.613   4.638   2.429  0.7190 -1.2026 -0.3153
   15TCq1    O6  241   3.721   4.542   2.600  0.4276 -0.3031  0.4060
   15TCq1    H1  242   3.991   4.264   2.499  1.6368  0.0243  0.4686
   15TCq1    H2  243   3.801   4.347   2.572 -0.2299  0.7139  0.1564
   15TCq1    H3  244   3.617   4.506   2.219 -1.0046  0.3948  0.9213
   15TCq1    H4  245   3.820   4.130   2.209 -0.3482 -0.5994  0.3132
   16MPD2     C  246   3.453   4.506   1.885 -0.6689 -0.4179  0.4248
   16MPD2    C1  247   3.552   4.413   1.893  0.3778  0.2769 -0.5678
   16MPD2    C2  248   3.627   4.376   1.785 -0.5300 -0.2779  0.1321
   16MPD2    C3  249   3.573   4.404   1.660 -0.6705  0.0218  0.4889
   16MPD2    C4  250   3.473   4.499   1.649 -0.8879  0.0879 -0.3399
   16MPD2    C5  251   3.414   4.547   1.764  0.4743  0.2232  0.2223
   16MPD2     H  252   3.706   4.303   1.795  2.6515  3.2530  0.6952
   16MPD2    H1  253   3.430   4.528   1.554 -0.7192 -0.0130 -0.4458
   16MPD2    H2  254   3.394   4.523   1.974  0.1937  0.6425  0.7933
   16MPD2    H3  255   3.335   4.620   1.751 -0.8343 -0.7015  2.8902
   16MPD2     N  256   3.623   4.339   1.545  0.3563 -0.6537  0.0778
   16MPD2    H5  257   3.694   4.269   1.562  0.0603 -0.3568  2.6269
   16MPD2    N1  258   3.588   4.378   2.027  0.0060  0.2565 -0.3382
   16MPD2    H7  259   3.525   4.414   2.099 -0.9592 -2.2559  0.0991
   17TMC1    C1  260   0.348   0.246  11.021  0.3450  0.1598  0.4274
   17TMC1    C2  261   0.242   0.331  11.007  0.4283  0.0896 -0.1844
   17TMC1    C3  262   0.158   0.331  11.110  0.3271  0.2783 -0.5900
   17TMC1    C4  263   0.382   0.174  11.133 -0.4151 -0.0171  0.4140
   17TMC1    C5  264   0.292   0.178  11.239 -0.4519 -0.4011  0.7670
   17TMC1    C6  265   0.180   0.254  11.224 -0.7028 -1.1810 -0.2559
   17TMC1     C  266   0.435   0.238  10.905  0.0890  0.0526 -0.1450
   17TMC1     O  267   0.378   0.242  10.796 -0.3484 -0.4349  0.0872
   17TMC1     H  268   0.204   0.376  10.916  0.6538 -0.5832 -0.6144
   17TMC1    H1  269   0.469   0.109  11.133 -0.4929 -0.1157 -0.3139
   17TMC1    H2  270   0.126   0.273  11.316 -0.1642 -1.7532  0.1725
   17TMC1    C7  271   0.300   0.070  11.329  0.1481 -0.5757 -0.1849
   17TMC1    C8  272   0.066   0.444  11.125  0.7746 -0.3023  0.7385
   17TMC1    O1  273   0.405   0.004  11.350  0.1565 -0.5279 -0.2496
   17TMC1    O2  274   4.731   0.445  11.220 -0.4893 -0.7920  0.2252
   17TMC1    O3  275   0.173   0.013  11.333 -0.2463  0.2731 -0.5501
   17TMC1    H3  276   0.098   0.070  11.306  1.3327  2.7582  0.3526
   17TMC1    O5  277   0.149   0.546  11.111  0.5077 -0.0820 -0.4341
   17TMC1    H5  278   0.235   0.528  11.066  2.2526 -0.2844  3.0262
   18MPD2     C  279   0.646   0.255  10.701  0.8975  1.0636  0.2236
   18MPD2    C1  280   0.676   0.241  10.837 -0.1438  0.1188 -0.2311
   18MPD2    C2  281   0.813   0.243  10.882 -0.5694 -0.8403  0.2556
   18MPD2    C3  282   0.915   0.237  10.786  0.1353  0.2241  0.1625
   18MPD2    C4  283   0.881   0.243  10.649 -0.1474  0.1391 -0.1784
   18MPD2    C5  284   0.752   0.259  10.615  0.2570  0.2923  0.4983
   18MPD2     H  285   0.834   0.242  10.988 -2.4980  2.3834  0.6685
   18MPD2    H1  286   0.960   0.234  10.576  0.1728 -1.3231  0.3477
   18MPD2    H2  287   0.549   0.279  10.659  0.1575 -1.4321  0.5307
   18MPD2    H3  288   0.714   0.266  10.513  0.5931 -1.5913  0.2566
   18MPD2     N  289   1.051   0.216  10.822  0.8439 -0.1642  0.9840
   18MPD2    H5  290   1.117   0.203  10.746  0.0986 -1.2520  0.5186
   18MPD2    N1  291   0.572   0.233  10.927  0.7563 -0.3007 -0.2971
   18MPD2    H7  292   0.611   0.233  11.020  0.7484  1.3489 -0.2931
   19TMC2    C1  293   2.526   0.636  14.089 -0.0164 -0.1888 -0.3798
   19TMC2    C2  294   2.444   0.679  13.984  0.1747 -0.1856  0.1240
   19TMC2    C3  295   2.359   0.595  13.923 -0.4694 -0.3050  0.8897
   19TMC2    C4  296   2.519   0.511  14.140 -0.0131  0.4509  0.2241
   19TMC2    C5  297   2.427   0.426  14.081 -0.2362 -0.1105 -0.0365
   19TMC2    C6  298   2.352   0.462  13.970 -0.2712 -0.0789  0.4175
   19TMC2     C  299   2.631   0.720  14.124  0.0974 -0.4365  0.4507
   19TMC2     O  300   2.626   0.836  14.090  0.4234 -0.2432 -0.1964
   19TMC2     H  301   2.444   0.783  13.954 -1.1499 -0.5963 -1.2876
   19TMC2    H1  302   2.563   0.474  14.232  0.7075  0.7413 -0.0060
   19TMC2    H2  303   2.276   0.399  13.924 -0.1305  0.6218 -0.7910
   19TMC2    C7  304   2.423   0.291  14.123 -0.5047  0.3070 -0.6326
   19TMC2    C8  305   2.257   0.635  13.825 -0.5471  0.0308  0.7514
   19TMC2    O1  306   2.539   0.259  14.153 -0.2165 -0.4120 -0.0384
   19TMC2    O2  307   2.163   0.566  13.785  0.5823  0.1896  0.4073
   19TMC2    O5  308   2.273   0.766  13.793  0.3098 -0.3411 -0.0843
   19TMC2    H5  309   2.368   0.786  13.783  0.4410 -1.5463 -1.3039
   20MPD2     C  310   2.895   0.824  14.203 -0.8475 -0.5445  0.7244
   20MPD2    C1  311   2.862   0.688  14.203 -0.0604  0.1915 -0.2052
   20MPD2    C2  312   2.960   0.599  14.250 -0.5555  0.2585 -0.6972
   20MPD2    C3  313   3.073   0.648  14.310 -0.1386 -0.3040  0.0430
   20MPD2    C4  314   3.102   0.779  14.299  0.5075 -0.4606  0.2708
   20MPD2    C5  315   3.016   0.865  14.238 -0.1221 -0.2891 -0.8698
   20MPD2     H  316   2.931   0.495  14.242 -0.5910  0.1754  0.5453
   20MPD2    H1  317   3.200   0.808  14.337  0.9527 -2.8066  0.9274
   20MPD2    H2  318   2.822   0.902  14.189  0.7745  1.2328  2.0961
   20MPD2    H3  319   3.042   0.970  14.232 -0.2155 -0.2202 -0.1410
   20MPD2     N  320   3.172   0.576  14.378  0.5467 -0.1750 -0.6779
   20MPD2    H5  321   3.241   0.638  14.420  0.4792  0.9073 -2.1379
   20MPD2    N1  322   2.735   0.642  14.166 -0.5374  0.0443  0.0124
   20MPD2    H7  323   2.720   0.542  14.172 -2.8773  0.5528  2.1963
   21TMC2    C1  324   0.622   0.718  14.068  0.7657 -0.2631 -0.0878
   21TMC2    C2  325   0.727   0.634  14.067  0.2066 -0.3628 -1.2970
   21TMC2    C3  326   0.763   0.582  14.188  0.2569  0.2518  0.2964
   21TMC2    C4  327   0.531   0.716  14.176  0.3623  0.2059  0.5097
   21TMC2    C5  328   0.570   0.656  14.290  0.0449  0.3723  0.3457
   21TMC2    C6  329   0.686   0.588  14.303 -0.5134  0.0223 -0.4558
   21TMC2     C  330   0.599   0.800  13.956 -0.5802  0.2297  0.3854
   21TMC2     O  331   0.617   0.740  13.850  0.3969 -0.3963  0.3091
   21TMC2     H  332   0.798   0.624  13.987 -1.4064  1.6141 -2.9810
   21TMC2    H1  333   0.446   0.782  14.168  1.3506  1.4352  0.1413
   21TMC2    H2  334   0.712   0.524  14.386  0.3212  0.3094 -0.4936
   21TMC2    C7  335   0.529   0.718  14.416 -0.2634 -0.7099  0.4612
   21TMC2    C8  336   0.878   0.493  14.183  0.4389  0.0806 -0.2055
   21TMC2    O1  337   0.605   0.705  14.517 -0.4524 -0.4801 -0.4579
   21TMC2    O2  338   0.918   0.444  14.074  0.5470  0.1762 -0.1920
   21TMC2    O5  339   0.923   0.465  14.307  0.4007 -0.3878 -0.1828
   21TMC2    H5  340   0.898   0.524  14.381  0.3669 -0.8915  0.2097
   22MPD2     C  341   0.545   1.195  14.280  0.1235  0.1570  0.0571
   22MPD2    C1  342   0.648   1.111  14.267 -1.3337 -0.0528  0.0739
   22MPD2    C2  343   0.641   1.019  14.163  0.5798  0.0568 -0.0436
   22MPD2    C3  344   0.543   1.017  14.064  0.4401  0.6649 -0.4646
   22MPD2    C4  345   0.447   1.116  14.067 -0.2448 -0.5554 -0.4455
   22MPD2    C5  346   0.444   1.201  14.180  0.7731  0.2400  0.4578
   22MPD2     H  347   0.714   0.938  14.162  1.6284  0.9854  0.8910
   22MPD2    H1  348   0.370   1.133  13.993  1.5441  2.4213 -1.6302
   22MPD2    H2  349   0.522   1.250  14.371  1.4186 -1.1206  1.1536
   22MPD2    H3  350   0.375   1.284  14.194  0.0115 -0.3737  0.3137
   22MPD2     N  351   0.530   0.919  13.963 -0.2936  0.0106 -0.0559
   22MPD2    H5  352   0.461   0.936  13.890  0.0195  0.2815 -0.2917
   22MPD2    N1  353   0.744   1.073  14.368 -0.3409  0.0207 -0.1266
   22MPD2    H7  354   0.796   0.988  14.349  0.1425 -0.0557  1.5171
   23TMC2    C1  355   1.623   2.005  14.536  0.1727 -0.1956  0.1326
   23TMC2    C2  356   1.573   2.129  14.561  0.5703  0.5185 -0.1735
   23TMC2    C3  357   1.471   2.166  14.485 -0.4121 -0.4003  0.1189
   23TMC2    C4  358   1.557   1.910  14.458 -0.0226 -0.0193  0.5797
   23TMC2    C5  359   1.458   1.959  14.376  0.4471  1.0478  0.6273
   23TMC2    C6  360   1.414   2.088  14.388  0.2798 -0.9459 -0.1674
   23TMC2     C  361   1.754   1.971  14.581 -0.3206 -0.7897  0.0997
   23TMC2     O  362   1.803   2.035  14.670 -0.0753  0.5192 -0.0006
   23TMC2     H  363   1.613   2.195  14.638 -1.6652 -0.7491  2.0652
   23TMC2    H1  364   1.595   1.809  14.447  1.6100  0.5541  0.9105
   23TMC2    H2  365   1.362   2.132  14.303 -0.8326 -1.2142  0.3749
   23TMC2    C7  366   1.380   1.861  14.298  0.1909  0.5290  0.2356
   23TMC2    C8  367   1.421   2.300  14.518  0.4587 -0.1763 -1.3346
   23TMC2    O1  368   1.406   1.739  14.319 -0.3184 -0.3039 -0.7002
   23TMC2    O2  369   1.482   2.396  14.559  0.0784 -0.2652  0.7432
   23TMC2    O5  370   1.296   2.318  14.464 -0.0764  0.1062 -0.1350
   23TMC2    H5  371   1.262   2.235  14.425  3.5447 -1.0966 -0.8188
   24MPD2     C  372   2.222   1.767  14.474 -0.2027 -0.0336  0.0535
   24MPD2    C1  373   2.177   1.825  14.590  0.1940 -0.6669 -0.5456
   24MPD2    C2  374   2.042   1.862  14.592  0.4297  0.3317 -0.6887
   24MPD2    C3  375   1.956   1.860  14.483 -0.0689 -0.4470 -0.2576
   24MPD2    C4  376   2.005   1.807  14.366  0.0820  0.1181 -0.8714
   24MPD2    C5  377   2.136   1.758  14.368  0.1136 -0.4732 -0.0729
   24MPD2     H  378   2.003   1.883  14.691 -1.0463 -0.1591 -1.1694
   24MPD2    H1  379   1.941   1.818  14.280  1.0235  2.2568 -1.2923
   24MPD2    H2  380   2.322   1.728  14.457 -0.8496  0.0577 -4.0624
   24MPD2    H3  381   2.176   1.716  14.277 -0.0419 -0.1553 -0.2883
   24MPD2     N  382   1.821   1.901  14.482 -1.0148  0.5561 -0.2303
   24MPD2    H5  383   1.767   1.872  14.401 -1.6130 -1.2062  0.7940
   24MPD2    N1  384   2.245   1.819  14.713 -0.3517 -0.3483  0.0175
   24MPD2    H7  385   2.190   1.839  14.796 -0.7839 -1.4389  0.0033
   25TMC2    C1  386   0.824   3.764  11.719 -0.5615  0.1332 -0.0478
   25TMC2    C2  387   0.938   3.732  11.803 -0.0914 -0.0354 -0.3732
   25TMC2    C3  388   0.923   3.761  11.938 -1.2789  0.3643  0.1265
   25TMC2    C4  389   0.717   3.837  11.758  0.6698 -0.0693  0.5226
   25TMC2    C5  390   0.717   3.873  11.884 -0.7613 -0.4894 -0.0858
   25TMC2    C6  391   0.813   3.837  11.973 -0.5482 -0.3363 -0.0077
   25TMC2     C  392   0.829   3.705  11.588 -0.1934 -0.0200 -0.4700
   25TMC2     O  393   0.939   3.668  11.549  0.8494 -0.5055  0.4080
   25TMC2     H  394   1.013   3.668  11.757  0.3377  1.0575 -1.1825
   25TMC2    H1  395   0.633   3.861  11.694  1.4319  0.0851 -0.4345
   25TMC2    H2  396   0.799   3.874  12.073  1.1060  2.5552 -0.8511
   25TMC2    C7  397   0.614   3.972  11.929  0.4920  0.6781  0.4570
   25TMC2    C8  398   1.000   3.707  12.042  0.2673 -0.2763 -0.2897
   25TMC2    O1  399   0.597   3.982  12.051 -0.1418  0.6114  0.0741
   25TMC2    O2  400   0.961   3.676  12.153 -0.1932 -0.4728 -0.3104
   25TMC2    O5  401   1.123   3.693  11.995 -0.0405 -0.2343  0.1674
   25TMC2    H5  402   1.132   3.744  11.912 -3.0765  2.3028  1.3989
   26MPD2     C  403   0.636   3.496  11.155 -0.1386 -0.5022  0.0004
   26MPD2    C1  404   0.525   3.523  11.235  0.0383  0.4883 -0.4863
   26MPD2    C2  405   0.550   3.589  11.361 -0.1835  0.0228 -0.2601
   26MPD2    C3  406   0.680   3.621  11.402 -0.4087 -0.2179 -0.9601
   26MPD2    C4  407   0.778   3.605  11.303  0.6143  0.9393  0.2049
   26MPD2    C5  408   0.758   3.539  11.185 -0.4297 -0.0615  0.0068
   26MPD2     H  409   0.460   3.612  11.418 -1.4742  0.0081 -2.2880
   26MPD2    H1  410   0.879   3.634  11.327  1.5123 -1.7645 -0.3275
   26MPD2    H2  411   0.623   3.438  11.064  0.9327 -1.4159  0.4299
   26MPD2    H3  412   0.846   3.518  11.125 -0.1548 -0.9993  0.7330
   26MPD2     N  413   0.702   3.674  11.535 -0.2843 -0.3214  0.1203
   26MPD2    H5  414   0.623   3.698  11.594 -1.4202 -0.6129 -1.3062
   26MPD2    N1  415   0.402   3.476  11.187  0.2339 -0.0945 -0.1813
   26MPD2    H7  416   0.399   3.422  11.100  3.4267  1.3323 -1.1714
   27TMC2    C1  417   4.470   1.677  11.634 -0.2769 -0.2234 -0.1916
   27TMC2    C2  418   4.537   1.637  11.518  0.5961  0.3437 -0.0310
   27TMC2    C3  419   4.676   1.639  11.515 -0.5562  0.0937  0.2832
   27TMC2    C4  420   4.537   1.716  11.747  0.3180  0.0814 -0.5223
   27TMC2    C5  421   4.672   1.731  11.731  0.2060 -0.0208 -0.3312
   27TMC2    C6  422   0.003   1.702  11.619 -0.1241  0.4127 -0.3560
   27TMC2     C  423   4.335   1.618  11.648 -0.1391  0.1422 -0.3428
   27TMC2     O  424   4.302   1.556  11.548 -0.2292  0.3259  0.0195
   27TMC2     H  425   4.490   1.589  11.433 -0.1046  0.1253  0.4820
   27TMC2    H1  426   4.478   1.747  11.832  1.0918  1.0319 -0.3397
   27TMC2    H2  427   0.111   1.712  11.626  0.0241 -0.1730 -1.9425
   27TMC2    C7  428   0.009   1.762  11.847 -0.2298  0.8680  0.5305
   27TMC2    C8  429   4.739   1.607  11.391 -0.2524 -0.3953 -0.0302
   27TMC2    O1  430   0.127   1.781  11.823 -0.0555 -0.6095  0.6368
   27TMC2    O2  431   4.686   1.639  11.283 -0.1679 -0.9391 -0.0100
   27TMC2    O5  432   0.131   1.616  11.418  0.6044  0.2269  0.1270
   27TMC2    H5  433   0.171   1.589  11.504  0.5513 -0.7028 -0.1422
   28MPD2     C  434   3.922   1.451  11.889  0.2127  0.4517 -0.5328
   28MPD2    C1  435   4.006   1.506  11.978 -0.1708 -0.0286 -0.1890
   28MPD2    C2  436   4.125   1.566  11.940 -0.1601  0.6443  0.3121
   28MPD2    C3  437   4.161   1.577  11.808 -0.8812  0.5097  0.5337
   28MPD2    C4  438   4.067   1.515  11.715 -0.0127  0.2401 -0.8587
   28MPD2    C5  439   3.954   1.454  11.755 -0.4610 -0.8010  1.0979
   28MPD2     H  440   4.199   1.594  12.014 -1.4683  1.7601  1.1977
   28MPD2    H1  441   4.084   1.523  11.608 -0.8259  0.8268 -0.9442
   28MPD2    H2  442   3.829   1.409  11.923  1.0823 -1.0172  0.0537
   28MPD2    H3  443   3.896   1.410  11.675 -0.3800  1.8952 -0.4728
   28MPD2     N  444   4.276   1.638  11.770 -0.0324  0.0536  0.1821
   28MPD2    H5  445   4.320   1.693  11.843 -1.0938  1.4929 -0.2578
   28MPD2    N1  446   3.961   1.501  12.114  0.1783 -0.6375 -0.4160
   28MPD2    H7  447   3.873   1.454  12.132 -1.2850  1.6315 -1.6992
   29TMC2    C1  448   4.251   3.918  14.196 -0.8090 -0.2667  0.4237
   29TMC2    C2  449   4.378   3.887  14.173 -0.0279  0.1925  0.0807
   29TMC2    C3  450   4.467   3.986  14.199 -0.6750 -0.1958 -0.3861
   29TMC2    C4  451   4.214   4.034  14.249 -0.6507 -0.0012 -0.3663
   29TMC2    C5  452   4.301   4.136  14.260  0.3658  0.3399  0.1436
   29TMC2    C6  453   4.434   4.115  14.233  0.0511 -0.1697 -0.7831
   29TMC2     C  454   4.159   3.814  14.187 -0.5891  0.0589  0.3932
   29TMC2     O  455   4.213   3.704  14.196 -0.4807  0.1632 -0.0559
   29TMC2     H  456   4.420   3.804  14.116 -0.9722 -0.1618 -0.0928
   29TMC2    H1  457   4.109   4.048  14.271 -0.3099  1.9167  0.0685
   29TMC2    H2  458   4.516   4.186  14.238 -2.1662  2.3800 -0.0684
   29TMC2    C7  459   4.260   4.263  14.333  0.2501  0.0280 -0.2759
   29TMC2    C8  460   4.592   3.997  14.122  0.5291 -0.1573 -0.5368
   29TMC2    O1  461   4.144   4.276  14.376  0.0787 -0.7287  0.5272
   29TMC2    O2  462   4.612   4.085  14.044 -0.0496  0.1777  0.3376
   29TMC2    O5  463   4.677   3.905  14.171 -0.0375  0.1774 -0.4503
   29TMC2    H5  464   4.643   3.850  14.246  1.3779 -0.7273 -0.4705
   30MPD2     C  465   3.705   3.588  14.116 -0.3073  0.4387 -0.1003
   30MPD2    C1  466   3.832   3.537  14.121  0.5466  0.6927  0.2383
   30MPD2    C2  467   3.938   3.624  14.147  0.4541  0.3730 -0.0203
   30MPD2    C3  468   3.922   3.757  14.157  0.5841  0.0427  0.4573
   30MPD2    C4  469   3.795   3.808  14.146  0.2213 -0.4888 -0.3718
   30MPD2    C5  470   3.685   3.725  14.127  0.0564  0.5466 -0.2575
   30MPD2     H  471   4.033   3.572  14.145  0.7257  0.8385  0.9838
   30MPD2    H1  472   3.782   3.914  14.166 -0.9274 -0.4016 -1.6059
   30MPD2    H2  473   3.622   3.520  14.096 -0.6287  0.6843  0.3936
   30MPD2    H3  474   3.590   3.777  14.117  0.8789  1.4205 -3.7845
   30MPD2     N  475   4.026   3.843  14.184  0.1649 -0.6462 -0.4524
   30MPD2    H5  476   3.997   3.940  14.183 -1.0763 -0.9921  1.4521
   30MPD2    N1  477   3.870   3.405  14.089  0.6607  0.2436  0.4208
   30MPD2    H7  478   3.969   3.383  14.083  0.4816  0.1684 -2.3225
   31TMC2    C1  479   2.111   2.312  15.113 -0.7458 -0.3318  0.5562
   31TMC2    C2  480   2.063   2.202  15.049  0.0642  0.6075  0.3594
   31TMC2    C3  481   2.023   2.100  15.131 -1.1056  0.6924 -0.0881
   31TMC2    C4  482   2.130   2.314  15.247 -0.1342 -0.5418  0.0970
   31TMC2    C5  483   2.092   2.206  15.322 -0.0987  0.6206 -0.0854
   31TMC2    C6  484   2.044   2.099  15.262  0.5659  0.7813 -0.3632
   31TMC2     C  485   2.163   2.419  15.034 -0.0581  0.0119 -0.5161
   31TMC2     O  486   2.108   2.457  14.932  0.0669  0.1928 -0.6463
   31TMC2     H  487   2.029   2.214  14.946  0.3989 -0.0808  0.1682
   31TMC2    H1  488   2.158   2.408  15.294  0.6461 -0.0484 -1.3604
   31TMC2    H2  489   2.008   2.018  15.326  0.7038  0.5449 -0.5848
   31TMC2    C7  490   2.141   2.199  15.456 -0.4820 -0.7635 -0.3811
   31TMC2    C8  491   1.979   1.985  15.062 -0.1813  0.2473 -0.3611
   31TMC2    O1  492   2.065   2.156  15.546 -0.1974 -0.2251 -0.3919
   31TMC2    O2  493   1.924   1.982  14.954 -0.2939 -0.0013 -0.0711
   31TMC2    O5  494   2.057   1.894  15.116 -0.3760 -0.8503 -0.4542
   31TMC2    H5  495   2.123   1.929  15.180 -1.1866 -0.1801  0.0086
   32MPD2     C  496   2.573   2.737  15.001 -0.0633 -0.3060 -0.3608
   32MPD2    C1  497   2.457   2.733  14.920 -0.1180  0.2799  0.2485
   32MPD2    C2  498   2.362   2.634  14.943 -0.0698 -0.2694  0.0834
   32MPD2    C3  499   2.383   2.538  15.038 -0.8868  0.5918 -0.5175
   32MPD2    C4  500   2.507   2.533  15.103  0.4635 -0.0623  0.5921
   32MPD2    C5  501   2.603   2.629  15.091  0.3326 -0.2468  0.2707
   32MPD2     H  502   2.262   2.650  14.905 -0.2312  1.5693  1.2957
   32MPD2    H1  503   2.531   2.450  15.168 -0.4167 -2.6808 -2.4066
   32MPD2    H2  504   2.645   2.816  14.990 -0.6343 -0.0552 -2.2472
   32MPD2    H3  505   2.700   2.630  15.139  1.5807 -1.2426 -2.2258
   32MPD2     N  506   2.293   2.442  15.078  0.3982  0.1425 -0.0622
   32MPD2    H5  507   2.333   2.384  15.151 -0.1712 -1.4755 -1.0368
   32MPD2    N1  508   2.442   2.833  14.824  0.0062  0.2552  0.2484
   32MPD2    H7  509   2.518   2.899  14.810  1.6113 -1.2485  1.8270
   33TMC2    C1  510   1.123   0.369  10.118  0.1515 -0.4308 -0.4874
   33TMC2    C2  511   0.998   0.324  10.102 -0.8100  0.2952  0.5000
   33TMC2    C3  512   0.899   0.401  10.045  0.1975 -0.2950 -0.1520
   33TMC2    C4  513   1.156   0.492  10.071  0.1676 -0.0816  0.3952
   33TMC2    C5  514   1.061   0.557   9.997  0.6291  0.2268  0.3129
   33TMC2    C6  515   0.934   0.509   9.970 -0.0842 -0.4225 -0.2627
   33TMC2     C  516   1.217   0.289  10.193 -0.0441 -0.0173  0.5903
   33TMC2     O  517   1.163   0.202  10.263  0.2073 -0.0113 -0.0863
   33TMC2     H  518   0.977   0.226  10.143  0.4378  0.0056  0.4241
   33TMC2    H1  519   1.253   0.541  10.078  1.3865 -2.5180  0.4612
   33TMC2    H2  520   0.858   0.562   9.914 -0.8556 -2.0903 -0.7952
   33TMC2    C7  521   1.080   0.697   9.977 -0.5986 -0.5542 -0.6800
   33TMC2    C8  522   0.772   0.340  10.054  0.6966  0.0558  0.1290
   33TMC2    O1  523   1.185   0.726   9.923 -0.1343  0.1549  0.1868
   33TMC2    O2  524   0.762   0.216  10.053 -0.5804  0.0473  0.5336
   33TMC2    O5  525   0.679   0.420  10.001  0.1938 -0.4130  0.2000
   33TMC2    H5  526   0.701   0.514  10.016  1.2299 -0.4924 -0.7975
   34MPD2     C  527   1.633   0.281  10.487 -0.3413 -0.2345 -0.5959
   34MPD2    C1  528   1.502   0.255  10.519  0.0680 -0.7873 -0.5871
   34MPD2    C2  529   1.410   0.268  10.428  0.3985  0.7391  0.8144
   34MPD2    C3  530   1.440   0.323  10.299 -0.3607 -0.3190 -0.2264
   34MPD2    C4  531   1.570   0.336  10.258 -0.4990  0.1685  0.7353
   34MPD2    C5  532   1.663   0.322  10.363 -0.1252 -0.1865 -0.1048
   34MPD2     H  533   1.304   0.263  10.454 -0.0410 -1.6581 -1.4883
   34MPD2    H1  534   1.605   0.373  10.163  0.5537 -2.9078 -0.0569
   34MPD2    H2  535   1.710   0.265  10.561 -0.0530  1.5724 -0.5161
   34MPD2    H3  536   1.769   0.336  10.343  0.0745  1.3725  2.0080
   34MPD2     N  537   1.340   0.345  10.196  0.0571  0.0815  0.1644
   34MPD2    H5  538   1.363   0.401  10.115 -0.5874  1.3576  0.8648
   34MPD2    N1  539   1.463   0.212  10.650  0.0861  0.1540  0.6144
   34MPD2    H7  540   1.364   0.191  10.658 -0.0455 -0.0755 -1.6751
   35TMC2    C1  541   2.320   1.252  11.390 -0.0584  0.3636 -0.2319
   35TMC2    C2  542   2.223   1.189  11.316 -0.6169  0.1584 -0.2408
   35TMC2    C3  543   2.152   1.092  11.377  0.7211 -0.2551  0.1137
   35TMC2    C4  544   2.360   1.211  11.515  0.8336  0.8042 -0.2979
   35TMC2    C5  545   2.301   1.098  11.558 -0.3113 -0.0286  0.5040
   35TMC2    C6  546   2.192   1.041  11.493  0.5702  0.0749 -0.5227
   35TMC2     C  547   2.386   1.368  11.332 -0.3428 -0.3349 -0.0191
   35TMC2     O  548   2.330   1.432  11.240  0.0395 -0.4693  0.2974
   35TMC2     H  549   2.184   1.235  11.227  1.2300  1.8683 -0.1692
   35TMC2    H1  550   2.415   1.271  11.586  0.8886 -0.5886  0.8509
   35TMC2    H2  551   2.160   0.942  11.523 -1.4270  1.7451  2.7720
   35TMC2    C7  552   2.355   1.024  11.672 -0.1820  0.3150  0.2984
   35TMC2    C8  553   2.048   1.032  11.297  0.1105 -0.1989 -0.6426
   35TMC2    O1  554   2.280   0.954  11.738  1.1530 -0.1407  0.0798
   35TMC2    O2  555   2.016   1.063  11.183 -0.1960  0.1417  0.0056
   35TMC2    O5  556   1.976   0.955  11.374 -0.4950  0.3532 -0.0677
   35TMC2    H5  557   2.021   0.947  11.461 -1.1652 -0.6918  0.1868
   36MPD2     C  558   2.827   1.640  11.318  0.4261  0.2517  0.0771
   36MPD2    C1  559   2.845   1.532  11.399  0.6194  0.3549 -0.6662
   36MPD2    C2  560   2.740   1.440  11.400  0.3970 -0.5245  0.1625
   36MPD2    C3  561   2.622   1.457  11.335  0.3982 -0.2313  0.0276
   36MPD2    C4  562   2.605   1.563  11.243  0.0287  0.4550  0.3906
   36MPD2    C5  563   2.716   1.652  11.236 -0.7243  0.0259 -0.3126
   36MPD2     H  564   2.740   1.352  11.463 -0.8070 -1.3842 -1.0539
   36MPD2    H1  565   2.514   1.590  11.190 -0.9111 -2.1680  0.7096
   36MPD2    H2  566   2.897   1.723  11.315  2.6891 -1.6739  0.4461
   36MPD2    H3  567   2.708   1.738  11.171  2.8141  1.5128  1.2003
   36MPD2     N  568   2.518   1.363  11.371  0.2294  0.2316  0.3698
   36MPD2    H5  569   2.536   1.291  11.440  0.1858  1.4096  1.6243
   36MPD2    N1  570   2.953   1.534  11.486  0.1322 -0.1426 -0.4014
   36MPD2    H7  571   2.999   1.623  11.500  0.2767  0.0022 -1.7874
   37TMC2    C1  572   0.155   2.120  11.647 -0.7533  0.0107 -0.5461
   37TMC2    C2  573   0.020   2.101  11.623  0.5687  0.6328 -0.1667
   37TMC2    C3  574   4.733   2.087  11.485  0.1673 -0.6165 -1.0415
   37TMC2    C4  575   0.254   2.133  11.550  0.0957  0.0752 -0.5363
   37TMC2    C5  576   0.214   2.129  11.419  0.1313  0.3192 -0.5186
   37TMC2    C6  577   0.083   2.106  11.385 -0.1305 -0.0698 -0.4088
   37TMC2     C  578   0.190   2.127  11.793  0.7566  0.1344  0.3062
   37TMC2     O  579   0.094   2.141  11.865  0.4588 -0.5570  0.0007
   37TMC2     H  580   4.694   2.070  11.701  0.9397  0.6403  0.1655
   37TMC2    H1  581   0.354   2.156  11.585 -1.8109  2.9188  3.1240
   37TMC2    H2  582   0.058   2.091  11.280 -2.2940 -4.1815  0.6584
   37TMC2    C7  583   0.326   2.110  11.327 -0.9928 -0.1155  0.3420
   37TMC2    C8  584   4.608   2.030  11.440 -0.1846  0.6561  0.4343
   37TMC2    O1  585   0.433   2.153  11.368  0.2542 -0.1924  0.0427
   37TMC2    O2  586   4.589   2.005  11.321 -0.0602 -0.0999 -0.2650
   37TMC2    O5  587   4.514   2.039  11.536 -0.3276 -0.8255 -0.7172
   37TMC2    H5  588   4.540   2.100  11.608  3.5962 -2.3990 -0.7902
   38MPD2     C  589   0.447   2.072  12.213 -0.0525 -0.2215  0.5051
   38MPD2    C1  590   0.497   1.985  12.120  0.1258  0.0118  0.3329
   38MPD2    C2  591   0.467   2.004  11.988 -0.4136 -0.3616  0.3844
   38MPD2    C3  592   0.373   2.096  11.951 -0.5908  0.0756 -0.2638
   38MPD2    C4  593   0.333   2.190  12.048  0.2031  0.3194 -0.0806
   38MPD2    C5  594   0.368   2.178  12.180 -0.0649 -0.7591 -0.1091
   38MPD2     H  595   0.511   1.940  11.913  0.1447  0.6088 -0.1221
   38MPD2    H1  596   0.254   2.261  12.030 -0.5013 -0.5157 -0.2877
   38MPD2    H2  597   0.452   2.062  12.320  1.4603 -1.2311  0.3366
   38MPD2    H3  598   0.325   2.246  12.253  0.3040  1.1723 -1.6795
   38MPD2     N  599   0.323   2.099  11.815 -0.1935  0.9607  0.5260
   38MPD2    H5  600   0.370   2.043  11.744  1.8417  2.6596  0.5183
   38MPD2    N1  601   0.559   1.859  12.151 -0.6296  0.3556 -0.0380
   38MPD2    H7  602   0.594   1.803  12.074 -1.3978  0.3421 -0.3722
   39TMC2    C1  603   4.715   3.383   1.209 -0.3996 -0.7519  0.1842
   39TMC2    C2  604   0.065   3.336   1.124  0.0149 -0.3467  0.0248
   39TMC2    C3  605   0.194   3.346   1.152 -0.4144 -0.2609 -0.7279
   39TMC2    C4  606   0.007   3.457   1.321  0.7310  0.6080 -0.1383
   39TMC2    C5  607   0.139   3.490   1.328 -0.9546  0.1713 -0.0009
   39TMC2    C6  608   0.239   3.426   1.256  0.3374 -0.1528 -0.2084
   39TMC2     C  609   4.572   3.401   1.170 -0.2923  0.1691  0.0681
   39TMC2     O  610   4.484   3.427   1.256  0.1969 -0.4079 -0.1967
   39TMC2     H  611   0.029   3.269   1.047 -1.0314 -0.8868  0.9896
   39TMC2    H1  612   4.677   3.522   1.368  0.2316 -0.1767  0.1776
   39TMC2    H2  613   0.344   3.453   1.261 -0.1953  1.6708  0.8676
   39TMC2    C7  614   0.166   3.598   1.426  0.7275 -0.0563 -0.3556
   39TMC2    C8  615   0.279   3.263   1.077  0.7359 -0.5486  1.0575
   39TMC2    O1  616   0.267   3.584   1.495  0.0106 -0.1464 -0.0397
   39TMC2    O2  617   0.261   3.237   0.960 -0.1376  0.3708  0.2295
   39TMC2    O5  618   0.346   3.189   1.166  0.1553  0.4367 -0.6192
   39TMC2    H5  619   0.317   3.209   1.257 -0.8945 -2.7920 -0.2499
   40MPD2     C  620   4.478   3.552   0.849  0.0932  0.3396  0.0643
   40MPD2    C1  621   4.453   3.509   0.979 -0.3899  0.4342 -0.1827
   40MPD2    C2  622   4.328   3.528   1.035  0.1700  0.2602 -0.4026
   40MPD2    C3  623   4.241   3.602   0.966  0.3920  0.6938 -0.4991
   40MPD2    C4  624   4.263   3.642   0.839  0.3589 -1.0590  0.0404
   40MPD2    C5  625   4.383   3.618   0.773  0.1706  0.0844  0.9332
   40MPD2     H  626   4.302   3.480   1.128  0.1763  0.2912 -0.3847
   40MPD2    H1  627   4.193   3.706   0.786  0.7701 -0.6139  0.0449
   40MPD2    H2  628   4.567   3.527   0.791 -0.3567  0.5101 -0.7066
   40MPD2    H3  629   4.402   3.658   0.674  0.8158  2.4932  2.0504
   40MPD2     N  630   4.110   3.619   1.004 -0.5061  0.1017  0.3043
   40MPD2    H5  631   4.040   3.667   0.948 -0.7261  0.3860  0.8231
   40MPD2    N1  632   4.559   3.437   1.034  0.7536  0.0111  0.0477
   40MPD2    H7  633   4.642   3.422   0.978  0.1409  1.6093 -1.2781
   41TMC2    C1  634   3.171   1.880  13.013 -0.1206 -0.1873 -0.4087
   41TMC2    C2  635   3.298   1.842  12.971 -0.1343 -0.6820 -0.2738
   41TMC2    C3  636   3.315   1.855  12.837 -0.3893  0.7298 -0.1146
   41TMC2    C4  637   3.076   1.935  12.924 -0.1441 -0.4790  0.2241
   41TMC2    C5  638   3.108   1.951  12.792  0.6298  0.6115  0.0762
   41TMC2    C6  639   3.230   1.912  12.744 -0.7000  0.2879 -0.3295
   41TMC2     C  640   3.108   1.819  13.135  0.0615  0.1271  0.5522
   41TMC2     O  641   2.995   1.777  13.114  0.3570  0.0353  0.5536
   41TMC2     H  642   3.367   1.779  13.026 -2.8661 -2.4202  1.1775
   41TMC2    H1  643   2.976   1.959  12.956 -0.1192  1.6584 -1.2422
   41TMC2    H2  644   3.262   1.936  12.644 -0.4416 -2.0028 -0.8032
   41TMC2    C7  645   2.997   1.990  12.703  0.0579  0.1459 -0.4972
   41TMC2    C8  646   3.423   1.797  12.772  0.7450  0.1288 -0.9957
   41TMC2    O1  647   2.921   2.071  12.744  0.3697  0.8382  0.0001
   41TMC2    O2  648   3.416   1.738  12.664  0.3457 -0.7343 -0.8629
   41TMC2    O5  649   3.532   1.806  12.847  0.2019 -0.6428  0.1246
   41TMC2    H5  650   3.535   1.896  12.885  2.0317  0.8694 -3.5485
   42MPD2     C  651   2.981   1.762  13.398 -0.2962 -0.1737 -0.4907
   42MPD2    C1  652   3.110   1.811  13.378 -0.0515  0.3484 -0.2110
   42MPD2    C2  653   3.175   1.856  13.493 -0.2764  0.1015  0.0470
   42MPD2    C3  654   3.110   1.865  13.616  0.4006 -0.2295 -0.5295
   42MPD2    C4  655   2.978   1.822  13.631 -0.1533 -0.2805  0.4331
   42MPD2    C5  656   2.918   1.762  13.524  0.4652  0.5447 -0.1641
   42MPD2     H  657   3.278   1.885  13.478 -0.5708  1.3184  0.3740
   42MPD2    H1  658   2.927   1.822  13.727 -0.7180 -0.4107  0.1323
   42MPD2    H2  659   2.930   1.720  13.313  1.3301 -2.7076 -0.2222
   42MPD2    H3  660   2.818   1.724  13.540  0.8833 -0.3563  0.3308
   42MPD2     N  661   3.179   1.910  13.732 -0.0243 -0.1980 -0.0892
   42MPD2    H5  662   3.128   1.930  13.817  1.3489  0.9835  0.4577
   42MPD2    N1  663   3.174   1.823  13.256  0.2106  0.3524 -0.3460
   42MPD2    H7  664   3.264   1.870  13.254  1.6549 -2.2618  2.8944
   43TMC2    C1  665   4.257   0.139   0.765 -0.2338 -0.2302 -0.0521
   43TMC2    C2  666   4.237   0.066   0.880 -0.2628  0.5072 -0.0190
   43TMC2    C3  667   4.255   0.129   1.003  0.0140 -0.0448 -0.0328
   43TMC2    C4  668   4.280   0.275   0.769 -0.8937 -0.1789 -0.2320
   43TMC2    C5  669   4.308   0.335   0.890  0.2334 -0.1415 -0.6687
   43TMC2    C6  670   4.298   0.261   1.012  0.3569 -0.1579 -0.3928
   43TMC2     C  671   4.246   0.072   0.639  1.2482 -0.4173 -0.3313
   43TMC2     O  672   4.248   4.690   0.636  0.3879  0.6928 -0.0039
   43TMC2     H  673   4.207   4.704   0.873  1.2273  0.1526 -1.3088
   43TMC2    H1  674   4.297   0.337   0.681  2.2483  0.4374  0.7978
   43TMC2    H2  675   4.310   0.304   1.111  1.0539 -1.9679  0.2987
   43TMC2    C7  676   4.341   0.474   0.884 -0.3786 -0.1147 -0.2035
   43TMC2    C8  677   4.246   0.056   1.126  0.2372 -0.2851 -0.1393
   43TMC2    O1  678   4.378   0.519   0.776  0.1461  0.0797  0.0318
   43TMC2    O2  679   4.292   0.096   1.233 -0.2815 -0.1521  0.4977
   43TMC2    O5  680   4.135   4.726   1.118  0.0573  0.7777 -0.1999
   43TMC2    H5  681   4.085   0.011   1.038  1.3861  0.8028 -1.0128
   44MPD2     C  682   4.151   0.034   0.137  0.1419  0.0836 -0.3199
   44MPD2    C1  683   4.234   4.708   0.219 -0.6646  0.7195 -0.0196
   44MPD2    C2  684   4.245   4.740   0.351  0.2417  0.4631 -0.0446
   44MPD2    C3  685   4.189   0.119   0.400  0.3003  0.2984  0.6217
   44MPD2    C4  686   4.120   0.203   0.312 -0.2123  0.0307 -0.0846
   44MPD2    C5  687   4.103   0.155   0.183  0.6369  0.3364  0.0459
   44MPD2     H  688   4.309   4.687   0.420  1.5595  1.6218 -0.3925
   44MPD2    H1  689   4.074   0.293   0.349  2.7910  0.5269  2.4250
   44MPD2    H2  690   4.130   0.010   0.033 -1.4305  1.4832 -0.3364
   44MPD2    H3  691   4.054   0.224   0.115  2.2964  0.4404 -1.0624
   44MPD2     N  692   4.192   0.155   0.539  0.2695  0.0561 -0.5247
   44MPD2    H5  693   4.163   0.249   0.565 -0.4745  0.4853 -2.9246
   44MPD2    N1  694   4.308   4.597   0.179 -1.1047  1.0030 -0.2265
   44MPD2    H7  695   4.356   4.551   0.255 -1.2826  1.0998 -0.0561
   45TMC2    C1  696   0.138   1.675   9.881  0.3187  0.6455  0.5004
   45TMC2    C2  697   0.268   1.655   9.914 -1.0660 -0.2847  0.2762
   45TMC2    C3  698   0.352   1.757   9.918 -0.0521  0.0737 -0.4356
   45TMC2    C4  699   0.086   1.801   9.886  0.0433  0.6015 -0.1070
   45TMC2    C5  700   0.170   1.905   9.889 -0.8910 -0.2135  0.0938
   45TMC2    C6  701   0.306   1.886   9.902 -0.4548 -0.5713  0.5520
   45TMC2     C  702   0.043   1.563   9.885 -0.0308  0.1792 -0.3479
   45TMC2     O  703   0.074   1.460   9.939  0.2627 -0.1414 -0.3845
   45TMC2     H  704   0.304   1.553   9.920  0.6914  0.3708  0.6488
   45TMC2    H1  705   4.723   1.818   9.868 -0.1122  0.8827  1.0259
   45TMC2    H2  706   0.379   1.966   9.901 -1.8689  0.7015  0.3522
   45TMC2    C7  707   0.118   2.039   9.866 -0.3174 -0.8307 -0.4548
   45TMC2    C8  708   0.495   1.746   9.937  0.4314  0.0329 -0.1543
   45TMC2    O1  709   4.741   2.069   9.876 -0.2219  0.3209 -0.1728
   45TMC2    O2  710   0.560   1.829  10.002  0.1970  0.0565 -0.0217
   45TMC2    O5  711   0.552   1.649   9.866 -0.4554 -0.0057 -0.2697
   45TMC2    H5  712   0.493   1.579   9.829  1.2415 -1.2831 -0.5837
   46MPD2     C  713   4.531   1.397   9.861  0.5059  0.7350  0.6897
   46MPD2    C1  714   4.550   1.512   9.791 -0.4503 -0.6009 -0.3507
   46MPD2    C2  715   4.450   1.570   9.716 -0.1574  0.0187 -0.7131
   46MPD2    C3  716   4.324   1.510   9.717 -0.0008  0.7950 -0.5516
   46MPD2    C4  717   4.299   1.388   9.785 -0.1912 -0.9853  0.2009
   46MPD2    C5  718   4.405   1.336   9.852 -0.0923  0.4725 -0.6493
   46MPD2     H  719   4.473   1.667   9.675 -2.1439  0.9714  0.4103
   46MPD2    H1  720   4.202   1.341   9.799 -0.1895 -0.3414  2.3589
   46MPD2    H2  721   4.605   1.349   9.924  0.4597 -1.3212 -0.7782
   46MPD2    H3  722   4.392   1.245   9.908 -1.1534  0.0562 -1.5667
   46MPD2     N  723   4.226   1.577   9.648 -0.2230  0.0435  0.8818
   46MPD2    H5  724   4.248   1.667   9.607 -1.6870 -0.3015 -0.6336
   46MPD2    N1  725   4.670   1.587   9.808  0.1871  0.1833  0.9312
   46MPD2    H7  726   4.675   1.669   9.749  0.6586  0.0789  0.8242
   47TMC2    C1  727   1.698   3.068   9.457 -0.3807  0.6614 -0.0976
   47TMC2    C2  728   1.658   2.956   9.387  0.2320  0.6597  0.5114
   47TMC2    C3  729   1.526   2.923   9.389  0.1128  0.3457  0.6640
   47TMC2    C4  730   1.605   3.153   9.513 -0.7362 -0.4675 -0.3101
   47TMC2    C5  731   1.472   3.112   9.510 -0.6453 -0.5594 -0.7061
   47TMC2    C6  732   1.429   3.006   9.440  0.4675 -0.2515  0.1631
   47TMC2     C  733   1.834   3.077   9.500  0.6744 -0.3685 -0.3414
   47TMC2     O  734   1.879   3.187   9.532 -0.1859  0.2226 -1.0741
   47TMC2     H  735   1.728   2.897   9.329  0.9849  0.6286  1.4431
   47TMC2    H1  736   1.645   3.235   9.572 -0.2106 -1.7873  1.1816
   47TMC2    H2  737   1.325   2.973   9.442  0.8408 -1.4148  0.8125
   47TMC2    C7  738   1.375   3.181   9.583  0.4230 -0.2790 -0.4315
   47TMC2    C8  739   1.486   2.791   9.337  0.3795  0.4844 -0.6381
   47TMC2    O1  740   1.275   3.113   9.606 -0.2936  0.5573 -0.8415
   47TMC2    O2  741   1.570   2.703   9.327 -0.4747  0.0491  0.1152
   47TMC2    O5  742   1.371   2.796   9.266 -0.2059  0.1790  0.5058
   47TMC2    H5  743   1.316   2.876   9.280 -2.3863 -1.1069 -0.5812
   48MPD2     C  744   2.108   2.986   9.603 -0.2515  0.0754 -0.0388
   48MPD2    C1  745   2.012   2.911   9.545  0.2047  0.1336  0.5286
   48MPD2    C2  746   2.035   2.773   9.543 -0.1121 -0.3595 -0.0151
   48MPD2    C3  747   2.147   2.717   9.599  0.5706  1.0120  0.0272
   48MPD2    C4  748   2.242   2.795   9.659  0.1982  0.4537 -0.2056
   48MPD2    C5  749   2.226   2.933   9.650 -0.1571 -0.6018 -0.3717
   48MPD2     H  750   1.969   2.705   9.490 -1.7131  1.8973 -0.9108
   48MPD2    H1  751   2.333   2.760   9.707 -0.3540 -0.2404  0.3243
   48MPD2    H2  752   2.095   3.094   9.606 -0.9118  0.0096 -0.6579
   48MPD2    H3  753   2.310   2.995   9.680 -1.1977  1.5470 -1.9984
   48MPD2     N  754   2.147   2.580   9.613 -0.6996  0.3489  0.3166
   48MPD2    H5  755   2.067   2.528   9.578 -0.3644 -0.7048  1.0953
   48MPD2    N1  756   1.881   2.951   9.506 -0.6282 -0.7767  0.2659
   48MPD2    H7  757   1.816   2.875   9.490 -2.0716  0.2635  1.1400
   49TMC2    C1  758   0.756   4.657  10.419  0.4749  0.8238 -0.2648
   49TMC2    C2  759   0.781   4.697  10.288 -1.3188 -0.4513  0.3442
   49TMC2    C3  760   0.676   4.705  10.197  0.4606  0.6162 -0.1405
   49TMC2    C4  761   0.631   4.619  10.455 -0.9259  0.2109 -0.0479
   49TMC2    C5  762   0.532   4.624  10.357 -0.1432 -0.1107  0.0795
   49TMC2    C6  763   0.553   4.661  10.228  0.1650  0.8167  0.4430
   49TMC2     C  764   0.867   4.654  10.513 -0.9025  0.0216  0.8480
   49TMC2     O  765   0.977   4.668  10.467  0.2309 -0.3751 -0.4169
   49TMC2     H  766   0.880   4.737  10.271 -0.6749 -1.2767  2.1286
   49TMC2    H1  767   0.620   4.566  10.549 -0.2541  0.6236  0.2643
   49TMC2    H2  768   0.483   4.657  10.146 -1.5232  0.4072  1.8986
   49TMC2    C7  769   0.409   4.544  10.370  0.1800  0.5381  0.3365
   49TMC2    C8  770   0.714   4.666  10.057  0.1080  0.0900 -0.3186
   49TMC2    O1  771   0.342   4.533  10.268 -0.0972 -0.5340 -0.1556
   49TMC2    O2  772   0.629   4.631   9.980  0.0460 -0.1873 -0.0083
   49TMC2    O5  773   0.818   4.589  10.085 -0.2046  0.0246 -0.1225
   49TMC2    H5  774   0.884   4.633  10.144  0.2151  1.3888 -1.6225
   50MPD2     C  775   1.042   4.576  10.742  0.1912 -0.7104 -0.1897
   50MPD2    C1  776   0.915   4.624  10.759  0.4174  0.1242 -0.3848
   50MPD2    C2  777   0.870   4.654  10.889  0.2924 -0.7312  0.0409
   50MPD2    C3  778   0.952   4.632  10.997  0.5589 -0.0971  0.2008
   50MPD2    C4  779   1.076   4.587  10.974  0.1894  0.8031 -0.0525
   50MPD2    C5  780   1.126   4.562  10.849  0.0679 -0.2954  0.9797
   50MPD2     H  781   0.771   4.694  10.906  0.7093  0.6976 -0.9704
   50MPD2    H1  782   1.146   4.567  11.054 -0.7067 -2.5459 -0.1426
   50MPD2    H2  783   1.082   4.546  10.646  0.1670  0.1676 -0.4781
   50MPD2    H3  784   1.228   4.527  10.837  0.5359  1.4528 -0.2013
   50MPD2     N  785   0.918   4.662  11.131 -0.5903 -0.0360 -0.5470
   50MPD2    H5  786   0.984   4.652  11.207 -1.9878  2.7810  1.0262
   50MPD2    N1  787   0.830   4.651  10.644  0.2535  0.6776 -0.0852
   50MPD2    H7  788   0.733   4.661  10.672  0.2131  0.3360 -0.1037
   51TMC2    C1  789   1.348   4.130   1.304  0.7156  0.0929  0.0629
   51TMC2    C2  790   1.266   4.221   1.240  0.3138 -0.0594  0.2742
   51TMC2    C3  791   1.309   4.354   1.242  0.2445 -1.0085  0.5385
   51TMC2    C4  792   1.469   4.159   1.355 -0.5667  0.5583  0.0657
   51TMC2    C5  793   1.511   4.289   1.331 -0.0023  0.5928  0.3818
   51TMC2    C6  794   1.436   4.388   1.280  0.3667 -1.0137 -0.0633
   51TMC2     C  795   1.287   4.008   1.356 -0.1158  0.7629  0.3620
   51TMC2     O  796   1.359   3.912   1.373  0.1956 -0.1485  0.2262
   51TMC2     H  797   1.176   4.185   1.193  0.4768 -0.6407  0.4093
   51TMC2    H1  798   1.534   4.077   1.383  1.2836  2.0859  0.1885
   51TMC2    H2  799   1.475   4.488   1.272  0.3113 -0.8852  1.3681
   51TMC2    C7  800   1.651   4.325   1.366 -0.1126  0.2288  0.8820
   51TMC2    C8  801   1.236   4.449   1.158  0.9191 -0.2120 -0.3662
   51TMC2    O1  802   1.667   4.443   1.394 -0.2723 -0.3063  0.3662
   51TMC2    O2  803   1.287   4.548   1.105 -0.1306 -0.6756 -0.1147
   51TMC2    O5  804   1.104   4.425   1.175 -0.5272 -0.0680 -0.2111
   51TMC2    H5  805   1.096   4.356   1.244  1.7835  2.8378  2.9740
   52MPD2     C  806   0.885   3.737   1.516 -0.1376 -0.5299  0.1430
   52MPD2    C1  807   1.002   3.696   1.455 -0.1599  0.3475  0.7286
   52MPD2    C2  808   1.100   3.788   1.424  0.4218 -0.8748  0.4058
   52MPD2    C3  809   1.063   3.918   1.428 -0.0210  0.0054  0.3452
   52MPD2    C4  810   0.941   3.953   1.477  0.2529  0.5687 -0.4586
   52MPD2    C5  811   0.851   3.866   1.522 -0.4422 -0.0201 -0.9364
   52MPD2     H  812   1.190   3.755   1.373  1.9854  0.8800  2.0573
   52MPD2    H1  813   0.907   4.055   1.465 -2.4366 -0.6886 -3.6857
   52MPD2    H2  814   0.805   3.665   1.531 -0.2851 -0.0622  1.5447
   52MPD2    H3  815   0.752   3.896   1.555 -1.3504 -1.1892 -2.6285
   52MPD2     N  816   1.151   4.020   1.388  0.8656 -0.8992  0.4202
   52MPD2    H5  817   1.107   4.109   1.369  0.3728 -1.4091 -0.8195
   52MPD2    N1  818   1.038   3.561   1.437 -0.3990  0.0952 -0.2243
   52MPD2    H7  819   1.129   3.542   1.396 -1.2200  2.6428 -3.2483
   53TMC2    C1  820   0.978   2.022  11.013 -0.4223 -0.0760  0.2817
   53TMC2    C2  821   1.039   1.914  10.961  0.6356 -0.0159 -0.1572
   53TMC2    C3  822   1.134   1.846  11.025  0.0055  0.2049  0.8775
   53TMC2    C4  823   1.003   2.050  11.152  0.0335 -0.4433 -0.0183
   53TMC2    C5  824   1.109   1.989  11.216  0.2479 -0.5416  0.8691
   53TMC2    C6  825   1.174   1.887  11.157  0.7804 -0.0388 -0.2621
   53TMC2     C  826   0.856   2.046  10.951  0.6261  0.4162 -0.3254
   53TMC2     O  827   0.845   2.039  10.829 -0.4035 -0.1085  0.9499
   53TMC2     H  828   1.031   1.885  10.857 -1.4474 -1.2559  0.3487
   53TMC2    H1  829   0.953   2.136  11.196 -0.3250 -0.3329 -0.6465
   53TMC2    H2  830   1.266   1.851  11.200  0.4949 -1.1078 -0.5587
   53TMC2    C7  831   1.092   1.994  11.360  0.4103  0.0720 -0.1859
   53TMC2    C8  832   1.224   1.781  10.936  0.5497 -0.5203 -0.3401
   53TMC2    O1  833   1.020   2.082  11.401  0.0174  0.0736  0.0377
   53TMC2    O2  834   1.215   1.769  10.815 -0.4745  0.1986 -0.0772
   53TMC2    O5  835   1.284   1.688  11.016  0.6291 -0.1644  0.5175
   53TMC2    H5  836   1.306   1.706  11.110  2.7033  2.3155 -0.4630
   54MPD2     C  837   0.563   2.001  10.888  0.2421 -0.6677  0.0682
   54MPD2    C1  838   0.613   2.045  11.009  0.5099 -0.4146 -0.0797
   54MPD2    C2  839   0.524   2.054  11.116 -0.3889 -0.5168 -0.3127
   54MPD2    C3  840   0.395   2.022  11.107  0.4947 -0.1373  0.2638
   54MPD2    C4  841   0.351   1.961  10.991 -0.0349 -0.4139 -0.2404
   54MPD2    C5  842   0.435   1.959  10.881 -0.0176  0.4973  0.2410
   54MPD2     H  843   0.567   2.073  11.214 -0.7618 -0.0809 -0.2381
   54MPD2    H1  844   0.252   1.916  10.986 -0.8194  1.0106  2.4439
   54MPD2    H2  845   0.629   1.983  10.804  0.2685  2.5738 -0.6113
   54MPD2    H3  846   0.408   1.917  10.785  1.3681 -1.2710  0.6217
   54MPD2     N  847   0.305   2.039  11.213 -0.2628  0.0550  0.3163
   54MPD2    H5  848   0.210   2.007  11.196  0.3010 -1.2959 -0.2179
   54MPD2    N1  849   0.753   2.053  11.039  0.5099  0.6205  0.1285
   54MPD2    H7  850   0.775   2.080  11.135 -2.6747 -0.2987  1.1233
   55TMC2    C1  851   2.631   0.523   0.287 -0.9536  0.1072 -0.9671
   55TMC2    C2  852   2.664   0.484   0.158 -0.1661  0.0304  0.5236
   55TMC2    C3  853   2.729   0.364   0.143  0.2370  0.0446 -0.3890
   55TMC2    C4  854   2.640   0.442   0.395 -0.4012 -0.5914 -0.2967
   55TMC2    C5  855   2.706   0.325   0.375  0.2581  0.0564  0.0779
   55TMC2    C6  856   2.751   0.281   0.247 -0.3544  0.6948 -0.2799
   55TMC2     C  857   2.542   0.636   0.297 -0.3249  0.0007 -0.2402
   55TMC2     O  858   2.460   0.626   0.387 -0.3560  0.1550 -0.1845
   55TMC2     H  859   2.644   0.542   0.069  1.3236 -0.7306 -0.3080
   55TMC2    H1  860   2.626   0.484   0.494  2.7148 -0.6727  0.1956
   55TMC2    H2  861   2.800   0.185   0.237 -0.0418  1.0437 -2.1050
   55TMC2    C7  862   2.718   0.229   0.481  0.3780 -0.4360  0.0185
   55TMC2    C8  863   2.781   0.330   0.016 -0.3547 -0.0992 -0.1183
   55TMC2    O1  864   2.795   0.133   0.462  0.0094  0.3924  0.1775
   55TMC2    O2  865   2.727   0.363  17.678  0.0429 -0.3182 -0.3932
   55TMC2    O5  866   2.891   0.246   0.033 -0.5217 -0.3261  0.4060
   55TMC2    H5  867   2.930   0.256   0.123  1.1934 -2.1628 -0.1374
   56MPD2     C  868   2.463   0.910   0.048 -0.7858 -0.0739 -0.6044
   56MPD2    C1  869   2.433   0.819   0.149  0.5929 -0.1050  0.1593
   56MPD2    C2  870   2.307   0.806   0.208  0.0479  0.6295  0.0590
   56MPD2    C3  871   2.209   0.899   0.173 -0.2606  0.4976  0.1328
   56MPD2    C4  872   2.244   0.995   0.080 -0.6432  0.1689 -0.0719
   56MPD2    C5  873   2.366   1.001   0.016  0.1815 -0.1906 -0.2875
   56MPD2     H  874   2.269   0.727   0.271 -1.8325 -0.4219 -2.3868
   56MPD2    H1  875   2.171   1.067   0.044  0.8507  2.0407  0.6041
   56MPD2    H2  876   2.558   0.911  17.763  0.3550 -3.3605  1.3917
   56MPD2    H3  877   2.393   1.085  17.720  0.7995 -0.0262  0.2017
   56MPD2     N  878   2.077   0.892   0.231  0.1317  0.8602  0.5773
   56MPD2    H5  879   2.066   0.817   0.299 -0.1688 -0.8217 -1.3084
   56MPD2    N1  880   2.538   0.726   0.186 -0.3894  0.2382  0.8243
   56MPD2    H7  881   2.624   0.732   0.133  0.1288 -1.3990  1.4806
   57TMC2    C1  882   1.506   0.996  13.943 -0.4229 -0.5277 -0.2347
   57TMC2    C2  883   1.539   0.931  14.065 -0.2588 -0.6468 -0.4917
   57TMC2    C3  884   1.602   0.813  14.050  0.1610 -0.5664 -0.3269
   57TMC2    C4  885   1.539   0.947  13.814  0.1330  0.2388 -0.1789
   57TMC2    C5  886   1.584   0.823  13.815 -0.5836  0.1811 -0.2654
   57TMC2    C6  887   1.621   0.752  13.929 -0.1276 -0.9780 -0.7723
   57TMC2     C  888   1.380   1.074  13.937  0.6462 -0.1619 -0.2646
   57TMC2     O  889   1.340   1.106  13.829  0.5455  0.2684 -0.1438
   57TMC2     H  890   1.534   0.993  14.154 -0.5907 -0.7931 -0.4078
   57TMC2    H1  891   1.499   0.987  13.722  0.1689 -1.2261 -0.8402
   57TMC2    H2  892   1.659   0.651  13.929  2.7430  0.1047  0.1965
   57TMC2    C7  893   1.549   0.739  13.695 -0.3474  0.0886 -0.2099
   57TMC2    C8  894   1.657   0.755  14.170 -0.0106  0.2241  0.3143
   57TMC2    O1  895   1.448   0.775  13.633  0.2480 -0.7487 -0.1357
   57TMC2    O2  896   1.770   0.707  14.168 -0.5076  0.7556 -0.2248
   57TMC2    O5  897   1.549   0.705  14.232 -0.0602  0.1662  0.0619
   57TMC2    H5  898   1.466   0.736  14.190 -0.2856 -0.1152  0.2950
   58MPD2     C  899   0.940   1.266  14.099  0.1795 -0.2025 -0.1367
   58MPD2    C1  900   0.965   1.208  13.977 -0.5412  0.5620  0.3041
   58MPD2    C2  901   1.092   1.151  13.962  0.4716  0.2213  0.1745
   58MPD2    C3  902   1.182   1.140  14.066  0.4183  0.5251  0.2297
   58MPD2    C4  903   1.148   1.194  14.186 -0.0569  0.2460  0.6397
   58MPD2    C5  904   1.024   1.250  14.204  0.4961  0.3459  1.3793
   58MPD2     H  905   1.110   1.116  13.861 -0.4552  0.0321  0.0710
   58MPD2    H1  906   1.213   1.187  14.273 -1.1260 -0.4742  1.3801
   58MPD2    H2  907   0.842   1.306  14.126 -0.1358 -0.4842 -0.8593
   58MPD2    H3  908   1.002   1.289  14.302 -2.2905  3.4777 -0.5066
   58MPD2     N  909   1.314   1.096  14.058 -0.2613 -0.0112 -0.1198
   58MPD2    H5  910   1.357   1.083  14.148  0.8722 -5.2000 -1.4197
   58MPD2    N1  911   0.867   1.196  13.873 -0.7448  0.3654 -0.6371
   58MPD2    H7  912   0.894   1.135  13.797 -2.7223  1.7015 -2.3722
   59TMC2    C1  913   3.516   1.051  12.768 -0.2191  0.0600 -0.2660
   59TMC2    C2  914   3.391   0.985  12.755 -0.4498 -0.1285  0.0400
   59TMC2    C3  915   3.361   0.939  12.627 -0.0538  0.3619 -0.2346
   59TMC2    C4  916   3.606   1.081  12.666  0.2262  0.5823 -0.3582
   59TMC2    C5  917   3.556   1.043  12.538 -0.4783  0.4757  0.2619
   59TMC2    C6  918   3.443   0.965  12.516  0.2257  0.3682  0.3440
   59TMC2     C  919   3.537   1.094  12.909  0.0902  0.1768  0.2394
   59TMC2     O  920   3.430   1.100  12.975  0.1800  0.4781 -0.2341
   59TMC2     H  921   3.335   0.944  12.838  1.6102 -1.8544  0.5719
   59TMC2    H1  922   3.685   1.154  12.673 -0.2876  1.0110  0.9693
   59TMC2    H2  923   3.405   0.934  12.419  2.1908 -2.1808  0.3976
   59TMC2    C7  924   3.632   1.065  12.422  0.3653 -0.1138  0.0253
   59TMC2    C8  925   3.268   0.839  12.606  0.0050  0.6603 -0.4291
   59TMC2    O1  926   3.752   1.038  12.427 -0.3010 -0.4658  0.0068
   59TMC2    O2  927   3.167   0.827  12.676 -0.1093  0.0142 -0.3780
   59TMC2    O5  928   3.309   0.740  12.518  0.2786  0.3853 -0.3846
   59TMC2    H5  929   3.401   0.748  12.485 -0.1175 -2.4513 -2.1543
   60MPD2     C  930   3.618   1.285  13.130 -0.0275 -0.5493  0.2547
   60MPD2    C1  931   3.708   1.230  13.033  0.1268 -0.8370 -0.9003
   60MPD2    C2  932   3.844   1.241  13.052  0.1273 -0.4403 -0.5011
   60MPD2    C3  933   3.899   1.296  13.170  0.8356 -0.6992 -0.2989
   60MPD2    C4  934   3.812   1.349  13.267 -0.2535 -0.1689  0.0251
   60MPD2    C5  935   3.678   1.354  13.236  0.3199 -0.7206 -0.0625
   60MPD2     H  936   3.906   1.191  12.978  0.1280  0.1461 -0.8930
   60MPD2    H1  937   3.861   1.388  13.356 -0.6547  0.3557  0.0142
   60MPD2    H2  938   3.511   1.283  13.113  0.2944 -1.7739 -1.5138
   60MPD2    H3  939   3.604   1.390  13.306 -0.3949  1.0388 -1.7405
   60MPD2     N  940   4.037   1.294  13.206 -0.2348 -0.3472 -0.2079
   60MPD2    H5  941   4.066   1.325  13.298  1.8844 -1.4570 -0.4898
   60MPD2    N1  942   3.663   1.148  12.928  0.0851  0.3472 -0.4783
   60MPD2    H7  943   3.740   1.127  12.864 -0.3211  0.5093 -1.0154
   61TMC2    C1  944   3.122   2.711  14.880 -0.3541  0.0241 -0.2340
   61TMC2    C2  945   3.023   2.740  14.791  0.5405 -0.0337  1.0949
   61TMC2    C3  946   2.916   2.808  14.841 -0.3274  0.2804 -0.1099
   61TMC2    C4  947   3.120   2.757  15.007 -0.2311  0.2015  0.5634
   61TMC2    C5  948   3.009   2.821  15.054 -0.3410 -0.2532  0.4886
   61TMC2    C6  949   2.901   2.846  14.972  0.1146  0.0081  0.0473
   61TMC2     C  950   3.184   2.581  14.863 -0.4079  0.0550  0.5538
   61TMC2     O  951   3.118   2.496  14.806 -0.1765 -0.8308 -0.0473
   61TMC2     H  952   3.033   2.734  14.683 -1.6171 -0.6927  0.9324
   61TMC2    H1  953   3.193   2.728  15.081 -1.5672 -2.4589  0.8718
   61TMC2    H2  954   2.822   2.906  15.014  1.9545  2.0435  0.5708
   61TMC2    C7  955   3.043   2.947  15.125  0.7320 -0.5350  0.3548
   61TMC2    C8  956   2.800   2.846  14.764 -0.0085  0.1130  0.4184
   61TMC2    O1  957   2.977   3.044  15.089  0.1926 -0.8755  0.2986
   61TMC2    O2  958   2.718   2.929  14.802 -0.4032 -0.1086 -0.1752
   61TMC2    O5  959   2.779   2.747  14.684  0.5321  0.1690  0.4442
   61TMC2    H5  960   2.837   2.669  14.699 -2.0230 -1.8863 -0.3358
   62MPD2     C  961   3.346   2.354  14.957 -0.3031 -0.4058  0.0124
   62MPD2    C1  962   3.395   2.484  14.945  0.1379 -0.4492 -0.6414
   62MPD2    C2  963   3.529   2.507  14.969 -0.0163  0.1814 -0.1994
   62MPD2    C3  964   3.614   2.401  14.953  0.3521 -0.0497  0.3910
   62MPD2    C4  965   3.573   2.274  14.967 -0.7203 -0.1356  0.3342
   62MPD2    C5  966   3.435   2.252  14.978 -0.3258 -0.4260 -0.1381
   62MPD2     H  967   3.562   2.610  14.975  1.1007 -0.2586  1.1162
   62MPD2    H1  968   3.642   2.191  14.962 -2.9825 -2.0028  0.1851
   62MPD2    H2  969   3.245   2.315  14.944 -0.2725 -1.1787  2.1768
   62MPD2    H3  970   3.393   2.154  14.993 -1.3572 -0.1703 -1.3864
   62MPD2     N  971   3.752   2.420  14.931  0.5455 -0.0898 -0.0199
   62MPD2    H5  972   3.813   2.344  14.962  0.3116  1.2882  3.7814
   62MPD2    N1  973   3.306   2.589  14.924  0.3162  0.7112 -0.8163
   62MPD2    H7  974   3.326   2.678  14.968  1.9291  0.1498 -0.3785
   63TMC2    C1  975   2.063   2.595  10.437 -0.3866  0.0052  0.0874
   63TMC2    C2  976   2.177   2.532  10.482 -0.4202  0.2198  0.2560
   63TMC2    C3  977   2.301   2.565  10.438  0.0162  0.1499  0.2919
   63TMC2    C4  978   2.082   2.688  10.330  0.4361 -0.4278 -0.1998
   63TMC2    C5  979   2.210   2.718  10.284  0.4209 -0.1348 -0.1583
   63TMC2    C6  980   2.320   2.655  10.336  0.4286  0.1524 -0.0836
   63TMC2     C  981   1.926   2.557  10.476  0.1638  0.0193  0.1287
   63TMC2     O  982   1.836   2.631  10.438  0.1398  0.1663 -0.3444
   63TMC2     H  983   2.160   2.465  10.567 -0.8610 -0.0426 -0.0369
   63TMC2    H1  984   1.992   2.724  10.280 -0.6150 -2.2473  0.3611
   63TMC2    H2  985   2.419   2.664  10.293  1.0529  1.8779  1.6846
   63TMC2    C7  986   2.227   2.819  10.182  0.5981  0.3620  0.4762
   63TMC2    C8  987   2.423   2.499  10.479 -0.8629 -0.1717  0.1232
   63TMC2    O1  988   2.125   2.867  10.140 -0.6541 -0.0115 -0.4866
   63TMC2    O2  989   2.527   2.507  10.420  0.1639 -0.2266 -0.1608
   63TMC2    O5  990   2.414   2.490  10.612 -0.4527  0.5087  0.4587
   63TMC2    H5  991   2.325   2.521  10.641 -1.6943 -2.7220  0.1073
   64MPD2     C  992   1.551   2.236  10.642 -0.3028 -0.4862 -0.0142
   64MPD2    C1  993   1.667   2.167  10.620 -0.0089  0.6252 -0.3160
   64MPD2    C2  994   1.779   2.229  10.580 -0.6691 -0.0289 -0.5917
   64MPD2    C3  995   1.785   2.363  10.556  0.7261  0.4127  0.2678
   64MPD2    C4  996   1.666   2.431  10.575 -0.1906  0.1543 -0.2955
   64MPD2    C5  997   1.555   2.366  10.625 -0.2351 -0.3883  0.2902
   64MPD2     H  998   1.866   2.165  10.569 -1.0942 -0.9045  1.2641
   64MPD2    H1  999   1.647   2.537  10.583  0.4044  0.1096  1.6695
   64MPD2    H2 1000   1.466   2.193  10.694  0.1476 -0.6047  0.6179
   64MPD2    H3 1001   1.464   2.419  10.650 -1.5482 -2.8843  0.8255
   64MPD2     N 1002   1.906   2.422  10.517 -0.6278  0.0274 -0.0935
   64MPD2    H5 1003   1.983   2.356  10.525 -0.8760 -0.0349  1.7801
   64MPD2    N1 1004   1.682   2.024  10.645  0.2159 -0.0778  0.3020
   64MPD2    H7 1005   1.775   1.985  10.631  0.4318 -0.0118  1.5465
   65TMC2    C1 1006   4.070   2.146  15.779 -0.3304 -0.3492 -0.5337
   65TMC2    C2 1007   4.021   2.092  15.900  0.6731 -0.8077  0.0410
   65TMC2    C3 1008   3.976   2.180  15.998  0.4140 -0.1039 -0.3620
   65TMC2    C4 1009   4.068   2.282  15.761 -0.4679 -0.1360 -0.2247
   65TMC2    C5 1010   4.015   2.367  15.851 -0.1511 -0.2938  0.7136
   65TMC2    C6 1011   3.978   2.319  15.974  0.4825  0.0464  0.2650
   65TMC2     C 1012   4.075   2.075  15.658  0.5351 -0.5631 -0.0012
   65TMC2     O 1013   4.151   2.117  15.574 -0.3943 -0.6612  0.1915
   65TMC2     H 1014   4.041   1.986  15.914 -0.2260 -0.8971  0.6673
   65TMC2    H1 1015   4.116   2.314  15.669 -2.8265  1.4805 -0.8940
   65TMC2    H2 1016   3.960   2.391  16.053 -0.4445  1.0605 -0.8697
   65TMC2    C7 1017   3.993   2.504  15.804  0.7716 -0.1033 -0.1437
   65TMC2    C8 1018   3.930   2.127  16.130 -0.2209  0.3945 -0.6202
   65TMC2    O1 1019   4.041   2.540  15.696 -0.4845  0.3526  0.4440
   65TMC2    O2 1020   3.941   2.185  16.240 -0.1603 -0.4461 -0.4110
   65TMC2    O5 1021   3.865   2.011  16.111 -0.8625  0.0753 -0.3374
   65TMC2    H5 1022   3.841   1.996  16.017 -1.3520  1.9915 -0.5321
   66MPD2     C 1023   4.058   1.896  15.432 -0.2698  0.2506  0.0259
   66MPD2    C1 1024   3.990   1.876  15.545  0.4812  0.5479  0.0073
   66MPD2    C2 1025   3.907   1.767  15.560 -0.1350 -0.5670 -0.2901
   66MPD2    C3 1026   3.897   1.677  15.452  0.5614 -0.1562 -0.2891
   66MPD2    C4 1027   3.975   1.691  15.345 -0.4740  0.1039  0.4348
   66MPD2    C5 1028   4.052   1.804  15.334 -0.1350  0.0933 -0.6893
   66MPD2     H 1029   3.870   1.753  15.661 -2.0440  2.0149 -0.6400
   66MPD2    H1 1030   3.968   1.626  15.258  2.5400 -1.2526  1.2232
   66MPD2    H2 1031   4.126   1.978  15.414  1.6736 -1.5377 -0.9062
   66MPD2    H3 1032   4.116   1.814  15.247 -1.5420  1.6488 -1.5303
   66MPD2     N 1033   3.802   1.573  15.464 -0.3333 -0.0546 -0.0471
   66MPD2    H5 1034   3.783   1.517  15.381 -1.9102  0.3110  0.0701
   66MPD2    N1 1035   3.997   1.960  15.658 -0.1883 -0.1825  0.0944
   66MPD2    H7 1036   3.937   1.942  15.737  0.8764 -1.3382  0.6429
   67TMC2    C1 1037   3.902   1.248  14.343  0.1503  0.1532 -0.4965
   67TMC2    C2 1038   3.968   1.171  14.255 -0.4702  0.6329 -0.1986
   67TMC2    C3 1039   4.070   1.101  14.308 -0.4933  0.0805 -0.6099
   67TMC2    C4 1040   3.925   1.252  14.477 -0.0371  0.4030  0.7060
   67TMC2    C5 1041   4.032   1.184  14.521 -0.8020 -0.3932 -0.0077
   67TMC2    C6 1042   4.106   1.106  14.434  0.4687  0.2540  0.0851
   67TMC2     C 1043   3.779   1.305  14.297 -0.4592 -0.4398  0.5849
   67TMC2     O 1044   3.701   1.336  14.388 -0.5834 -0.5869 -0.4252
   67TMC2     H 1045   3.959   1.180  14.147 -0.1219 -1.3138 -0.3893
   67TMC2    H1 1046   3.871   1.316  14.546  0.4582  1.7711 -0.1629
   67TMC2    H2 1047   4.196   1.057  14.471  0.6877  1.1005  0.6773
   67TMC2    C7 1048   4.071   1.222  14.654  0.7184 -0.7299  0.3609
   67TMC2    C8 1049   4.154   1.043  14.207  0.1357  0.2833 -0.3355
   67TMC2    O1 1050   3.985   1.241  14.736  0.3538 -0.4022 -0.1636
   67TMC2    O2 1051   4.173   1.096  14.101 -0.6596 -0.1026 -0.2840
   67TMC2    O5 1052   4.236   0.958  14.266 -0.1300  0.3967  0.5260
   67TMC2    H5 1053   4.201   0.898  14.335 -0.5330 -0.4204 -0.3872
   68MPD2     C 1054   3.519   1.359  14.156 -0.4105 -0.2581 -0.0411
   68MPD2    C1 1055   3.644   1.367  14.097  0.2523 -0.1166 -0.3232
   68MPD2    C2 1056   3.653   1.408  13.961  0.4425  0.0849  0.4635
   68MPD2    C3 1057   3.543   1.456  13.889  0.7096 -0.3275 -0.3218
   68MPD2    C4 1058   3.420   1.449  13.950  0.0301  0.1207  0.2738
   68MPD2    C5 1059   3.410   1.395  14.074  0.3079  0.6074  0.3044
   68MPD2     H 1060   3.753   1.402  13.919  0.8960  2.6079  1.2032
   68MPD2    H1 1061   3.327   1.476  13.901  0.4642  1.8823  0.4226
   68MPD2    H2 1062   3.505   1.313  14.253 -0.4134 -2.2015 -0.9689
   68MPD2    H3 1063   3.310   1.391  14.117  0.2799 -0.9844  0.0772
   68MPD2     N 1064   3.539   1.507  13.759  0.1429  0.4577 -0.5085
   68MPD2    H5 1065   3.448   1.530  13.721 -0.2350 -0.7787 -0.3415
   68MPD2    N1 1066   3.764   1.318  14.160  0.1577  0.2455 -0.5419
   68MPD2    H7 1067   3.847   1.299  14.104  0.8058  1.5009  0.0052
   69TMC2    C1 1068   1.099   2.383  12.736  0.7783  0.3194 -0.5314
   69TMC2    C2 1069   0.986   2.345  12.791 -0.8433  0.4926  0.1884
   69TMC2    C3 1070   0.878   2.352  12.698 -0.5562  0.4785 -0.0109
   69TMC2    C4 1071   1.116   2.443  12.619  0.4987  0.0044 -0.6860
   69TMC2    C5 1072   1.009   2.467  12.538 -0.2738 -0.2329  0.2982
   69TMC2    C6 1073   0.892   2.410  12.579  0.2760 -0.3298 -0.0349
   69TMC2     C 1074   1.215   2.315  12.793  0.0052  0.0334  0.0221
   69TMC2     O 1075   1.186   2.218  12.863  0.2729 -0.1593  0.0740
   69TMC2     H 1076   0.958   2.275  12.868  0.3543  1.0595  1.1379
   69TMC2    H1 1077   1.211   2.487  12.592  0.4376 -0.4135 -1.5795
   69TMC2    H2 1078   0.808   2.440  12.517  0.9663 -0.4131 -1.0205
   69TMC2    C7 1079   1.049   2.448  12.398  0.1803  0.3395  0.2362
   69TMC2    C8 1080   0.748   2.343  12.763  0.8368  0.4179  0.1843
   69TMC2    O1 1081   1.146   2.370  12.383 -0.3590  0.2811  0.2870
   69TMC2    O2 1082   0.728   2.376  12.874  0.2594 -0.4098 -0.5229
   69TMC2    O5 1083   0.658   2.346  12.664 -0.0723  0.0361  0.3324
   69TMC2    H5 1084   0.692   2.305  12.582 -1.6796 -2.3408  0.8323
   70MPD2     C 1085   1.573   2.365  12.782 -0.4885 -0.3238  0.3989
   70MPD2    C1 1086   1.455   2.300  12.770  0.8344  0.3253 -0.7008
   70MPD2    C2 1087   1.458   2.164  12.746 -0.0365 -0.0382  0.2881
   70MPD2    C3 1088   1.580   2.096  12.750 -0.1260  0.5335  0.3868
   70MPD2    C4 1089   1.695   2.168  12.770 -0.2885 -0.4515 -0.3214
   70MPD2    C5 1090   1.691   2.301  12.785 -0.3739  0.2235  0.1129
   70MPD2     H 1091   1.365   2.111  12.729  0.1313 -0.5670  1.0086
   70MPD2    H1 1092   1.793   2.121  12.766 -0.3655 -0.7344  1.2647
   70MPD2    H2 1093   1.571   2.472  12.795 -0.9725  0.0733 -3.0400
   70MPD2    H3 1094   1.783   2.358  12.784 -0.5768  0.5521  0.1632
   70MPD2     N 1095   1.588   1.956  12.721  0.3586 -0.2854 -0.0517
   70MPD2    H5 1096   1.681   1.918  12.708  0.0852 -0.6103 -1.0685
   70MPD2    N1 1097   1.337   2.377  12.769  0.0966 -0.1007 -0.0581
   70MPD2    H7 1098   1.344   2.477  12.756  2.6038  0.1139  3.2640
   71TMC2    C1 1099   4.294   3.234   0.679 -0.3137 -0.7053 -1.0554
   71TMC2    C2 1100   4.416   3.207   0.623  0.1022 -0.6143  0.7100
   71TMC2    C3 1101   4.512   3.146   0.695  1.0130  0.9710 -0.5365
   71TMC2    C4 1102   4.270   3.216   0.811  0.2858  0.1605  0.4498
   71TMC2    C5 1103   4.375   3.154   0.876 -0.6202  0.3014 -0.6647
   71TMC2    C6 1104   4.494   3.115   0.823 -0.1763 -0.4704 -0.2594
   71TMC2     C 1105   4.191   3.310   0.603  0.3987 -0.1312  0.2642
   71TMC2     O 1106   4.114   3.384   0.664  0.1408  0.3353 -0.1491
   71TMC2     H 1107   4.435   3.231   0.519 -1.8379  1.7013  0.8876
   71TMC2    H1 1108   4.187   3.270   0.854  0.5998 -0.6971  2.1152
   71TMC2    H2 1109   4.580   3.078   0.878 -1.3744  0.4199  2.1988
   71TMC2    C7 1110   4.373   3.143   1.023 -0.2731  0.0555 -0.0023
   71TMC2    C8 1111   4.615   3.077   0.616 -0.7664 -0.5623 -0.2702
   71TMC2    O1 1112   4.473   3.099   1.079  0.3313 -0.0850 -0.8869
   71TMC2    O2 1113   4.659   3.126   0.516 -0.0197  0.0345 -0.1066
   71TMC2    O5 1114   4.565   2.958   0.622 -0.2020 -0.3132 -0.0952
   71TMC2    H5 1115   4.536   2.941   0.714 -1.9845  2.6175 -0.1128
   72MPD2     C 1116   3.951   3.427   0.150 -0.2981 -0.2085  0.0617
   72MPD2    C1 1117   3.910   3.447   0.284  0.0504  0.3458  0.4332
   72MPD2    C2 1118   3.991   3.396   0.386  0.4643  0.2772  0.2863
   72MPD2    C3 1119   4.117   3.346   0.369  0.5039 -0.5486  0.2153
   72MPD2    C4 1120   4.154   3.328   0.238 -0.0384 -0.3229  0.1563
   72MPD2    C5 1121   4.080   3.373   0.131 -0.2310  0.2202 -0.2499
   72MPD2     H 1122   3.948   3.386   0.485 -1.1450  1.0230 -0.3313
   72MPD2    H1 1123   4.243   3.272   0.211 -0.5209 -1.5236  1.0569
   72MPD2    H2 1124   3.898   3.462   0.063  0.3740 -0.1055 -0.3085
   72MPD2    H3 1125   4.118   3.346   0.032  0.7145  1.3188 -0.1781
   72MPD2     N 1126   4.200   3.285   0.467 -0.0387  0.0083 -0.6417
   72MPD2    H5 1127   4.277   3.229   0.431  0.3537 -0.1210  0.4108
   72MPD2    N1 1128   3.783   3.508   0.316 -0.1754 -0.6669  0.0126
   72MPD2    H7 1129   3.763   3.518   0.415 -2.0969  2.9163 -0.7260
   73TMC2    C1 1130   2.882   0.071  14.136  0.1226  0.3029  0.4548
   73TMC2    C2 1131   2.812   0.115  14.253  0.3505 -0.7101 -0.5767
   73TMC2    C3 1132   2.849   0.068  14.376 -0.0027 -0.6713  0.8225
   73TMC2    C4 1133   3.000   4.740  14.155 -0.6442  0.4803  0.1978
   73TMC2    C5 1134   3.043   4.717  14.289 -0.1308  0.1501  0.7545
   73TMC2    C6 1135   2.972   0.002  14.401 -0.2705  0.1943 -0.4047
   73TMC2     C 1136   2.922   0.189  14.066 -0.5030 -0.2178  0.3606
   73TMC2     O 1137   3.040   0.200  14.030 -0.1453  0.0302  0.0420
   73TMC2     H 1138   2.721   0.173  14.245  0.0579 -0.8559  1.6969
   73TMC2    H1 1139   3.059   4.715  14.067  0.6011 -1.0023  1.4467
   73TMC2    H2 1140   3.012   4.741  14.502 -0.5762 -0.5213 -0.3125
   73TMC2    C7 1141   3.186   4.734  14.311 -0.1065 -0.3594  0.7575
   73TMC2    C8 1142   2.770   0.096  14.490 -0.1284  0.1274 -0.1192
   73TMC2    O1 1143   3.237   4.708  14.419 -0.5346 -0.2214 -0.1172
   73TMC2    O2 1144   2.812   0.151  14.591  0.1169  0.3750  0.0070
   73TMC2    O5 1145   2.638   0.090  14.459 -0.4464  0.1886  0.4043
   73TMC2    H5 1146   2.632   0.025  14.385  0.4907  1.1316 -0.5143
   74MPD2     C 1147   2.843   0.609  13.806  0.7809 -0.2551 -0.5230
   74MPD2    C1 1148   2.952   0.572  13.876  0.2574  0.6768  0.3397
   74MPD2    C2 1149   2.945   0.460  13.952 -0.3813 -0.3027  0.3818
   74MPD2    C3 1150   2.821   0.390  13.966 -0.6730  0.4622 -0.2741
   74MPD2    C4 1151   2.716   0.435  13.895  0.1258  0.4212  0.2443
   74MPD2    C5 1152   2.725   0.538  13.809  0.4365 -0.0618  0.3405
   74MPD2     H 1153   3.026   0.441  14.022  0.6386  1.3358 -0.3578
   74MPD2    H1 1154   2.620   0.385  13.898 -1.3735  3.3138  1.5722
   74MPD2    H2 1155   2.849   0.695  13.740  0.7890  0.3728  0.2920
   74MPD2    H3 1156   2.640   0.557  13.745  1.8096  1.3278 -1.0698
   74MPD2     N 1157   2.814   0.268  14.035 -0.9051  0.3032  0.3932
   74MPD2    H5 1158   2.720   0.239  14.059 -0.4885  0.9475  2.7718
   74MPD2    N1 1159   3.068   0.649  13.862  0.5452 -0.3810 -0.5012
   74MPD2    H7 1160   3.074   0.720  13.789 -3.0889 -0.8637 -1.2458
   75TMC2    C1 1161   3.598   1.583  13.552 -0.0030 -0.1001 -0.7036
   75TMC2    C2 1162   3.675   1.665  13.485  0.3162 -1.0759  0.1596
   75TMC2    C3 1163   3.631   1.711  13.363 -0.1708  0.2864  0.2334
   75TMC2    C4 1164   3.477   1.539  13.506  0.0409 -0.1019 -0.2647
   75TMC2    C5 1165   3.431   1.599  13.386  0.3479 -0.3079  0.4001
   75TMC2    C6 1166   3.508   1.684  13.312 -0.0752  0.4773 -0.0245
   75TMC2     C 1167   3.645   1.538  13.679  0.3727 -0.5240 -0.4081
   75TMC2     O 1168   3.763   1.539  13.703 -0.0299 -0.2528  0.5939
   75TMC2     H 1169   3.765   1.697  13.535  1.4334 -0.6085 -2.1284
   75TMC2    H1 1170   3.425   1.458  13.555  1.9805  0.2958  2.4342
   75TMC2    H2 1171   3.481   1.717  13.212  1.3052  1.3178 -0.1114
   75TMC2    C7 1172   3.330   1.522  13.314  0.0117  1.2782  0.0445
   75TMC2    C8 1173   3.720   1.767  13.262 -0.4734  0.4435  0.3501
   75TMC2    O1 1174   3.348   1.501  13.196 -0.9099 -0.0036  0.3304
   75TMC2    O2 1175   3.700   1.736  13.141 -0.0560 -0.3689 -0.2049
   75TMC2    O5 1176   3.837   1.785  13.316 -0.1028 -0.1631 -0.4390
   75TMC2    H5 1177   3.846   1.794  13.413  0.7486  0.1445 -0.5472
   76TMC2    C1 1178   1.890   1.317  11.910  1.0498 -0.4325  0.7183
   76TMC2    C2 1179   1.808   1.225  11.850 -0.0560  0.5767  0.2221
   76TMC2    C3 1180   1.836   1.092  11.845  0.2733  0.5549  0.0299
   76TMC2    C4 1181   2.004   1.276  11.968 -0.3244 -0.3303  0.5234
   76TMC2    C5 1182   2.033   1.140  11.965 -0.1547 -0.1344  0.4662
   76TMC2    C6 1183   1.954   1.047  11.896  0.0241  0.0858 -0.6901
   76TMC2     C 1184   1.846   1.452  11.925 -1.1101 -0.4137  0.5010
   76TMC2     O 1185   1.745   1.475  11.855  0.8989  0.3042 -0.6470
   76TMC2     H 1186   1.720   1.251  11.792  0.4759  1.9381  0.0153
   76TMC2    H1 1187   2.058   1.343  12.035  0.5715 -0.6395  0.1200
   76TMC2    H2 1188   1.974   0.941  11.892 -1.0016 -0.1335  0.1158
   76TMC2    C7 1189   2.149   1.086  12.036 -0.0218  0.1472 -0.1112
   76TMC2    C8 1190   1.742   1.004  11.798 -0.8611 -0.1143  0.1459
   76TMC2    O1 1191   2.144   0.977  12.080 -0.3980  0.1230 -0.6792
   76TMC2    O2 1192   1.725   1.002  11.676  0.5275  0.2910  0.0161
   76TMC2    O5 1193   1.739   0.906  11.888  0.3238  0.5635 -0.1477
   76TMC2    H5 1194   1.765   0.942  11.975 -1.1667  0.6997  0.2559
   77MPD2     C 1195   1.859   1.923  12.113 -0.5950  0.3494 -0.3648
   77MPD2    C1 1196   1.776   1.875  12.016  0.7299  0.4468  0.3103
   77MPD2    C2 1197   1.789   1.739  11.986 -0.7041 -0.5073 -0.6644
   77MPD2    C3 1198   1.870   1.656  12.060 -0.2787  0.3689 -0.1296
   77MPD2    C4 1199   1.949   1.707  12.155 -0.4849 -0.6679  0.2322
   77MPD2    C5 1200   1.945   1.840  12.182  0.0544  0.3784 -0.9500
   77MPD2     H 1201   1.725   1.696  11.909 -0.9379  0.4363 -0.9935
   77MPD2    H1 1202   2.020   1.649  12.214  0.9773  0.5925 -0.2949
   77MPD2    H2 1203   1.859   2.029  12.138 -0.2455  0.3905 -0.5357
   77MPD2    H3 1204   2.005   1.883  12.262 -1.6304 -0.2150  0.6147
   77MPD2     N 1205   1.883   1.518  12.034 -0.0316  0.1458  0.4039
   77MPD2    H5 1206   1.956   1.474  12.090  0.6583  1.9935  0.9587
   77MPD2    N1 1207   1.689   1.968  11.957  0.2243  0.0657 -0.2925
   77MPD2    H7 1208   1.695   2.060  11.998 -2.5120 -1.1562  2.9217
   78TMC2    C1 1209   3.241   2.612   0.863 -0.3609 -0.4393 -0.4517
   78TMC2    C2 1210   3.158   2.542   0.944  0.2452  0.0494 -0.3294
   78TMC2    C3 1211   3.183   2.526   1.076 -0.6773 -0.2145 -0.6314
   78TMC2    C4 1212   3.356   2.660   0.911 -0.2229 -0.1761 -0.5323
   78TMC2    C5 1213   3.393   2.631   1.041 -0.4703  0.3889  0.0201
   78TMC2    C6 1214   3.309   2.561   1.127  0.0345 -0.7904 -0.1919
   78TMC2     C 1215   3.190   2.642   0.726 -0.4590  0.2961  0.9768
   78TMC2     O 1216   3.085   2.595   0.687  0.1600  0.0170 -0.9722
   78TMC2     H 1217   3.064   2.521   0.894  0.8419 -0.9215 -1.0474
   78TMC2    H1 1218   3.437   2.702   0.852 -0.9330  0.4018 -1.1002
   78TMC2    H2 1219   3.348   2.517   1.219  1.5240  1.1232  0.0794
   78TMC2    C7 1220   3.517   2.678   1.104 -0.0175  0.5575 -0.1175
   78TMC2    C8 1221   3.095   2.455   1.166  0.1605  0.2676  0.1595
   78TMC2    O1 1222   3.599   2.733   1.027 -0.3504  0.3240  0.3719
   78TMC2    O2 1223   3.097   2.469   1.288  0.0269 -0.3978  0.2118
   78TMC2    O5 1224   3.029   2.360   1.089 -0.6845  0.0558 -0.3805
   78TMC2    H5 1225   3.046   2.346   0.993  0.9309  1.1688 -0.2628
   79MPD1     C 1226   3.190   2.902   0.291 -0.2969  0.1242 -0.0127
   79MPD1    C1 1227   3.120   2.788   0.323 -0.7147  0.6858  0.4829
   79MPD1    C2 1228   3.149   2.728   0.445  0.3428  0.3594 -0.4189
   79MPD1    C3 1229   3.242   2.785   0.535  0.7594 -0.3037 -0.4420
   79MPD1    C4 1230   3.323   2.889   0.484  0.4842  0.4632  0.4109
   79MPD1    C5 1231   3.284   2.956   0.371 -0.4507  0.1142 -0.2114
   79MPD1     H 1232   3.093   2.640   0.472  0.1714  1.6117  3.4530
   79MPD1    H1 1233   3.409   2.931   0.535 -0.8536  0.8655  2.3214
   79MPD1    H2 1234   3.164   2.960   0.203  0.9555  0.5526 -0.1140
   79MPD1    H3 1235   3.331   3.052   0.355  0.7869 -0.5029 -0.3322
   79MPD1     N 1236   3.271   2.734   0.664 -0.5829  0.6938  0.1066
   79MPD1    H5 1237   3.349   2.774   0.716  0.8594 -1.8636 -0.0661
   79MPD1    N1 1238   3.035   2.731   0.231 -0.2213  0.3229 -0.2637
   79MPD1    H6 1239   2.996   2.789   0.157 -1.1611  0.4230  0.3026
   79MPD1    H7 1240   2.965   2.665   0.265  0.9705 -0.4984  0.6015
   80TMC2    C1 1241   4.638   0.960  12.637 -0.0098 -0.4075 -0.2520
   80TMC2    C2 1242   4.504   0.961  12.670  0.1757 -0.6903 -0.3258
   80TMC2    C3 1243   4.466   0.933  12.801  0.2594  0.1317  0.1773
   80TMC2    C4 1244   4.741   0.934  12.727  0.6368  0.3470  0.3069
   80TMC2    C5 1245   4.696   0.916  12.859  0.3627  0.3467  0.0478
   80TMC2    C6 1246   4.567   0.930  12.895 -0.2663  0.8809 -0.2328
   80TMC2     C 1247   4.672   0.975  12.496 -0.0308 -0.3125  0.0435
   80TMC2     O 1248   4.588   0.933  12.414  0.2673 -0.1613  0.0344
   80TMC2     H 1249   4.431   0.966  12.590  0.5762  1.2993 -0.5569
   80TMC2    H1 1250   0.098   0.906  12.695 -0.3826  1.7675 -4.0963
   80TMC2    H2 1251   4.542   0.926  13.000  0.1677  1.7499 -0.0912
   80TMC2    C7 1252   0.049   0.891  12.968  0.5428  0.6395  0.1157
   80TMC2    C8 1253   4.326   0.946  12.838  0.1584  0.0850 -0.2060
   80TMC2    O1 1254   0.014   0.899  13.087  0.2094 -0.2954 -0.3712
   80TMC2    O2 1255   4.238   0.990  12.765 -0.3049  0.2954  0.8285
   80TMC2    O5 1256   4.305   0.860  12.937 -0.3003 -0.3599 -0.1581
   80TMC2    H5 1257   4.381   0.799  12.950 -1.1712 -1.2679  0.6536
   81MPD2     C 1258   0.097   1.006  12.239  0.0487  0.8987  0.0333
   81MPD2    C1 1259   0.127   1.063  12.361 -0.2871 -0.6567 -0.6853
   81MPD2    C2 1260   0.226   1.160  12.359  0.4515  0.3268 -0.4740
   81MPD2    C3 1261   0.312   1.180  12.253  1.0081  0.4092  0.3354
   81MPD2    C4 1262   0.298   1.100  12.140 -0.1983 -0.0455  1.6254
   81MPD2    C5 1263   0.179   1.024  12.127  0.6284  0.3036 -0.6969
   81MPD2     H 1264   0.242   1.224  12.445 -1.3954  1.1892 -0.7881
   81MPD2    H1 1265   0.363   1.115  12.055 -1.4994 -2.3707  0.2039
   81MPD2    H2 1266   0.016   0.935  12.223  0.5411  0.4495 -0.4615
   81MPD2    H3 1267   0.153   0.978  12.032  1.1313  1.2965 -1.3088
   81MPD2     N 1268   0.409   1.283  12.252  0.0782  0.2092  1.0287
   81MPD2    H5 1269   0.465   1.288  12.167 -2.3517 -1.0160 -0.6519
   81MPD2    N1 1270   0.056   1.037  12.481  0.3515 -0.3043 -0.0771
   81MPD2    H7 1271   0.110   1.068  12.561  0.0631 -0.4273  0.1660
   82TMC2    C1 1272   2.836   0.577  11.087  0.1517 -0.3449  0.0600
   82TMC2    C2 1273   2.806   0.682  11.175  0.2493  0.2838 -0.0893
   82TMC2    C3 1274   2.842   0.672  11.306  0.8238  0.6580 -0.4973
   82TMC2    C4 1275   2.900   0.462  11.131  0.6685  0.0815 -0.2927
   82TMC2    C5 1276   2.922   0.451  11.270 -0.0614 -0.6843  0.2757
   82TMC2    C6 1277   2.903   0.559  11.357 -0.6014  0.2096  0.0567
   82TMC2     C 1278   2.766   0.574  10.959  0.0320 -0.2722  0.3649
   82TMC2     O 1279   2.823   0.543  10.858  0.0971  0.1539 -0.2352
   82TMC2     H 1280   2.767   0.774  11.134 -4.0659 -0.3995  2.5433
   82TMC2    H1 1281   2.908   0.375  11.066 -1.0628 -1.2613  1.3005
   82TMC2    H2 1282   2.918   0.561  11.465  2.7382 -0.5073 -0.3762
   82TMC2    C7 1283   2.981   0.331  11.330  0.0132 -0.1658 -0.0658
   82TMC2    C8 1284   2.860   0.797  11.378  0.3305  0.2964 -0.0644
   82TMC2    O1 1285   2.977   0.328  11.453  0.1188 -0.0583 -0.2296
   82TMC2    O2 1286   2.784   0.890  11.371 -0.6666  0.3292  0.3259
   82TMC2    O5 1287   2.990   0.801  11.421 -0.5842 -0.0796 -0.6671
   82TMC2    H5 1288   3.050   0.734  11.381 -0.4268  0.3434 -1.1318
   83MPD2     C 1289   2.365   0.673  10.668  0.9003 -0.1977 -0.0491
   83MPD2    C1 1290   2.497   0.688  10.634  0.4035 -0.6284 -0.1315
   83MPD2    C2 1291   2.587   0.662  10.738 -0.1678  0.7592  0.1145
   83MPD2    C3 1292   2.543   0.630  10.869  0.1140  0.1862 -0.6189
   83MPD2    C4 1293   2.410   0.613  10.894 -0.8177 -0.0418 -0.0548
   83MPD2    C5 1294   2.324   0.644  10.794 -0.3056  0.1808 -0.2385
   83MPD2     H 1295   2.690   0.690  10.720  0.1319 -0.6736 -0.3811
   83MPD2    H1 1296   2.382   0.594  10.997  0.3836 -0.9268  0.1107
   83MPD2    H2 1297   2.297   0.676  10.584  1.1483 -2.1626 -0.3240
   83MPD2    H3 1298   2.225   0.614  10.824 -0.3479  0.3989 -0.1672
   83MPD2     N 1299   2.637   0.620  10.974  0.3771  0.4149 -0.2501
   83MPD2    H5 1300   2.608   0.613  11.071  3.6808 -0.3409  0.6753
   83MPD2    N1 1301   2.527   0.757  10.511  0.0894  1.0053  0.1289
   83MPD2    H7 1302   2.445   0.777  10.455 -0.9642 -1.2351  0.8842
   84TMC2    C1 1303   0.707   0.057  11.506  0.1765 -0.1443 -0.3399
   84TMC2    C2 1304   0.753   4.688  11.576  0.6815 -0.0539 -0.0295
   84TMC2    C3 1305   0.816   4.595  11.504 -0.4228 -0.0752 -0.4348
   84TMC2    C4 1306   0.721   0.064  11.369  0.1575 -0.1471 -0.0617
   84TMC2    C5 1307   0.796   4.713  11.313 -0.0012  0.6759 -0.6372
   84TMC2    C6 1308   0.848   4.604  11.371 -0.0064 -0.0679 -0.5823
   84TMC2     C 1309   0.604   0.133  11.574  0.2027 -0.9031  0.2477
   84TMC2     O 1310   0.564   0.080  11.679 -0.4055 -0.2083  0.3030
   84TMC2     H 1311   0.734   4.681  11.683 -0.6895 -0.3359 -0.2848
   84TMC2    H1 1312   0.660   0.134  11.314 -1.4202  0.6551  2.7055
   84TMC2    H2 1313   0.891   4.521  11.317 -0.1459 -0.9991  0.7402
   84TMC2    C7 1314   0.803   4.722  11.172 -0.1018 -0.1790 -0.1759
   84TMC2    C8 1315   0.840   4.465  11.565  0.4895  0.0360  0.2794
   84TMC2    O1 1316   0.709   0.021  11.106 -0.3622 -0.3826 -0.2326
   84TMC2    O2 1317   0.953   4.418  11.570  0.0798 -0.6339 -0.4279
   84TMC2    O5 1318   0.745   4.400  11.500 -0.0472 -0.1231 -0.8216
   84TMC2    H5 1319   0.670   4.460  11.485  1.4771  1.6573 -1.2858
   85TMC2    C1 1320   1.458   2.994  16.137  0.1094  0.4500  0.2276
   85TMC2    C2 1321   1.332   2.970  16.091 -0.6089  0.5728 -0.4480
   85TMC2    C3 1322   1.314   3.034  15.967 -0.2201 -0.8673 -0.0099
   85TMC2    C4 1323   1.556   3.067  16.077 -0.2150 -0.8267 -0.1547
   85TMC2    C5 1324   1.534   3.102  15.946  0.0232  0.0321 -0.0786
   85TMC2    C6 1325   1.410   3.095  15.890 -0.3685 -0.1628 -0.4716
   85TMC2     C 1326   1.501   2.894  16.234  0.0956  0.3977 -0.4505
   85TMC2     O 1327   1.603   2.916  16.302  0.3942  0.2893  0.3624
   85TMC2     H 1328   1.255   2.921  16.149  0.8289  0.8819  1.6937
   85TMC2    H1 1329   1.653   3.065  16.125 -0.6803  0.3528  0.8012
   85TMC2    H2 1330   1.385   3.127  15.789  0.2679  2.1711  0.1126
   85TMC2    C7 1331   1.653   3.135  15.862  0.6361  0.0711 -0.1632
   85TMC2    C8 1332   1.178   3.053  15.930 -0.1941 -0.0340 -0.5143
   85TMC2    O1 1333   1.759   3.087  15.904  0.1185  0.4287 -0.3714
   85TMC2    O2 1334   1.141   3.142  15.854 -0.3902  0.0902 -0.0871
   85TMC2    O5 1335   1.124   2.929  15.946  0.0145 -0.7221 -0.4681
   85TMC2    H5 1336   1.189   2.869  15.989  0.3277  0.0932  0.1982
   86MPD2     C 1337   1.372   2.507  16.548 -0.3841 -0.0046 -0.0017
   86MPD2    C1 1338   1.342   2.472  16.423 -0.2663 -0.8131 -0.1398
   86MPD2    C2 1339   1.382   2.560  16.321  0.5080  0.6387 -0.0491
   86MPD2    C3 1340   1.426   2.689  16.351 -0.1907 -0.7266  0.4380
   86MPD2    C4 1341   1.447   2.720  16.480  0.4789 -0.3164 -0.2288
   86MPD2    C5 1342   1.425   2.632  16.576 -0.0903 -0.0355  0.9032
   86MPD2     H 1343   1.369   2.530  16.218 -0.9504  2.3655 -0.3599
   86MPD2    H1 1344   1.490   2.815  16.507  0.1510 -0.6068  1.2989
   86MPD2    H2 1345   1.348   2.451  16.638 -3.4456 -0.6752 -1.2228
   86MPD2    H3 1346   1.434   2.651  16.683 -1.2746  0.8098  0.8522
   86MPD2     N 1347   1.431   2.785  16.241 -0.2307 -0.2616 -0.7333
   86MPD2    H5 1348   1.373   2.768  16.160  0.0189  0.3845 -1.0415
   86MPD2    N1 1349   1.277   2.352  16.380  0.7606 -0.5991  0.3761
   86MPD2    H7 1350   1.263   2.331  16.281  0.2944 -0.5736  0.4351
   87TMC2    C1 1351   3.226   0.948   1.106  0.1775  0.6637 -0.4809
   87TMC2    C2 1352   3.253   0.931   1.241 -0.1022  0.2726  0.2049
   87TMC2    C3 1353   3.172   1.000   1.329 -0.0278 -0.0507  0.6827
   87TMC2    C4 1354   3.128   1.037   1.058  0.2151 -0.0982 -0.5310
   87TMC2    C5 1355   3.067   1.115   1.152  0.5574 -0.2820 -0.0301
   87TMC2    C6 1356   3.083   1.099   1.286  0.0504  0.1781  0.4340
   87TMC2     C 1357   3.311   0.889   1.006  0.6532  0.9645 -0.4795
   87TMC2     O 1358   3.317   0.946   0.895  0.0748  0.4786 -0.4247
   87TMC2     H 1359   3.327   0.869   1.289 -1.3332 -2.2695 -1.1570
   87TMC2    H1 1360   3.113   1.060   0.953  1.0131  3.2995  0.1138
   87TMC2    H2 1361   3.036   1.164   1.360 -1.7317  0.7955 -1.2638
   87TMC2    C7 1362   3.018   1.248   1.117  0.2676 -0.0626 -0.2782
   87TMC2    C8 1363   3.203   0.981   1.467  0.1223  0.2175 -0.0529
   87TMC2    O1 1364   2.958   1.311   1.202 -0.2034  0.5825 -0.2625
   87TMC2    O2 1365   3.260   0.884   1.509 -0.6064  0.2788  0.8990
   87TMC2    O5 1366   3.217   1.100   1.519 -0.1700 -0.3704 -0.1350
   87TMC2    H5 1367   3.229   1.169   1.449 -0.5377 -0.6871 -0.5077
   88MPD2     C 1368   3.054   1.442   0.801  0.3655 -0.1254 -0.1538
   88MPD2    C1 1369   3.022   1.427   0.937 -0.3978  0.1734  0.2586
   88MPD2    C2 1370   2.980   1.534   1.013 -0.2776  0.9010 -0.2186
   88MPD2    C3 1371   2.955   1.658   0.954 -0.2554 -0.6209 -0.3464
   88MPD2    C4 1372   2.991   1.673   0.824 -0.8366 -0.0710 -0.1404
   88MPD2    C5 1373   3.034   1.564   0.746  0.2431 -0.1991 -0.5941
   88MPD2     H 1374   2.973   1.520   1.120  0.9819  2.6343  0.0845
   88MPD2    H1 1375   2.968   1.769   0.779  1.1021  0.4340 -0.0804
   88MPD2    H2 1376   3.075   1.354   0.740  0.2154  0.2370 -0.7282
   88MPD2    H3 1377   3.062   1.590   0.645 -0.6943 -0.8046 -1.0053
   88MPD2     N 1378   2.910   1.768   1.029 -0.6429  0.8686  0.3087
   88MPD2    H5 1379   2.898   1.860   0.987 -1.2188  0.4381 -0.4800
   88MPD2    N1 1380   3.051   1.295   0.990 -0.6339 -0.5041  0.2514
   88MPD2    H7 1381   3.109   1.240   0.927  0.7818  0.5979  0.5912
   89TMC2    C1 1382   4.570   4.362   1.543 -0.0507 -0.1929 -0.6540
   89TMC2    C2 1383   4.522   4.475   1.614 -0.0591  1.2109 -0.4726
   89TMC2    C3 1384   4.466   4.576   1.544 -0.1373  0.0753  0.3396
   89TMC2    C4 1385   4.571   4.369   1.409  0.1464 -0.7140  0.3787
   89TMC2    C5 1386   4.520   4.479   1.342  0.4269 -0.5467  0.0183
   89TMC2    C6 1387   4.465   4.582   1.406  0.0092  0.5508 -0.3933
   89TMC2     C 1388   4.643   4.260   1.613 -0.1375  0.2155  0.3720
   89TMC2     O 1389   4.641   4.260   1.734 -0.9050 -1.0653  0.0787
   89TMC2     H 1390   4.522   4.481   1.722 -2.8910  3.7274 -0.6349
   89TMC2    H1 1391   4.642   4.314   1.347  3.8949  2.2273  2.0304
   89TMC2    H2 1392   4.422   4.667   1.353 -1.3011  0.7227  0.9491
   89TMC2    C7 1393   4.525   4.474   1.201  0.7740 -0.6745 -0.4642
   89TMC2    C8 1394   4.410   4.688   1.618  1.0065  0.4819 -0.2067
   89TMC2    O1 1395   4.544   4.362   1.156  0.4184 -0.0200  0.5770
   89TMC2    O2 1396   4.383   0.057   1.574 -0.3031  0.2406 -0.8037
   89TMC2    O5 1397   4.378   4.649   1.740 -0.5364  0.2814 -0.1821
   89TMC2    H5 1398   4.381   4.554   1.764  0.9718  0.4892  0.4099
   90MPD2     C 1399   0.144   3.799   1.643  0.1498  0.0114 -0.5198
   90MPD2    C1 1400   0.075   3.806   1.523  0.6278  0.2734  0.7497
   90MPD2    C2 1401   0.002   3.917   1.495  0.2869  0.1476 -0.3708
   90MPD2    C3 1402   4.738   4.032   1.576 -0.4496 -0.5373  0.5701
   90MPD2    C4 1403   0.063   4.020   1.699 -0.0926 -0.5632  0.1369
   90MPD2    C5 1404   0.136   3.912   1.724 -0.0447 -0.8850 -0.0692
   90MPD2     H 1405   4.683   3.919   1.406  0.9255  1.3633 -0.7907
   90MPD2    H1 1406   0.067   4.102   1.770  0.9867  0.1516 -0.7432
   90MPD2    H2 1407   0.212   3.720   1.672 -0.0610 -0.1359 -0.4295
   90MPD2    H3 1408   0.209   3.926   1.802  0.0724 -0.4155 -0.2661
   90MPD2     N 1409   4.679   4.151   1.528  0.3172 -0.4098 -0.4935
   90MPD2    H5 1410   4.635   4.138   1.438  1.0892 -1.6151 -0.6990
   90MPD2    N1 1411   0.077   3.698   1.427  0.1996  0.2046  0.1789
   90MPD2    H7 1412   0.022   3.714   1.343  0.1421 -1.3969 -0.0884
   91TMC2    C1 1413   1.831   3.366  16.745  0.3269  0.1855  0.1033
   91TMC2    C2 1414   1.890   3.401  16.627 -0.3414 -0.2123  0.2536
   91TMC2    C3 1415   1.808   3.457  16.530 -0.0074  0.0267 -0.4511
   91TMC2    C4 1416   1.698   3.374  16.765 -0.4064  0.5833  0.5159
   91TMC2    C5 1417   1.620   3.435  16.668 -0.6207  0.4297  0.5474
   91TMC2    C6 1418   1.674   3.476  16.549 -0.5154 -0.1396  0.5522
   91TMC2     C 1419   1.920   3.321  16.851  0.7783 -0.4398  0.2126
   91TMC2     O 1420   1.907   3.215  16.912  0.7381  0.2292  0.0147
   91TMC2     H 1421   1.989   3.371  16.597 -0.9989 -1.7548 -0.3581
   91TMC2    H1 1422   1.665   3.344  16.864  0.0493  0.9896  0.7942
   91TMC2    H2 1423   1.630   3.555  16.489  0.2523  0.0007  0.1733
   91TMC2    C7 1424   1.476   3.443  16.694  0.6107  0.5018  0.5269
   91TMC2    C8 1425   1.869   3.466  16.400  0.0856 -0.5128  0.3806
   91TMC2    O1 1426   1.431   3.405  16.801 -0.1614  0.8256  0.1798
   91TMC2    O2 1427   1.811   3.450  16.293  0.0178  0.3169  0.4867
   91TMC2    O5 1428   2.000   3.515  16.418 -0.0014 -0.3922 -0.7163
   91TMC2    H5 1429   2.011   3.551  16.509  0.3877  1.1959 -1.3792
   92MPD2     C 1430   2.165   3.295  17.028 -0.6520 -0.4381 -0.1527
   92MPD2    C1 1431   2.143   3.395  16.936 -0.2971  0.0316  0.2953
   92MPD2    C2 1432   2.231   3.499  16.922 -0.1095 -0.0104  0.2517
   92MPD2    C3 1433   2.355   3.504  16.983 -0.3860 -0.1684 -0.5221
   92MPD2    C4 1434   2.383   3.403  17.072 -0.1976 -0.3957  0.0262
   92MPD2    C5 1435   2.288   3.301  17.094  0.0682 -0.5134  0.3187
   92MPD2     H 1436   2.209   3.584  16.859  0.8504  0.5786  0.6986
   92MPD2    H1 1437   2.471   3.414  17.135  1.2275  1.2052 -2.2014
   92MPD2    H2 1438   2.101   3.211  17.054 -1.5446 -0.0814 -1.1894
   92MPD2    H3 1439   2.305   3.230  17.174 -0.2622 -1.7558 -0.7376
   92MPD2     N 1440   2.424   3.616  16.952 -0.2500  0.0133  0.0217
   92MPD2    H5 1441   2.381   3.683  16.888 -0.4691 -0.9169 -0.7990
   92MPD2    N1 1442   2.026   3.410  16.854  0.8640 -0.6447 -0.0351
   92MPD2    H7 1443   2.024   3.490  16.792  3.6204 -0.9418 -0.4759
   93TMC2    C1 1444   3.330   3.973  13.562 -0.1501 -0.4923  0.0531
   93TMC2    C2 1445   3.234   4.067  13.537 -0.0925 -0.1757 -0.8136
   93TMC2    C3 1446   3.269   4.200  13.521  0.3981 -0.1299  0.6541
   93TMC2    C4 1447   3.457   4.006  13.591 -0.3566 -0.2563 -0.2868
   93TMC2    C5 1448   3.497   4.134  13.570  0.9765 -0.4449 -0.1061
   93TMC2    C6 1449   3.406   4.232  13.534  0.3496  0.9750 -0.2339
   93TMC2     C 1450   3.292   3.833  13.597 -0.1898  0.2056  0.2911
   93TMC2     O 1451   3.372   3.755  13.646 -0.0172 -0.1324 -0.0671
   93TMC2     H 1452   3.129   4.043  13.541 -0.5562  1.7848 -1.0282
   93TMC2    H1 1453   3.527   3.929  13.620 -0.1761 -0.8361 -2.2602
   93TMC2    H2 1454   3.440   4.332  13.510 -0.5960  1.4297  0.3208
   93TMC2    C7 1455   3.638   4.173  13.566  0.1589  0.2760  0.5448
   93TMC2    C8 1456   3.168   4.305  13.545  0.0480 -0.1268  0.5515
   93TMC2    O1 1457   3.712   4.081  13.531  0.6724  0.2508 -0.1419
   93TMC2    O2 1458   3.203   4.420  13.563 -0.0347 -0.1415 -0.0360
   93TMC2    O5 1459   3.088   4.276  13.447  0.4289 -0.1011 -0.5099
   93TMC2    H5 1460   3.096   4.198  13.388  0.5902 -1.8761  1.8627
   94MPD2     C 1461   3.167   3.566  13.659 -0.5214  0.8252  0.8123
   94MPD2    C1 1462   3.104   3.673  13.603 -0.5634  0.3891  0.3599
   94MPD2    C2 1463   2.968   3.652  13.577  0.1015 -0.4075  0.6803
   94MPD2    C3 1464   2.902   3.532  13.611 -0.1079 -0.3028  0.2050
   94MPD2    C4 1465   2.975   3.436  13.672  0.7625  0.2285  0.2892
   94MPD2    C5 1466   3.106   3.454  13.693 -0.3458 -0.7997  0.0065
   94MPD2     H 1467   2.930   3.735  13.518  1.2757 -1.2632 -1.2797
   94MPD2    H1 1468   2.930   3.346  13.713  1.0609 -0.3589 -0.6723
   94MPD2    H2 1469   3.274   3.569  13.674 -0.3811  0.8780 -0.2021
   94MPD2    H3 1470   3.163   3.379  13.748 -1.1755 -0.5617  1.1944
   94MPD2     N 1471   2.763   3.517  13.601 -0.1312 -0.0703  0.6462
   94MPD2    H5 1472   2.722   3.441  13.654 -1.9296 -0.9026 -1.9927
   94MPD2    N1 1473   3.159   3.797  13.570 -0.0413 -0.2829 -0.0937
   94MPD2    H7 1474   3.091   3.862  13.535 -1.6739 -0.3284  3.0363
   95TMC2    C1 1475   3.088   1.245  16.345  0.0643 -0.4901  0.4771
   95TMC2    C2 1476   3.153   1.348  16.413 -0.0094  0.2566 -0.0718
   95TMC2    C3 1477   3.122   1.365  16.548  0.3310 -0.2877  0.3616
   95TMC2    C4 1478   2.973   1.187  16.392  0.0843  0.1382  0.0729
   95TMC2    C5 1479   2.948   1.216  16.523  0.2831 -0.7488  0.0956
   95TMC2    C6 1480   3.019   1.294  16.606  0.2916 -0.2314 -0.2336
   95TMC2     C 1481   3.124   1.232  16.207 -0.5669  0.8435 -0.2414
   95TMC2     O 1482   3.207   1.316  16.167  0.5673  0.4701 -0.8319
   95TMC2     H 1483   3.249   1.382  16.377 -0.6540 -0.4945 -2.4681
   95TMC2    H1 1484   2.893   1.156  16.325 -1.9328  1.1364  2.0234
   95TMC2    H2 1485   2.986   1.317  16.707  2.6682 -0.2403  0.5575
   95TMC2    C7 1486   2.849   1.136  16.586 -0.0670 -0.5384 -0.1143
   95TMC2    C8 1487   3.181   1.476  16.623 -0.4783  0.2237 -0.4513
   95TMC2    O1 1488   2.822   1.159  16.702 -0.7039 -0.2947 -0.0181
   95TMC2    O2 1489   3.240   1.557  16.558 -0.0396 -0.0430 -0.0808
   95TMC2    O5 1490   3.205   1.449  16.756 -0.0354 -0.5058  0.6705
   95TMC2    H5 1491   3.176   1.360  16.786 -0.6838 -0.6044 -0.2515
   96MPD2     C 1492   3.102   1.022  15.735 -0.7830  0.3264  0.4360
   96MPD2    C1 1493   3.189   1.117  15.782  0.6327  0.0157  0.5084
   96MPD2    C2 1494   3.180   1.154  15.914 -0.4570 -0.4690 -0.0446
   96MPD2    C3 1495   3.090   1.093  16.003  0.0766 -0.0845 -0.3063
   96MPD2    C4 1496   3.027   0.981  15.962 -0.0566 -0.5751 -0.2729
   96MPD2    C5 1497   3.027   0.956  15.826  0.1449  0.3226  0.6208
   96MPD2     H 1498   3.240   1.239  15.945 -1.4927 -0.2617  1.4089
   96MPD2    H1 1499   2.960   0.935  16.033 -1.6662  1.8525 -0.2295
   96MPD2    H2 1500   3.095   1.005  15.628  0.7163  0.9067  0.2488
   96MPD2    H3 1501   2.963   0.876  15.791  0.5400  0.3000 -0.0441
   96MPD2     N 1502   3.064   1.130  16.137 -0.2811 -0.2587  0.0600
   96MPD2    H5 1503   3.009   1.067  16.195  0.1788 -0.2466  0.5027
   96MPD2    N1 1504   3.266   1.185  15.681 -0.1904 -0.8812 -0.6095
   96MPD2    H7 1505   3.284   1.142  15.591 -1.9784 -1.6810 -0.5756
   97TMC2    C1 1506   1.472   3.424   0.201  0.0677 -0.5424  0.1688
   97TMC2    C2 1507   1.504   3.363   0.088  0.2657  0.4429  0.0719
   97TMC2    C3 1508   1.505   3.428  17.736  0.3714  0.4179 -0.5909
   97TMC2    C4 1509   1.424   3.554   0.197 -0.0665  0.0529 -0.7939
   97TMC2    C5 1510   1.415   3.613   0.074 -0.6372 -0.6759  0.6876
   97TMC2    C6 1511   1.472   3.559  17.725  0.0558  0.4994 -0.2608
   97TMC2     C 1512   1.407   3.352   0.302  0.3699  0.0300  0.5720
   97TMC2     O 1513   1.330   3.407   0.376 -0.2762 -0.3047  0.0981
   97TMC2     H 1514   1.536   3.260   0.090  1.9716  1.0332  2.9995
   97TMC2    H1 1515   1.384   3.603   0.285  0.8258  2.1893 -1.6030
   97TMC2    H2 1516   1.500   3.619  17.639  1.5268  0.3077  0.0747
   97TMC2    C7 1517   1.407   3.756   0.073 -0.3787 -0.2887  0.0272
   97TMC2    C8 1518   1.549   3.351  17.623  0.0007  0.0090 -0.5086
   97TMC2    O1 1519   1.429   3.806   0.182  0.3062 -0.3732 -0.1676
   97TMC2    O2 1520   1.621   3.257  17.649  0.2359  0.2694 -0.0186
   97TMC2    O5 1521   1.477   3.390  17.510  0.1598  0.1887  0.3903
   97TMC2    H5 1522   1.402   3.449  17.527  0.7735  1.0153  0.2294
   98MPD2     C 1523   1.277   2.906   0.505 -0.0013 -0.2229 -0.3116
   98MPD2    C1 1524   1.258   3.027   0.565 -0.4040 -0.1325 -0.2478
   98MPD2    C2 1525   1.323   3.135   0.505 -0.3958  0.2154  0.5252
   98MPD2    C3 1526   1.391   3.120   0.385 -0.6415  0.0146  0.1942
   98MPD2    C4 1527   1.412   2.994   0.334  0.0018 -0.2040 -0.2065
   98MPD2    C5 1528   1.359   2.884   0.401  0.1192  0.0979  0.0864
   98MPD2     H 1529   1.312   3.238   0.539 -1.1206  0.3562 -0.1341
   98MPD2    H1 1530   1.483   2.980   0.253  0.7398 -0.3993  0.4781
   98MPD2    H2 1531   1.234   2.826   0.564  0.5530  0.3378  0.8672
   98MPD2    H3 1532   1.376   2.781   0.373  0.5959  0.0760  0.4546
   98MPD2     N 1533   1.443   3.223   0.303  0.6534  0.4306 -0.3468
   98MPD2    H5 1534   1.492   3.190   0.220  1.9377  2.7711 -0.5264
   98MPD2    N1 1535   1.175   3.031   0.680  0.1200  0.3722  0.1843
   98MPD2    H7 1536   1.118   2.949   0.698 -1.6308  1.7059  0.7492
   99TMC2    C1 1537   4.463   0.935   1.578  0.3315  0.1924  0.3373
   99TMC2    C2 1538   4.539   1.020   1.655  0.0223  0.3239  0.4468
   99TMC2    C3 1539   4.532   1.018   1.791  0.1150 -0.6472 -0.0404
   99TMC2    C4 1540   4.375   0.854   1.645 -0.4248  0.0395 -0.4411
   99TMC2    C5 1541   4.359   0.859   1.780  0.3933 -0.3870  0.1673
   99TMC2    C6 1542   4.432   0.943   1.854  0.7037  0.2551  0.1141
   99TMC2     C 1543   4.504   0.927   1.435  0.5163 -0.0964  0.5558
   99TMC2     O 1544   4.614   0.968   1.401  0.3473 -0.0523  0.7083
   99TMC2     H 1545   4.612   1.084   1.607 -0.5474 -0.1573 -1.0820
   99TMC2    H1 1546   4.318   0.785   1.584  0.7861 -1.3837  0.0468
   99TMC2    H2 1547   4.434   0.943   1.962 -1.9965 -1.5245  0.1644
   99TMC2    C7 1548   4.257   0.790   1.850 -0.4947 -0.0223  0.7601
   99TMC2    C8 1549   4.629   1.094   1.864  0.0581  0.1282 -0.1483
   99TMC2    O1 1550   4.240   0.823   1.967 -0.4184 -0.0655  0.1105
   99TMC2    O2 1551   4.680   1.193   1.815  0.1088  0.3396  0.3743
   99TMC2    O5 1552   4.667   1.043   1.982 -0.2787 -0.3712 -0.0624
   99TMC2    H5 1553   4.640   0.949   1.987 -1.4828 -0.0845 -1.1373
  100MPD2     C 1554   4.537   0.876   1.147 -0.1641 -0.4454 -0.0154
  100MPD2    C1 1555   4.453   0.805   1.234  0.1527 -0.2657  0.3332
  100MPD2    C2 1556   4.384   0.691   1.181  0.4206  0.2721 -0.0558
  100MPD2    C3 1557   4.413   0.640   1.052 -0.0743  0.3864 -0.4100
  100MPD2    C4 1558   4.498   0.708   0.976 -0.0734  0.3639 -0.0546
  100MPD2    C5 1559   4.558   0.825   1.019  0.2052 -0.1120 -1.1320
  100MPD2     H 1560   4.322   0.636   1.250  1.3871  0.7556  1.1992
  100MPD2    H1 1561   4.526   0.676   0.876 -3.6148 -0.5000 -0.7610
  100MPD2    H2 1562   4.593   0.966   1.171 -0.5677 -0.1504 -0.1865
  100MPD2    H3 1563   4.632   0.865   0.951  2.4420 -0.1200  1.2798
  100MPD2     N 1564   4.345   0.526   1.007 -0.2078 -0.4472 -0.5429
  100MPD2    H5 1565   4.287   0.469   1.067 -0.8041 -2.1708 -2.7767
  100MPD2    N1 1566   4.434   0.839   1.366  0.4219  0.8368  0.2367
  100MPD2    H7 1567   4.363   0.791   1.420  0.6011 -0.7845 -0.9843
  101TMC2    C1 1568   0.171   1.854  13.005 -0.0297  0.5837  0.5504
  101TMC2    C2 1569   0.098   1.958  13.033 -0.0699  0.4962  0.7615
  101TMC2    C3 1570   0.121   2.084  12.983 -0.4490  0.5374  0.2568
  101TMC2    C4 1571   0.283   1.882  12.926 -0.0486  0.2912 -1.0308
  101TMC2    C5 1572   0.301   2.013  12.878 -0.5813 -0.3217  0.1817
  101TMC2    C6 1573   0.220   2.119  12.897 -0.4592 -0.0987 -0.3607
  101TMC2     C 1574   0.119   1.716  13.016 -0.7237 -0.0774 -0.8380
  101TMC2     O 1575   4.742   1.700  13.028 -0.0201  0.7256  0.1473
  101TMC2     H 1576   0.001   1.936  13.077  0.0715 -0.7660  0.4215
  101TMC2    H1 1577   0.333   1.796  12.884  0.1848 -0.2512  0.3577
  101TMC2    H2 1578   0.250   2.220  12.869  2.3561 -0.6312  0.7339
  101TMC2    C7 1579   0.423   2.040  12.807  0.4658 -0.5015 -0.1861
  101TMC2    C8 1580   4.740   2.155  12.970  0.2176 -0.3381  0.2390
  101TMC2    O1 1581   0.438   2.150  12.756 -0.2483  0.2010  0.0721
  101TMC2    O2 1582   4.636   2.092  12.961  0.5808  0.0033  0.5686
  101TMC2    O5 1583   0.021   2.279  12.907  0.3083 -0.5253 -0.0786
  101TMC2    H5 1584   0.104   2.324  12.936  1.2312 -0.5849 -2.5584
  102MPD2     C 1585   0.340   1.422  13.013  0.0245 -0.1368 -0.3268
  102MPD2    C1 1586   0.224   1.489  13.026  0.8772  0.2701  0.6770
  102MPD2    C2 1587   0.109   1.417  13.043  0.3786  0.6437  0.0504
  102MPD2    C3 1588   0.106   1.279  13.054 -0.1729  0.9669  0.0222
  102MPD2    C4 1589   0.222   1.213  13.043 -0.8953 -0.1457  0.1044
  102MPD2    C5 1590   0.340   1.284  13.009 -0.4222 -0.2453 -0.0214
  102MPD2     H 1591   0.014   1.470  13.041 -2.5600 -4.5858  1.6306
  102MPD2    H1 1592   0.232   1.105  13.040  0.0523 -0.0251 -1.2910
  102MPD2    H2 1593   0.439   1.463  12.995  0.1406 -0.0143  0.5774
  102MPD2    H3 1594   0.428   1.223  12.994  0.4353  1.2850 -1.1640
  102MPD2     N 1595   4.728   1.212  13.077 -0.2764  0.2061  0.2280
  102MPD2    H5 1596   4.738   1.122  13.123 -1.7169 -0.0489  0.0430
  102MPD2    N1 1597   0.223   1.625  13.011  0.1869 -0.1866 -0.7500
  102MPD2    H7 1598   0.316   1.665  13.000  0.6323  0.1534  4.0635
  103TMC2    C1 1599   2.804   1.497  11.864  0.3998 -0.1840 -0.0478
  103TMC2    C2 1600   2.769   1.595  11.770 -0.4164  0.2564 -0.5336
  103TMC2    C3 1601   2.808   1.730  11.775  0.1263  0.1809 -0.3086
  103TMC2    C4 1602   2.866   1.544  11.974 -0.9409  0.1607  0.2398
  103TMC2    C5 1603   2.903   1.679  11.987 -0.4477 -0.0204  0.4547
  103TMC2    C6 1604   2.874   1.775  11.894  0.5141  0.7094  0.5011
  103TMC2     C 1605   2.697   1.404  11.893  0.3866 -0.1327 -0.3141
  103TMC2     O 1606   2.600   1.411  11.816 -0.5219  0.0832 -0.3103
  103TMC2     H 1607   2.719   1.570  11.678  0.6171 -0.2996 -0.9461
  103TMC2    H1 1608   2.893   1.482  12.059  0.4923  2.2048  1.2851
  103TMC2    H2 1609   2.906   1.879  11.890 -1.2508  1.2529  0.2658
  103TMC2    C7 1610   2.926   1.722  12.119 -0.3227  0.4590 -0.0921
  103TMC2    C8 1611   2.802   1.811  11.661  0.4063 -0.2766  0.9120
  103TMC2    O1 1612   2.997   1.658  12.197 -0.3484  0.2356  0.0089
  103TMC2    O2 1613   2.907   1.866  11.626  0.3889  0.4126  0.3398
  103TMC2    O5 1614   2.682   1.791  11.595  0.0474 -0.5315  0.0459
  103TMC2    H5 1615   2.626   1.737  11.656  0.7944 -1.2070  0.1354
  104MPD2     C 1616   2.645   1.147  12.146  0.2479 -0.0618  0.2741
  104MPD2    C1 1617   2.608   1.233  12.051 -0.1481 -0.3977 -0.8038
  104MPD2    C2 1618   2.477   1.244  12.014 -0.3652  0.5614  0.9694
  104MPD2    C3 1619   2.391   1.150  12.062 -0.3255 -0.1126 -0.5924
  104MPD2    C4 1620   2.427   1.055  12.151  0.5302  0.1509 -0.2813
  104MPD2    C5 1621   2.556   1.056  12.193  0.4044  0.0827  0.5528
  104MPD2     H 1622   2.445   1.314  11.937  0.6111 -0.7251 -0.5944
  104MPD2    H1 1623   2.352   0.984  12.182 -0.1649 -0.9268 -4.4288
  104MPD2    H2 1624   2.751   1.136  12.167  0.4656 -0.7769 -1.1958
  104MPD2    H3 1625   2.591   0.979  12.261  0.4877  1.1781  1.7536
  104MPD2     N 1626   2.259   1.167  12.013  0.2213  0.0226 -0.2800
  104MPD2    H5 1627   2.246   1.237  11.940 -1.5523 -0.9427 -0.8923
  104MPD2    N1 1628   2.714   1.315  11.998  0.3596  0.3205  0.3531
  104MPD2    H7 1629   2.807   1.291  12.032  1.0298 -0.6598 -2.1520
  105TMC2    C1 1630   3.925   0.748   0.277  0.1403 -0.2915 -0.1412
  105TMC2    C2 1631   3.896   0.877   0.241 -0.3821  0.7584  0.0359
  105TMC2    C3 1632   3.840   0.951   0.338  0.3066 -0.2167 -0.0534
  105TMC2    C4 1633   3.899   0.694   0.401 -0.0194 -0.1892  0.0494
  105TMC2    C5 1634   3.836   0.771   0.489 -0.2879  0.0428  0.2548
  105TMC2    C6 1635   3.806   0.907   0.463 -0.0435 -0.0040 -0.2232
  105TMC2     C 1636   3.972   0.658   0.171  0.1841  0.4719  0.1650
  105TMC2     O 1637   3.978   0.540   0.200  0.2532 -0.5633  0.6053
  105TMC2     H 1638   3.909   0.918   0.141  1.9836 -1.8648 -0.7270
  105TMC2    H1 1639   3.904   0.587   0.422 -1.1098 -0.0886  0.7990
  105TMC2    H2 1640   3.761   0.975   0.535  2.1848  2.5524 -1.2563
  105TMC2    C7 1641   3.832   0.717   0.629  0.2152 -1.0016 -0.0883
  105TMC2    C8 1642   3.837   1.091   0.313 -0.0268  0.1005  0.3355
  105TMC2    O1 1643   3.906   0.622   0.657  0.3636 -0.3618  0.1740
  105TMC2    O2 1644   3.812   1.136   0.201 -0.1205 -0.5084  0.0326
  105TMC2    O5 1645   3.925   1.146   0.400 -0.2365  0.1887 -0.0139
  105TMC2    H5 1646   3.979   1.090   0.459  0.8059  0.3684 -0.7980
  106MPD2     C 1647   4.172   0.610  17.465  0.6176 -0.3725 -0.0228
  106MPD2    C1 1648   4.158   0.738  17.497 -0.6009 -0.4503  0.1741
  106MPD2    C2 1649   4.102   0.774  17.618 -0.3219  0.4522  0.2648
  106MPD2    C3 1650   4.068   0.677  17.710 -0.3509 -0.7653  0.3157
  106MPD2    C4 1651   4.080   0.541  17.677  0.8093  0.0089  0.0717
  106MPD2    C5 1652   4.138   0.514  17.556  0.5437 -0.5245  0.0382
  106MPD2     H 1653   4.076   0.879  17.626  1.5060  0.6320  4.0447
  106MPD2    H1 1654   4.035   0.460  17.734  3.0442 -1.1102  0.2701
  106MPD2    H2 1655   4.194   0.577  17.364  2.7664  1.3942 -0.1244
  106MPD2    H3 1656   4.147   0.408  17.536  0.7067 -0.5850  0.4321
  106MPD2     N 1657   4.020   0.725   0.067  0.3458 -0.0484 -0.0883
  106MPD2    H5 1658   4.036   0.825   0.072  0.3175 -0.1579  1.8932
  106MPD2    N1 1659   4.197   0.842  17.410  0.2968  0.0103 -0.0906
  106MPD2    H7 1660   4.186   0.937  17.444 -1.9889  0.1527 -1.2176
  107TMC2    C1 1661   4.443   0.303  11.860  0.7041 -0.6508 -0.1310
  107TMC2    C2 1662   4.489   0.308  11.985 -0.5556 -0.3834  0.0238
  107TMC2    C3 1663   4.622   0.321  12.006 -0.2930  0.0210  0.1212
  107TMC2    C4 1664   4.522   0.318  11.752  0.4844 -0.5233  0.3139
  107TMC2    C5 1665   4.657   0.333  11.768 -0.3081  0.3045 -0.1645
  107TMC2    C6 1666   4.706   0.331  11.897  0.5171 -0.3926  0.8728
  107TMC2     C 1667   4.303   0.328  11.848 -0.0592 -0.2170  0.2983
  107TMC2     O 1668   4.242   0.375  11.944  0.0321  0.1749  1.1137
  107TMC2     H 1669   4.415   0.302  12.065  0.4053  0.5989  0.9965
  107TMC2    H1 1670   4.482   0.337  11.653  1.4469 -1.3672 -0.2362
  107TMC2    H2 1671   0.066   0.367  11.904  0.0772  0.8979  0.7427
  107TMC2    C7 1672   0.002   0.384  11.662 -0.0275 -0.2976 -0.1362
  107TMC2    C8 1673   4.686   0.314  12.135 -0.1458  0.8887  0.0294
  107TMC2    O1 1674   4.686   0.427  11.562  0.5345  0.0480  0.0002
  107TMC2    O2 1675   0.062   0.345  12.149  0.0833  0.3026 -0.1622
  107TMC2    O5 1676   4.594   0.323  12.232  0.4332  0.0247 -0.3185
  107TMC2    H5 1677   4.505   0.296  12.201 -0.4308  2.1730  0.2254
  108MPD2     C 1678   4.078   0.283  11.560  0.0478  0.7263 -0.5022
  108MPD2    C1 1679   4.121   0.332  11.682 -0.5258  0.2316  0.0755
  108MPD2    C2 1680   4.046   0.425  11.751 -0.1523  0.0150  0.2558
  108MPD2    C3 1681   3.927   0.475  11.697  0.5871  0.8893 -0.1220
  108MPD2    C4 1682   3.875   0.419  11.580 -0.0597 -0.1122  0.5313
  108MPD2    C5 1683   3.950   0.318  11.520 -0.3517  0.1867  0.6679
  108MPD2     H 1684   4.063   0.458  11.852  1.1834 -0.7238  0.2646
  108MPD2    H1 1685   3.777   0.449  11.547  0.3045  0.7443  0.2335
  108MPD2    H2 1686   4.146   0.210  11.518  1.4689  1.7629 -0.0084
  108MPD2    H3 1687   3.908   0.276  11.429  0.1371  0.1802  0.4472
  108MPD2     N 1688   3.851   0.581  11.756  0.1709  0.1899 -1.2117
  108MPD2    H5 1689   3.764   0.613  11.715 -0.6839 -0.3610  0.1501
  108MPD2    N1 1690   4.242   0.282  11.732  0.4586 -0.0537  0.3061
  108MPD2    H7 1691   4.297   0.230  11.664 -3.4888 -0.4149 -2.6171
  109TMC2    C1 1692   0.179   2.498   0.443  0.4041  0.2557 -0.5946
  109TMC2    C2 1693   0.235   2.504   0.316 -0.5174  0.1035 -0.0501
  109TMC2    C3 1694   0.365   2.543   0.295 -0.3757  0.2420  0.3023
  109TMC2    C4 1695   0.251   2.531   0.554 -0.0071  0.0776  0.1614
  109TMC2    C5 1696   0.375   2.586   0.523 -1.0418 -0.0364  0.8809
  109TMC2    C6 1697   0.438   2.586   0.405 -0.1648  0.2361  0.2109
  109TMC2     C 1698   0.047   2.441   0.453 -0.1794  0.5719  0.5349
  109TMC2     O 1699   0.008   2.370   0.363  0.7532 -0.6727 -0.0333
  109TMC2     H 1700   0.182   2.481   0.224 -1.4465 -2.4778  1.1191
  109TMC2    H1 1701   0.212   2.509   0.653  0.6486 -1.1821  0.1379
  109TMC2    H2 1702   0.537   2.625   0.385  1.0503 -1.9449  1.8857
  109TMC2    C7 1703   0.456   2.632   0.632 -0.1621 -0.3685  0.2361
  109TMC2    C8 1704   0.404   2.557   0.160 -0.5666 -0.3543 -0.0033
  109TMC2    O1 1705   0.574   2.660   0.612  0.1616 -0.0341  0.0806
  109TMC2    O2 1706   0.337   2.598   0.070 -0.2235  0.1765  0.0975
  109TMC2    O5 1707   0.527   2.504   0.148  0.3902  0.3773 -0.0269
  109TMC2    H5 1708   0.559   2.471   0.235 -1.7543 -0.2074  0.5462
  110MPD2     C 1709   4.352   2.437   0.703 -0.8869  0.1172 -0.8313
  110MPD2    C1 1710   4.422   2.545   0.750 -0.2891  0.9618  0.0480
  110MPD2    C2 1711   4.545   2.564   0.699 -0.4123  0.5965 -0.3342
  110MPD2    C3 1712   4.603   2.478   0.607  0.0980 -0.0230  0.1463
  110MPD2    C4 1713   4.534   2.362   0.574 -0.2532  0.2503 -0.1002
  110MPD2    C5 1714   4.402   2.343   0.620 -0.3142  0.1853 -0.0841
  110MPD2     H 1715   4.588   2.661   0.716  2.2615 -0.9582  1.6672
  110MPD2    H1 1716   4.574   2.284   0.510  0.3392  0.8170 -0.4128
  110MPD2    H2 1717   4.252   2.420   0.739 -0.9497  1.3994 -0.3890
  110MPD2    H3 1718   4.348   2.252   0.596 -0.4523  0.2249  0.0718
  110MPD2     N 1719   4.725   2.509   0.555 -0.5317 -0.7411 -0.2152
  110MPD2    H5 1720   0.037   2.588   0.587 -0.9555 -0.2651 -0.6745
  110MPD2    N1 1721   4.352   2.628   0.841  0.2124 -0.1026  0.0279
  110MPD2    H7 1722   4.267   2.583   0.872  2.2302 -1.9622  2.7559
  111TMC2    C1 1723   4.556   2.423  11.811 -0.8839  0.0636  0.5287
  111TMC2    C2 1724   4.494   2.469  11.922 -0.0410  0.6142 -0.2405
  111TMC2    C3 1725   4.562   2.529  12.020  0.4106  0.2180 -0.2413
  111TMC2    C4 1726   4.690   2.436  11.799  0.5342 -0.3237  0.2889
  111TMC2    C5 1727   0.013   2.503  11.893  0.5789 -1.2944 -0.2605
  111TMC2    C6 1728   4.692   2.549  12.004  0.5935  0.2429 -0.3853
  111TMC2     C 1729   4.478   2.383  11.700 -0.6517  0.3766 -0.5835
  111TMC2     O 1730   4.530   2.355  11.593  0.0407 -0.7022  0.4444
  111TMC2     H 1731   4.386   2.466  11.932 -0.3308  1.8671 -2.8977
  111TMC2    H1 1732   0.000   2.403  11.711  1.5761 -1.0087  1.1666
  111TMC2    H2 1733   0.007   2.594  12.084 -0.4460  0.8885 -0.0173
  111TMC2    C7 1734   0.161   2.484  11.899 -0.3490 -0.0387 -0.5576
  111TMC2    C8 1735   4.484   2.607  12.114 -0.0568  0.2694  0.1653
  111TMC2    O1 1736   0.221   2.495  12.005  0.0192  0.0202  0.3050
  111TMC2    O2 1737   4.374   2.647  12.075 -0.0197 -0.0083  1.0403
  111TMC2    O5 1738   4.503   2.550  12.236  0.2242  0.4191  0.0674
  111TMC2    H5 1739   4.594   2.524  12.262  0.2185 -0.3724 -0.6905
  112MPD2     C 1740   4.054   2.191  11.500  0.8109  0.3824 -0.5389
  112MPD2    C1 1741   4.161   2.241  11.435 -0.0336  0.1267  0.4129
  112MPD2    C2 1742   4.265   2.292  11.518  0.1243 -0.0162 -0.0417
  112MPD2    C3 1743   4.251   2.300  11.655 -0.5555  0.4006 -0.6867
  112MPD2    C4 1744   4.134   2.257  11.713 -0.2555  0.4081  0.2848
  112MPD2    C5 1745   4.044   2.195  11.634  0.0167 -0.3521 -0.5357
  112MPD2     H 1746   4.355   2.331  11.471 -0.3755 -0.7701 -1.6221
  112MPD2    H1 1747   4.115   2.250  11.819  0.9502 -3.6688  0.2377
  112MPD2    H2 1748   3.972   2.145  11.446  0.0561 -0.2242  1.1291
  112MPD2    H3 1749   3.956   2.161  11.687 -0.7490  0.4296 -1.2862
  112MPD2     N 1750   4.351   2.353  11.739  0.3326 -0.6743 -0.4995
  112MPD2    H5 1751   4.338   2.356  11.840 -1.4715  0.7847 -0.7604
  112MPD2    N1 1752   4.175   2.262  11.300  0.4903  0.6683 -0.1375
  112MPD2    H7 1753   4.268   2.294  11.276 -0.2850  0.6806 -3.2387
  113TMC2    C1 1754   3.233   0.150   1.016 -0.6974 -0.1611  0.4618
  113TMC2    C2 1755   3.164   0.230   0.930 -0.0204 -0.4254 -0.2898
  113TMC2    C3 1756   3.088   0.168   0.832 -0.3374 -0.4308 -0.3549
  113TMC2    C4 1757   3.246   0.013   1.003  0.1151 -0.6993  0.0517
  113TMC2    C5 1758   3.147   4.700   0.926  0.1368  0.2417 -1.0125
  113TMC2    C6 1759   3.076   0.030   0.834 -0.0646  0.2380  0.6374
  113TMC2     C 1760   3.309   0.213   1.118  0.1879 -0.2395 -0.3355
  113TMC2     O 1761   3.260   0.316   1.160 -0.3588 -0.0537 -0.2647
  113TMC2     H 1762   3.159   0.338   0.945  0.7943 -0.3080 -0.8441
  113TMC2    H1 1763   3.307   4.696   1.069  1.3226  0.8945  0.3773
  113TMC2    H2 1764   2.994   4.727   0.779 -1.9262  2.4686  1.5483
  113TMC2    C7 1765   3.120   4.558   0.952  0.3237 -0.1119  0.1029
  113TMC2    C8 1766   2.993   0.247   0.759 -0.5833  0.5581 -0.0199
  113TMC2    O1 1767   3.071   4.486   0.863 -0.0697 -0.3254  0.3675
  113TMC2    O2 1768   2.952   0.358   0.802 -0.6121  0.5414 -0.3670
  113TMC2    O5 1769   3.014   0.222   0.634 -0.5731  0.4804 -0.0528
  113TMC2    H5 1770   3.040   0.130   0.610 -0.7069  1.0431 -2.4173
  114MPD2     C 1771   3.750   0.300   1.343 -0.0846 -0.6242  0.2481
  114MPD2    C1 1772   3.627   0.358   1.370 -0.0521 -0.3205  0.4845
  114MPD2    C2 1773   3.516   0.317   1.309  0.0465 -0.6039  0.4726
  114MPD2    C3 1774   3.535   0.218   1.208  0.0029  0.5727 -0.8153
  114MPD2    C4 1775   3.659   0.163   1.180 -0.2486 -0.0982  0.0393
  114MPD2    C5 1776   3.763   0.204   1.249 -0.4422 -0.1577 -0.2112
  114MPD2     H 1777   3.415   0.350   1.331  1.2015  1.2344  3.1623
  114MPD2    H1 1778   3.664   0.083   1.106 -2.0485  0.2296 -0.4372
  114MPD2    H2 1779   3.842   0.322   1.396  0.6167  1.6675 -1.9130
  114MPD2    H3 1780   3.862   0.161   1.237  0.0447  0.4894  1.4759
  114MPD2     N 1781   3.430   0.167   1.128 -0.2485  0.0699  0.2086
  114MPD2    H5 1782   3.459   0.091   1.067  0.9407  0.4018  0.3521
  114MPD2    N1 1783   3.613   0.451   1.475 -0.3019  0.6274 -0.5777
  114MPD2    H7 1784   3.522   0.487   1.501 -0.6646 -1.4388  1.0059
  115TMC2    C1 1785   4.407   3.502   0.015  0.8704 -1.0105 -0.3396
  115TMC2    C2 1786   4.442   3.484   0.148  0.0613  0.4513 -0.1732
  115TMC2    C3 1787   4.398   3.586   0.229 -0.2755  0.7081 -0.7366
  115TMC2    C4 1788   4.352   3.620  17.741 -0.5274 -0.0387  0.1588
  115TMC2    C5 1789   4.327   3.719   0.064  0.8036  0.2283 -0.3563
  115TMC2    C6 1790   4.339   3.705   0.195  1.0319 -0.4049  0.6970
  115TMC2     C 1791   4.387   3.390  17.696  0.3309 -0.5255  0.0946
  115TMC2     O 1792   4.304   3.394  17.611  0.2542  0.7592  0.1316
  115TMC2     H 1793   4.483   3.390   0.184 -2.4351 -1.1113 -1.3720
  115TMC2    H1 1794   4.345   3.631  17.634 -1.1504  1.0588  0.3152
  115TMC2    H2 1795   4.313   3.785   0.264  2.1125  0.2904  0.2858
  115TMC2    C7 1796   4.304   3.854   0.018 -0.3287  0.2991 -0.1470
  115TMC2    C8 1797   4.432   3.571   0.371  0.4077 -0.5547  0.1039
  115TMC2    O1 1798   4.260   3.933   0.101  0.3161  0.4449 -0.0422
  115TMC2    O2 1799   4.495   3.476   0.416  0.2299  0.1489 -0.8606
  115TMC2    O5 1800   4.343   3.636   0.445  0.2352 -0.1631  0.1400
  115TMC2    H5 1801   4.281   3.688   0.389  2.1669  0.9485 -0.9867
  116MPD2     C 1802   4.374   2.882  17.687  0.2762  0.3834  0.4361
  116MPD2    C1 1803   4.276   2.973  17.657 -0.3869 -0.0449  0.0201
  116MPD2    C2 1804   4.306   3.111  17.665 -0.1953 -0.1780 -0.2138
  116MPD2    C3 1805   4.435   3.149  17.693 -0.1400  0.4868  0.2341
  116MPD2    C4 1806   4.534   3.055  17.710 -0.1926 -0.0428  0.9185
  116MPD2    C5 1807   4.503   2.919  17.706 -0.1770  0.1313  0.2872
  116MPD2     H 1808   4.231   3.189  17.659 -0.6115 -0.4222  2.1016
  116MPD2    H1 1809   4.632   3.090  17.741 -0.3815  0.1839  1.2560
  116MPD2    H2 1810   4.362   2.776  17.667  0.7979  0.5883 -0.9313
  116MPD2    H3 1811   4.587   2.852  17.719  1.4617  2.2865  0.6475
  116MPD2     N 1812   4.469   3.281  17.726  0.1087 -0.4570  0.3219
  116MPD2    H5 1813   4.555   3.302   0.010  1.3673 -0.7267 -1.6874
  116MPD2    N1 1814   4.150   2.929  17.622 -0.3920  0.9595 -0.3113
  116MPD2    H7 1815   4.151   2.827  17.617 -1.1879  0.9140  0.4792
  117TMC2    C1 1816   2.652   4.155  14.198 -0.3334 -0.6655  0.9207
  117TMC2    C2 1817   2.782   4.167  14.180 -0.2937 -0.2798  0.5094
  117TMC2    C3 1818   2.844   4.280  14.201  0.6600  0.1427 -0.1874
  117TMC2    C4 1819   2.574   4.267  14.219 -0.4956 -0.7662 -0.4838
  117TMC2    C5 1820   2.640   4.389  14.228 -0.3655  1.0294 -0.0361
  117TMC2    C6 1821   2.775   4.401  14.217  0.5525 -0.5040  0.9310
  117TMC2     C 1822   2.591   4.044  14.135  0.2059 -0.4815 -0.3606
  117TMC2     O 1823   2.645   3.936  14.136 -0.2625 -0.0712  0.3904
  117TMC2     H 1824   2.838   4.083  14.140 -2.8858 -1.4182 -0.7051
  117TMC2    H1 1825   2.472   4.248  14.251 -0.4896 -2.5256 -1.5289
  117TMC2    H2 1826   2.829   4.495  14.211 -0.4885  0.1592  1.7917
  117TMC2    C7 1827   2.565   4.514  14.224 -1.0188  0.0263 -0.9733
  117TMC2    C8 1828   2.990   4.299  14.181  0.3672  0.7871  0.1451
  117TMC2    O1 1829   2.613   4.609  14.280  0.2064  0.0804 -0.1551
  117TMC2    O2 1830   3.045   4.412  14.187  0.5601 -0.2557  0.4898
  117TMC2    O5 1831   3.049   4.186  14.225 -0.0409  0.5486  0.0118
  117TMC2    H5 1832   2.989   4.111  14.247 -0.7010  0.9269 -0.5186
  118MPD2     C 1833   2.226   4.564  14.077 -0.0601  0.0179 -0.1562
  118MPD2    C1 1834   2.354   4.605  14.127  0.6097 -0.4410 -0.5264
  118MPD2    C2 1835   2.384   4.739  14.130 -0.4369 -0.7976 -0.4405
  118MPD2    C3 1836   2.287   0.082  14.096 -0.2324 -0.0897 -0.6521
  118MPD2    C4 1837   2.158   0.046  14.064  0.1929  0.0010  0.4587
  118MPD2    C5 1838   2.126   4.657  14.067  0.1172 -0.3671  0.6362
  118MPD2     H 1839   2.486   0.034  14.135 -0.8369  0.6821 -3.1758
  118MPD2    H1 1840   2.080   0.120  14.049 -1.3228 -1.5212  0.8696
  118MPD2    H2 1841   2.203   4.458  14.069 -1.1988  0.2933 -0.6165
  118MPD2    H3 1842   2.024   4.623  14.052 -0.7832  2.1531  1.1165
  118MPD2     N 1843   2.309   0.224  14.086  0.0375  0.6982  0.2371
  118MPD2    H5 1844   2.237   0.281  14.044  0.3013  0.3345 -0.7160
  118MPD2    N1 1845   2.446   4.503  14.166 -0.8367  0.2853  0.3633
  118MPD2    H7 1846   2.417   4.412  14.131  2.7555 -0.7608  0.1772
  119TMC2    C1 1847   0.649   0.334  13.142  0.0210 -0.7757 -0.4506
  119TMC2    C2 1848   0.701   0.361  13.020 -0.9146 -0.5053  0.4173
  119TMC2    C3 1849   0.608   0.392  12.922 -0.0669  0.1998  0.1730
  119TMC2    C4 1850   0.512   0.321  13.161 -1.0733 -0.2018 -0.6412
  119TMC2    C5 1851   0.427   0.366  13.065 -0.2833  0.2097 -0.3399
  119TMC2    C6 1852   0.474   0.407  12.944 -0.1571  0.1848  0.1544
  119TMC2     C 1853   0.697   0.419  13.250 -0.0048  0.0757 -0.3164
  119TMC2     O 1854   0.601   0.470  13.307  0.0625  0.1981 -0.1080
  119TMC2     H 1855   0.808   0.376  13.007 -1.8848  2.2641 -4.5559
  119TMC2    H1 1856   0.466   0.296  13.256  0.4346  0.4979  0.2846
  119TMC2    H2 1857   0.409   0.449  12.869 -1.0895 -0.5828  0.5321
  119TMC2    C7 1858   0.300   0.417  13.105  0.1291 -0.1038  0.1231
  119TMC2    C8 1859   0.653   0.423  12.791  0.2000  0.1296  0.1820
  119TMC2    O1 1860   0.222   0.429  13.013  0.0069  0.6087 -0.6881
  119TMC2    O2 1861   0.615   0.520  12.722 -0.2212  0.0563 -1.0625
  119TMC2    O5 1862   0.762   0.355  12.761 -0.2119 -0.0530  0.1563
  119TMC2    H5 1863   0.784   0.273  12.811 -2.5772 -1.3505 -0.9183
  120MPD2     C 1864   1.030   0.718  13.502  0.1280 -0.6241  0.5132
  120MPD2    C1 1865   0.893   0.734  13.488  0.3940  0.3331  0.4829
  120MPD2    C2 1866   0.823   0.631  13.417  0.1936  0.3968 -0.3855
  120MPD2    C3 1867   0.894   0.529  13.352 -0.2167 -0.0168  0.2685
  120MPD2    C4 1868   1.030   0.515  13.369 -0.3889  0.0837  0.5247
  120MPD2    C5 1869   1.094   0.615  13.440 -0.2896 -0.1675 -0.0815
  120MPD2     H 1870   0.715   0.631  13.404  0.0966  0.0921  0.3774
  120MPD2    H1 1871   1.079   0.425  13.334  1.0198  0.4706  1.5346
  120MPD2    H2 1872   1.085   0.802  13.542  0.1760 -0.2520 -0.3337
  120MPD2    H3 1873   1.202   0.603  13.449 -0.2373 -1.6121 -2.7696
  120MPD2     N 1874   0.835   0.437  13.262  0.1002 -0.6596  0.3229
  120MPD2    H5 1875   0.884   0.362  13.214  0.2513 -0.8793  0.8110
  120MPD2    N1 1876   0.831   0.849  13.546  0.0021 -0.6123 -0.5660
  120MPD2    H7 1877   0.889   0.920  13.588 -0.6996 -0.3659 -0.0095
  121TMC2    C1 1878   2.630   2.104  14.432  0.6668 -0.6105  0.2887
  121TMC2    C2 1879   2.716   2.024  14.507 -0.1629 -0.4311  0.1552
  121TMC2    C3 1880   2.719   1.895  14.474 -0.0440 -0.1593  0.3267
  121TMC2    C4 1881   2.515   2.056  14.368 -0.0535 -0.1698 -0.3450
  121TMC2    C5 1882   2.523   1.925  14.334  0.0311  0.0780  0.2193
  121TMC2    C6 1883   2.627   1.847  14.381 -0.6060 -0.5192  0.2986
  121TMC2     C 1884   2.638   2.249  14.455  0.4857  0.4295  0.3034
  121TMC2     O 1885   2.698   2.297  14.552 -0.4129  0.4554  0.0007
  121TMC2     H 1886   2.781   2.074  14.577 -0.3293  0.0696 -0.0541
  121TMC2    H1 1887   2.440   2.128  14.334 -0.3309 -0.5653 -0.5708
  121TMC2    H2 1888   2.630   1.747  14.340  0.5039 -0.0276 -0.8258
  121TMC2    C7 1889   2.443   1.878  14.223 -0.4815  0.2728  0.1750
  121TMC2    C8 1890   2.801   1.800  14.553  0.9068 -0.2667 -0.4961
  121TMC2    O1 1891   2.492   1.793  14.152  0.1344 -0.4194 -0.1399
  121TMC2    O2 1892   2.918   1.825  14.559 -0.2958  0.5029 -0.0117
  121TMC2    O5 1893   2.727   1.762  14.660 -0.1127 -0.6979 -0.4554
  121TMC2    H5 1894   2.636   1.788  14.637 -0.1089  2.3335  2.8801
  122MPD2     C 1895   2.625   2.544  14.445 -0.3906  0.6416  0.3990
  122MPD2    C1 1896   2.616   2.458  14.333  0.1015  0.9978  0.5807
  122MPD2    C2 1897   2.614   2.510  14.205  0.2504 -0.4446  0.2435
  122MPD2    C3 1898   2.656   2.634  14.180 -0.0359  0.4164 -0.2093
  122MPD2    C4 1899   2.682   2.717  14.287  0.0039  0.2001  0.3265
  122MPD2    C5 1900   2.645   2.675  14.408  0.3334 -0.3645  0.2238
  122MPD2     H 1901   2.591   2.444  14.122  0.9705  0.0255 -0.3264
  122MPD2    H1 1902   2.715   2.817  14.260 -1.4027  0.1305 -1.6906
  122MPD2    H2 1903   2.609   2.516  14.548  0.0827  0.0075  0.2981
  122MPD2    H3 1904   2.646   2.746  14.490 -0.1569  1.8088 -1.6483
  122MPD2     N 1905   2.672   2.683  14.048 -0.1848 -0.4834 -0.2733
  122MPD2    H5 1906   2.719   2.773  14.037  1.2905 -1.2532 -0.2487
  122MPD2    N1 1907   2.610   2.317  14.340 -0.1189  0.2573 -0.2621
  122MPD2    H7 1908   2.593   2.257  14.260  3.7130 -1.9255  0.5505
  123TMC2    C1 1909   0.603   1.352  10.070 -0.5931 -0.3061 -0.3617
  123TMC2    C2 1910   0.701   1.436  10.025  0.7362  0.2576 -0.3785
  123TMC2    C3 1911   0.783   1.387   9.930  0.1308  0.0131 -0.2512
  123TMC2    C4 1912   0.581   1.228  10.012 -0.0544  0.7490 -0.0725
  123TMC2    C5 1913   0.657   1.189   9.908 -0.1077  0.4099  0.0143
  123TMC2    C6 1914   0.761   1.267   9.867 -0.5945 -0.5550  0.1443
  123TMC2     C 1915   0.495   1.409  10.143  0.3901 -0.0124 -0.4088
  123TMC2     O 1916   0.490   1.531  10.138 -0.8999 -0.1057 -0.8424
  123TMC2     H 1917   0.711   1.536  10.066 -0.1892  0.2505 -0.1335
  123TMC2    H1 1918   0.495   1.167  10.034 -0.1891  0.9219 -0.1178
  123TMC2    H2 1919   0.827   1.224   9.793  0.0357 -0.7776  0.8276
  123TMC2    C7 1920   0.629   1.069   9.832  0.1917 -0.5621  0.1272
  123TMC2    C8 1921   0.883   1.484   9.876 -0.0762  0.0282 -0.3471
  123TMC2    O1 1922   0.727   1.011   9.782 -0.2332 -0.2261  0.5262
  123TMC2    O2 1923   0.921   1.567   9.951  0.4516 -0.1248 -0.1770
  123TMC2    O5 1924   0.966   1.418   9.797  0.0818 -0.6586 -0.5940
  123TMC2    H5 1925   0.920   1.345   9.751 -2.8580  0.8881 -0.1242
  124MPD2     C 1926   0.115   1.428  10.488  0.5813  0.0075  0.6073
  124MPD2    C1 1927   0.174   1.299  10.491  0.3343  0.0936  0.3001
  124MPD2    C2 1928   0.271   1.275  10.402  0.3832  0.4887  0.0900
  124MPD2    C3 1929   0.317   1.367  10.307  0.2298  0.7199  0.4458
  124MPD2    C4 1930   0.270   1.501  10.318  0.6733  0.1438  1.1064
  124MPD2    C5 1931   0.166   1.520  10.396 -0.2113  0.4131 -0.1035
  124MPD2     H 1932   0.305   1.173  10.385 -0.4573  0.0265  1.2063
  124MPD2    H1 1933   0.301   1.572  10.242 -1.3643 -0.7475 -0.5626
  124MPD2    H2 1934   0.024   1.453  10.541 -0.1572 -1.0862 -0.1378
  124MPD2    H3 1935   0.126   1.619  10.374  1.7603  1.1379 -0.4727
  124MPD2     N 1936   0.420   1.324  10.215  0.2821  0.0433 -0.3314
  124MPD2    H5 1937   0.446   1.226  10.217  0.1061  0.0224  1.1066
  124MPD2    N1 1938   0.113   1.198  10.568  0.3546 -0.0430 -0.0885
  124MPD2    H7 1939   0.031   1.229  10.620  1.7249 -0.9545  2.5968
  125TMC2    C1 1940   0.653   3.524  10.140  0.1546  0.1763 -0.3803
  125TMC2    C2 1941   0.615   3.394  10.159 -0.2090 -0.0844 -0.4967
  125TMC2    C3 1942   0.663   3.308  10.072 -0.2973 -0.7543 -0.0745
  125TMC2    C4 1943   0.740   3.575  10.050 -0.1625  0.2423 -0.2572
  125TMC2    C5 1944   0.779   3.479   9.964  0.3525 -0.0207  0.2951
  125TMC2    C6 1945   0.749   3.352   9.977 -1.0129 -0.1619 -0.2518
  125TMC2     C 1946   0.598   3.614  10.232 -0.3554  0.5422 -0.6425
  125TMC2     O 1947   0.478   3.613  10.253 -0.5861 -0.4821 -0.2872
  125TMC2     H 1948   0.554   3.347  10.236  1.7763  1.1585  1.8320
  125TMC2    H1 1949   0.766   3.680  10.045  0.0565  0.2215  0.5495
  125TMC2    H2 1950   0.791   3.281   9.907 -2.8362  0.7803 -2.2718
  125TMC2    C7 1951   0.893   3.528   9.883 -0.1772  0.5307  0.4352
  125TMC2    C8 1952   0.657   3.169  10.117 -0.3483 -0.5720 -0.0737
  125TMC2    O1 1953   0.901   3.649   9.870  0.2449 -0.1084 -0.5623
  125TMC2    O2 1954   0.680   3.134  10.230 -0.1297  0.1026  0.1609
  125TMC2    O5 1955   0.673   3.094  10.005  0.0011  0.1607  0.6045
  125TMC2    H5 1956   0.643   3.152   9.931 -0.4258  0.9814  1.4260
  126MPD1     C 1957   0.636   3.977  10.592  0.2183 -0.0272  0.4941
  126MPD1    C1 1958   0.763   3.926  10.580 -0.0727 -0.0521 -0.7242
  126MPD1    C2 1959   0.779   3.822  10.488  0.5214 -0.1604  0.6046
  126MPD1    C3 1960   0.677   3.786  10.406  0.1417 -0.5514 -0.0680
  126MPD1    C4 1961   0.553   3.846  10.422 -0.3333  0.1443  0.6188
  126MPD1    C5 1962   0.532   3.939  10.514  0.1750 -0.3152  0.7320
  126MPD1     H 1963   0.872   3.766  10.485 -0.8817 -2.4475 -0.2535
  126MPD1    H1 1964   0.470   3.817  10.359  0.1566 -0.1330  0.1080
  126MPD1    H2 1965   0.609   4.051  10.667  0.2911 -0.9763  1.4502
  126MPD1    H3 1966   0.436   3.987  10.531 -0.6580 -1.6997 -0.0932
  126MPD1     N 1967   0.699   3.687  10.296 -0.1679  0.3512 -0.3268
  126MPD1    H5 1968   0.790   3.644  10.285  0.3151  1.4968 -0.7568
  126MPD1    N1 1969   0.860   3.955  10.678 -0.2110 -0.6635  0.1231
  126MPD1    H6 1970   0.864   4.056  10.689 -0.0144 -0.9996  2.9970
  126MPD1    H7 1971   0.955   3.938  10.646  0.2210 -0.3189  1.2124
  127TMC2    C1 1972   1.592   1.478  10.024  0.2859  0.0454  0.2331
  127TMC2    C2 1973   1.686   1.384  10.040 -0.2361  0.5459  0.3843
  127TMC2    C3 1974   1.640   1.257  10.079  0.1985  0.6363  0.3134
  127TMC2    C4 1975   1.459   1.463  10.058 -0.2780  0.8389 -0.3250
  127TMC2    C5 1976   1.426   1.334  10.084  0.1355  0.7120  0.4677
  127TMC2    C6 1977   1.509   1.229  10.090 -0.0923  0.2280  0.7039
  127TMC2     C 1978   1.649   1.605   9.977 -0.1801 -0.4646  0.3171
  127TMC2     O 1979   1.769   1.616   9.977  0.2950 -0.5613  0.5858
  127TMC2     H 1980   1.790   1.393  10.014  0.0733  0.1485  1.4933
  127TMC2    H1 1981   1.385   1.543  10.060  0.4698  1.5648 -2.9577
  127TMC2    H2 1982   1.489   1.124  10.108  2.4848 -0.5114 -0.7586
  127TMC2    C7 1983   1.281   1.315  10.088  0.0678  0.2115 -0.5505
  127TMC2    C8 1984   1.714   1.146  10.016 -0.4524 -0.3132 -0.2187
  127TMC2    O1 1985   1.206   1.413  10.078 -0.0293 -0.1753 -0.5825
  127TMC2    O2 1986   1.800   1.173   9.932 -0.2725 -0.4521  0.3427
  127TMC2    O5 1987   1.703   1.029  10.089  0.2404 -0.1437 -0.5840
  127TMC2    H5 1988   1.640   1.023  10.164  0.3009 -2.0844 -0.7135
  128MPD2     C 1989   1.471   1.916   9.885 -0.1369 -0.4389 -0.1751
  128MPD2    C1 1990   1.581   1.842   9.925 -0.4006  0.3348  0.3456
  128MPD2    C2 1991   1.704   1.898   9.919  0.5633 -0.9192  0.1866
  128MPD2    C3 1992   1.726   2.031   9.881 -0.0921 -0.1172  0.4445
  128MPD2    C4 1993   1.608   2.102   9.863 -0.1308  0.2695  0.5074
  128MPD2    C5 1994   1.479   2.046   9.861  0.1763 -0.0091 -0.0110
  128MPD2     H 1995   1.794   1.840   9.940  0.7246 -1.1179 -1.0822
  128MPD2    H1 1996   1.620   2.206   9.834  3.3350 -0.1168  0.5647
  128MPD2    H2 1997   1.371   1.874   9.883 -0.2201 -0.1768 -1.3109
  128MPD2    H3 1998   1.392   2.103   9.831 -0.2368 -1.9823 -2.5398
  128MPD2     N 1999   1.856   2.081   9.858  0.0453 -0.2714  0.2555
  128MPD2    H5 2000   1.926   2.008   9.855  0.8924  0.5251  0.3799
  128MPD2    N1 2001   1.558   1.702   9.946  0.6597 -0.9103 -0.1215
  128MPD2    H7 2002   1.460   1.674   9.949  0.7844 -1.3918 -0.4973
  129TMC2    C1 2003   1.182   2.201   1.645  0.2836 -0.4330 -0.2458
  129TMC2    C2 2004   1.317   2.219   1.650 -0.1211  0.5842 -0.6957
  129TMC2    C3 2005   1.397   2.130   1.585  0.9751 -0.6987 -0.4344
  129TMC2    C4 2006   1.123   2.098   1.572 -0.2986  0.0630 -0.2486
  129TMC2    C5 2007   1.211   2.013   1.516  0.2404  0.1915 -0.1842
  129TMC2    C6 2008   1.344   2.030   1.515 -0.4212 -0.1556  0.8414
  129TMC2     C 2009   1.096   2.292   1.715 -0.4478 -0.0088  0.7851
  129TMC2     O 2010   1.003   2.237   1.775 -0.1356  0.0634  0.0694
  129TMC2     H 2011   1.359   2.314   1.680  0.8402  0.4274 -1.5311
  129TMC2    H1 2012   1.017   2.072   1.577 -0.5746  0.9834 -1.3748
  129TMC2    H2 2013   1.411   1.976   1.449  0.4299  5.6915 -3.1431
  129TMC2    C7 2014   1.156   1.900   1.445 -0.1166  0.3471 -0.0644
  129TMC2    C8 2015   1.537   2.167   1.566  1.1486  0.1184 -0.1613
  129TMC2    O1 2016   1.035   1.901   1.418  0.6333  0.3573 -0.2990
  129TMC2    O2 2017   1.603   2.142   1.466 -0.5518 -0.1863  0.2006
  129TMC2    O5 2018   1.584   2.215   1.682  0.3147  0.7661 -0.0434
  129TMC2    H5 2019   1.525   2.204   1.760  0.2597 -0.5603 -0.2708
  130MPD2     C 2020   0.937   2.526   1.807 -0.0714  0.1939  0.0128
  130MPD2    C1 2021   1.057   2.540   1.743 -0.0145  0.5767 -0.2154
  130MPD2    C2 2022   1.087   2.658   1.684  0.1777 -0.1910  0.0409
  130MPD2    C3 2023   0.996   2.767   1.694  1.1989 -0.8196  0.4653
  130MPD2    C4 2024   0.877   2.744   1.759 -0.0096 -0.1177  0.0934
  130MPD2    C5 2025   0.849   2.629   1.822 -0.0256  0.1413  0.2630
  130MPD2     H 2026   1.177   2.675   1.626  0.7204  1.2191  1.2910
  130MPD2    H1 2027   0.795   2.814   1.755  0.6763  0.6372 -0.7215
  130MPD2    H2 2028   0.906   2.434   1.857 -0.5626  2.1534  3.3009
  130MPD2    H3 2029   0.748   2.612   1.860  0.1650 -0.1263  0.6488
  130MPD2     N 2030   1.026   2.886   1.630 -0.2138 -0.2733  0.3371
  130MPD2    H5 2031   1.109   2.885   1.570  0.0221 -1.3932  0.6740
  130MPD2    N1 2032   1.130   2.426   1.705  0.1548  0.3427  0.3315
  130MPD2    H7 2033   1.205   2.450   1.641 -1.6972  1.9476 -1.2488
  131TMC2    C1 2034   4.523   1.684  10.156  0.1689  0.1341 -0.2887
  131TMC2    C2 2035   4.466   1.728  10.038 -0.8592  0.7629  0.4713
  131TMC2    C3 2036   4.490   1.860  10.008  0.3334  0.8346 -0.3156
  131TMC2    C4 2037   4.605   1.767  10.230 -0.1502 -0.0623 -0.5934
  131TMC2    C5 2038   4.636   1.894  10.191 -0.1346  0.4585 -0.2707
  131TMC2    C6 2039   4.568   1.946  10.084  0.5110  0.4274  0.3051
  131TMC2     C 2040   4.513   1.547  10.200  0.9463  0.5561 -0.6459
  131TMC2     O 2041   4.585   1.514  10.294 -0.0905  0.4109 -0.0608
  131TMC2     H 2042   4.403   1.668   9.974 -1.6568  2.8804 -0.7202
  131TMC2    H1 2043   4.657   1.731  10.318 -1.3600  0.4484  0.3373
  131TMC2    H2 2044   4.564   2.054  10.075 -1.2761  0.4488  1.3094
  131TMC2    C7 2045   0.028   1.935  10.216 -0.5813 -0.2214  0.6104
  131TMC2    C8 2046   4.427   1.905   9.887  0.8900  0.7770  0.7344
  131TMC2    O1 2047   0.109   1.853  10.261  0.1998 -0.1340 -0.4228
  131TMC2    O2 2048   4.331   1.858   9.836  0.3734  0.0247  0.2662
  131TMC2    O5 2049   4.520   1.963   9.816  0.3119  0.6385 -0.1117
  131TMC2    H5 2050   4.605   1.988   9.860  1.9139 -2.5415 -1.3596
  132MPD2     C 2051   4.238   1.296  10.140 -0.4854 -0.2550  0.2886
  132MPD2    C1 2052   4.358   1.352  10.195 -0.3802 -0.4553 -0.4451
  132MPD2    C2 2053   4.429   1.275  10.289 -0.1456  0.4908  0.0640
  132MPD2    C3 2054   4.383   1.145  10.324 -0.4033  0.0117 -0.2356
  132MPD2    C4 2055   4.261   1.096  10.282 -0.6410  0.0956 -0.7418
  132MPD2    C5 2056   4.195   1.172  10.185 -0.4928 -0.0923 -0.1824
  132MPD2     H 2057   4.520   1.306  10.339  0.3891 -1.4068  0.2864
  132MPD2    H1 2058   4.227   0.996  10.303  0.8992 -0.6811 -1.8812
  132MPD2    H2 2059   4.174   1.342  10.066 -1.8858 -2.1608  0.3242
  132MPD2    H3 2060   4.107   1.131  10.136  0.6268 -1.8196 -0.7612
  132MPD2     N 2061   4.464   1.072  10.411  0.8020 -0.3991 -0.4449
  132MPD2    H5 2062   4.559   1.103  10.425  0.5749 -0.1540  0.5228
  132MPD2    N1 2063   4.397   1.478  10.152 -0.3868  0.1360 -0.1169
  132MPD2    H7 2064   4.336   1.508  10.076  1.6831  0.3013 -1.7345
  133TMC2    C1 2065   4.024   2.642   9.757  0.7864  0.3673 -0.9586
  133TMC2    C2 2066   4.148   2.659   9.814 -0.0735 -0.4132  0.3913
  133TMC2    C3 2067   4.173   2.776   9.887 -0.0329  0.7442  0.3337
  133TMC2    C4 2068   3.919   2.733   9.774  0.8607 -0.5886  0.0562
  133TMC2    C5 2069   3.955   2.839   9.859  0.4226 -0.2209  0.2946
  133TMC2    C6 2070   4.080   2.866   9.911  0.1553  0.0628 -0.3614
  133TMC2     C 2071   4.005   2.515   9.691 -0.1718 -0.3019  0.1833
  133TMC2     O 2072   4.086   2.427   9.717 -1.3250  0.2527 -0.4663
  133TMC2     H 2073   4.228   2.590   9.791  0.4222  0.6255 -0.9786
  133TMC2    H1 2074   3.818   2.708   9.745  0.6732 -1.1089  1.1619
  133TMC2    H2 2075   4.108   2.962   9.953 -0.0216  0.2388 -0.6348
  133TMC2    C7 2076   3.840   2.920   9.901  0.1938 -0.0963 -0.5739
  133TMC2    C8 2077   4.291   2.769   9.969 -0.7930  0.2665  0.4843
  133TMC2    O1 2078   3.746   2.928   9.824 -0.2462 -0.4881 -0.2393
  133TMC2    O2 2079   4.337   2.668  10.019  0.0777  0.3813  0.2781
  133TMC2    O5 2080   4.341   2.886   9.995 -0.9167 -0.8241  0.4729
  133TMC2    H5 2081   4.302   2.958   9.940  0.4779 -0.2102  0.2932
  134MPD2     C 2082   3.723   2.449   9.467  0.0331 -0.3563  0.3106
  134MPD2    C1 2083   3.831   2.408   9.540 -0.1288  0.4919 -0.2916
  134MPD2    C2 2084   3.880   2.280   9.530  0.6430  0.0433  0.0499
  134MPD2    C3 2085   3.808   2.193   9.449  0.7038  0.0156 -0.3045
  134MPD2    C4 2086   3.698   2.234   9.380 -0.4179  0.0595 -0.0843
  134MPD2    C5 2087   3.658   2.366   9.387 -0.0259  1.0466 -0.1030
  134MPD2     H 2088   3.965   2.249   9.589  0.9295  1.9681  0.6249
  134MPD2    H1 2089   3.645   2.158   9.323  2.5668 -0.6605 -1.9468
  134MPD2    H2 2090   3.685   2.550   9.477 -0.2808 -0.5609  1.1847
  134MPD2    H3 2091   3.568   2.396   9.334  0.7669  1.0181 -1.4544
  134MPD2     N 2092   3.849   2.059   9.425 -0.4872 -0.4712  0.4923
  134MPD2    H5 2093   3.815   2.009   9.343  0.6692  0.5305 -0.6146
  134MPD2    N1 2094   3.891   2.515   9.611 -0.1723 -0.5048  0.5137
  134MPD2    H7 2095   3.840   2.603   9.609  0.2259 -0.2648  0.9944
  135TMC2    C1 2096   1.703   3.999   9.782  0.0547  0.3032 -0.0121
  135TMC2    C2 2097   1.759   4.125   9.782 -0.2866 -1.0055 -0.6427
  135TMC2    C3 2098   1.697   4.217   9.863  0.2318  0.2153 -0.2303
  135TMC2    C4 2099   1.602   3.964   9.857 -0.1274  0.2913  0.2371
  135TMC2    C5 2100   1.537   4.055   9.936  0.0157 -0.4596 -0.4502
  135TMC2    C6 2101   1.587   4.182   9.938  0.6050  0.7209  0.1202
  135TMC2     C 2102   1.786   3.892   9.727 -0.9972 -0.2061 -0.5241
  135TMC2     O 2103   1.905   3.904   9.717  0.0455  0.0326  0.0867
  135TMC2     H 2104   1.837   4.154   9.712 -1.5953  1.3955 -1.0713
  135TMC2    H1 2105   1.571   3.860   9.861  0.0254  0.3028  1.6463
  135TMC2    H2 2106   1.531   4.265   9.980 -0.0474  0.8684 -1.0265
  135TMC2    C7 2107   1.423   4.025  10.021 -0.7731  0.2079  0.2135
  135TMC2    C8 2108   1.701   4.355   9.817  0.0543 -0.5529 -0.3704
  135TMC2    O1 2109   1.360   4.124  10.061  0.0825  0.2043  0.1527
  135TMC2    O2 2110   1.660   4.445   9.885  0.3203 -0.5815 -0.2511
  135TMC2    O5 2111   1.691   4.354   9.682 -0.3111 -0.0408 -0.2248
  135TMC2    H5 2112   1.715   4.269   9.639  0.4490  0.2135 -0.3151
  136MPD2     C 2113   1.890   3.653   9.567 -0.0105 -0.2439 -0.0065
  136MPD2    C1 2114   1.758   3.695   9.566  0.2575  0.3296  0.3788
  136MPD2    C2 2115   1.665   3.625   9.495 -0.7221 -0.4568  0.3865
  136MPD2    C3 2116   1.697   3.522   9.418 -0.2551  0.6232 -0.7219
  136MPD2    C4 2117   1.826   3.476   9.421  0.0552  0.1563 -0.9823
  136MPD2    C5 2118   1.924   3.542   9.496 -0.1722 -0.0800  0.4254
  136MPD2     H 2119   1.558   3.645   9.497 -0.6391 -0.1895  1.8678
  136MPD2    H1 2120   1.861   3.393   9.359  0.2729 -1.7408  1.6874
  136MPD2    H2 2121   1.968   3.696   9.628 -0.2876  0.8115 -0.3964
  136MPD2    H3 2122   2.027   3.512   9.507 -0.1408 -0.2625 -0.3896
  136MPD2     N 2123   1.613   3.455   9.329 -0.2560 -0.1855 -0.5637
  136MPD2    H5 2124   1.658   3.395   9.262 -0.0238 -0.2548 -0.3452
  136MPD2    N1 2125   1.711   3.792   9.661 -0.7997  0.4143 -0.0710
  136MPD2    H7 2126   1.610   3.807   9.657 -0.6414  1.7784  0.8357
  137TMC2    C1 2127   0.855   2.804   9.177 -0.4323  0.0611 -0.0401
  137TMC2    C2 2128   0.926   2.870   9.075  0.0928  0.7248 -0.6432
  137TMC2    C3 2129   0.893   3.000   9.040  0.7677 -0.2414  0.0960
  137TMC2    C4 2130   0.754   2.869   9.243  0.0023  1.2472  0.3606
  137TMC2    C5 2131   0.714   2.990   9.193 -0.3200 -0.0180 -0.2984
  137TMC2    C6 2132   0.782   3.058   9.095  0.1535  0.2823  0.1549
  137TMC2     C 2133   0.928   2.694   9.240 -0.0750 -1.0330 -0.1463
  137TMC2     O 2134   0.917   2.685   9.360 -0.1934  0.3302  0.8028
  137TMC2     H 2135   1.016   2.827   9.033  0.7461 -0.8860  2.3889
  137TMC2    H1 2136   0.708   2.815   9.325 -1.9427 -0.2287 -1.6828
  137TMC2    H2 2137   0.749   3.158   9.069  1.1304  0.5458 -0.0784
  137TMC2    C7 2138   0.594   3.051   9.252 -0.2554  0.0895 -0.0993
  137TMC2    C8 2139   0.996   3.074   8.970 -0.1908 -0.6804 -0.2357
  137TMC2    O1 2140   0.554   3.145   9.190 -0.4328  0.4976  0.2917
  137TMC2    O2 2141   1.112   3.040   8.965  0.4911  0.3748 -0.6046
  137TMC2    O5 2142   0.926   3.154   8.884 -0.0619 -0.6049  0.1577
  137TMC2    H5 2143   0.829   3.162   8.896 -0.1803 -0.4462 -0.9007
  138MPD2     C 2144   1.142   2.427   9.105 -0.1772 -0.0180  0.0073
  138MPD2    C1 2145   1.093   2.508   9.203  0.3890  0.5521 -0.1483
  138MPD2    C2 2146   1.157   2.515   9.328 -0.1929 -0.6478  0.2609
  138MPD2    C3 2147   1.261   2.426   9.352 -0.4865  0.6468  0.5774
  138MPD2    C4 2148   1.302   2.333   9.261 -0.1811  0.5823 -0.2466
  138MPD2    C5 2149   1.242   2.338   9.139 -0.2905 -0.3956 -0.2163
  138MPD2     H 2150   1.130   2.586   9.405  1.6036 -0.3098  0.5596
  138MPD2    H1 2151   1.377   2.258   9.284  1.8971  1.7450 -3.2167
  138MPD2    H2 2152   1.105   2.416   9.004 -1.3754  1.7057  0.2735
  138MPD2    H3 2153   1.269   2.276   9.054 -1.5318  1.9661 -2.3296
  138MPD2     N 2154   1.326   2.443   9.478  0.6190  0.1681 -0.0809
  138MPD2    H5 2155   1.281   2.506   9.544  0.0484 -0.7744  0.4164
  138MPD2    N1 2156   1.004   2.608   9.159 -0.1331  0.1563 -0.4202
  138MPD2    H7 2157   1.005   2.623   9.059  0.5801  1.5715 -0.1998
  139TMC2    C1 2158   2.228   0.611  13.387  0.6910 -0.6545  0.1206
  139TMC2    C2 2159   2.229   0.641  13.256 -1.0683 -0.0681  0.0527
  139TMC2    C3 2160   2.133   0.729  13.203 -0.2381 -0.6661 -1.1472
  139TMC2    C4 2161   2.125   0.661  13.469 -0.0285  0.1200  0.0916
  139TMC2    C5 2162   2.034   0.746  13.419  0.1005  0.4804  0.7990
  139TMC2    C6 2163   2.040   0.782  13.282  0.3763  0.7665 -0.2562
  139TMC2     C 2164   2.317   0.515  13.443  0.5206  0.0099 -0.3705
  139TMC2     O 2165   2.429   0.513  13.393 -0.1183  0.1556  1.1658
  139TMC2     H 2166   2.306   0.594  13.196  0.5740  0.3541  1.8368
  139TMC2    H1 2167   2.120   0.625  13.571 -0.6533  0.3417  0.1398
  139TMC2    H2 2168   1.964   0.845  13.239  0.4643  1.7185  0.9848
  139TMC2    C7 2169   1.955   0.829  13.505 -0.6336 -0.5580 -0.7538
  139TMC2    C8 2170   2.093   0.741  13.062 -0.2905 -0.1817 -0.0370
  139TMC2    O1 2171   1.874   0.897  13.444 -0.5424  0.4063  0.0724
  139TMC2    O2 2172   1.979   0.736  13.024  0.0980  0.4198 -0.2764
  139TMC2    O5 2173   2.200   0.723  12.978  0.0973  0.7339 -0.0291
  139TMC2    H5 2174   2.275   0.755  13.032  0.5164 -2.8351  1.4805
  140MPD2     C 2175   2.238   0.243  13.678  0.6408 -0.2292  0.4668
  140MPD2    C1 2176   2.321   0.318  13.599  0.0884  0.0206 -0.2409
  140MPD2    C2 2177   2.460   0.293  13.596 -0.1020 -0.0967 -0.0858
  140MPD2    C3 2178   2.509   0.191  13.676 -0.9953  0.1367 -0.4995
  140MPD2    C4 2179   2.426   0.114  13.754  0.1696 -0.6775  0.0102
  140MPD2    C5 2180   2.296   0.149  13.754  0.2745  0.9991 -0.0138
  140MPD2     H 2181   2.521   0.366  13.544 -1.1251  1.1493  0.4591
  140MPD2    H1 2182   2.459   0.037  13.822  3.2362 -0.4918 -1.3109
  140MPD2    H2 2183   2.136   0.276  13.694  0.3909  0.2676 -2.0648
  140MPD2    H3 2184   2.233   0.099  13.827  2.8547 -2.1388  0.0478
  140MPD2     N 2185   2.654   0.167  13.675  0.4623 -0.0480  0.3723
  140MPD2    H5 2186   2.703   0.215  13.600  0.2064 -2.7554 -1.5336
  140MPD2    N1 2187   2.261   0.425  13.530  0.3117 -0.2280 -0.9516
  140MPD2    H7 2188   2.160   0.432  13.535  0.1684 -1.7846 -1.4144
  141TMC2    C1 2189   3.365   1.947  13.876  0.6162  0.6461  0.4887
  141TMC2    C2 2190   3.477   1.875  13.920  0.2539  0.1460  0.7130
  141TMC2    C3 2191   3.496   1.879  14.057  0.6771  0.2889 -0.1878
  141TMC2    C4 2192   3.270   2.005  13.959  0.1435  0.8547  0.0913
  141TMC2    C5 2193   3.290   1.999  14.096 -0.5126  0.5727 -0.0900
  141TMC2    C6 2194   3.399   1.925  14.143  0.0085  0.4968  0.1235
  141TMC2     C 2195   3.318   1.904  13.746  0.3051  0.3141 -0.0105
  141TMC2     O 2196   3.392   1.821  13.694 -0.2881 -0.2450 -0.3875
  141TMC2     H 2197   3.550   1.827  13.856 -0.4401 -1.0405  0.7959
  141TMC2    H1 2198   3.198   2.075  13.920 -0.8968 -1.4870 -2.1756
  141TMC2    H2 2199   3.413   1.928  14.251 -0.9188 -2.1657  0.3129
  141TMC2    C7 2200   3.229   2.106  14.165 -0.5038 -0.0764 -0.2723
  141TMC2    C8 2201   3.604   1.801  14.105 -0.3409  0.1511 -0.8205
  141TMC2    O1 2202   3.109   2.118  14.147  0.5560 -0.8102 -0.0655
  141TMC2    O2 2203   3.695   1.768  14.029  0.1421 -0.0698  0.0528
  141TMC2    O5 2204   3.559   1.732  14.212  0.6087 -0.0489 -0.1226
  141TMC2    H5 2205   3.467   1.755  14.236  0.7652 -0.4116  0.8181
  142TMC2    C1 2206   0.502   0.206   9.783  0.6045  0.0273  0.2806
  142TMC2    C2 2207   0.619   0.145   9.779 -0.0099 -0.3890  0.1416
  142TMC2    C3 2208   0.731   0.201   9.726  0.0872  0.4380 -0.6405
  142TMC2    C4 2209   0.492   0.330   9.731  0.0403  0.2172 -0.6069
  142TMC2    C5 2210   0.605   0.388   9.689  0.4670 -0.3361  0.8991
  142TMC2    C6 2211   0.732   0.337   9.692 -0.0596 -0.1935  0.1618
  142TMC2     C 2212   0.406   0.184   9.885  0.5095 -0.4982 -0.5069
  142TMC2     O 2213   0.288   0.171   9.852  0.4687  1.0020 -0.1488
  142TMC2     H 2214   0.623   0.050   9.830 -0.2089 -1.6276 -2.1710
  142TMC2    H1 2215   0.397   0.380   9.744 -1.0576 -1.9313 -0.2995
  142TMC2    H2 2216   0.824   0.386   9.661  1.7255 -1.2871  3.7078
  142TMC2    C7 2217   0.594   0.531   9.683 -0.7303 -0.4203 -0.6220
  142TMC2    C8 2218   0.844   0.120   9.705 -0.1163  0.6952 -0.0708
  142TMC2    O1 2219   0.691   0.596   9.705  0.1045  0.0932  0.3911
  142TMC2    O2 2220   0.954   0.173   9.700  0.3516 -0.7178  0.1721
  142TMC2    O5 2221   0.804   0.009   9.640  0.2450 -0.4734  0.8315
  142TMC2    H5 2222   0.710   0.000   9.613 -0.1261  0.6635  1.7477
  143MPD2     C 2223   0.267   0.174  10.368  0.3709 -0.0566  0.5908
  143MPD2    C1 2224   0.218   0.118  10.251 -0.6693 -0.5118 -0.8171
  143MPD2    C2 2225   0.284   0.126  10.128 -0.3245 -0.0276  0.5669
  143MPD2    C3 2226   0.393   0.203  10.123  0.3185 -0.6918  0.7901
  143MPD2    C4 2227   0.446   0.263  10.238  0.4305 -0.6789  0.6337
  143MPD2    C5 2228   0.388   0.248  10.361  0.1796  0.3140  0.2150
  143MPD2     H 2229   0.251   0.068  10.043  0.5859  0.0131  0.1864
  143MPD2    H1 2230   0.531   0.329  10.227 -0.2501 -0.0381 -0.7416
  143MPD2    H2 2231   0.209   0.161  10.460  1.6255  0.1069  1.4021
  143MPD2    H3 2232   0.435   0.298  10.445 -0.7780  0.9468  0.3724
  143MPD2     N 2233   0.460   0.226  10.005 -1.0205 -0.5226 -0.1831
  143MPD2    H5 2234   0.557   0.256  10.009 -0.2010 -3.4288  2.3306
  143MPD2    N1 2235   0.098   0.041  10.255  0.0090  0.1049  0.0722
  143MPD2    H7 2236   0.066   0.030  10.351 -1.1488  0.9031 -0.2300
  144TMC2    C1 2237   3.784   4.275   0.630 -0.5736  0.2459  0.4141
  144TMC2    C2 2238   3.791   4.159   0.555 -0.1639  0.2765  0.2694
  144TMC2    C3 2239   3.884   4.066   0.596 -0.0433 -0.6477 -0.1053
  144TMC2    C4 2240   3.873   4.311   0.735  0.2569  0.5348 -0.2515
  144TMC2    C5 2241   3.970   4.222   0.763 -0.0096 -0.8259  0.1590
  144TMC2    C6 2242   3.982   4.108   0.681 -0.1048 -0.2307  0.3488
  144TMC2     C 2243   3.677   4.360   0.588  0.1187  0.7583 -0.0439
  144TMC2     O 2244   3.611   4.323   0.493  0.0227  0.0663 -0.3961
  144TMC2     H 2245   3.722   4.134   0.476  0.0971 -1.2575  0.5170
  144TMC2    H1 2246   3.876   4.410   0.778 -0.0017 -1.3508  4.0319
  144TMC2    H2 2247   4.066   4.042   0.700 -1.2378 -2.2909 -1.7961
  144TMC2    C7 2248   4.045   4.220   0.889  0.5172  0.3109 -0.0663
  144TMC2    C8 2249   3.928   3.985   0.482 -0.0948 -0.7277 -0.0241
  144TMC2    O1 2250   4.123   4.128   0.913  0.4196  0.2379 -0.2196
  144TMC2    O2 2251   4.044   3.999   0.442  0.6899 -0.2914  0.4041
  144TMC2    O5 2252   3.835   3.905   0.436 -0.2532  0.1980 -0.3702
  144TMC2    H5 2253   3.754   3.900   0.491 -1.6811  3.4449 -2.1606
  145MPD2     C 2254   3.358   0.024   0.594 -0.0106 -0.3578  0.4709
  145MPD2    C1 2255   3.352   4.643   0.531  0.4766 -0.0124  0.3955
  145MPD2    C2 2256   3.448   4.551   0.562  0.3723  1.0185  0.3026
  145MPD2    C3 2257   3.562   4.580   0.641  0.1351 -0.4555 -0.0297
  145MPD2    C4 2258   3.570   4.705   0.690  0.4833 -0.1721 -0.1891
  145MPD2    C5 2259   3.466   0.048   0.681  0.1165  0.0032 -0.6352
  145MPD2     H 2260   3.436   4.448   0.531  1.0686  1.6682 -2.1000
  145MPD2    H1 2261   3.653   0.000   0.749 -0.9815  1.3749  0.8633
  145MPD2    H2 2262   3.286   0.105   0.581  0.7610  0.5655  2.0398
  145MPD2    H3 2263   3.465   0.141   0.737  1.4374  0.2834 -1.0744
  145MPD2     N 2264   3.671   4.484   0.657 -0.4511 -0.3609 -0.7953
  145MPD2    H5 2265   3.741   4.490   0.730 -1.6254  1.4623  0.1773
  145MPD2    N1 2266   3.241   4.589   0.463  0.0573  0.3280  0.0505
  145MPD2    H7 2267   3.260   4.502   0.415  0.8994  1.0675 -0.9561
  146TMC2    C1 2268   4.218   3.112  12.300 -0.6973  0.1428 -0.0347
  146TMC2    C2 2269   4.180   3.046  12.411  0.7169 -0.0300  0.2842
  146TMC2    C3 2270   4.232   2.923  12.435 -0.0083  0.2607 -0.0040
  146TMC2    C4 2271   4.293   3.060  12.197  0.1206  0.1259  0.3438
  146TMC2    C5 2272   4.353   2.944  12.229  0.2908  0.4773 -0.2574
  146TMC2    C6 2273   4.321   2.867  12.346  0.6248  0.2696  0.7074
  146TMC2     C 2274   4.281   3.239  12.343  0.2849 -0.1152  0.1449
  146TMC2     O 2275   4.301   3.325  12.265 -0.4535 -0.1184 -0.8318
  146TMC2     H 2276   4.110   3.089  12.482  1.6650  1.0262  0.5718
  146TMC2    H1 2277   4.329   3.131  12.124 -0.7121  0.7331  0.5222
  146TMC2    H2 2278   4.366   2.773  12.375 -0.5388 -0.6524 -0.4767
  146TMC2    C7 2279   4.494   2.938  12.187  0.4828 -0.1745  0.2557
  146TMC2    C8 2280   4.194   2.852  12.554 -0.2024 -0.5886  0.2482
  146TMC2    O1 2281   4.520   2.972  12.073 -0.3946 -0.3039  0.8480
  146TMC2    O2 2282   4.181   2.916  12.657 -0.2351  0.1133 -0.2592
  146TMC2    O5 2283   4.150   2.725  12.527  0.4788 -0.1145 -0.1539
  146TMC2    H5 2284   4.139   2.715  12.430 -1.5225  1.3416 -0.0939
  147MPD2     C 2285   0.250   2.861  12.279 -0.2254  0.0522  0.1483
  147MPD2    C1 2286   0.182   2.827  12.393 -1.2400 -0.4229 -0.7720
  147MPD2    C2 2287   0.043   2.832  12.393 -0.6816 -0.7238 -0.3399
  147MPD2    C3 2288   4.717   2.884  12.285 -0.2839 -0.1782 -0.8046
  147MPD2    C4 2289   0.048   2.929  12.172 -0.0142  0.1816 -0.2801
  147MPD2    C5 2290   0.188   2.909  12.172 -0.2990 -0.2399 -0.1925
  147MPD2     H 2291   4.725   2.786  12.471 -0.9389  0.1676 -0.0142
  147MPD2    H1 2292   0.006   2.966  12.079  0.2009 -0.6859 -0.7151
  147MPD2    H2 2293   0.353   2.844  12.253 -0.5338 -1.4749 -0.0466
  147MPD2    H3 2294   0.241   2.942  12.083  1.9836 -0.4072  1.1119
  147MPD2     N 2295   4.577   2.896  12.291 -0.5779  0.5636 -0.5688
  147MPD2    H5 2296   4.523   2.874  12.375 -0.0235 -1.2224 -0.6749
  147MPD2    N1 2297   0.266   2.783  12.504  0.1474  0.0661 -0.2289
  147MPD2    H7 2298   0.364   2.787  12.480  0.2091 -0.0161  0.0090
  148TMC2    C1 2299   3.875   1.882  10.401  0.1773  0.1747 -0.4498
  148TMC2    C2 2300   3.927   1.999  10.449  0.4348 -0.2597 -0.5437
  148TMC2    C3 2301   4.003   1.986  10.566 -0.5201 -0.0534  0.5744
  148TMC2    C4 2302   3.903   1.766  10.447 -0.3436 -0.5153 -0.3312
  148TMC2    C5 2303   3.980   1.753  10.557 -0.6218  0.5679  0.0683
  148TMC2    C6 2304   4.030   1.861  10.625  0.9629 -0.1900  0.5289
  148TMC2     C 2305   3.793   1.887  10.283  0.0100 -0.6786 -0.2993
  148TMC2     O 2306   3.827   1.957  10.185 -0.1852 -0.4175  1.1124
  148TMC2     H 2307   3.902   2.092  10.399  2.9022 -0.3538 -1.9784
  148TMC2    H1 2308   3.873   1.683  10.385 -1.0225 -1.0747  0.7523
  148TMC2    H2 2309   4.094   1.861  10.713  2.2744  1.7733 -0.4227
  148TMC2    C7 2310   4.010   1.621  10.604 -0.6503 -0.0747 -0.5131
  148TMC2    C8 2311   4.031   2.113  10.627 -0.0237  0.2824  0.1321
  148TMC2    O1 2312   3.966   1.531  10.538  0.1310 -0.1663 -0.3220
  148TMC2    O2 2313   3.955   2.208  10.637 -0.2008 -0.3924  0.1208
  148TMC2    O5 2314   4.142   2.101  10.702  0.6469  0.4179 -0.3493
  148TMC2    H5 2315   4.200   2.022  10.693 -0.7827 -0.7979  0.9153
  149MPD2     C 2316   3.571   1.837  10.086 -0.6596  0.0438  0.2625
  149MPD2    C1 2317   3.590   1.763  10.197 -0.1780 -0.5085 -1.1530
  149MPD2    C2 2318   3.512   1.645  10.214 -0.2489 -0.0523  0.2976
  149MPD2    C3 2319   3.430   1.603  10.105 -0.1893 -0.1807 -0.1745
  149MPD2    C4 2320   3.420   1.681   9.988  0.7148  0.1542 -0.5381
  149MPD2    C5 2321   3.487   1.800   9.981  0.0018  0.0060 -1.0675
  149MPD2     H 2322   3.516   1.601  10.313  3.0923 -3.0801 -1.1744
  149MPD2    H1 2323   3.360   1.650   9.904 -0.9457  2.8204 -0.3237
  149MPD2    H2 2324   3.622   1.931  10.070  0.6713 -1.1413 -2.6031
  149MPD2    H3 2325   3.465   1.867   9.898 -1.3276  1.4781  0.4853
  149MPD2     N 2326   3.359   1.475  10.104 -0.4384 -0.1247  0.5109
  149MPD2    H5 2327   3.319   1.440  10.017  2.1180  1.6268 -1.3617
  149MPD2    N1 2328   3.688   1.800  10.294  0.0173 -0.2089 -0.3206
  149MPD2    H7 2329   3.689   1.751  10.383 -1.0040  0.2888 -0.0367
  150TMC2    C1 2330   1.920   0.431  11.873  0.5288 -0.1942  0.1937
  150TMC2    C2 2331   1.893   0.511  11.765  0.4259  0.4686  0.3402
  150TMC2    C3 2332   1.977   0.616  11.729 -0.0381 -0.3243 -0.3408
  150TMC2    C4 2333   2.018   0.467  11.957 -0.7840 -0.5186 -1.3081
  150TMC2    C5 2334   2.104   0.570  11.926  0.5397 -1.1037  0.4869
  150TMC2    C6 2335   2.078   0.655  11.819 -0.4393  0.6412 -0.5031
  150TMC2     C 2336   1.827   0.323  11.911 -0.1992  0.6361  0.0725
  150TMC2     O 2337   1.870   0.228  11.982 -0.3911 -0.3173  0.0740
  150TMC2     H 2338   1.814   0.481  11.697  1.3696 -1.1378 -0.0371
  150TMC2    H1 2339   2.033   0.400  12.041  1.2543 -0.6265 -1.7551
  150TMC2    H2 2340   2.138   0.745  11.812  0.9559 -0.2256  0.3003
  150TMC2    C7 2341   2.222   0.592  12.010  0.0465  0.5735  0.5281
  150TMC2    C8 2342   1.961   0.683  11.610 -0.4812  0.0172  0.3011
  150TMC2    O1 2343   2.319   0.649  11.957 -0.6055  0.5575  0.2214
  150TMC2    O2 2344   1.986   0.805  11.597 -0.2554  0.1395 -0.1602
  150TMC2    O5 2345   1.911   0.601  11.517  0.4228 -0.2099 -0.1109
  150TMC2    H5 2346   1.908   0.507  11.544 -0.2051 -0.1581 -0.0196
  151MPD2     C 2347   1.349   0.119  11.921  0.5600 -0.0501 -1.1916
  151MPD2    C1 2348   1.339   0.250  11.895  0.3730 -0.6998 -0.3709
  151MPD2    C2 2349   1.454   0.326  11.882  0.4709 -0.0521  0.2840
  151MPD2    C3 2350   1.579   0.270  11.896  0.7917  0.0441 -0.3673
  151MPD2    C4 2351   1.593   0.141  11.934  1.2383  0.2872 -0.7492
  151MPD2    C5 2352   1.476   0.067  11.938  0.2192  0.3493  0.4393
  151MPD2     H 2353   1.442   0.426  11.842  0.3178 -0.7753 -1.5193
  151MPD2    H1 2354   1.688   0.103  11.972  0.7943  0.7051  0.7867
  151MPD2    H2 2355   1.258   0.063  11.940  0.0655  0.8242 -1.0041
  151MPD2    H3 2356   1.486   4.703  11.953  0.5232  0.9240  4.1991
  151MPD2     N 2357   1.693   0.356  11.887  0.3570 -0.6056 -0.1766
  151MPD2    H5 2358   1.676   0.444  11.839 -0.9512 -0.3086  0.8173
  151MPD2    N1 2359   1.210   0.305  11.887  0.2344 -0.5487 -0.5954
  151MPD2    H7 2360   1.140   0.232  11.882 -1.8848  1.4265  0.3455
  152TMC2    C1 2361   1.817   0.393  12.819  0.6488  0.2497  0.0848
  152TMC2    C2 2362   1.884   0.379  12.936 -0.0737 -0.3360  0.6614
  152TMC2    C3 2363   2.015   0.412  12.945  0.3070 -0.1869  0.0817
  152TMC2    C4 2364   1.874   0.441  12.704  0.3370 -0.2133 -0.2063
  152TMC2    C5 2365   2.005   0.481  12.719 -0.2558 -0.1576 -0.7389
  152TMC2    C6 2366   2.076   0.457  12.835  0.1514  0.0358  0.3851
  152TMC2     C 2367   1.678   0.365  12.798 -0.4448  0.3334 -0.2298
  152TMC2     O 2368   1.618   0.393  12.695  0.4970 -0.8637 -0.0712
  152TMC2     H 2369   1.832   0.344  13.025  1.0817 -0.7489  1.1733
  152TMC2    H1 2370   1.821   0.455  12.611  2.1781  2.1184 -0.9019
  152TMC2    H2 2371   2.185   0.454  12.838  0.1366 -0.6304  0.2660
  152TMC2    C7 2372   2.045   0.595  12.635  1.0156  0.2849 -0.5362
  152TMC2    C8 2373   2.102   0.378  13.058 -0.7262  0.4226  0.1818
  152TMC2    O1 2374   1.969   0.612  12.538  0.1288  0.7483  0.4074
  152TMC2    O2 2375   2.221   0.345  13.044 -0.0295  0.5230 -1.0534
  152TMC2    O5 2376   2.029   0.321  13.155 -0.6031  0.0154  0.8276
  152TMC2    H5 2377   1.939   0.359  13.166 -0.1943  0.4240  2.8629
  153MPD2     C 2378   1.462   0.256  13.072  0.1099  0.8596  0.3466
  153MPD2    C1 2379   1.494   0.315  12.951  0.1834 -0.1632  0.2845
  153MPD2    C2 2380   1.398   0.382  12.881  0.6244  0.3247 -0.3314
  153MPD2    C3 2381   1.280   0.403  12.931 -0.2432 -0.1213  0.4754
  153MPD2    C4 2382   1.242   0.344  13.051 -0.2375  0.6094 -0.2963
  153MPD2    C5 2383   1.335   0.265  13.121  0.3361 -0.6670  0.0097
  153MPD2     H 2384   1.420   0.435  12.789 -1.1141 -1.4278 -1.7458
  153MPD2    H1 2385   1.144   0.348  13.098  1.4327  0.8265  3.1649
  153MPD2    H2 2386   1.531   0.186  13.118  0.3710  0.5826 -0.4546
  153MPD2    H3 2387   1.320   0.218  13.217  2.6383 -2.9221 -0.7269
  153MPD2     N 2388   1.193   0.488  12.866 -0.9259  0.3528 -0.8899
  153MPD2    H5 2389   1.217   0.526  12.775 -1.4695  1.8029 -0.4302
  153MPD2    N1 2390   1.627   0.314  12.913  0.0122  0.7731 -0.1430
  153MPD2    H7 2391   1.688   0.279  12.987  1.8023  2.5301 -0.7688
  154TMC2    C1 2392   3.180   0.599   0.775 -0.4096 -0.2241 -0.1775
  154TMC2    C2 2393   3.297   0.548   0.812 -0.0025  1.0238  0.8895
  154TMC2    C3 2394   3.369   0.480   0.724  0.0278  0.2904  0.1703
  154TMC2    C4 2395   3.122   0.581   0.648  0.1521 -0.3847 -0.4162
  154TMC2    C5 2396   3.197   0.507   0.561  0.2033 -0.7377  0.4602
  154TMC2    C6 2397   3.327   0.467   0.595  0.3917 -0.3577  0.0632
  154TMC2     C 2398   3.095   0.665   0.879  0.9116 -0.0931  0.7282
  154TMC2     O 2399   3.117   0.640   0.995 -0.0950 -0.4589  0.4573
  154TMC2     H 2400   3.333   0.560   0.914  0.0687 -2.0843  1.2242
  154TMC2    H1 2401   3.015   0.587   0.631  0.2034  0.6849 -0.3641
  154TMC2    H2 2402   3.381   0.402   0.527 -2.2172 -3.1935  0.6712
  154TMC2    C7 2403   3.157   0.495   0.423  0.6734  0.1147 -0.1393
  154TMC2    C8 2404   3.500   0.425   0.766 -0.8190  0.0543  0.0921
  154TMC2    O1 2405   3.223   0.422   0.352  0.5545 -0.2501  0.1133
  154TMC2    O2 2406   3.507   0.354   0.866  0.4960  0.4309  0.5711
  154TMC2    O5 2407   3.574   0.406   0.658  0.3468 -0.3097  0.1793
  154TMC2    H5 2408   3.541   0.473   0.594  1.3657  0.4882  0.4999
  155MPD2     C 2409   2.849   0.931   0.829  0.6504  0.0594  0.3318
  155MPD2    C1 2410   2.910   0.834   0.897  0.2299 -0.3757  1.8616
  155MPD2    C2 2411   2.884   0.822   1.035 -0.0062 -0.8014  0.0331
  155MPD2    C3 2412   2.802   0.907   1.101 -0.2577  0.6624  0.6814
  155MPD2    C4 2413   2.734   1.005   1.030 -0.5774 -0.0265  0.3263
  155MPD2    C5 2414   2.746   1.004   0.892  0.3658  0.0166 -0.2578
  155MPD2     H 2415   2.951   0.759   1.091  1.5067 -0.2673 -1.1603
  155MPD2    H1 2416   2.674   1.085   1.071 -1.7558 -0.9618  0.4624
  155MPD2    H2 2417   2.854   0.951   0.722  1.5661  0.2232  0.4070
  155MPD2    H3 2418   2.679   1.070   0.838  1.9139  1.3913 -0.4658
  155MPD2     N 2419   2.810   0.904   1.245 -0.0287 -0.0352 -0.2276
  155MPD2    H5 2420   2.873   0.840   1.292  1.1314  0.8092 -0.6346
  155MPD2    N1 2421   3.005   0.754   0.827 -0.2570  0.3139 -0.1360
  155MPD2    H7 2422   3.006   0.768   0.727 -0.5075 -2.0052 -0.4395
  156TMC2    C1 2423   1.818   2.506  12.155  0.7721 -0.3052 -0.2840
  156TMC2    C2 2424   1.951   2.497  12.126 -0.0805 -0.1721  0.4781
  156TMC2    C3 2425   2.015   2.571  12.029  0.0822 -0.5285  0.2115
  156TMC2    C4 2426   1.751   2.598  12.069  0.3163  0.9975  0.5678
  156TMC2    C5 2427   1.821   2.665  11.966  0.2140 -0.5568  0.7105
  156TMC2    C6 2428   1.955   2.657  11.944  0.0563  0.8426 -0.1959
  156TMC2     C 2429   1.767   2.493  12.290  0.4925  0.5501  0.6926
  156TMC2     O 2430   1.849   2.469  12.379  0.4971  0.1959 -0.0701
  156TMC2     H 2431   2.017   2.430  12.180 -0.7718 -1.5031 -0.3089
  156TMC2    H1 2432   1.646   2.619  12.086  0.1472  0.2300  0.4700
  156TMC2    H2 2433   2.014   2.720  11.878  1.6677 -1.7034 -1.1654
  156TMC2    C7 2434   1.733   2.742  11.881  0.2643 -0.0687  0.4774
  156TMC2    C8 2435   2.154   2.538  12.011 -0.4354 -0.3300 -0.5689
  156TMC2    O1 2436   1.780   2.842  11.828 -0.0499  0.1275 -0.8134
  156TMC2    O2 2437   2.222   2.497  12.100  0.0245 -0.0559 -0.0833
  156TMC2    O5 2438   2.180   2.541  11.878  0.3070  0.1676  0.1184
  156TMC2    H5 2439   2.107   2.559  11.816  1.3364  1.1518 -0.8119
  157MPD2     C 2440   1.439   2.607  12.416 -0.1735  1.0411  0.0496
  157MPD2    C1 2441   1.579   2.582  12.421  0.3839  0.4711  0.3483
  157MPD2    C2 2442   1.655   2.631  12.523  0.0328  0.5511 -0.1216
  157MPD2    C3 2443   1.590   2.707  12.617  0.2594 -0.5748 -0.3294
  157MPD2    C4 2444   1.452   2.715  12.622  0.1051  0.3256 -0.1548
  157MPD2    C5 2445   1.377   2.673  12.512  0.0125  0.5388 -0.2989
  157MPD2     H 2446   1.763   2.634  12.520  0.0204 -0.4479 -2.0425
  157MPD2    H1 2447   1.398   2.776  12.692  2.3798  0.9437  1.0786
  157MPD2    H2 2448   1.386   2.568  12.329  0.3186  1.1702 -0.3075
  157MPD2    H3 2449   1.273   2.704  12.510 -0.3271 -0.6153 -0.5709
  157MPD2     N 2450   1.676   2.765  12.710 -0.4207 -0.0559 -0.0892
  157MPD2    H5 2451   1.772   2.733  12.704  0.6692  3.0512  1.2407
  157MPD2    N1 2452   1.637   2.524  12.309 -0.4397  0.4247 -0.3211
  157MPD2    H7 2453   1.579   2.521  12.226  0.8943  1.8592 -1.3106
  158TMC2    C1 2454   2.299   1.677  12.886 -0.2782  0.4232 -0.8597
  158TMC2    C2 2455   2.311   1.654  12.750  0.0793  0.0669  0.9346
  158TMC2    C3 2456   2.213   1.687  12.664  0.3630  0.6817  0.3374
  158TMC2    C4 2457   2.193   1.751  12.937 -0.6386  0.2913 -0.4609
  158TMC2    C5 2458   2.098   1.783  12.839  0.5827  0.2495  0.0108
  158TMC2    C6 2459   2.099   1.748  12.705 -0.0841 -0.2983 -0.3222
  158TMC2     C 2460   2.395   1.616  12.975 -0.6806 -0.0997  0.3953
  158TMC2     O 2461   2.483   1.550  12.926  0.9094 -0.1520 -0.4971
  158TMC2     H 2462   2.399   1.604  12.712  0.3201  2.3010 -1.4783
  158TMC2    H1 2463   2.187   1.772  13.043 -2.2903 -0.2170 -0.4517
  158TMC2    H2 2464   2.020   1.789  12.644  0.0135  0.2982 -0.0516
  158TMC2    C7 2465   1.972   1.827  12.878  0.4013  0.1779  0.4572
  158TMC2    C8 2466   2.248   1.691  12.525  0.1834  0.9456  0.4054
  158TMC2    O1 2467   1.900   1.880  12.793 -0.5231  0.6880  0.0722
  158TMC2    O2 2468   2.362   1.689  12.479 -0.1917 -0.0826  0.0544
  158TMC2    O5 2469   2.137   1.712  12.453  0.2760  0.1183  0.1349
  158TMC2    H5 2470   2.050   1.691  12.494 -0.0331  3.4934  1.1600
  159MPD2     C 2471   2.571   1.449  13.427  0.4045 -0.2288  0.2639
  159MPD2    C1 2472   2.439   1.486  13.447  0.0635 -0.1914  0.0544
  159MPD2    C2 2473   2.373   1.545  13.338 -0.0220  0.4824  0.1393
  159MPD2    C3 2474   2.431   1.555  13.207  0.0682 -0.0766 -0.2064
  159MPD2    C4 2475   2.557   1.520  13.199 -0.5742 -0.7800  0.4083
  159MPD2    C5 2476   2.633   1.471  13.306 -0.0854 -0.3698 -0.1775
  159MPD2     H 2477   2.269   1.573  13.350 -0.5948 -2.1718  1.4333
  159MPD2    H1 2478   2.609   1.525  13.104  1.1700 -1.1923  1.3482
  159MPD2    H2 2479   2.623   1.400  13.508  1.3252 -0.4221 -0.4538
  159MPD2    H3 2480   2.737   1.447  13.287  0.1462 -0.3655  1.0663
  159MPD2     N 2481   2.356   1.619  13.107  0.0269  0.6029  0.0919
  159MPD2    H5 2482   2.262   1.651  13.128  0.4800  1.5442  0.7013
  159MPD2    N1 2483   2.380   1.460  13.574 -0.0339  0.2403  0.1599
  159MPD2    H7 2484   2.441   1.413  13.641 -1.2181  0.9602  1.7218
  160TMC2    C1 2485   1.906   4.592   1.235 -0.3073 -0.6454  1.2316
  160TMC2    C2 2486   1.820   4.524   1.150 -0.0418  0.5712 -0.1747
  160TMC2    C3 2487   1.877   4.414   1.094  0.3462 -0.0822  0.7730
  160TMC2    C4 2488   2.035   4.560   1.250  0.3757 -0.0475  0.1304
  160TMC2    C5 2489   2.088   4.453   1.177  0.3301 -0.0661 -0.5521
  160TMC2    C6 2490   2.008   4.383   1.095 -0.6539  0.4662  0.1412
  160TMC2     C 2491   1.861   4.706   1.315  0.6322  0.5515  0.4185
  160TMC2     O 2492   1.939   0.000   1.398 -0.0795 -0.5087  0.3361
  160TMC2     H 2493   1.712   4.534   1.158 -0.0347  2.1414 -2.0065
  160TMC2    H1 2494   2.100   4.614   1.317  0.6009  0.3221 -0.3836
  160TMC2    H2 2495   2.044   4.291   1.051  1.4355  2.3719 -2.0825
  160TMC2    C7 2496   2.224   4.407   1.199 -0.0354 -0.1548  0.1692
  160TMC2    C8 2497   1.797   4.313   1.026  0.6263 -0.0697  0.1611
  160TMC2    O1 2498   2.251   4.303   1.146  0.4855 -0.1888  0.9639
  160TMC2    O2 2499   1.827   4.193   1.015 -0.2872 -0.0922 -0.3186
  160TMC2    O5 2500   1.682   4.374   0.976  0.3111  0.5910  0.0949
  160TMC2    H5 2501   1.683   4.471   0.963 -1.1281  0.5837 -0.0623
  161MPD2     C 2502   1.763   0.229   1.409  0.4720  0.1949 -0.6660
  161MPD2    C1 2503   1.721   0.169   1.289 -0.2608  0.3328  0.2966
  161MPD2    C2 2504   1.642   0.235   1.201  0.3753  0.5288  1.1548
  161MPD2    C3 2505   1.614   0.370   1.233 -0.5749 -0.1384 -0.1671
  161MPD2    C4 2506   1.652   0.428   1.353  0.0187  0.3474  0.2607
  161MPD2    C5 2507   1.724   0.358   1.444  0.4838 -0.0702  0.0090
  161MPD2     H 2508   1.614   0.183   1.110  1.0475 -0.3482  1.4528
  161MPD2    H1 2509   1.626   0.528   1.385 -0.9936  0.4224 -0.7998
  161MPD2    H2 2510   1.821   0.179   1.486  0.9502  1.5094 -0.1810
  161MPD2    H3 2511   1.752   0.399   1.540  1.6129 -0.8454  0.0132
  161MPD2     N 2512   1.569   0.468   1.132 -0.3558 -0.2668 -0.0050
  161MPD2    H5 2513   1.546   0.560   1.166 -1.4948 -0.7190  0.4353
  161MPD2    N1 2514   1.766   0.037   1.252  0.5490  0.0515  0.0217
  161MPD2    H7 2515   1.722   4.733   1.173  0.5211  2.1615 -1.2147
  162TMC2    C1 2516   4.573   2.158   0.939  0.0775 -0.0882 -0.2357
  162TMC2    C2 2517   4.500   2.260   0.983 -0.0625 -0.3343  1.0337
  162TMC2    C3 2518   4.559   2.337   1.072 -0.0374 -0.0230  0.5343
  162TMC2    C4 2519   4.701   2.126   0.979  0.4283  0.4684  0.2749
  162TMC2    C5 2520   0.012   2.212   1.079  0.2135  0.1226  0.0579
  162TMC2    C6 2521   4.677   2.317   1.131  0.0150 -0.1035  0.2706
  162TMC2     C 2522   4.516   2.061   0.848  0.5088 -0.2340  0.8490
  162TMC2     O 2523   4.591   1.987   0.780 -0.3745 -0.4686 -0.9752
  162TMC2     H 2524   4.397   2.276   0.952  1.6001  2.0785 -3.1916
  162TMC2    H1 2525   0.022   2.059   0.923 -0.8270 -1.4952  1.2191
  162TMC2    H2 2526   4.718   2.380   1.209 -0.3901 -0.6061  0.8918
  162TMC2    C7 2527   0.143   2.201   1.121 -1.0839  0.1747  0.0159
  162TMC2    C8 2528   4.489   2.461   1.108 -0.5215  1.0280 -0.6737
  162TMC2    O1 2529   0.187   2.307   1.170 -0.4112 -0.1891 -0.5432
  162TMC2    O2 2530   4.409   2.470   1.199 -0.1667  0.5363  0.2796
  162TMC2    O5 2531   4.574   2.552   1.079 -0.2395  0.2025 -0.1539
  162TMC2    H5 2532   4.645   2.517   1.021  0.0638 -2.4532  1.7926
  163MPD2     C 2533   4.150   1.869   0.549  0.5045  0.5893  0.3166
  163MPD2    C1 2534   4.274   1.911   0.516 -0.7353 -1.2332  0.7547
  163MPD2    C2 2535   4.351   1.968   0.612  0.4773 -0.3840 -0.1775
  163MPD2    C3 2536   4.301   2.001   0.743 -0.5761 -0.1325  0.1759
  163MPD2    C4 2537   4.170   1.969   0.762 -0.1630 -0.0154  0.1398
  163MPD2    C5 2538   4.097   1.899   0.671 -0.3723  0.4814 -0.1385
  163MPD2     H 2539   4.451   1.997   0.580  0.7009 -0.6912  0.2364
  163MPD2    H1 2540   4.132   1.993   0.861  0.3800  0.0056  0.3469
  163MPD2    H2 2541   4.090   1.811   0.479 -0.7621  1.2178  0.8941
  163MPD2    H3 2542   3.999   1.861   0.698 -0.6156  0.4813 -1.0178
  163MPD2     N 2543   4.380   2.053   0.851  0.0686 -0.5924 -0.5451
  163MPD2    H5 2544   4.331   2.087   0.934  3.3409  0.0950  1.0942
  163MPD2    N1 2545   4.327   1.888   0.385 -0.1993 -0.1792 -0.1919
  163MPD2    H7 2546   4.257   1.861   0.317 -1.9058  2.2521  0.5876
  164TMC2    C1 2547   4.713   1.485  10.978 -0.3485 -0.2522 -0.4934
  164TMC2    C2 2548   0.060   1.552  10.893 -0.1921 -0.1923  0.1460
  164TMC2    C3 2549   0.011   1.669  10.843  0.5139  0.2037  0.2695
  164TMC2    C4 2550   4.597   1.540  11.016  0.0508  1.0019 -0.0710
  164TMC2    C5 2551   4.560   1.656  10.967  0.0869  0.2199  0.4514
  164TMC2    C6 2552   4.636   1.725  10.880  0.1867  0.6371  0.6769
  164TMC2     C 2553   0.017   1.363  11.043 -0.3474 -0.6486 -0.5309
  164TMC2     O 2554   4.720   1.339  11.152  0.8509 -0.0495  0.5448
  164TMC2     H 2555   0.157   1.521  10.856 -0.7669 -1.5241 -0.2426
  164TMC2    H1 2556   4.528   1.479  11.073  0.8640 -2.1443 -2.3986
  164TMC2    H2 2557   4.619   1.831  10.869  1.1203  0.5734 -1.5567
  164TMC2    C7 2558   4.432   1.702  10.985  0.3710  0.4764  0.2161
  164TMC2    C8 2559   0.110   1.763  10.788 -0.4189  0.5087 -0.0010
  164TMC2    O1 2560   4.398   1.771  10.893 -0.0918 -0.3686 -0.0440
  164TMC2    O2 2561   0.228   1.737  10.788 -0.6976  0.3775 -0.0087
  164TMC2    O5 2562   0.046   1.831  10.690  0.2510 -0.1777 -0.0611
  164TMC2    H5 2563   4.693   1.808  10.692  0.4914 -1.2240 -0.1534
  165TMC2    C1 2564   2.108   4.565   1.780 -0.2399  0.2185 -0.3830
  165TMC2    C2 2565   2.033   4.653   1.862 -0.0799 -0.2608  0.2825
  165TMC2    C3 2566   2.103   4.685   1.974 -0.1158 -0.1160 -0.3524
  165TMC2    C4 2567   2.236   4.514   1.813  0.0868 -0.6151 -0.0303
  165TMC2    C5 2568   2.289   4.557   1.929 -0.2116 -0.4003  0.0885
  165TMC2    C6 2569   2.230   4.647   2.013 -0.1181  0.2976 -0.1165
  165TMC2     C 2570   2.037   4.505   1.666  0.3857 -0.2343 -0.3950
  165TMC2     O 2571   1.922   4.542   1.653  0.4090 -0.0014 -0.0054
  165TMC2     H 2572   1.933   4.684   1.833 -0.0826  0.2295  0.8166
  165TMC2    H1 2573   2.287   4.451   1.741 -2.1414 -0.9167 -1.3510
  165TMC2    H2 2574   2.271   4.668   2.111  1.6164  0.3851 -0.8572
  165TMC2    C7 2575   2.427   4.511   1.954 -0.7072  0.0847 -1.0765
  165TMC2    C8 2576   2.023   0.015   2.074  0.2586  0.2340 -0.1464
  165TMC2    O1 2577   2.478   4.432   1.875 -0.2260 -0.3812  0.2334
  165TMC2    O2 2578   1.925   0.086   2.042  0.7262  0.0403  0.0874
  165TMC2    O5 2579   2.030   4.695   2.193 -0.0698 -0.7473  1.0850
  165TMC2    H5 2580   2.116   4.647   2.200 -0.6386 -1.6772  1.7995
  166MPD2     C 2581   1.949   4.117   1.345  0.3530 -0.4171  0.3081
  166MPD2    C1 2582   1.865   4.219   1.390 -0.1999 -0.2262 -0.0218
  166MPD2    C2 2583   1.917   4.319   1.466  0.2840  0.0199  0.2016
  166MPD2    C3 2584   2.048   4.310   1.519 -0.1038  0.7748  0.6146
  166MPD2    C4 2585   2.128   4.205   1.486  0.0314 -1.2177  0.3616
  166MPD2    C5 2586   2.079   4.108   1.401  0.6782  0.2151 -0.1741
  166MPD2     H 2587   1.862   4.406   1.499  0.3643  0.7486 -1.5931
  166MPD2    H1 2588   2.222   4.176   1.531 -0.6557 -2.1947  1.1680
  166MPD2    H2 2589   1.914   4.039   1.279  3.8486  0.2198 -2.3122
  166MPD2    H3 2590   2.142   4.023   1.382 -0.4117 -0.6215 -0.0571
  166MPD2     N 2591   2.104   4.398   1.607  0.1661 -0.1849  0.4728
  166MPD2    H5 2592   2.195   4.371   1.642 -0.1052 -2.0894 -0.2910
  166MPD2    N1 2593   1.737   4.218   1.337 -0.4390 -0.0935 -0.5457
  166MPD2    H7 2594   1.705   4.134   1.290 -2.0352  0.2655 -0.0907
  167TMC2    C1 2595   4.544   1.686  12.635 -0.2542  0.0051 -0.9410
  167TMC2    C2 2596   4.526   1.737  12.759 -0.7350  0.2883 -0.1403
  167TMC2    C3 2597   4.438   1.678  12.845  0.1045  0.1804  0.9946
  167TMC2    C4 2598   4.474   1.579  12.586  0.0096 -0.0792  0.1516
  167TMC2    C5 2599   4.382   1.526  12.672 -0.2554 -0.7357  0.3255
  167TMC2    C6 2600   4.362   1.571  12.803 -0.1876 -1.4468 -0.1448
  167TMC2     C 2601   4.642   1.760  12.556 -0.5047 -0.4962  0.7074
  167TMC2     O 2602   4.721   1.834  12.613 -0.4412 -0.0424 -0.0005
  167TMC2     H 2603   4.556   1.840  12.773  1.3762 -0.2668 -0.6994
  167TMC2    H1 2604   4.486   1.553  12.481 -0.2408 -0.5482  0.2370
  167TMC2    H2 2605   4.274   1.541  12.859 -0.0619  0.2016  0.9373
  167TMC2    C7 2606   4.304   1.413  12.642  0.2504 -0.0297 -0.0751
  167TMC2    C8 2607   4.386   1.760  12.960  0.1708 -0.2485  0.4672
  167TMC2    O1 2608   4.217   1.374  12.717 -0.0633  0.2328  0.0948
  167TMC2    O2 2609   4.267   1.786  12.964  0.4501  0.1467 -0.4554
  167TMC2    O5 2610   4.489   1.845  12.989 -0.0354 -0.5434 -0.3065
  167TMC2    H5 2611   4.570   1.788  12.990 -0.0043 -0.4931 -0.0366
  168MPD2     C 2612   0.099   1.819  12.343  0.3517 -0.2165  0.2209
  168MPD2    C1 2613   4.707   1.794  12.322  0.1990 -0.0722 -0.2846
  168MPD2    C2 2614   4.659   1.783  12.198 -0.2143 -0.1520 -0.7332
  168MPD2    C3 2615   4.738   1.795  12.091  0.0807  0.0513  0.3144
  168MPD2    C4 2616   0.124   1.841  12.114 -1.1891 -0.8638  0.6905
  168MPD2    C5 2617   0.173   1.856  12.238 -0.7969 -0.0996 -0.1864
  168MPD2     H 2618   4.558   1.749  12.182 -0.6924  0.9113 -0.0176
  168MPD2    H1 2619   0.189   1.863  12.030 -1.9993 -0.4120  0.1753
  168MPD2    H2 2620   0.147   1.822  12.440 -0.8987 -3.0244  0.9077
  168MPD2    H3 2621   0.276   1.883  12.255 -0.3476 -0.3265 -2.4699
  168MPD2     N 2622   4.682   1.761  11.964  0.6069 -0.2028  0.3389
  168MPD2    H5 2623   4.591   1.717  11.961 -0.6658  2.3877  0.5465
  168MPD2    N1 2624   4.618   1.755  12.424 -0.4506 -0.2801  0.2316
  168MPD2    H7 2625   4.530   1.717  12.392 -0.1474 -0.2144 -0.6678
  169MPD1     C 2626   4.698   1.362   9.512 -0.0151  0.1329  0.1240
  169MPD1    C1 2627   4.705   1.228   9.484  0.0390  0.4327 -0.8488
  169MPD1    C2 2628   0.088   1.161   9.488  0.2643 -0.0466 -0.3629
  169MPD1    C3 2629   0.208   1.231   9.501 -0.1795  0.3417 -0.1019
  169MPD1    C4 2630   0.193   1.368   9.510 -0.7216  0.1225 -0.0945
  169MPD1    C5 2631   0.075   1.435   9.526 -0.2368 -0.4609  0.5066
  169MPD1     H 2632   0.084   1.053   9.473 -0.7250 -0.0797  0.1199
  169MPD1    H1 2633   0.284   1.425   9.523 -1.8942  1.4425  2.2550
  169MPD1    H2 2634   4.603   1.412   9.522  0.4863  1.0843  0.0978
  169MPD1    H3 2635   0.077   1.544   9.526  1.1404 -0.4845 -0.3293
  169MPD1     N 2636   0.330   1.153   9.477  0.1395  0.4763 -0.4051
  169MPD1    H5 2637   0.321   1.058   9.443  0.9491 -0.0361  0.8068
  169MPD1    N1 2638   4.586   1.157   9.467  0.5310 -0.4645  0.5333
  169MPD1    H6 2639   4.516   1.222   9.430 -1.3410 -1.9336  1.4776
  169MPD1    H7 2640   4.594   1.080   9.401  0.2902 -0.3391  0.3542
  170MPD1     C 2641   1.292   3.380  13.142  0.0916  0.3353 -0.1164
  170MPD1    C1 2642   1.301   3.397  13.275  0.1263 -0.0137 -0.8671
  170MPD1    C2 2643   1.190   3.413  13.352 -1.2807  0.2251  0.9547
  170MPD1    C3 2644   1.064   3.428  13.299 -0.5839 -0.3164  0.0748
  170MPD1    C4 2645   1.059   3.409  13.164 -0.2138 -0.1396  0.1780
  170MPD1    C5 2646   1.168   3.385  13.090  0.3535 -0.0289  0.4778
  170MPD1     H 2647   1.191   3.421  13.461  2.4890  0.3234  0.9228
  170MPD1    H1 2648   0.964   3.415  13.112  0.0647  1.2445 -0.1689
  170MPD1    H2 2649   1.369   3.357  13.068  0.1235 -1.7430  0.5667
  170MPD1    H3 2650   1.167   3.366  12.983  0.2560  0.4671  0.3920
  170MPD1     N 2651   0.953   3.447  13.387  0.2084  0.0748  0.0546
  170MPD1    H5 2652   0.971   3.475  13.483  1.2651  1.8852 -0.6666
  170MPD1    N1 2653   1.423   3.369  13.338 -0.2598 -0.4253 -0.1275
  170MPD1    H6 2654   1.505   3.407  13.292 -2.1725  2.7647 -0.9214
  170MPD1    H7 2655   1.426   3.399  13.435  0.3045 -0.2319 -0.2103
  171MPD1     C 2656   4.535   0.424  15.182 -0.4288 -0.3170  0.6126
  171MPD1    C1 2657   4.451   0.316  15.148  0.5342 -0.1330  0.4515
  171MPD1    C2 2658   4.419   0.232  15.252 -0.0369  0.1523 -0.1157
  171MPD1    C3 2659   4.479   0.244  15.375 -0.2980 -0.1613  0.3538
  171MPD1    C4 2660   4.572   0.332  15.404 -0.4471 -0.1597  0.9953
  171MPD1    C5 2661   4.588   0.430  15.312  0.2397 -0.0923  0.3899
  171MPD1     H 2662   4.345   0.155  15.232  0.5992 -0.5027  0.0368
  171MPD1    H1 2663   4.595   0.337  15.510  0.0681 -0.0731  0.8816
  171MPD1    H2 2664   4.548   0.516  15.127 -2.5075 -0.2963  0.1612
  171MPD1    H3 2665   4.637   0.519  15.350 -1.4272  1.3258 -0.7862
  171MPD1     N 2666   4.444   0.150  15.474 -0.2056 -0.2256  0.7625
  171MPD1    H5 2667   4.493   0.155  15.563  0.5636 -1.7234  0.4287
  171MPD1    N1 2668   4.368   0.325  15.027  0.3895 -0.2153 -0.8885
  171MPD1    H6 2669   4.333   0.236  14.994 -0.0438 -0.9219  1.4771
  171MPD1    H7 2670   4.409   0.374  14.948  0.4098 -0.7261 -1.1934
  172MPD1     C 2671   3.485   3.925   0.082  0.1877 -0.4483 -0.0204
  172MPD1    C1 2672   3.382   4.018   0.082  0.6040  0.0161  0.2304
  172MPD1    C2 2673   3.415   4.143   0.135  0.4333  0.0785 -0.0488
  172MPD1    C3 2674   3.544   4.180   0.172  0.1128  0.4079  0.4595
  172MPD1    C4 2675   3.641   4.085   0.161 -0.0512  0.2341  0.3074
  172MPD1    C5 2676   3.614   3.958   0.121 -0.2801  0.3924  0.0931
  172MPD1     H 2677   3.338   4.220   0.140  0.6430  0.2259  0.8587
  172MPD1    H1 2678   3.740   4.106   0.199  0.1470  0.9789 -0.6373
  172MPD1    H2 2679   3.459   3.823   0.056 -3.8577  0.8527 -1.1310
  172MPD1    H3 2680   3.687   3.879   0.135  1.1632  1.7013 -0.1516
  172MPD1     N 2681   3.587   4.312   0.194  0.6018  0.7585  0.4057
  172MPD1    H5 2682   3.687   4.329   0.198  0.7439 -0.3156  1.2115
  172MPD1    N1 2683   3.250   3.983   0.060  0.0788  0.0126  0.2869
  172MPD1    H6 2684   3.204   4.064   0.019 -0.7591 -0.7384 -0.2562
  172MPD1    H7 2685   3.242   3.911  17.754  2.6379 -0.9792  0.9730
  173MPD1     C 2686   0.337   4.312  13.559 -0.2326 -0.4370 -0.0436
  173MPD1    C1 2687   0.281   4.385  13.653 -0.7822 -0.0158 -0.3139
  173MPD1    C2 2688   0.309   4.358  13.783 -0.5707  0.8984 -0.1344
  173MPD1    C3 2689   0.372   4.239  13.819  0.2370 -0.6245 -0.5951
  173MPD1    C4 2690   0.416   4.150  13.718  0.5257  0.7703 -0.1441
  173MPD1    C5 2691   0.401   4.191  13.586  0.8766 -0.7272  0.5927
  173MPD1     H 2692   0.282   4.429  13.860 -0.6501  0.5015  0.2090
  173MPD1    H1 2693   0.443   4.046  13.733 -0.8768  1.1501  5.2398
  173MPD1    H2 2694   0.323   4.348  13.458 -1.6443 -2.5153 -0.5836
  173MPD1    H3 2695   0.439   4.132  13.503  1.4505 -0.2110  0.4903
  173MPD1     N 2696   0.388   4.214  13.959  0.3103  0.0134 -0.0295
  173MPD1    H5 2697   0.346   4.278  14.025 -0.9901  1.0627 -1.8781
  173MPD1    N1 2698   0.220   4.511  13.630 -0.1036  0.4116  0.2905
  173MPD1    H6 2699   0.155   4.504  13.552 -1.2089 -1.5594  1.3808
  173MPD1    H7 2700   0.167   4.546  13.709 -1.0615 -0.4298  0.0172
  174MPD1     C 2701   0.815   3.729  14.840  0.1868 -0.5632 -0.1923
  174MPD1    C1 2702   0.832   3.697  14.707 -0.1020  0.9695 -0.3153
  174MPD1    C2 2703   0.744   3.754  14.617  0.4412  0.0673  0.5576
  174MPD1    C3 2704   0.647   3.840  14.658  0.4222 -0.8131 -0.3852
  174MPD1    C4 2705   0.635   3.871  14.790  0.1476  0.4009  0.7664
  174MPD1    C5 2706   0.715   3.817  14.881 -0.3217 -0.6031  0.1679
  174MPD1     H 2707   0.731   3.719  14.516  1.7262  0.2789  0.3140
  174MPD1    H1 2708   0.556   3.936  14.827 -0.7487 -0.4318  0.3185
  174MPD1    H2 2709   0.880   3.689  14.917  0.4503 -0.5717 -0.4199
  174MPD1    H3 2710   0.704   3.829  14.988  0.2700  0.4663  0.1170
  174MPD1     N 2711   0.554   3.899  14.566 -0.8418 -0.0705  0.9279
  174MPD1    H5 2712   0.478   3.954  14.603 -2.4457 -0.7585 -1.3634
  174MPD1    N1 2713   0.921   3.589  14.676  0.3082 -1.1446  0.3129
  174MPD1    H6 2714   0.975   3.600  14.591 -0.0828  0.8003  0.3298
  174MPD1    H7 2715   0.976   3.562  14.757  0.8698 -0.9189  0.0035
  175MPD1     C 2716   3.464   0.625  15.233  0.6013  0.3243  0.1994
  175MPD1    C1 2717   3.327   0.637  15.207  0.4994  0.0890 -0.3352
  175MPD1    C2 2718   3.254   0.552  15.289  0.3136 -0.3680  0.2087
  175MPD1    C3 2719   3.305   0.498  15.402  0.4182  0.2446  0.0740
  175MPD1    C4 2720   3.438   0.516  15.431 -1.1359 -0.3366  0.0447
  175MPD1    C5 2721   3.516   0.578  15.345  0.0040 -0.0558 -0.3665
  175MPD1     H 2722   3.151   0.535  15.260 -0.5177  2.1321  1.7077
  175MPD1    H1 2723   3.473   0.496  15.531  1.7338  0.7456 -0.7413
  175MPD1    H2 2724   3.532   0.661  15.157  0.8756  1.1756  0.8525
  175MPD1    H3 2725   3.623   0.585  15.360  0.1154 -0.9394 -0.7127
  175MPD1     N 2726   3.234   0.420  15.493  0.1241 -0.0003 -0.8470
  175MPD1    H5 2727   3.295   0.386  15.567  0.6930 -0.6715 -1.6296
  175MPD1    N1 2728   3.280   0.670  15.081  0.0514  1.0101  0.5743
  175MPD1    H6 2729   3.178   0.679  15.080 -0.1971 -1.8882 -0.4321
  175MPD1    H7 2730   3.321   0.761  15.063 -0.3041  1.0773  0.0958
  176MPD1     C 2731   0.279   1.873  16.426  0.0269  0.3779 -0.1091
  176MPD1    C1 2732   0.327   1.835  16.553 -0.6462 -0.1526 -0.3432
  176MPD1    C2 2733   0.324   1.921  16.662  0.4252 -0.0646  0.6797
  176MPD1    C3 2734   0.275   2.042  16.655 -0.4356  0.0787  0.4721
  176MPD1    C4 2735   0.214   2.082  16.536  0.2687  0.3889 -0.0858
  176MPD1    C5 2736   0.213   2.000  16.425  0.0711  0.1341 -0.0614
  176MPD1     H 2737   0.368   1.880  16.752 -1.7417 -0.7932  1.3854
  176MPD1    H1 2738   0.162   2.178  16.538 -0.6573 -0.0812 -1.4101
  176MPD1    H2 2739   0.286   1.824  16.330 -0.1198 -1.3892  0.7685
  176MPD1    H3 2740   0.163   2.033  16.335  0.9470 -0.0141 -0.6054
  176MPD1     N 2741   0.287   2.119  16.774  0.3794 -0.5237  0.4433
  176MPD1    H5 2742   0.312   2.064  16.855 -2.5434  2.6185  3.4436
  176MPD1    N1 2743   0.389   1.712  16.570  0.0658 -0.0149  0.1139
  176MPD1    H6 2744   0.361   1.665  16.656  2.1712  0.2608  0.9535
  176MPD1    H7 2745   0.386   1.635  16.504 -1.1104  1.5413 -1.6279
  177MPD1     C 2746   2.515   1.657  10.064  0.5519 -1.3879  0.1670
  177MPD1    C1 2747   2.400   1.631   9.997 -0.1738  0.2609  0.0412
  177MPD1    C2 2748   2.335   1.732   9.933 -0.4906  0.6943 -0.7342
  177MPD1    C3 2749   2.386   1.857   9.934 -0.0052 -0.4481  0.3630
  177MPD1    C4 2750   2.509   1.880   9.989 -0.3046  0.3674  0.5997
  177MPD1    C5 2751   2.569   1.783  10.057  0.7657 -0.2186 -0.2308
  177MPD1     H 2752   2.237   1.710   9.891 -1.6055  2.9956  0.6604
  177MPD1    H1 2753   2.567   1.971   9.994  0.5248  0.0124 -2.5486
  177MPD1    H2 2754   2.580   1.586  10.113  0.4050 -1.1043  0.7624
  177MPD1    H3 2755   2.658   1.804  10.115  0.5897 -0.6479  0.1951
  177MPD1     N 2756   2.311   1.958   9.875 -0.9054  0.3588  0.0839
  177MPD1    H5 2757   2.217   1.937   9.843 -0.8957 -1.7626  1.3996
  177MPD1    N1 2758   2.350   1.500   9.980  0.4079  0.1101 -0.5829
  177MPD1    H6 2759   2.249   1.491   9.972  0.6227 -3.0320  0.1897
  177MPD1    H7 2760   2.378   1.435  10.053  1.3702  0.0913 -0.9693
  178MPD1     C 2761   0.934   3.529  17.558 -0.7664  0.4900 -0.1681
  178MPD1    C1 2762   1.013   3.446  17.624 -0.6175 -0.5991 -0.2728
  178MPD1    C2 2763   1.036   3.318  17.574  0.0109  0.7707 -0.0553
  178MPD1    C3 2764   0.977   3.263  17.462  0.0228 -0.6685 -0.7094
  178MPD1    C4 2765   0.879   3.344  17.400 -0.7756  0.2134 -0.2062
  178MPD1    C5 2766   0.868   3.475  17.445 -0.5182 -0.0468 -0.1745
  178MPD1     H 2767   1.116   3.264  17.624 -0.6519  1.5398  1.8450
  178MPD1    H1 2768   0.827   3.319  17.308 -0.2593 -0.2336 -0.3796
  178MPD1    H2 2769   0.932   3.633  17.587  1.0361  1.1975 -2.5578
  178MPD1    H3 2770   0.799   3.539  17.391  0.0272  0.4082 -0.3233
  178MPD1     N 2771   1.010   3.140  17.404  0.2030  0.2729 -0.1733
  178MPD1    H5 2772   0.950   3.114  17.326 -0.9310  0.7166  0.5593
  178MPD1    N1 2773   1.085   3.497  17.738 -0.0055 -0.3669 -0.0627
  178MPD1    H6 2774   1.022   3.555   0.027 -0.4321 -1.3735  0.5093
  178MPD1    H7 2775   1.119   3.428   0.038 -0.8614 -0.9641 -0.2428
  179MPD1     C 2776   0.225   1.315  15.018  0.6210  0.1756 -0.6876
  179MPD1    C1 2777   0.277   1.318  15.148  0.6631 -0.2451  0.6098
  179MPD1    C2 2778   0.338   1.207  15.192  0.2456  0.6184 -0.1947
  179MPD1    C3 2779   0.354   1.101  15.108  0.3271 -0.0181 -0.2418
  179MPD1    C4 2780   0.292   1.095  14.987  0.0874 -0.4264 -0.0301
  179MPD1    C5 2781   0.225   1.203  14.941 -0.5440 -0.6142  0.6781
  179MPD1     H 2782   0.377   1.188  15.292 -1.4533  2.7240  0.8649
  179MPD1    H1 2783   0.311   1.013  14.919  1.2798  0.7482 -1.1101
  179MPD1    H2 2784   0.160   1.400  14.996 -0.2885 -0.6138 -1.0377
  179MPD1    H3 2785   0.177   1.189  14.845  2.4923  0.6476 -1.0296
  179MPD1     N 2786   0.414   0.979  15.142  0.5061  0.3258  0.1809
  179MPD1    H5 2787   0.420   0.907  15.070 -0.7288  0.5239 -0.1098
  179MPD1    N1 2788   0.244   1.426  15.235  0.1281  0.1318 -0.4982
  179MPD1    H6 2789   0.310   1.443  15.311  0.4307 -1.6509 -0.3591
  179MPD1    H7 2790   0.240   1.502  15.168  0.5630  0.3429 -0.2829
  180MPD1     C 2791   0.411   3.116  14.863 -0.2110  0.4971 -0.4116
  180MPD1    C1 2792   0.479   3.137  14.746 -0.0905  0.0918  0.0617
  180MPD1    C2 2793   0.434   3.072  14.624  0.0112 -0.0898 -0.2705
  180MPD1    C3 2794   0.311   3.006  14.623  0.5397  0.0037 -0.4399
  180MPD1    C4 2795   0.242   2.989  14.734  0.2656  0.0870  0.0221
  180MPD1    C5 2796   0.296   3.040  14.854  0.5853 -0.2128 -0.1526
  180MPD1     H 2797   0.492   3.083  14.534  1.2211  0.6285  0.6068
  180MPD1    H1 2798   0.156   2.925  14.751  0.4689  0.2323  1.6754
  180MPD1    H2 2799   0.441   3.161  14.957 -0.5586  0.5061 -0.3045
  180MPD1    H3 2800   0.244   3.017  14.947  0.3176 -0.0260 -0.2552
  180MPD1     N 2801   0.266   2.957  14.498 -0.1043 -0.4947  0.1018
  180MPD1    H5 2802   0.311   2.992  14.413 -1.1253  1.0529  0.1950
  180MPD1    N1 2803   0.613   3.180  14.751 -0.0279 -0.2732  0.3849
  180MPD1    H6 2804   0.643   3.236  14.671  1.6361 -1.1692  0.3962
  180MPD1    H7 2805   0.631   3.249  14.824  1.8811  0.0639 -0.4165
  181MPD1     C 2806   0.488   3.862   9.896 -0.2420 -0.0159 -0.1727
  181MPD1    C1 2807   0.566   3.826   9.785  0.7023  0.2598  0.3818
  181MPD1    C2 2808   0.696   3.877   9.774  0.1939  0.7337 -0.1409
  181MPD1    C3 2809   0.756   3.945   9.877 -0.1849 -0.6024 -0.1489
  181MPD1    C4 2810   0.686   3.956   9.996 -0.0848  0.5452 -0.8706
  181MPD1    C5 2811   0.557   3.910  10.006  0.1665 -0.5977 -0.2760
  181MPD1     H 2812   0.753   3.872   9.682 -0.6526 -0.1181 -0.6244
  181MPD1    H1 2813   0.735   3.996  10.084  0.2751 -1.0038 -0.3542
  181MPD1    H2 2814   0.394   3.814   9.922 -0.4976  0.8962  0.6065
  181MPD1    H3 2815   0.500   3.929  10.096  2.5935 -0.7470  1.2873
  181MPD1     N 2816   0.875   4.013   9.857  0.1195 -0.4785  0.5052
  181MPD1    H5 2817   0.923   3.995   9.769 -0.5509 -1.7966  0.4079
  181MPD1    N1 2818   0.515   3.749   9.679  0.0472  0.1552 -0.1759
  181MPD1    H6 2819   0.442   3.692   9.720  0.2691 -0.1438 -0.2005
  181MPD1    H7 2820   0.582   3.682   9.641  0.3145 -0.3644  1.2059
  182MPD1     C 2821   3.704   3.424   1.337 -0.1449 -0.0255 -0.1150
  182MPD1    C1 2822   3.675   3.369   1.212  0.4723  0.7316 -0.3792
  182MPD1    C2 2823   3.543   3.370   1.166 -0.0379  0.1357  0.2060
  182MPD1    C3 2824   3.451   3.455   1.226 -0.5903  0.2815 -0.5362
  182MPD1    C4 2825   3.489   3.515   1.344 -0.3287  0.1824  0.3638
  182MPD1    C5 2826   3.607   3.494   1.409  0.2099  0.1034 -0.5108
  182MPD1     H 2827   3.523   3.330   1.067 -0.8147  1.1403 -0.0393
  182MPD1    H1 2828   3.419   3.580   1.395 -0.2228 -0.0504  0.8018
  182MPD1    H2 2829   3.803   3.418   1.382 -0.1501 -0.2650 -0.1366
  182MPD1    H3 2830   3.632   3.543   1.502 -2.1337 -1.8942  1.1807
  182MPD1     N 2831   3.328   3.497   1.170 -0.2408  0.6764  0.3608
  182MPD1    H5 2832   3.278   3.568   1.224  2.0055  1.7722  1.0048
  182MPD1    N1 2833   3.771   3.285   1.153 -0.5980  0.2895  0.0662
  182MPD1    H6 2834   3.761   3.273   1.052 -2.5282 -0.9109  0.4044
  182MPD1    H7 2835   3.868   3.297   1.180 -0.6397 -0.9019  0.7214
  183MPD1     C 2836   2.765   4.394   9.273  0.1604 -0.4383 -0.1334
  183MPD1    C1 2837   2.632   4.407   9.309 -0.6317 -0.0933 -0.2390
  183MPD1    C2 2838   2.581   4.329   9.408 -0.5766  0.7836  0.3456
  183MPD1    C3 2839   2.664   4.265   9.498 -0.0748 -0.7813  0.2362
  183MPD1    C4 2840   2.801   4.261   9.468  0.4241 -0.0103  0.5152
  183MPD1    C5 2841   2.852   4.320   9.356 -0.3880  0.5939 -0.4597
  183MPD1     H 2842   2.478   4.331   9.440 -0.9924 -1.7758 -0.8376
  183MPD1    H1 2843   2.881   4.209   9.519 -0.5217 -1.7721  0.2034
  183MPD1    H2 2844   2.803   4.432   9.179 -0.5310 -0.0733 -0.2619
  183MPD1    H3 2845   2.960   4.325   9.342  0.0384  0.6787  2.8905
  183MPD1     N 2846   2.604   4.202   9.607  0.5927  0.3544 -0.6601
  183MPD1    H5 2847   2.504   4.211   9.618  0.5853  0.5857 -0.9181
  183MPD1    N1 2848   2.545   4.483   9.229 -0.1283  0.2756 -0.4001
  183MPD1    H6 2849   2.453   4.504   9.267  0.2986  0.2366  0.6628
  183MPD1    H7 2850   2.594   4.564   9.192 -0.8223  0.7758 -0.2217
  184MPD1     C 2851   1.749   1.586  10.346  0.1448 -0.3581 -1.0644
  184MPD1    C1 2852   1.613   1.617  10.336 -0.1106 -0.0399 -0.1100
  184MPD1    C2 2853   1.572   1.738  10.298  0.2983 -0.4724  0.0656
  184MPD1    C3 2854   1.669   1.839  10.279 -0.2747  0.3728 -0.3236
  184MPD1    C4 2855   1.805   1.806  10.290 -0.3231  0.4931  0.2600
  184MPD1    C5 2856   1.846   1.681  10.329  0.4308 -0.0954 -0.5726
  184MPD1     H 2857   1.467   1.762  10.297  0.8001  1.7128 -0.0741
  184MPD1    H1 2858   1.887   1.874  10.268  1.7376 -1.2850  2.3367
  184MPD1    H2 2859   1.773   1.485  10.377 -1.0071 -0.5835 -0.8842
  184MPD1    H3 2860   1.951   1.660  10.342 -0.2399 -1.3957  2.7336
  184MPD1     N 2861   1.631   1.977  10.247  0.1851  0.7135  0.8078
  184MPD1    H5 2862   1.708   2.043  10.248  0.3563  0.5295 -0.4371
  184MPD1    N1 2863   1.521   1.510  10.348 -0.8647  0.7850  0.5740
  184MPD1    H6 2864   1.420   1.523  10.347 -0.9951 -0.2216 -0.0789
  184MPD1    H7 2865   1.548   1.427  10.401 -2.8111  0.6257  1.3329
  185MPD1     C 2866   1.122   2.869  10.615 -0.0601 -0.1562 -0.2910
  185MPD1    C1 2867   1.068   2.749  10.585 -0.1595 -0.3842  0.3176
  185MPD1    C2 2868   1.133   2.663  10.500 -0.2324 -0.2444 -0.5109
  185MPD1    C3 2869   1.268   2.685  10.475 -0.8847 -0.2171  0.0248
  185MPD1    C4 2870   1.324   2.806  10.491  0.5473 -0.7412  0.7127
  185MPD1    C5 2871   1.251   2.893  10.557  0.6341  0.2110 -0.2439
  185MPD1     H 2872   1.083   2.575  10.461 -1.2286  0.6913 -1.3537
  185MPD1    H1 2873   1.423   2.833  10.458  0.4700 -0.3263  0.8182
  185MPD1    H2 2874   1.065   2.951  10.658  1.1511  1.4579 -1.7567
  185MPD1    H3 2875   1.285   2.995  10.568  1.2171 -0.0209  0.1182
  185MPD1     N 2876   1.350   2.588  10.420  0.8294 -0.0773  0.6014
  185MPD1    H5 2877   1.442   2.628  10.406  0.4859  0.3364 -0.5502
  185MPD1    N1 2878   0.929   2.722  10.606  0.1364 -0.7957 -0.5398
  185MPD1    H6 2879   0.885   2.759  10.690  3.3834 -1.5056  1.4672
  185MPD1    H7 2880   0.911   2.622  10.610 -2.9612 -0.2109  0.0067
  186MPD1     C 2881   1.228   0.674  15.919  0.1201  0.6232  0.3254
  186MPD1    C1 2882   1.098   0.696  15.924  0.7749 -0.2607  0.3988
  186MPD1    C2 2883   1.057   0.813  15.993 -0.1880 -0.5884 -0.0492
  186MPD1    C3 2884   1.148   0.893  16.063  0.0895 -0.4487  0.1260
  186MPD1    C4 2885   1.280   0.860  16.060  0.0200  0.3764  0.0302
  186MPD1    C5 2886   1.317   0.746  15.988 -0.0011 -0.2324  0.9206
  186MPD1     H 2887   0.953   0.840  15.981 -0.8573 -2.8750  0.5785
  186MPD1    H1 2888   1.354   0.903  16.127  1.2657 -1.0439 -0.4402
  186MPD1    H2 2889   1.268   0.593  15.859  2.5052 -0.0308  2.8063
  186MPD1    H3 2890   1.422   0.720  15.990  0.1517  0.1738 -1.6722
  186MPD1     N 2891   1.108   1.005  16.134 -0.0358  0.1457 -0.1958
  186MPD1    H5 2892   1.179   1.055  16.186 -1.7089  1.2671  0.9844
  186MPD1    N1 2893   1.014   0.620  15.841  0.0886 -0.0067 -0.0339
  186MPD1    H6 2894   0.922   0.600  15.879  0.8325 -2.0668  0.6947
  186MPD1    H7 2895   1.056   0.531  15.815  2.1877  0.8007  0.5124
  187MPD1     C 2896   1.073   3.747   0.258  0.5791  0.6412 -0.4775
  187MPD1    C1 2897   0.958   3.673   0.285 -0.0160 -1.1430  0.2705
  187MPD1    C2 2898   0.857   3.665   0.187  0.1648  0.2312 -0.4119
  187MPD1    C3 2899   0.857   3.738   0.066 -0.0091 -0.5239 -0.0802
  187MPD1    C4 2900   0.960   3.827   0.054 -0.1320  0.8215 -0.6277
  187MPD1    C5 2901   1.066   3.824   0.143 -0.0710 -0.0158  0.0830
  187MPD1     H 2902   0.772   3.603   0.215 -0.2509 -0.1860 -2.5518
  187MPD1    H1 2903   0.973   3.901  17.743 -2.4899  2.9843  1.0698
  187MPD1    H2 2904   1.160   3.741   0.321  1.1410  0.7248 -1.2512
  187MPD1    H3 2905   1.151   3.886   0.115  0.5705 -1.8194 -1.9631
  187MPD1     N 2906   0.761   3.733  17.731  0.4094  0.5154 -0.3190
  187MPD1    H5 2907   0.759   3.801  17.656 -1.8279  0.8304  0.0157
  187MPD1    N1 2908   0.945   3.596   0.403 -0.2396 -0.2170 -1.2874
  187MPD1    H6 2909   1.010   3.632   0.474 -0.6218 -0.1549 -0.9708
  187MPD1    H7 2910   0.847   3.603   0.428 -0.3593 -3.3095 -0.9349
  188MPD1     C 2911   4.397   3.231  10.452  0.4387 -0.4952  0.0427
  188MPD1    C1 2912   4.325   3.226  10.341  1.2341  0.7369  0.1541
  188MPD1    C2 2913   4.292   3.101  10.290 -0.0886 -0.5437  0.3974
  188MPD1    C3 2914   4.301   2.991  10.374 -0.7800 -0.0078  0.4764
  188MPD1    C4 2915   4.366   3.001  10.492  0.1413  0.0200  0.4461
  188MPD1    C5 2916   4.415   3.123  10.530  0.1885 -0.0804 -1.1264
  188MPD1     H 2917   4.252   3.084  10.191  1.7428 -1.2949 -0.2241
  188MPD1    H1 2918   4.361   2.918  10.562  1.7578 -0.9677 -0.5953
  188MPD1    H2 2919   4.408   3.327  10.502  0.6408 -0.4439 -0.1018
  188MPD1    H3 2920   4.449   3.134  10.633 -2.0034  4.6714 -0.9311
  188MPD1     N 2921   4.246   2.862  10.347 -0.1391 -0.8089  0.2412
  188MPD1    H5 2922   4.279   2.784  10.404  0.9337  0.6957  1.6502
  188MPD1    N1 2923   4.311   3.340  10.267 -0.2961  0.3752  0.1801
  188MPD1    H6 2924   4.243   3.330  10.192  2.2702 -1.7934 -1.8516
  188MPD1    H7 2925   4.304   3.427  10.319  1.5062  1.2272 -1.0267
  189MPD1     C 2926   2.081   4.343   0.683  0.7078 -0.8616 -0.1045
  189MPD1    C1 2927   1.977   4.253   0.682  0.4991 -0.0755  1.1108
  189MPD1    C2 2928   1.852   4.299   0.632 -0.1335  0.8341 -0.0902
  189MPD1    C3 2929   1.838   4.430   0.589  0.5964  0.1516  0.5782
  189MPD1    C4 2930   1.943   4.518   0.594  0.3998  0.2880 -0.6583
  189MPD1    C5 2931   2.067   4.475   0.643 -0.7772  0.0777 -0.3025
  189MPD1     H 2932   1.770   4.230   0.616 -1.1743  2.5590 -2.1313
  189MPD1    H1 2933   1.935   4.619   0.554 -2.0487  0.0848 -0.6765
  189MPD1    H2 2934   2.179   4.311   0.717  1.3056  1.2663  0.1824
  189MPD1    H3 2935   2.147   4.548   0.636 -0.6472  0.2787  3.4287
  189MPD1     N 2936   1.714   4.451   0.521 -0.7399 -0.2354  0.2994
  189MPD1    H5 2937   1.656   4.370   0.504 -0.6176 -0.5040  1.1978
  189MPD1    N1 2938   2.008   4.116   0.679  0.2627 -0.2024  0.0012
  189MPD1    H6 2939   2.086   4.102   0.743 -0.1240 -0.6951  0.3727
  189MPD1    H7 2940   1.927   4.061   0.708  1.6705 -2.5892 -0.6477
  190MPD1     C 2941   0.322   3.260  15.917 -1.6849 -0.8273  0.4387
  190MPD1    C1 2942   0.334   3.173  16.023  0.3317  0.1397  0.2377
  190MPD1    C2 2943   0.429   3.066  16.012  0.5038  0.8007 -0.0730
  190MPD1    C3 2944   0.526   3.070  15.917  0.4980  0.5741  0.2905
  190MPD1    C4 2945   0.529   3.176  15.828 -0.0336  0.2183  0.3809
  190MPD1    C5 2946   0.426   3.271  15.832 -1.6523 -0.8218  0.2737
  190MPD1     H 2947   0.413   2.983  16.080  0.5253  1.6891  1.0045
  190MPD1    H1 2948   0.607   3.191  15.753 -1.1101  1.0483 -0.5696
  190MPD1    H2 2949   0.246   3.333  15.894 -0.8605 -0.6097 -1.5390
  190MPD1    H3 2950   0.418   3.342  15.751 -0.9019  0.3953  1.2659
  190MPD1     N 2951   0.622   2.963  15.927  0.1402 -0.1904  0.3572
  190MPD1    H5 2952   0.598   2.901  16.004  1.4061 -0.2188  0.7287
  190MPD1    N1 2953   0.221   3.161  16.095  0.0984 -0.5301  0.3258
  190MPD1    H6 2954   0.161   3.243  16.094 -0.5230 -0.9705  2.3363
  190MPD1    H7 2955   0.237   3.128  16.190 -0.6143 -0.9205  0.3115
  191MPD1     C 2956   4.345   3.642  12.418 -0.1553  0.3521  0.2543
  191MPD1    C1 2957   4.308   3.687  12.295 -0.1637  0.7200  0.6481
  191MPD1    C2 2958   4.298   3.821  12.272  0.4659  0.4052  0.2156
  191MPD1    C3 2959   4.298   3.913  12.371 -0.7626 -0.1810  0.3769
  191MPD1    C4 2960   4.333   3.872  12.496 -0.0047  0.1703  0.4028
  191MPD1    C5 2961   4.347   3.738  12.518  0.4137  0.8627 -0.0417
  191MPD1     H 2962   4.294   3.865  12.173 -0.6431  0.1171  0.1399
  191MPD1    H1 2963   4.353   3.932  12.583 -1.6486  0.5585  0.5194
  191MPD1    H2 2964   4.377   3.543  12.447  0.1218 -0.6227 -3.4263
  191MPD1    H3 2965   4.372   3.703  12.618 -1.1383 -0.6139 -0.1613
  191MPD1     N 2966   4.284   4.049  12.338  0.1322 -0.0707  0.3523
  191MPD1    H5 2967   4.257   4.070  12.242  0.8137 -0.2876  0.1166
  191MPD1    N1 2968   4.304   3.599  12.183 -0.6646  0.4278 -0.3576
  191MPD1    H6 2969   4.237   3.631  12.113 -0.2691  1.6291 -0.1704
  191MPD1    H7 2970   4.283   3.502  12.209  0.1344  0.4278  0.2584
  192MPD1     C 2971   3.716   4.325  11.759 -0.2574 -0.0166  0.6273
  192MPD1    C1 2972   3.788   4.443  11.758  0.1440 -0.3079  0.3223
  192MPD1    C2 2973   3.898   4.434  11.850  0.0900  0.0361 -0.1309
  192MPD1    C3 2974   3.906   4.336  11.947 -0.3141 -0.0583  0.5870
  192MPD1    C4 2975   3.816   4.235  11.954  0.3868  0.1415 -0.0521
  192MPD1    C5 2976   3.715   4.236  11.863  0.3748 -0.5852  0.1474
  192MPD1     H 2977   3.965   4.518  11.834 -1.5042  1.4821  0.7851
  192MPD1    H1 2978   3.821   4.171  12.041  1.9856  1.1250  0.5597
  192MPD1    H2 2979   3.645   4.305  11.679  0.4102  0.5435 -0.1140
  192MPD1    H3 2980   3.647   4.152  11.857 -0.6934  0.2650  0.5131
  192MPD1     N 2981   4.006   4.333  12.049  0.4726  0.1138  0.3835
  192MPD1    H5 2982   3.999   4.254  12.112 -1.6595 -1.0287 -1.2683
  192MPD1    N1 2983   3.771   4.539  11.658  0.5874 -0.6762  0.0022
  192MPD1    H6 2984   3.818   4.626  11.685 -1.4627 -0.5470  3.2576
  192MPD1    H7 2985   3.671   4.547  11.642  0.6399 -1.3800 -0.6309
  193MPD1     C 2986   3.946   4.554  15.984 -0.6083  0.0215  0.1468
  193MPD1    C1 2987   3.933   4.683  16.035  0.0098  0.1651 -0.1788
  193MPD1    C2 2988   4.042   0.010  16.089  0.3577 -0.0815  0.0759
  193MPD1    C3 2989   4.161   4.696  16.110  0.2358  0.2380  0.5022
  193MPD1    C4 2990   4.172   4.566  16.069 -0.1206  0.5340 -0.1025
  193MPD1    C5 2991   4.074   4.504  16.001 -0.2692 -0.0924  0.8847
  193MPD1     H 2992   4.024   0.116  16.107  1.2779 -0.0440  0.7460
  193MPD1    H1 2993   4.272   4.525  16.083 -0.1225  1.0736  1.4648
  193MPD1    H2 2994   3.871   4.502  15.927 -0.3139  0.4552 -0.6343
  193MPD1    H3 2995   4.102   4.404  15.970  2.2750  0.2819  2.0144
  193MPD1     N 2996   4.268   0.019  16.167  0.0542  0.3051 -0.1536
  193MPD1    H5 2997   4.354   4.709  16.177 -0.7465 -1.1831 -1.0294
  193MPD1    N1 2998   3.822   0.009  15.991  0.5081  0.3228 -0.0183
  193MPD1    H6 2999   3.739   4.692  16.001  0.2561  0.5873 -0.5757
  193MPD1    H7 3000   3.799   0.094  16.042 -2.3952 -0.6041  0.2295
  194MPD1     C 3001   1.939   1.881  17.590 -0.3537  0.7984 -0.6575
  194MPD1    C1 3002   1.879   1.859  17.468 -0.1026 -0.0916 -0.0890
  194MPD1    C2 3003   1.951   1.785  17.380 -0.6743  0.2966  0.2012
  194MPD1    C3 3004   2.062   1.713  17.418 -0.1586 -0.0191  0.0564
  194MPD1    C4 3005   2.115   1.727  17.545  0.1282  0.0252 -0.1231
  194MPD1    C5 3006   2.049   1.812  17.632 -0.1402 -0.0647  0.3617
  194MPD1     H 3007   1.917   1.778  17.278 -1.9613  1.5566  0.5368
  194MPD1    H1 3008   2.209   1.681  17.572 -0.6058 -1.7081 -0.5485
  194MPD1    H2 3009   1.880   1.932  17.666  1.2548 -1.0127  1.8068
  194MPD1    H3 3010   2.088   1.829  17.731 -0.0380  1.4409  0.0663
  194MPD1     N 3011   2.133   1.628  17.330 -0.4503 -0.0851 -0.3221
  194MPD1    H5 3012   2.222   1.594  17.367 -1.0281 -0.3014  0.8679
  194MPD1    N1 3013   1.766   1.926  17.419  0.0096 -0.3913  0.0509
  194MPD1    H6 3014   1.699   1.954  17.489 -1.0236  0.3497 -1.2242
  194MPD1    H7 3015   1.725   1.885  17.335  0.5846  2.4850 -1.6219
  195MPD1     C 3016   0.597   2.992   0.338 -0.5279 -0.0986 -0.6790
  195MPD1    C1 3017   0.515   2.947   0.436  0.1480  0.4354 -0.3263
  195MPD1    C2 3018   0.384   2.908   0.411  0.9856 -0.9913  0.4668
  195MPD1    C3 3019   0.336   2.897   0.278 -0.9548 -0.5536  0.3718
  195MPD1    C4 3020   0.428   2.929   0.182 -0.5489  0.0183 -0.1955
  195MPD1    C5 3021   0.552   2.979   0.211 -1.0224 -0.5823 -0.2943
  195MPD1     H 3022   0.309   2.881   0.484  0.2299  0.3796  0.2047
  195MPD1    H1 3023   0.396   2.914   0.080 -0.2811  0.2449 -0.3113
  195MPD1    H2 3024   0.694   3.034   0.362 -1.1750 -0.7300  3.0261
  195MPD1    H3 3025   0.630   2.993   0.137 -0.6903 -4.3399 -0.6730
  195MPD1     N 3026   0.202   2.861   0.242  0.3949  0.4697  0.5428
  195MPD1    H5 3027   0.171   2.889   0.150  0.1858 -2.5373 -0.2981
  195MPD1    N1 3028   0.563   2.972   0.568 -0.5656  0.0526 -0.0912
  195MPD1    H6 3029   0.543   2.888   0.622  1.9338  0.7952  1.9780
  195MPD1    H7 3030   0.659   3.002   0.578 -0.8698  0.5766  1.3200
  196MPD1     C 3031   2.713   3.605   0.147  0.8898 -0.5883 -0.0623
  196MPD1    C1 3032   2.802   3.503   0.150  0.1491 -0.6633 -0.0984
  196MPD1    C2 3033   2.933   3.520   0.168 -0.4499 -0.6729  0.9453
  196MPD1    C3 3034   2.970   3.643   0.214 -0.1507  0.1579  0.4839
  196MPD1    C4 3035   2.879   3.745   0.232 -0.8453  0.2378  0.5582
  196MPD1    C5 3036   2.751   3.726   0.194  0.1361 -0.0717  0.4616
  196MPD1     H 3037   3.000   3.437   0.147  1.1523  1.2250 -1.5043
  196MPD1    H1 3038   2.908   3.840   0.274 -0.9840  0.3923  0.3037
  196MPD1    H2 3039   2.613   3.588   0.110  0.9953 -1.2333 -0.0497
  196MPD1    H3 3040   2.677   3.805   0.193  0.3296  0.1352  2.1833
  196MPD1     N 3041   3.103   3.682   0.251 -0.7145  0.1987  0.1982
  196MPD1    H5 3042   3.110   3.780   0.276 -0.6566  0.9008 -2.5540
  196MPD1    N1 3043   2.765   3.374   0.104  0.5831 -0.7874  0.3983
  196MPD1    H6 3044   2.671   3.363   0.139 -1.1397 -0.9970 -4.2187
  196MPD1    H7 3045   2.827   3.308   0.151 -2.8571 -3.1002  1.5894
  197MPD1     C 3046   2.741   4.578  17.279  0.3463 -0.3906 -0.0270
  197MPD1    C1 3047   2.875   4.555  17.308  0.3130  0.1584  0.4434
  197MPD1    C2 3048   2.969   4.609  17.220  0.3302 -0.4580 -0.4318
  197MPD1    C3 3049   2.937   4.673  17.103 -0.6878 -0.1889 -0.4159
  197MPD1    C4 3050   2.807   4.693  17.072 -0.0641  0.2376  0.1774
  197MPD1    C5 3051   2.708   4.651  17.166 -0.4108  0.0999  0.5579
  197MPD1     H 3052   3.074   4.611  17.247 -0.0250  0.5167  0.8431
  197MPD1    H1 3053   2.776   0.014  16.989  0.5336 -1.9765 -1.7330
  197MPD1    H2 3054   2.656   4.553  17.343 -0.8232  2.1719 -0.5675
  197MPD1    H3 3055   2.603   4.667  17.145 -0.5691 -1.4656  0.1702
  197MPD1     N 3056   3.031   4.722  17.018 -0.7906  0.5937  0.4687
  197MPD1    H5 3057   3.003   0.024  16.932  0.8683  2.1350  0.7186
  197MPD1    N1 3058   2.916   4.484  17.424 -0.5603 -0.4188 -0.7240
  197MPD1    H6 3059   3.014   4.462  17.438 -0.8645  0.2255  2.4392
  197MPD1    H7 3060   2.847   4.418  17.459  1.2090 -3.0083 -2.1738
  198MPD1     C 3061   0.294   4.239  15.792  0.0896  0.4808  0.2798
  198MPD1    C1 3062   0.411   4.227  15.725  0.5188 -0.1116  0.3990
  198MPD1    C2 3063   0.515   4.151  15.780 -0.0663 -0.3477 -0.5316
  198MPD1    C3 3064   0.496   4.069  15.895 -0.0978  0.1903 -0.2099
  198MPD1    C4 3065   0.376   4.085  15.963 -0.2709  0.3202 -0.4548
  198MPD1    C5 3066   0.280   4.168  15.912  0.2146 -0.0094 -0.2381
  198MPD1     H 3067   0.612   4.146  15.732 -0.6296  0.4755 -1.7494
  198MPD1    H1 3068   0.351   4.027  16.051  0.0233  0.8043 -0.0578
  198MPD1    H2 3069   0.214   4.304  15.757 -0.0985  0.5096  0.7551
  198MPD1    H3 3070   0.187   4.185  15.965  0.3491 -0.0850  0.0196
  198MPD1     N 3071   0.608   3.996  15.945 -0.5880 -0.0757 -0.2068
  198MPD1    H5 3072   0.687   3.982  15.883 -1.4594 -0.4768 -1.2151
  198MPD1    N1 3073   0.438   4.318  15.620  0.4113 -0.3323 -0.2837
  198MPD1    H6 3074   0.354   4.337  15.565  1.0158 -0.2830 -1.1854
  198MPD1    H7 3075   0.503   4.285  15.550 -1.4498 -2.9784 -0.7997
  199MPD1     C 3076   2.022   0.094   9.682 -0.4401 -0.4339 -0.2663
  199MPD1    C1 3077   1.971   0.211   9.637  0.8958 -0.1590  0.0341
  199MPD1    C2 3078   1.841   0.205   9.584  0.8347  0.1053  0.6156
  199MPD1    C3 3079   1.757   0.101   9.604  0.1093 -0.6194  0.2390
  199MPD1    C4 3080   1.816   4.720   9.649 -0.2340  0.9566 -0.0708
  199MPD1    C5 3081   1.948   4.717   9.689 -0.4767  0.2287  0.1979
  199MPD1     H 3082   1.797   0.293   9.537 -1.3870 -1.6032 -0.5115
  199MPD1    H1 3083   1.762   4.627   9.662 -0.0227  1.2691  2.9844
  199MPD1    H2 3084   2.123   0.098   9.719 -1.0093 -1.2892  1.3894
  199MPD1    H3 3085   1.990   4.625   9.728 -1.4928 -0.4758 -0.3757
  199MPD1     N 3086   1.623   0.099   9.565  0.4365  0.3666  0.3446
  199MPD1    H5 3087   1.566   0.024   9.602  0.9318  0.8895  2.2182
  199MPD1    N1 3088   2.052   0.319   9.622  0.4240 -0.0664 -0.1467
  199MPD1    H6 3089   2.000   0.406   9.627  1.1285  0.2865  1.3016
  199MPD1    H7 3090   2.124   0.325   9.695 -0.1748  1.7393  0.2993
  200MPD1     C 3091   1.912   4.715  15.590 -0.1616  0.0725  1.3143
  200MPD1    C1 3092   1.819   4.650  15.512  0.4394  0.2112 -0.3922
  200MPD1    C2 3093   1.744   4.727  15.419  0.4562 -0.0288 -0.1188
  200MPD1    C3 3094   1.761   0.125  15.409 -0.9651  0.1651  0.5834
  200MPD1    C4 3095   1.845   0.187  15.492  0.5365  0.0766  0.2863
  200MPD1    C5 3096   1.918   0.111  15.585  0.3992  0.0758 -0.5213
  200MPD1     H 3097   1.666   4.687  15.356 -0.0948  1.7092 -0.5365
  200MPD1    H1 3098   1.863   0.293  15.499 -0.2935  0.1079  2.0732
  200MPD1    H2 3099   1.978   4.670  15.664 -1.1446 -0.1272  2.0730
  200MPD1    H3 3100   1.979   0.164  15.656  0.5909 -0.0453 -0.5950
  200MPD1     N 3101   1.680   0.200  15.315 -0.0804 -0.1410  0.5026
  200MPD1    H5 3102   1.629   0.141  15.249 -0.2858 -0.1236  0.6454
  200MPD1    N1 3103   1.794   4.514  15.520 -0.2650 -0.1240  0.0880
  200MPD1    H6 3104   1.698   4.497  15.491  0.4219 -0.3295 -2.0995
  200MPD1    H7 3105   1.798   4.486  15.618 -0.5952 -3.3579 -0.8153
  201MPD1     C 3106   4.053   3.878  13.224  0.3779  0.8778 -0.5952
  201MPD1    C1 3107   3.968   3.781  13.182  0.4384 -0.4077  0.3458
  201MPD1    C2 3108   3.895   3.726  13.277 -0.0074 -0.4316  0.1673
  201MPD1    C3 3109   3.909   3.748  13.415  0.5326  0.3811 -0.1647
  201MPD1    C4 3110   3.994   3.847  13.456  0.5406  0.0195  0.3508
  201MPD1    C5 3111   4.070   3.910  13.358 -0.0186 -0.3262  0.4333
  201MPD1     H 3112   3.830   3.640  13.259  1.6825 -1.3668 -1.4307
  201MPD1    H1 3113   4.014   3.870  13.560 -0.1345  0.8729  0.2960
  201MPD1    H2 3114   4.107   3.943  13.156 -0.8041 -2.3031 -4.5870
  201MPD1    H3 3115   4.148   3.985  13.367  2.8712 -3.2536 -0.3841
  201MPD1     N 3116   3.842   3.669  13.505 -0.3258 -0.0943  0.4724
  201MPD1    H5 3117   3.782   3.598  13.463  1.2919 -1.1234 -0.1138
  201MPD1    N1 3118   3.949   3.769  13.048  0.4402  0.3812  0.4817
  201MPD1    H6 3119   3.896   3.685  13.024  1.7347 -1.1780  3.0127
  201MPD1    H7 3120   4.042   3.770  13.008  1.3399 -2.2966  2.4792
  202MPD1     C 3121   2.559   3.524   9.151  0.4926  0.4984  0.2505
  202MPD1    C1 3122   2.571   3.389   9.130 -0.1239 -0.6039  0.0267
  202MPD1    C2 3123   2.658   3.320   9.212  0.0247 -0.1380 -0.3222
  202MPD1    C3 3124   2.692   3.385   9.335  0.3805 -0.3485 -0.1150
  202MPD1    C4 3125   2.657   3.513   9.368  0.3240 -0.5994  0.1817
  202MPD1    C5 3126   2.593   3.589   9.273 -0.0791 -0.2474 -0.3694
  202MPD1     H 3127   2.676   3.217   9.186 -0.8263 -0.9503  2.2691
  202MPD1    H1 3128   2.688   3.555   9.463 -0.8487 -1.4029  0.9195
  202MPD1    H2 3129   2.487   3.574   9.087  0.6516  1.3930  0.7757
  202MPD1    H3 3130   2.574   3.695   9.287  0.9519 -0.2323  0.8861
  202MPD1     N 3131   2.769   3.325   9.435 -0.2386  0.1289  0.0685
  202MPD1    H5 3132   2.790   3.382   9.516  2.8274 -0.2644 -0.4190
  202MPD1    N1 3133   2.547   3.350   8.999  1.0507  1.0493  0.4444
  202MPD1    H6 3134   2.465   3.398   8.961  0.6098 -0.6389 -0.7448
  202MPD1    H7 3135   2.539   3.250   8.985  0.9064  0.7508  2.6841
  203MPD1     C 3136   1.879   3.628  12.752  0.2676  0.0127 -0.8195
  203MPD1    C1 3137   1.896   3.510  12.683  0.4533 -0.6798  1.0980
  203MPD1    C2 3138   2.009   3.441  12.709  0.0996  0.1398 -0.2033
  203MPD1    C3 3139   2.094   3.483  12.811  0.2947  0.1994 -0.0538
  203MPD1    C4 3140   2.072   3.595  12.887  0.2667  0.8919  0.1010
  203MPD1    C5 3141   1.956   3.657  12.860 -0.3201 -0.3973  0.1923
  203MPD1     H 3142   2.033   3.350  12.654 -0.1496  0.3696 -0.6956
  203MPD1    H1 3143   2.142   3.643  12.955 -0.2348  0.4722  0.9068
  203MPD1    H2 3144   1.795   3.691  12.727  0.1793 -0.3775 -1.4974
  203MPD1    H3 3145   1.926   3.751  12.907  0.6093  0.8820 -1.7555
  203MPD1     N 3146   2.200   3.398  12.842 -1.1125  0.4310  0.1517
  203MPD1    H5 3147   2.196   3.304  12.803  3.3778  0.3536 -0.1252
  203MPD1    N1 3148   1.800   3.461  12.591  0.4934  0.7552  0.3261
  203MPD1    H6 3149   1.835   3.397  12.521 -0.5673  1.6642 -1.0244
  203MPD1    H7 3150   1.730   3.528  12.559 -0.8745 -0.2315  1.2459
  204MPD1     C 3151   2.255   0.730  17.577 -0.2744  0.3892  0.4315
  204MPD1    C1 3152   2.166   0.714  17.477  0.2948  0.7434 -0.5599
  204MPD1    C2 3153   2.120   0.597  17.431 -0.5213 -0.5145  0.4113
  204MPD1    C3 3154   2.160   0.476  17.490  0.3044  0.0160  0.4534
  204MPD1    C4 3155   2.255   0.490  17.593  0.1759  0.0425  0.1387
  204MPD1    C5 3156   2.305   0.617  17.642 -0.1684 -0.1344  0.1867
  204MPD1     H 3157   2.048   0.586  17.350 -0.0051  1.1256 -0.2678
  204MPD1    H1 3158   2.298   0.406  17.646  1.9696  0.4797 -0.5933
  204MPD1    H2 3159   2.293   0.824  17.614  1.4287 -0.0509 -0.1726
  204MPD1    H3 3160   2.386   0.631  17.713 -0.1574  0.9295 -0.0452
  204MPD1     N 3161   2.107   0.353  17.443 -0.7783  0.1269 -0.5872
  204MPD1    H5 3162   2.036   0.358  17.371 -0.6804 -0.4165 -0.7251
  204MPD1    N1 3163   2.104   0.831  17.430  0.2340 -0.2574  0.3877
  204MPD1    H6 3164   2.175   0.903  17.422  0.2271 -0.0695  2.0166
  204MPD1    H7 3165   2.068   0.823  17.335  2.9446 -0.1583 -0.6391
  205MPD1     C 3166   3.075   3.539  17.384 -0.0285  0.1311 -0.4681
  205MPD1    C1 3167   3.000   3.583  17.496 -0.7759  0.4150  0.9056
  205MPD1    C2 3168   2.864   3.605  17.485  0.2202 -0.0708  0.0877
  205MPD1    C3 3169   2.802   3.589  17.365  0.3369  0.3780  0.6189
  205MPD1    C4 3170   2.876   3.553  17.257  0.8637 -0.3929 -1.0552
  205MPD1    C5 3171   3.011   3.528  17.268 -1.0601 -0.7400  0.7243
  205MPD1     H 3172   2.809   3.618  17.577 -2.1313 -1.7172 -1.0727
  205MPD1    H1 3173   2.827   3.535  17.161 -0.2545  0.0409 -0.5666
  205MPD1    H2 3174   3.180   3.510  17.384 -0.5009 -1.6016 -0.4121
  205MPD1    H3 3175   3.055   3.475  17.184 -1.8918 -0.0432 -0.1540
  205MPD1     N 3176   2.672   3.622  17.348  0.0288 -0.2584 -0.3190
  205MPD1    H5 3177   2.635   3.609  17.254  0.9677 -0.2468 -0.6904
  205MPD1    N1 3178   3.054   3.570  17.626 -0.1421  0.3768 -0.7986
  205MPD1    H6 3179   3.153   3.587  17.611  0.0682  0.4689  0.6206
  205MPD1    H7 3180   3.014   3.635  17.694  1.1297  0.0385  0.2802
  206MPD1     C 3181   2.780   1.899  16.827  0.2483  0.8050  0.2474
  206MPD1    C1 3182   2.659   1.956  16.859  0.4382  0.2878 -0.1412
  206MPD1    C2 3183   2.582   1.993  16.748 -0.0876 -0.3938  0.4129
  206MPD1    C3 3184   2.627   1.982  16.613 -0.6391  0.7590 -0.0058
  206MPD1    C4 3185   2.746   1.931  16.591  0.0005 -0.1363 -0.1332
  206MPD1    C5 3186   2.822   1.891  16.694 -0.1215  0.1136  0.5439
  206MPD1     H 3187   2.484   2.034  16.771  0.3745  0.6719  0.4906
  206MPD1    H1 3188   2.787   1.913  16.492  1.5698  2.0931  0.1223
  206MPD1    H2 3189   2.846   1.860  16.904 -1.4473 -0.3085  1.1323
  206MPD1    H3 3190   2.918   1.842  16.683 -1.0646 -1.7170  0.5511
  206MPD1     N 3191   2.558   2.019  16.496 -0.4108 -0.8144 -0.1267
  206MPD1    H5 3192   2.596   2.010  16.402 -1.4745 -1.3946 -0.5041
  206MPD1    N1 3193   2.602   1.948  16.989 -0.2660  1.3006 -0.2099
  206MPD1    H6 3194   2.533   2.022  17.003 -1.6246 -0.2515  1.2202
  206MPD1    H7 3195   2.668   1.941  17.066  0.0551  0.1739 -0.5885
  207MPD1     C 3196   3.833   4.597   9.877 -0.3182 -0.1923  0.2620
  207MPD1    C1 3197   3.953   4.599   9.805  0.0817  0.2737 -0.8439
  207MPD1    C2 3198   4.068   4.598   9.882  0.6858  0.2974  0.4534
  207MPD1    C3 3199   4.063   4.607  10.021 -0.8103  0.2522 -0.2522
  207MPD1    C4 3200   3.944   4.607  10.089  0.1015  0.0616 -0.3988
  207MPD1    C5 3201   3.827   4.610  10.015  0.1594  0.7156 -0.9554
  207MPD1     H 3202   4.165   4.591   9.836  1.7318  1.9070  2.4305
  207MPD1    H1 3203   3.936   4.609  10.197  2.6857 -0.8322 -0.2023
  207MPD1    H2 3204   3.745   4.597   9.813  1.5114  0.6348 -2.2567
  207MPD1    H3 3205   3.732   4.599  10.066  0.1489 -1.5469 -1.4732
  207MPD1     N 3206   4.180   4.620  10.103 -0.0428 -0.1645 -0.6415
  207MPD1    H5 3207   4.170   4.622  10.204 -0.6400 -0.4050 -0.6905
  207MPD1    N1 3208   3.962   4.591   9.667 -0.6840 -0.7396  0.3685
  207MPD1    H6 3209   3.886   4.641   9.621  0.8008 -1.1982 -2.5812
  207MPD1    H7 3210   4.049   4.613   9.619 -2.2033  2.7931 -0.8035
  208MPD1     C 3211   2.612   2.362   0.185  0.1106  0.7309 -0.5566
  208MPD1    C1 3212   2.516   2.376   0.282 -0.7187  0.4606  0.1955
  208MPD1    C2 3213   2.467   2.502   0.307  0.4855  0.2594 -0.6330
  208MPD1    C3 3214   2.504   2.608   0.228 -0.1616 -0.0390  0.0147
  208MPD1    C4 3215   2.579   2.588   0.117 -0.4622  0.2418  0.0817
  208MPD1    C5 3216   2.642   2.466   0.105 -0.4137  0.8141 -0.4189
  208MPD1     H 3217   2.397   2.512   0.390  1.0293 -0.2764 -0.1097
  208MPD1    H1 3218   2.612   2.668   0.052  0.7624  1.3732  2.1027
  208MPD1    H2 3219   2.653   2.266   0.156 -2.1916 -1.2227  2.6605
  208MPD1    H3 3220   2.712   2.448   0.024 -0.3616 -0.1605 -0.1565
  208MPD1     N 3221   2.453   2.735   0.264  0.2919 -0.0788 -0.2791
  208MPD1    H5 3222   2.391   2.751   0.343 -0.2770  1.8379 -1.1129
  208MPD1    N1 3223   2.479   2.269   0.367  0.4223 -0.0724 -0.2686
  208MPD1    H6 3224   2.382   2.273   0.398  0.4673 -0.0173 -0.1333
  208MPD1    H7 3225   2.497   2.182   0.318 -0.5891 -1.4073  1.7626
  209MPD1     C 3226   4.500   3.574  10.499  0.4173 -0.5500 -0.2629
  209MPD1    C1 3227   4.407   3.667  10.447  0.1821  0.6835 -0.1021
  209MPD1    C2 3228   4.322   3.724  10.544  0.3798  0.0436  0.6079
  209MPD1    C3 3229   4.345   3.696  10.684  0.5309  0.1967 -0.3690
  209MPD1    C4 3230   4.453   3.614  10.725  0.2516 -0.3465  0.4579
  209MPD1    C5 3231   4.535   3.562  10.626  0.4245 -0.4708 -0.1630
  209MPD1     H 3232   4.239   3.787  10.515  2.2688  1.5086 -1.5469
  209MPD1    H1 3233   4.479   3.599  10.830  0.5772  3.0863  0.8584
  209MPD1    H2 3234   4.565   3.531  10.424  0.6297 -0.8298  0.0842
  209MPD1    H3 3235   4.626   3.515  10.664  0.5611  1.6792  2.1352
  209MPD1     N 3236   4.268   3.776  10.773  0.2383 -0.5705  0.0064
  209MPD1    H5 3237   4.197   3.837  10.733 -0.8486 -1.0954  1.1532
  209MPD1    N1 3238   4.365   3.665  10.311  0.3437  0.1266  0.4184
  209MPD1    H6 3239   4.321   3.752  10.283  0.6047  0.0240 -0.3122
  209MPD1    H7 3240   4.452   3.651  10.260 -1.5113 -0.9351 -2.4287
  210MPD1     C 3241   4.284   4.341  11.724 -0.1409 -0.4307 -0.2521
  210MPD1    C1 3242   4.338   4.219  11.702 -0.1627  0.0857 -0.1240
  210MPD1    C2 3243   4.309   4.159  11.586 -0.0259  0.0583 -0.8949
  210MPD1    C3 3244   4.239   4.222  11.483 -0.5286 -0.3892 -0.2203
  210MPD1    C4 3245   4.185   4.348  11.508  0.2826 -0.7436  0.3444
  210MPD1    C5 3246   4.213   4.409  11.628 -0.6316 -0.6837  0.2266
  210MPD1     H 3247   4.338   4.056  11.571 -0.0135 -0.2387  1.1608
  210MPD1    H1 3248   4.120   4.396  11.435 -1.5775 -1.0546  1.7834
  210MPD1    H2 3249   4.278   4.399  11.816  0.1769  2.3931 -2.0231
  210MPD1    H3 3250   4.174   4.507  11.654  0.8313  0.2972 -1.2648
  210MPD1     N 3251   4.215   4.171  11.352  0.4103  0.1166  0.4384
  210MPD1    H5 3252   4.160   4.234  11.295 -0.5131 -3.0935 -2.2059
  210MPD1    N1 3253   4.386   4.149  11.812 -0.0283 -0.2647 -0.0710
  210MPD1    H6 3254   4.435   4.212  11.875 -1.3211 -0.6796  1.3367
  210MPD1    H7 3255   4.424   4.058  11.787  0.5591  0.4290 -1.7219
  211MPD1     C 3256   2.585   4.403  17.579 -0.2392 -0.2616  0.0577
  211MPD1    C1 3257   2.478   4.425  17.493  0.0207 -0.6843 -0.4714
  211MPD1    C2 3258   2.474   4.334  17.384 -0.0824  0.5321 -0.3085
  211MPD1    C3 3259   2.544   4.224  17.369 -0.6458  0.4622  0.3158
  211MPD1    C4 3260   2.653   4.208  17.455 -0.3173 -0.4476 -0.6570
  211MPD1    C5 3261   2.661   4.286  17.566 -0.0556 -1.2528  0.0467
  211MPD1     H 3262   2.392   4.339  17.313 -0.2910 -0.0125 -0.1051
  211MPD1    H1 3263   2.717   4.121  17.454 -0.1785 -0.3512  2.7501
  211MPD1    H2 3264   2.608   4.469  17.662  0.5098 -1.2918  0.6699
  211MPD1    H3 3265   2.750   4.264  17.623  0.9659  0.7152 -0.7938
  211MPD1     N 3266   2.518   4.143  17.260 -0.2853 -0.2025 -0.1864
  211MPD1    H5 3267   2.434   4.166  17.208  1.0839 -1.2546 -2.8985
  211MPD1    N1 3268   2.395   4.533  17.495 -0.5918  0.1367 -0.3231
  211MPD1    H6 3269   2.301   4.515  17.460 -0.6452  0.1856 -0.2055
  211MPD1    H7 3270   2.382   4.575  17.587 -0.8137 -1.2611  0.2739
  212MPD1     C 3271   1.792   2.114  16.437  0.9541  0.0153 -0.0632
  212MPD1    C1 3272   1.691   2.185  16.497 -0.6447  0.4151  0.2449
  212MPD1    C2 3273   1.632   2.124  16.602  0.5073  0.8006 -0.2502
  212MPD1    C3 3274   1.667   2.000  16.654 -1.1291  0.6081  0.3007
  212MPD1    C4 3275   1.774   1.939  16.596 -0.2464  0.3738 -0.3098
  212MPD1    C5 3276   1.831   1.998  16.486  0.3233  0.2060 -0.4545
  212MPD1     H 3277   1.551   2.179  16.648  0.0227  1.3571 -1.7523
  212MPD1    H1 3278   1.807   1.845  16.638  0.1106  1.7629  2.5036
  212MPD1    H2 3279   1.850   2.155  16.355  1.0931 -2.2912 -1.1093
  212MPD1    H3 3280   1.917   1.947  16.442  0.4936  0.0181  0.0897
  212MPD1     N 3281   1.595   1.934  16.762 -0.5863 -0.4187  0.0701
  212MPD1    H5 3282   1.621   1.836  16.773  2.5006  0.3357 -0.5093
  212MPD1    N1 3283   1.644   2.301  16.433  0.1807  0.1345 -0.0285
  212MPD1    H6 3284   1.725   2.331  16.378  0.1317 -0.2838 -0.3324
  212MPD1    H7 3285   1.614   2.374  16.497  2.3244 -0.2491  1.4129
  213MPD1     C 3286   4.695   2.702  15.704 -0.4918  0.8781 -0.0491
  213MPD1    C1 3287   4.565   2.707  15.747 -0.4582  0.0980  0.4108
  213MPD1    C2 3288   4.472   2.773  15.667  0.1084 -0.5059  0.2433
  213MPD1    C3 3289   4.506   2.817  15.539  0.2870  0.4295 -0.1080
  213MPD1    C4 3290   4.634   2.801  15.495  0.8540  0.7384  0.3389
  213MPD1    C5 3291   4.730   2.754  15.578 -0.3870  0.3562  0.5237
  213MPD1     H 3292   4.370   2.774  15.704 -1.6526  2.0970 -4.5724
  213MPD1    H1 3293   4.667   2.832  15.396  0.9200 -3.1312 -0.8379
  213MPD1    H2 3294   0.035   2.691  15.774 -1.6984  1.1546  1.3981
  213MPD1    H3 3295   0.092   2.749  15.549  0.4811  4.7275  2.9194
  213MPD1     N 3296   4.404   2.876  15.467 -0.6391 -0.5156  0.0081
  213MPD1    H5 3297   4.309   2.871  15.501 -0.7325  0.0672 -0.1696
  213MPD1    N1 3298   4.558   2.717  15.888  0.2011  0.0519 -0.1398
  213MPD1    H6 3299   4.600   2.637  15.935  0.6256  1.4697  1.9112
  213MPD1    H7 3300   4.460   2.717  15.916  0.7312 -0.0016  1.7224
  214MPD1     C 3301   3.595   2.624  15.482 -0.4409 -0.3369  0.3266
  214MPD1    C1 3302   3.588   2.677  15.357 -0.3472 -0.4154  0.2592
  214MPD1    C2 3303   3.694   2.750  15.315 -0.0384 -0.0912 -0.0407
  214MPD1    C3 3304   3.802   2.773  15.396 -0.4141  0.2269 -0.5157
  214MPD1    C4 3305   3.802   2.722  15.519  0.8117 -0.2585  0.1556
  214MPD1    C5 3306   3.703   2.642  15.567 -0.2869 -0.0185 -0.1046
  214MPD1     H 3307   3.707   2.794  15.217  0.0569 -0.5266 -0.2267
  214MPD1    H1 3308   3.890   2.728  15.581 -0.8121  1.0401  2.3350
  214MPD1    H2 3309   3.522   2.548  15.510  0.1269 -1.4074 -1.1269
  214MPD1    H3 3310   3.704   2.581  15.656  1.8893 -0.4421 -0.4190
  214MPD1     N 3311   3.918   2.842  15.354  0.0460 -0.0236  0.1462
  214MPD1    H5 3312   3.988   2.844  15.427 -0.1825  0.5166  0.3495
  214MPD1    N1 3313   3.488   2.641  15.268 -0.1035  0.0006  0.1759
  214MPD1    H6 3314   3.404   2.616  15.319  0.8554 -0.5520  1.4934
  214MPD1    H7 3315   3.462   2.703  15.192  4.0778 -1.1265 -2.1703
  215MPD1     C 3316   4.131   3.342  10.675 -0.4424  0.6316  0.6005
  215MPD1    C1 3317   4.174   3.357  10.806  0.1142  0.1377 -0.1406
  215MPD1    C2 3318   4.106   3.449  10.886  0.2587  0.2716  0.2430
  215MPD1    C3 3319   4.014   3.538  10.834  0.3783 -0.3693  0.3792
  215MPD1    C4 3320   3.998   3.534  10.690  0.2885  0.0084  0.4733
  215MPD1    C5 3321   4.054   3.440  10.615  0.1895  0.4348  0.3517
  215MPD1     H 3322   4.133   3.450  10.991  0.7993 -0.2455  0.1092
  215MPD1    H1 3323   3.934   3.600  10.632 -0.3188 -1.1101 -0.1214
  215MPD1    H2 3324   4.175   3.269  10.608 -1.0351 -0.7704  1.7136
  215MPD1    H3 3325   4.029   3.432  10.509 -0.8363  0.0147  0.6213
  215MPD1     N 3326   3.941   3.630  10.911  0.3302  0.4100  0.1836
  215MPD1    H5 3327   3.972   3.639  11.008 -3.9747  0.0244  1.6055
  215MPD1    N1 3328   4.263   3.262  10.862  0.2079 -0.0499  0.6356
  215MPD1    H6 3329   4.321   3.308  10.932 -0.7619  0.6371  1.0026
  215MPD1    H7 3330   4.317   3.227  10.784 -1.8714 -0.9155 -0.4212
  216MPD1     C 3331   1.243   2.082   0.390  0.1707  0.1614 -0.5844
  216MPD1    C1 3332   1.333   1.991   0.440  0.0738  0.0515 -0.2273
  216MPD1    C2 3333   1.405   1.912   0.349 -0.5456  0.0888  0.4903
  216MPD1    C3 3334   1.391   1.934   0.211  0.1854 -0.3469 -0.3103
  216MPD1    C4 3335   1.306   2.030   0.162 -0.2032  0.5154  0.0260
  216MPD1    C5 3336   1.222   2.093   0.253 -0.0299  0.2338  0.6733
  216MPD1     H 3337   1.475   1.843   0.394  0.7618  1.1725  0.0971
  216MPD1    H1 3338   1.285   2.049   0.057  0.0081 -2.3091 -0.5219
  216MPD1    H2 3339   1.179   2.124   0.467  1.5688 -0.9277  1.1669
  216MPD1    H3 3340   1.150   2.163   0.211 -0.8322  0.4130  2.3637
  216MPD1     N 3341   1.472   1.857   0.128  0.3060 -0.0258  0.3027
  216MPD1    H5 3342   1.541   1.796   0.169  1.8139  0.8202 -0.9579
  216MPD1    N1 3343   1.327   1.947   0.576  0.2795 -0.2120  0.7754
  216MPD1    H6 3344   1.315   2.024   0.642  1.1787  1.1986 -0.7246
  216MPD1    H7 3345   1.415   1.907   0.608  0.1319 -0.7725  0.4718
  217MPD1     C 3346   0.826   3.052   9.612  0.0886 -0.2059 -0.0376
  217MPD1    C1 3347   0.898   2.951   9.541  0.3966 -0.0662  0.3027
  217MPD1    C2 3348   0.989   2.998   9.451  0.4922  0.4254 -0.7409
  217MPD1    C3 3349   0.992   3.128   9.406 -1.5607 -0.2923 -0.0644
  217MPD1    C4 3350   0.914   3.222   9.462 -0.3207  0.0168  0.8357
  217MPD1    C5 3351   0.832   3.183   9.568  0.0287 -0.1696  0.6129
  217MPD1     H 3352   1.046   2.918   9.405  0.1877 -0.3111  0.1607
  217MPD1    H1 3353   0.927   3.326   9.432 -0.5563 -0.1881  0.0266
  217MPD1    H2 3354   0.759   3.032   9.695  0.4495  4.7899  1.4600
  217MPD1    H3 3355   0.765   3.250   9.621  3.2810  0.9576  3.2617
  217MPD1     N 3356   1.093   3.176   9.321  0.8461  0.1972 -0.3296
  217MPD1    H5 3357   1.096   3.277   9.316 -0.7587  0.0903 -3.6651
  217MPD1    N1 3358   0.908   2.821   9.597 -0.5041 -0.3492 -0.5863
  217MPD1    H6 3359   0.824   2.775   9.632 -0.7239  0.2768 -0.2916
  217MPD1    H7 3360   0.947   2.761   9.524  1.0975  0.2222 -0.2012
  218MPD1     C 3361   3.935   4.591  13.100 -0.0805 -0.2048 -0.3051
  218MPD1    C1 3362   3.905   4.467  13.145  0.5477  0.2972 -0.0668
  218MPD1    C2 3363   3.895   4.356  13.058  0.0838  0.5552 -0.1592
  218MPD1    C3 3364   3.932   4.373  12.930 -0.3115 -0.0352 -0.2831
  218MPD1    C4 3365   3.974   4.499  12.885 -0.5553  0.2468  0.0389
  218MPD1    C5 3366   3.965   4.611  12.969 -0.3423 -0.3596 -0.2598
  218MPD1     H 3367   3.864   4.257  13.087  3.8575 -0.3205  0.8603
  218MPD1    H1 3368   3.996   4.519  12.781  0.0092 -3.4661 -0.5383
  218MPD1    H2 3369   3.912   4.675  13.164 -3.2653  0.4960 -2.3514
  218MPD1    H3 3370   3.984   4.712  12.934 -1.2849  0.2168  0.8686
  218MPD1     N 3371   3.927   4.257  12.852  0.0457  0.2291 -0.7308
  218MPD1    H5 3372   3.905   4.172  12.901 -1.8264  1.9945  1.4743
  218MPD1    N1 3373   3.839   4.456  13.268  0.0945 -0.4883  0.1188
  218MPD1    H6 3374   3.854   4.370  13.321 -1.1005  0.4580  1.9943
  218MPD1    H7 3375   3.856   4.537  13.327  0.1170 -2.8724  3.4023
  219MPD1     C 3376   3.602   3.769  11.975  0.4107  0.0248  0.0782
  219MPD1    C1 3377   3.706   3.851  11.948 -0.0418  0.4026 -0.1807
  219MPD1    C2 3378   3.775   3.895  12.057  0.3766  0.3804  0.3114
  219MPD1    C3 3379   3.749   3.852  12.185  0.2742  0.3020  0.0091
  219MPD1    C4 3380   3.663   3.747  12.201  0.1372  0.0191 -0.2521
  219MPD1    C5 3381   3.580   3.715  12.100  0.7107  0.3713 -0.2066
  219MPD1     H 3382   3.852   3.967  12.031 -0.5879  1.1375 -0.4803
  219MPD1    H1 3383   3.650   3.690  12.293 -0.2473  1.9300  0.8821
  219MPD1    H2 3384   3.541   3.729  11.895 -0.2527  1.4465 -0.1340
  219MPD1    H3 3385   3.503   3.640  12.116 -0.9200  1.8298 -1.2043
  219MPD1     N 3386   3.830   3.885  12.295  0.2657 -0.2035 -0.5631
  219MPD1    H5 3387   3.826   3.825  12.376 -2.5045 -0.8757 -1.2166
  219MPD1    N1 3388   3.722   3.911  11.820  0.3349  0.1374 -0.5782
  219MPD1    H6 3389   3.712   3.842  11.746 -2.3333 -1.3803  1.1972
  219MPD1    H7 3390   3.807   3.964  11.804  0.7956  0.1795  2.0208
  220MPD1     C 3391   3.226   0.050   9.490  0.8218 -0.6737 -0.2906
  220MPD1    C1 3392   3.103   0.017   9.542 -0.0915 -0.0950  0.4619
  220MPD1    C2 3393   3.093   4.741   9.681 -0.7139  0.3872 -0.4536
  220MPD1    C3 3394   3.209   4.722   9.755  0.2747  0.1295  0.4613
  220MPD1    C4 3395   3.330   4.738   9.698  0.0620 -0.4873  0.7535
  220MPD1    C5 3396   3.338   0.034   9.566  1.0295 -0.0387 -0.1023
  220MPD1     H 3397   2.993   4.729   9.720 -1.3552  1.6111 -1.7613
  220MPD1    H1 3398   3.421   4.698   9.742  1.7846 -0.4830 -2.8081
  220MPD1    H2 3399   3.247   0.087   9.390 -2.7994  0.9602 -0.4388
  220MPD1    H3 3400   3.437   0.046   9.523  1.7163 -0.9610  1.1815
  220MPD1     N 3401   3.198   4.686   9.891 -0.6446 -0.1833 -0.0037
  220MPD1    H5 3402   3.111   4.638   9.912 -1.4505  0.5456 -1.6616
  220MPD1    N1 3403   2.989   0.033   9.463 -0.1621 -0.4358 -0.8660
  220MPD1    H6 3404   2.899   0.001   9.497 -0.4304  0.5712 -0.6460
  220MPD1    H7 3405   3.010   0.008   9.367  0.8231  0.3870 -0.8690
  221MPD1     C 3406   3.285   2.792  17.110  0.3990 -0.6580  0.3873
  221MPD1    C1 3407   3.324   2.851  16.985 -0.5430  0.2271 -1.0288
  221MPD1    C2 3408   3.225   2.894  16.900 -0.3611  0.1571  0.2008
  221MPD1    C3 3409   3.087   2.881  16.924 -0.2714 -0.8054 -0.8297
  221MPD1    C4 3410   3.054   2.822  17.042 -0.2556  0.2936  0.3462
  221MPD1    C5 3411   3.147   2.774  17.132  0.3703 -0.7079 -0.4574
  221MPD1     H 3412   3.266   2.950  16.817 -0.2294  0.7483  0.6633
  221MPD1    H1 3413   2.953   2.807  17.079  0.1488  3.0809  2.6108
  221MPD1    H2 3414   3.350   2.748  17.185 -0.2178 -2.3179 -0.0332
  221MPD1    H3 3415   3.116   2.721  17.222  1.9335 -0.7075  0.0729
  221MPD1     N 3416   2.983   2.936  16.851  0.3470 -0.3963 -0.8574
  221MPD1    H5 3417   2.889   2.936  16.889  0.4554 -1.0043 -0.5957
  221MPD1    N1 3418   3.458   2.849  16.943 -0.0796  0.0274 -0.2083
  221MPD1    H6 3419   3.478   2.914  16.867 -3.4618 -0.8498 -1.8446
  221MPD1    H7 3420   3.531   2.841  17.013 -1.0657 -0.2149  0.8010
  222MPD1     C 3421   2.929   2.757  17.420  0.8249 -0.6689 -0.0040
  222MPD1    C1 3422   2.944   2.636  17.489  0.6493  0.1272 -0.4066
  222MPD1    C2 3423   2.824   2.573  17.516  0.1891  0.0564  0.0069
  222MPD1    C3 3424   2.697   2.623  17.486  0.1146 -0.7139 -0.6834
  222MPD1    C4 3425   2.688   2.740  17.411  0.0090  0.0786 -0.0928
  222MPD1    C5 3426   2.808   2.807  17.384  0.6163 -0.1423  0.2577
  222MPD1     H 3427   2.839   2.484  17.577 -0.3525 -0.1169 -0.1151
  222MPD1    H1 3428   2.596   2.792  17.387  0.3861  0.8242  0.0548
  222MPD1    H2 3429   3.014   2.810  17.379 -0.1359 -0.1512 -1.3432
  222MPD1    H3 3430   2.792   2.897  17.326 -0.6841 -1.9335 -2.1992
  222MPD1     N 3431   2.572   2.557  17.518 -0.3316  0.3834 -0.1804
  222MPD1    H5 3432   2.486   2.609  17.502  0.7614  2.1696 -0.2892
  222MPD1    N1 3433   3.070   2.569  17.501 -0.4334  0.1487  0.3812
  222MPD1    H6 3434   3.141   2.642  17.508  0.7642 -1.1357  1.8906
  222MPD1    H7 3435   3.091   2.488  17.560 -0.7751 -0.9129 -0.9721
  223MPD1     C 3436   2.556   1.622  17.722  0.3130 -0.3023 -0.4870
  223MPD1    C1 3437   2.586   1.683  17.605 -0.0946 -0.2498  0.1348
  223MPD1    C2 3438   2.527   1.802  17.584 -0.4446 -0.3079 -0.0997
  223MPD1    C3 3439   2.424   1.855  17.661 -0.5008 -0.0775 -0.3254
  223MPD1    C4 3440   2.386   1.780   0.005  0.8929 -0.1983  0.4347
  223MPD1    C5 3441   2.461   1.671   0.037 -1.3513  0.4537  0.2608
  223MPD1     H 3442   2.563   1.869  17.507 -0.4550  1.0781  1.1034
  223MPD1    H1 3443   2.305   1.799   0.075 -1.1852 -1.9239 -1.4589
  223MPD1    H2 3444   2.607   1.533  17.758  1.5981  0.1646 -1.1799
  223MPD1    H3 3445   2.425   1.618   0.124 -0.1779  3.1579  2.3878
  223MPD1     N 3446   2.374   1.984  17.638 -0.1544  0.1780 -0.4183
  223MPD1    H5 3447   2.392   2.018  17.544 -1.8455  0.7086 -0.5396
  223MPD1    N1 3448   2.697   1.646  17.529  0.7832  0.2455 -0.3090
  223MPD1    H6 3449   2.665   1.655  17.433 -1.0391  1.0442  0.3498
  223MPD1    H7 3450   2.711   1.546  17.535  0.3866  0.3277  2.1291
  224MPD1     C 3451   2.358   0.018   9.566 -0.0933 -0.3828 -0.3287
  224MPD1    C1 3452   2.392   4.653   9.647 -0.2852  0.2876 -0.4493
  224MPD1    C2 3453   2.339   4.534   9.620 -0.0513 -0.2004  0.5120
  224MPD1    C3 3454   2.243   4.518   9.519  0.0945 -0.3188 -0.4140
  224MPD1    C4 3455   2.205   4.627   9.448 -0.9611 -0.5916  0.0800
  224MPD1    C5 3456   2.262   0.004   9.473  0.4245  0.4837  0.1096
  224MPD1     H 3457   2.358   4.462   9.699  0.2701 -1.2194 -0.4927
  224MPD1    H1 3458   2.145   4.628   9.358 -2.0941 -1.2912  0.8273
  224MPD1    H2 3459   2.407   0.113   9.582  1.5609 -1.6271  1.9151
  224MPD1    H3 3460   2.238   0.089   9.410 -1.4487  0.5398  0.8751
  224MPD1     N 3461   2.184   4.396   9.483 -0.2472 -0.7533 -0.4191
  224MPD1    H5 3462   2.112   4.404   9.412  0.5573  0.8990 -1.0554
  224MPD1    N1 3463   2.465   4.683   9.763  0.1090  0.1063 -0.0273
  224MPD1    H6 3464   2.538   4.615   9.781 -1.3687 -0.7841  2.6012
  224MPD1    H7 3465   2.506   0.033   9.748  0.8251  0.2388  2.6773
  225MPD1     C 3466   3.925   0.331  12.080  0.2332  0.5790  0.7789
  225MPD1    C1 3467   3.910   0.195  12.068 -0.0843  0.7237  0.0453
  225MPD1    C2 3468   3.816   0.127  12.140  0.2688  0.1782 -0.6160
  225MPD1    C3 3469   3.747   0.196  12.240  0.6680  0.2728 -0.8630
  225MPD1    C4 3470   3.763   0.335  12.255  0.0168  0.1289 -0.2800
  225MPD1    C5 3471   3.847   0.398  12.173 -0.0427 -0.7939  0.3095
  225MPD1     H 3472   3.798   0.021  12.135  1.3896 -0.1368  2.1060
  225MPD1    H1 3473   3.710   0.392  12.330 -0.2727 -0.7503  0.1835
  225MPD1    H2 3474   3.993   0.389  12.019 -1.6527  1.3174 -0.6309
  225MPD1    H3 3475   3.868   0.503  12.189 -1.6196 -0.5776  0.9177
  225MPD1     N 3476   3.646   0.131  12.324 -0.0563 -0.2918  0.3862
  225MPD1    H5 3477   3.616   0.183  12.407 -0.4584 -0.1057  0.1253
  225MPD1    N1 3478   3.993   0.134  11.977  0.3427  0.4561 -0.1924
  225MPD1    H6 3479   4.026   0.044  12.011  0.8695  1.0115  0.7557
  225MPD1    H7 3480   4.072   0.198  11.967 -1.9953  3.2741 -0.5820
  226MPD1     C 3481   2.710   0.332  10.081 -0.4499  0.0962  0.1572
  226MPD1    C1 3482   2.668   0.226  10.151  0.4210 -0.1239 -0.7377
  226MPD1    C2 3483   2.531   0.195  10.133 -0.3255  0.3426 -0.4939
  226MPD1    C3 3484   2.440   0.265  10.060  0.9016  0.0264 -0.5337
  226MPD1    C4 3485   2.484   0.381  10.001  0.6686  0.7252  0.1822
  226MPD1    C5 3486   2.620   0.406  10.010 -0.2272  0.4681  0.1441
  226MPD1     H 3487   2.499   0.099  10.173  1.0217  0.5536  1.1105
  226MPD1    H1 3488   2.414   0.454   9.962 -0.7400 -1.2618 -1.0161
  226MPD1    H2 3489   2.814   0.360  10.092 -0.8650  1.4644  0.6009
  226MPD1    H3 3490   2.649   0.503   9.972  0.9740  0.1549  0.2715
  226MPD1     N 3491   2.307   0.217  10.037 -0.2163 -0.5342 -0.6975
  226MPD1    H5 3492   2.292   0.120  10.062 -1.7484 -0.1418 -0.0894
  226MPD1    N1 3493   2.761   0.141  10.213 -0.1040 -0.1864 -0.2386
  226MPD1    H6 3494   2.718   0.079  10.282  0.4243 -2.9657 -2.3989
  226MPD1    H7 3495   2.827   0.197  10.266 -0.4330 -0.5802  0.5823
  227MPD1     C 3496   1.236   0.322   9.767 -0.3452 -0.9070 -0.1999
  227MPD1    C1 3497   1.261   0.207   9.839  0.3093 -0.7173  0.2287
  227MPD1    C2 3498   1.387   0.182   9.884  0.6379 -0.4930 -0.2788
  227MPD1    C3 3499   1.486   0.279   9.877  0.1582  0.2316 -0.4492
  227MPD1    C4 3500   1.458   0.396   9.812  0.2300  0.5567 -0.5901
  227MPD1    C5 3501   1.335   0.416   9.748 -0.6546 -0.0884 -0.2161
  227MPD1     H 3502   1.416   0.105   9.955  0.6258  2.1179  2.5590
  227MPD1    H1 3503   1.530   0.475   9.794 -0.1981  0.7187 -1.5524
  227MPD1    H2 3504   1.140   0.353   9.728 -0.5143  0.8749  1.6724
  227MPD1    H3 3505   1.311   0.504   9.690  1.2402  0.9931  0.6425
  227MPD1     N 3506   1.609   0.253   9.938 -0.5168 -0.2245 -0.6693
  227MPD1    H5 3507   1.618   0.171   9.997  2.5574  0.2824 -0.4419
  227MPD1    N1 3508   1.154   0.127   9.871  0.6760  0.1536  0.2240
  227MPD1    H6 3509   1.168   0.028   9.890 -1.2070  0.1450  1.5296
  227MPD1    H7 3510   1.073   0.148   9.814  1.0936 -0.9445 -0.7729
  228MPD1     C 3511   1.193   2.714  12.903  0.6502 -0.6799  0.0808
  228MPD1    C1 3512   1.124   2.622  12.976 -0.4479  0.3346 -0.3027
  228MPD1    C2 3513   0.989   2.619  12.958 -0.0399  0.4484 -0.5274
  228MPD1    C3 3514   0.925   2.685  12.857  0.1658 -0.8477 -0.5895
  228MPD1    C4 3515   1.002   2.769  12.773 -0.1827  0.3761 -0.1538
  228MPD1    C5 3516   1.134   2.787  12.802 -0.5729 -0.2188 -0.4572
  228MPD1     H 3517   0.930   2.569  13.034  0.3681  0.2696 -0.3302
  228MPD1    H1 3518   0.963   2.844  12.705 -0.2477  1.6620  1.2921
  228MPD1    H2 3519   1.297   2.726  12.931  0.6654 -1.1046  0.2125
  228MPD1    H3 3520   1.191   2.870  12.760 -1.3283  0.5453  0.0345
  228MPD1     N 3521   0.786   2.657  12.840 -0.1321  0.8387  0.1076
  228MPD1    H5 3522   0.744   2.604  12.915 -1.0075  1.2458 -0.0913
  228MPD1    N1 3523   1.176   2.559  13.085 -0.0935 -0.0792  0.2824
  228MPD1    H6 3524   1.130   2.481  13.131 -2.4639 -0.3273 -2.4813
  228MPD1    H7 3525   1.276   2.543  13.098  0.1446  0.6539 -0.6536
  229MPD1     C 3526   0.273   1.599  14.474  1.2048  0.2953 -0.7373
  229MPD1    C1 3527   0.243   1.625  14.605 -0.1124  0.3296 -0.2808
  229MPD1    C2 3528   0.322   1.574  14.706 -0.7051  0.5583 -0.0114
  229MPD1    C3 3529   0.447   1.514  14.675 -0.7202  0.9025 -0.4042
  229MPD1    C4 3530   0.477   1.500  14.546 -0.8516  0.0617  0.6922
  229MPD1    C5 3531   0.392   1.537  14.452  0.3923  0.0052 -0.6111
  229MPD1     H 3532   0.283   1.577  14.807 -1.3911 -2.4993 -0.1928
  229MPD1    H1 3533   0.575   1.464  14.515 -0.5412  1.6082 -0.1704
  229MPD1    H2 3534   0.205   1.635  14.397  3.2026  2.0594 -1.6675
  229MPD1    H3 3535   0.413   1.507  14.350  1.1724  0.6037 -0.6293
  229MPD1     N 3536   0.529   1.451  14.776 -0.3312 -0.5415  0.3672
  229MPD1    H5 3537   0.615   1.405  14.746  0.2228  1.8538 -1.7128
  229MPD1    N1 3538   0.117   1.684  14.636 -0.7169 -0.1368 -0.3340
  229MPD1    H6 3539   0.089   1.754  14.567 -0.6722  0.8690  0.6727
  229MPD1    H7 3540   0.121   1.724  14.729  0.1359  1.5825 -1.1094
  230MPD1     C 3541   0.796   1.233  15.832 -0.9723  0.0929 -0.0038
  230MPD1    C1 3542   0.796   1.114  15.762 -0.3497 -0.2059  0.6025
  230MPD1    C2 3543   0.775   1.120  15.624  0.3137 -0.1536 -0.2495
  230MPD1    C3 3544   0.751   1.241  15.556 -0.6832 -0.7086 -0.6679
  230MPD1    C4 3545   0.737   1.357  15.640  0.3519 -0.0359 -0.3058
  230MPD1    C5 3546   0.762   1.353  15.773 -0.0964 -0.4122  0.2624
  230MPD1     H 3547   0.772   1.026  15.570  2.5878 -0.0782 -0.4868
  230MPD1    H1 3548   0.700   1.456  15.613 -0.4443  0.1807  1.6223
  230MPD1    H2 3549   0.791   1.242  15.940 -1.8392 -0.5019  0.0085
  230MPD1    H3 3550   0.752   1.437  15.840  0.7748 -2.7269  3.3211
  230MPD1     N 3551   0.737   1.223  15.420  0.3091 -0.5526 -0.3155
  230MPD1    H5 3552   0.755   1.134  15.375  0.2342  0.2588 -1.9574
  230MPD1    N1 3553   0.793   0.996  15.836  0.3036 -0.0291 -0.1070
  230MPD1    H6 3554   0.798   0.913  15.777 -0.6364 -1.1963  1.4269
  230MPD1    H7 3555   0.864   1.001  15.909 -0.2398 -1.3138  0.5219
  231MPD1     C 3556   3.977   3.193  15.473 -0.6436 -0.3567 -0.2326
  231MPD1    C1 3557   3.891   3.209  15.367  0.4537  0.3286  0.2468
  231MPD1    C2 3558   3.932   3.294  15.270 -0.8775 -0.3781 -0.8216
  231MPD1    C3 3559   4.053   3.370  15.283 -0.1414 -0.2472 -0.2754
  231MPD1    C4 3560   4.138   3.345  15.386  0.1071  0.0635 -0.1202
  231MPD1    C5 3561   4.096   3.262  15.486 -0.4743  0.3022  0.8701
  231MPD1     H 3562   3.866   3.317  15.187 -1.5936  0.9967  0.1368
  231MPD1    H1 3563   4.222   3.408  15.412 -0.2278  1.5106 -2.5865
  231MPD1    H2 3564   3.946   3.140  15.562  0.5587 -0.0816  0.3411
  231MPD1    H3 3565   4.158   3.247  15.574 -0.2754  0.3375  0.7361
  231MPD1     N 3566   4.078   3.461  15.177 -0.6224  0.0111  0.2946
  231MPD1    H5 3567   4.007   3.458  15.105 -0.4160 -2.3843  0.2032
  231MPD1    N1 3568   3.762   3.150  15.364  0.2408  0.4999  0.0432
  231MPD1    H6 3569   3.757   3.065  15.420 -0.9267  0.5475  0.0278
  231MPD1    H7 3570   3.734   3.133  15.267 -0.2437  0.0528  0.2628
  232MPD1     C 3571   0.745   1.559   0.297 -0.0279 -0.0883 -0.2102
  232MPD1    C1 3572   0.612   1.591   0.304 -0.1918 -0.0701  0.4690
  232MPD1    C2 3573   0.518   1.518   0.234 -1.1219  0.1079  0.4864
  232MPD1    C3 3574   0.555   1.405   0.162  1.1690  0.1711 -0.2066
  232MPD1    C4 3575   0.684   1.366   0.163  0.2429 -0.4661  0.4280
  232MPD1    C5 3576   0.774   1.438   0.240  0.6368  0.7682 -0.4039
  232MPD1     H 3577   0.411   1.537   0.228 -0.9379  0.2737 -2.3253
  232MPD1    H1 3578   0.716   1.280   0.105 -0.7656 -0.9580  0.6138
  232MPD1    H2 3579   0.827   1.615   0.340  0.5118  0.2182 -1.6461
  232MPD1    H3 3580   0.874   1.398   0.253  0.1523 -0.6105 -0.9223
  232MPD1     N 3581   0.455   1.342   0.088 -0.2155 -0.1313 -0.2105
  232MPD1    H5 3582   0.370   1.393   0.067  1.2110  0.9677 -3.1887
  232MPD1    N1 3583   0.572   1.707   0.375 -0.1535  0.1344  0.0461
  232MPD1    H6 3584   0.612   1.718   0.468 -1.1444 -0.1139  0.5021
  232MPD1    H7 3585   0.471   1.711   0.385 -0.0476  1.5895  0.6077
  233MPD1     C 3586   2.213   4.231   2.129 -0.5287  0.1186 -0.1508
  233MPD1    C1 3587   2.316   4.210   2.223  0.0457  0.1564  0.2858
  233MPD1    C2 3588   2.441   4.173   2.188 -0.1795 -0.4678 -0.2205
  233MPD1    C3 3589   2.465   4.134   2.057 -0.1744  0.1714  0.4850
  233MPD1    C4 3590   2.367   4.146   1.964  0.9020 -0.3850  0.1197
  233MPD1    C5 3591   2.241   4.185   2.001 -0.1434 -0.4025 -0.7200
  233MPD1     H 3592   2.515   4.155   2.265  1.4160  1.9870 -1.1663
  233MPD1    H1 3593   2.386   4.123   1.860 -0.6097  2.3613 -0.7523
  233MPD1    H2 3594   2.114   4.265   2.156  0.7415  2.4742  1.6046
  233MPD1    H3 3595   2.171   4.195   1.919  0.2349 -0.5851 -1.0670
  233MPD1     N 3596   2.590   4.082   2.014  0.1362 -0.0490 -0.1896
  233MPD1    H5 3597   2.591   4.046   1.920  1.3206  0.1709 -0.2594
  233MPD1    N1 3598   2.288   4.265   2.352 -0.2277  0.7734  0.3205
  233MPD1    H6 3599   2.353   4.238   2.425  0.0285 -0.6445 -0.4438
  233MPD1    H7 3600   2.194   4.254   2.390  0.2416 -0.8791  0.9992
  234MPD1     C 3601   2.565   2.251   9.373 -0.1364 -0.0243  0.6581
  234MPD1    C1 3602   2.556   2.294   9.242  0.8486 -0.6426  0.0972
  234MPD1    C2 3603   2.515   2.423   9.217  0.5625 -0.1617  0.8701
  234MPD1    C3 3604   2.516   2.516   9.317  0.6492  0.4169  0.4017
  234MPD1    C4 3605   2.540   2.475   9.447  0.1541  0.4627 -0.9818
  234MPD1    C5 3606   2.551   2.341   9.476  0.2707 -0.5869  0.0835
  234MPD1     H 3607   2.487   2.459   9.119 -1.4221  0.5132  1.6829
  234MPD1    H1 3608   2.531   2.541   9.533  0.5917 -2.2258  1.1186
  234MPD1    H2 3609   2.596   2.151   9.400  4.5372  0.8639 -1.3839
  234MPD1    H3 3610   2.565   2.314   9.580 -1.2597  0.4341  0.5443
  234MPD1     N 3611   2.488   2.652   9.290  0.3238 -0.1395 -0.3649
  234MPD1    H5 3612   2.443   2.674   9.202 -1.0432  0.7021  0.5634
  234MPD1    N1 3613   2.563   2.200   9.142 -0.3533 -0.2080  0.5711
  234MPD1    H6 3614   2.582   2.242   9.051  1.1414 -1.2372  0.4154
  234MPD1    H7 3615   2.639   2.137   9.165 -0.5788  0.0592  2.0834
  235MPD1     C 3616   0.318   0.592  10.025  0.4308 -0.3530 -0.2796
  235MPD1    C1 3617   0.351   0.718  10.072  0.2509 -0.4142  0.0236
  235MPD1    C2 3618   0.275   0.758  10.184  0.2280 -0.0909  0.3767
  235MPD1    C3 3619   0.180   0.681  10.244  0.3882  0.1221  0.0904
  235MPD1    C4 3620   0.143   0.560  10.180 -0.2664  0.2714  0.0630
  235MPD1    C5 3621   0.211   0.516  10.071 -0.0674 -0.1577  0.5696
  235MPD1     H 3622   0.309   0.846  10.238  2.4424 -0.2240 -0.8409
  235MPD1    H1 3623   0.059   0.501  10.214  0.2467  1.0593  2.6783
  235MPD1    H2 3624   0.369   0.550   9.939  1.0889 -3.4860  1.6290
  235MPD1    H3 3625   0.172   0.423  10.030  2.0673 -0.6121 -0.4265
  235MPD1     N 3626   0.127   0.733  10.368  0.0496  0.1059 -0.1049
  235MPD1    H5 3627   0.165   0.819  10.405  1.8305  0.0908 -1.8823
  235MPD1    N1 3628   0.464   0.785  10.032 -0.4047  0.2120  0.6172
  235MPD1    H6 3629   0.463   0.787   9.930  0.4159  0.7022  0.6221
  235MPD1    H7 3630   0.465   0.879  10.070 -0.7067  0.2061  0.6389
  236MPD1     C 3631   2.826   1.218   9.536  0.3480  0.4171  0.4578
  236MPD1    C1 3632   2.847   1.085   9.580 -0.2817  0.9087  0.1331
  236MPD1    C2 3633   2.939   1.076   9.686 -0.7140 -0.4663  0.4946
  236MPD1    C3 3634   3.013   1.184   9.729 -0.2482  0.4694  0.7075
  236MPD1    C4 3635   3.000   1.310   9.668 -0.5629  0.1902 -1.2331
  236MPD1    C5 3636   2.900   1.322   9.575  0.7291  0.8859  0.4469
  236MPD1     H 3637   2.952   0.974   9.721  2.2590 -0.2923 -0.0555
  236MPD1    H1 3638   3.052   1.391   9.717 -0.2415 -0.8567  0.1568
  236MPD1    H2 3639   2.743   1.250   9.474 -0.5704 -1.0651  0.9216
  236MPD1    H3 3640   2.893   1.422   9.533  0.1191  0.1884 -1.1039
  236MPD1     N 3641   3.110   1.176   9.831  0.5300  0.8450  0.4417
  236MPD1    H5 3642   3.173   1.254   9.845 -0.2414  2.1240 -3.2205
  236MPD1    N1 3643   2.761   0.981   9.543 -0.7589  0.2018  0.4971
  236MPD1    H6 3644   2.792   0.886   9.560 -1.9298 -0.1257  0.8255
  236MPD1    H7 3645   2.725   0.992   9.448  1.5929  0.0127 -0.4179
  237MPD1     C 3646   3.857   0.484  15.395  0.6278 -0.7631 -0.6011
  237MPD1    C1 3647   3.814   0.425  15.513 -0.4346  0.9693 -0.4758
  237MPD1    C2 3648   3.757   0.296  15.503 -0.3173  0.1633  0.1327
  237MPD1    C3 3649   3.742   0.230  15.385 -0.0180  0.1127 -1.1408
  237MPD1    C4 3650   3.786   0.287  15.270  0.7764 -0.0202 -0.4227
  237MPD1    C5 3651   3.835   0.418  15.272  0.0294 -0.2137  0.1879
  237MPD1     H 3652   3.718   0.267  15.600 -0.9557 -0.1847 -0.2311
  237MPD1    H1 3653   3.792   0.237  15.174 -2.4914  0.9032 -1.1050
  237MPD1    H2 3654   3.908   0.579  15.387 -0.1749 -0.4699 -2.3159
  237MPD1    H3 3655   3.881   0.456  15.182  0.6767 -1.9098 -0.1962
  237MPD1     N 3656   3.709   0.094  15.374 -0.4234  0.2416 -0.1884
  237MPD1    H5 3657   3.707   0.057  15.280  1.3463  0.1337 -0.1849
  237MPD1    N1 3658   3.820   0.492  15.637  0.3256 -0.0359  0.0694
  237MPD1    H6 3659   3.887   0.568  15.649 -1.4123  1.4086  0.5288
  237MPD1    H7 3660   3.843   0.426  15.711  0.2479 -0.9174 -0.7018
  238MPD1     C 3661   0.355   3.552  14.838 -0.0855  0.9343  0.6625
  238MPD1    C1 3662   0.336   3.526  14.704 -0.2950  0.4278 -0.1126
  238MPD1    C2 3663   0.240   3.437  14.667  0.2490  0.4426 -0.5195
  238MPD1    C3 3664   0.157   3.372  14.751 -0.4249  0.2174 -0.0588
  238MPD1    C4 3665   0.175   3.401  14.891  0.7128 -0.1358  0.5212
  238MPD1    C5 3666   0.280   3.476  14.928  0.7716  0.2114 -0.1883
  238MPD1     H 3667   0.221   3.421  14.562 -1.7108 -1.0235  0.0325
  238MPD1    H1 3668   0.121   3.351  14.970 -1.1084  2.6668  1.0779
  238MPD1    H2 3669   0.431   3.612  14.887 -2.1080  2.1351  2.3618
  238MPD1    H3 3670   0.288   3.489  15.036 -0.0498  1.5116 -0.2886
  238MPD1     N 3671   0.053   3.286  14.712  0.3257  0.2340  0.0419
  238MPD1    H5 3672   4.736   3.244  14.782  0.8520 -2.1889 -0.9575
  238MPD1    N1 3673   0.421   3.578  14.610 -0.1500 -0.1169  0.2203
  238MPD1    H6 3674   0.383   3.570  14.516  0.6064  2.3309 -0.2854
  238MPD1    H7 3675   0.460   3.670  14.626 -1.2138  0.2582  0.7048
  239MPD1     C 3676   1.343   3.910  14.806 -0.2723 -0.0582  0.3554
  239MPD1    C1 3677   1.282   4.036  14.819  0.0342 -0.1487  0.0091
  239MPD1    C2 3678   1.213   4.088  14.713  0.0686  0.1130  0.4619
  239MPD1    C3 3679   1.195   4.018  14.599  0.1174  0.0163  0.4131
  239MPD1    C4 3680   1.256   3.894  14.585 -0.3514  0.0351  0.0958
  239MPD1    C5 3681   1.332   3.843  14.685  0.2904 -0.1513 -0.5478
  239MPD1     H 3682   1.171   4.183  14.743  0.6802  0.2444  0.8965
  239MPD1    H1 3683   1.238   3.835  14.495 -1.1934  2.2029 -1.1412
  239MPD1    H2 3684   1.419   3.879  14.877 -0.4205  2.6133  1.6683
  239MPD1    H3 3685   1.380   3.746  14.679 -1.1537 -0.8937 -0.2325
  239MPD1     N 3686   1.121   4.066  14.494  0.1950  0.1460 -0.0219
  239MPD1    H5 3687   1.124   4.017  14.405  0.4775 -1.9960  1.1620
  239MPD1    N1 3688   1.331   4.123  14.928 -0.1922 -0.3299  0.4161
  239MPD1    H6 3689   1.364   4.068  15.007 -1.5909  0.0369  1.2525
  239MPD1    H7 3690   1.272   4.200  14.960 -1.7537 -0.3637 -2.4327
  240MPD1     C 3691   0.489   3.661  12.844 -0.6762 -0.5712  0.0509
  240MPD1    C1 3692   0.501   3.524  12.870  0.1848 -0.0129  0.4271
  240MPD1    C2 3693   0.464   3.489  12.997 -0.7529 -0.9340 -0.0108
  240MPD1    C3 3694   0.392   3.570  13.081  0.1110  0.2527  0.2359
  240MPD1    C4 3695   0.352   3.698  13.045  0.5536  0.1417  0.0606
  240MPD1    C5 3696   0.412   3.740  12.929 -0.6030  0.4186 -0.3354
  240MPD1     H 3697   0.472   3.384  13.023  1.8742 -0.8630 -0.5590
  240MPD1    H1 3698   0.284   3.764  13.098 -0.6473 -0.3022 -0.9545
  240MPD1    H2 3699   0.538   3.696  12.754 -1.6669 -0.5232 -0.4818
  240MPD1    H3 3700   0.386   3.840  12.896  1.6500  0.9343 -0.5443
  240MPD1     N 3701   0.329   3.505  13.185 -0.0524  0.0301  0.5890
  240MPD1    H5 3702   0.361   3.413  13.213 -1.2829 -0.2645  1.0238
  240MPD1    N1 3703   0.590   3.440  12.804 -0.3873  0.7007  0.3600
  240MPD1    H6 3704   0.596   3.464  12.706 -1.6688  0.5523  0.2436
  240MPD1    H7 3705   0.568   3.341  12.812 -0.4211  0.7611  1.0641
  241MPD1     C 3706   0.764   2.901  13.621 -0.7226  0.0886  0.5892
  241MPD1    C1 3707   0.694   2.957  13.726  0.6610 -0.1732  0.4829
  241MPD1    C2 3708   0.590   3.047  13.693 -0.5134  0.1839  0.7244
  241MPD1    C3 3709   0.565   3.071  13.556 -0.2040  0.1477 -0.4051
  241MPD1    C4 3710   0.638   3.011  13.455 -0.0039 -0.2543 -0.1736
  241MPD1    C5 3711   0.732   2.922  13.491  0.2668  0.0494  0.4428
  241MPD1     H 3712   0.542   3.099  13.775 -0.6575 -1.0804  1.4336
  241MPD1    H1 3713   0.615   3.029  13.351 -0.8846 -0.8721 -0.0848
  241MPD1    H2 3714   0.848   2.834  13.637  0.1374  0.8262 -0.8165
  241MPD1    H3 3715   0.785   2.876  13.408 -0.0054  1.4136 -0.4835
  241MPD1     N 3716   0.447   3.148  13.504  0.6011  0.9231 -0.0485
  241MPD1    H5 3717   0.430   3.136  13.405  3.2720  1.9587 -0.6259
  241MPD1    N1 3718   0.749   2.949  13.858 -0.9203  0.6682  0.0868
  241MPD1    H6 3719   0.790   2.859  13.878  0.5198  1.5576  1.1095
  241MPD1    H7 3720   0.678   2.972  13.927 -0.3231  0.6877  0.6907
  242MPD1     C 3721   4.350   1.099  15.720  0.8543 -0.3295 -0.2291
  242MPD1    C1 3722   4.385   1.206  15.808  0.0056  0.1482 -0.4164
  242MPD1    C2 3723   4.481   1.289  15.754 -0.8057  0.2463 -0.2948
  242MPD1    C3 3724   4.509   1.286  15.616  0.1535 -0.4830 -0.2786
  242MPD1    C4 3725   4.454   1.191  15.535 -0.2190  0.0717  0.2132
  242MPD1    C5 3726   4.381   1.091  15.589  0.1221  0.5442 -0.0881
  242MPD1     H 3727   4.525   1.365  15.817  1.8533 -0.1039 -1.7184
  242MPD1    H1 3728   4.484   1.198  15.431 -1.0632 -1.5247 -0.1416
  242MPD1    H2 3729   4.288   1.015  15.749 -0.1293  1.1276  1.8572
  242MPD1    H3 3730   4.346   1.006  15.532  0.3684  2.3601 -2.8980
  242MPD1     N 3731   4.589   1.384  15.556 -0.2630 -0.3090  0.4410
  242MPD1    H5 3732   4.617   1.375  15.459 -1.1325  1.3973  0.0307
  242MPD1    N1 3733   4.347   1.203  15.940 -0.1182  0.2490  0.0737
  242MPD1    H6 3734   4.346   1.291  15.992  0.1251  0.2498  0.0768
  242MPD1    H7 3735   4.248   1.181  15.952  0.5195 -1.0786  3.0701
  243MPD1     C 3736   1.541   1.189   0.275  0.3597  0.2341 -0.4920
  243MPD1    C1 3737   1.443   1.123   0.199 -0.2705  0.0755  1.1341
  243MPD1    C2 3738   1.481   1.072   0.071 -0.3209 -0.9833  0.1569
  243MPD1    C3 3739   1.597   1.116   0.010 -0.5638 -0.2030 -0.1017
  243MPD1    C4 3740   1.683   1.194   0.079 -0.5336  0.5468  0.5179
  243MPD1    C5 3741   1.659   1.228   0.212  0.0408 -0.4856  0.5722
  243MPD1     H 3742   1.417   0.997   0.026  0.4041  0.1338 -2.7520
  243MPD1    H1 3743   1.780   1.225   0.041 -0.2917  0.8661  1.4017
  243MPD1    H2 3744   1.527   1.225   0.376  1.6235  4.0744 -1.6919
  243MPD1    H3 3745   1.745   1.269   0.263  0.2383  0.7952 -0.7765
  243MPD1     N 3746   1.629   1.055  17.657 -0.1558 -0.5995 -0.2530
  243MPD1    H5 3747   1.575   0.972  17.635 -0.2328 -0.3728 -0.9204
  243MPD1    N1 3748   1.327   1.087   0.265 -0.4974 -0.4065 -0.8425
  243MPD1    H6 3749   1.332   1.123   0.360  0.0279  1.0282 -1.4060
  243MPD1    H7 3750   1.326   0.986   0.269  3.1018 -0.3827  0.6634
  244MPD1     C 3751   1.775   0.202  17.680 -0.2220 -0.5703  0.1401
  244MPD1    C1 3752   1.792   0.305  17.763  0.1625 -0.2369 -0.3715
  244MPD1    C2 3753   1.789   0.437  17.710 -0.0419 -0.2712  0.3133
  244MPD1    C3 3754   1.749   0.457  17.581  0.0514 -0.0798  0.4469
  244MPD1    C4 3755   1.718   0.347  17.505  0.1891 -0.4588 -0.0108
  244MPD1    C5 3756   1.735   0.222  17.550  0.1037  0.5818  0.0573
  244MPD1     H 3757   1.811   0.523   0.006  0.6910  1.2760 -2.0751
  244MPD1    H1 3758   1.680   0.359  17.404  1.1087  0.9651 -0.1816
  244MPD1    H2 3759   1.780   0.096  17.703  4.1799 -1.0210 -2.7749
  244MPD1    H3 3760   1.720   0.135  17.487  0.1771  0.1935  0.5739
  244MPD1     N 3761   1.746   0.590  17.528  0.0339  0.6374 -0.1774
  244MPD1    H5 3762   1.776   0.657  17.599  1.1191 -3.3677  3.1367
  244MPD1    N1 3763   1.830   0.275   0.127  0.4862  0.6592  0.0206
  244MPD1    H6 3764   1.808   0.359   0.181 -2.0960 -1.1737  1.8564
  244MPD1    H7 3765   1.773   0.203   0.171  0.0782  1.9572  1.6214
  245MPD1     C 3766   3.920   0.906  13.689 -0.0183  0.3364 -0.4398
  245MPD1    C1 3767   3.932   0.967  13.814 -0.1357 -0.2390 -0.2583
  245MPD1    C2 3768   3.976   1.103  13.816  0.6232  0.3455 -0.0385
  245MPD1    C3 3769   4.010   1.166  13.696 -0.4809  0.5845 -0.0635
  245MPD1    C4 3770   3.995   1.102  13.574  0.2297 -0.3475  0.4659
  245MPD1    C5 3771   3.957   0.968  13.580  0.0022  0.5428  0.2716
  245MPD1     H 3772   3.981   1.165  13.904 -2.2655  0.2866  0.1711
  245MPD1    H1 3773   4.013   1.147  13.477 -2.6987 -1.1674 -0.4253
  245MPD1    H2 3774   3.887   0.803  13.683  1.4564 -0.1480 -0.3483
  245MPD1    H3 3775   3.944   0.913  13.487  0.6964  0.6351  0.1203
  245MPD1     N 3776   4.070   1.294  13.702 -0.1330  0.5277  0.8133
  245MPD1    H5 3777   4.092   1.331  13.794 -2.3844  1.4767  0.9756
  245MPD1    N1 3778   3.898   0.899  13.932 -0.6517 -0.1726  0.0555
  245MPD1    H6 3779   3.960   0.927  14.008 -0.3122  1.0087 -0.6487
  245MPD1    H7 3780   3.899   0.798  13.920  0.5574 -0.2330  0.6954
  246MPD1     C 3781   3.621   3.262  10.213  0.0407  0.3774 -0.0483
  246MPD1    C1 3782   3.753   3.250  10.252  0.1652  0.2999  0.3827
  246MPD1    C2 3783   3.833   3.156  10.189  0.2068 -0.1565 -0.0010
  246MPD1    C3 3784   3.791   3.097  10.073 -0.3259  0.1128 -0.4299
  246MPD1    C4 3785   3.667   3.125  10.018 -0.6247 -0.0108  0.3287
  246MPD1    C5 3786   3.585   3.206  10.095  0.4234 -0.3667 -0.5308
  246MPD1     H 3787   3.928   3.124  10.232  0.0991 -0.4862 -0.0061
  246MPD1    H1 3788   3.625   3.059   9.942 -0.9426 -0.3465  0.7865
  246MPD1    H2 3789   3.551   3.319  10.273 -0.0074  2.5360 -2.1496
  246MPD1    H3 3790   3.479   3.195  10.073  0.3958 -0.1524 -0.5017
  246MPD1     N 3791   3.873   2.993  10.014 -0.5903  0.7386 -0.8612
  246MPD1    H5 3792   3.954   2.962  10.067 -1.3301  0.2632 -0.0121
  246MPD1    N1 3793   3.795   3.295  10.377  0.2235 -0.7080  0.0839
  246MPD1    H6 3794   3.895   3.305  10.392 -0.0908  1.6199  0.5802
  246MPD1    H7 3795   3.742   3.373  10.416 -1.5355 -1.6530 -0.3908
  247MPD1     C 3796   2.482   0.780  16.595 -0.0047  0.1512  0.9326
  247MPD1    C1 3797   2.497   0.898  16.675  0.2394  0.7654 -0.0281
  247MPD1    C2 3798   2.596   0.985  16.640 -0.3441  0.0758 -0.5955
  247MPD1    C3 3799   2.688   0.956  16.537 -0.2826  0.2835 -0.1313
  247MPD1    C4 3800   2.653   0.851  16.460 -0.2718 -0.2767 -0.1258
  247MPD1    C5 3801   2.555   0.759  16.488  0.8666  0.1043 -0.4935
  247MPD1     H 3802   2.619   1.068  16.706 -0.4346 -0.0103 -0.4556
  247MPD1    H1 3803   2.715   0.830  16.374  1.5024 -0.8426  1.2885
  247MPD1    H2 3804   2.409   0.705  16.625  0.0253 -0.4282 -0.4797
  247MPD1    H3 3805   2.535   0.668  16.432  0.0809 -0.9276  1.4705
  247MPD1     N 3806   2.802   1.033  16.508  0.4300  0.2398  0.3222
  247MPD1    H5 3807   2.847   1.003  16.423 -1.1348 -1.6642  0.1534
  247MPD1    N1 3808   2.445   0.918  16.803 -0.3517 -0.7262  0.2968
  247MPD1    H6 3809   2.428   1.014  16.834  1.0976  0.0012 -1.2018
  247MPD1    H7 3810   2.358   0.865  16.812 -1.6923  1.5628  0.9832
  248MPD1     C 3811   2.922   0.660   0.000 -0.8124 -0.0828 -0.0677
  248MPD1    C1 3812   2.895   0.754   0.097 -0.2962 -0.1097 -0.2035
  248MPD1    C2 3813   2.938   0.715   0.223  0.3289 -0.1805 -0.3749
  248MPD1    C3 3814   3.023   0.607   0.256 -0.6914 -0.2165 -0.2815
  248MPD1    C4 3815   3.063   0.535   0.148  0.9827  0.0760  0.1033
  248MPD1    C5 3816   3.009   0.560   0.028  0.3623  0.6166 -0.1314
  248MPD1     H 3817   2.912   0.787   0.299  0.7347 -0.1517 -0.2621
  248MPD1    H1 3818   3.121   0.444   0.149  1.7714  0.5809  0.6564
  248MPD1    H2 3819   2.885   0.670  17.666  2.9122  0.9929 -1.3159
  248MPD1    H3 3820   3.014   0.481  17.720 -0.2422  1.2343 -0.8281
  248MPD1     N 3821   3.053   0.577   0.392  0.0215  0.3550  0.6098
  248MPD1    H5 3822   3.038   0.643   0.467  0.9389 -1.9240  2.7930
  248MPD1    N1 3823   2.793   0.853   0.075  0.1882 -0.1972  0.2915
  248MPD1    H6 3824   2.798   0.939   0.129 -1.8858  0.3885 -0.4584
  248MPD1    H7 3825   2.785   0.883  17.745  1.7730 -1.0248 -0.1064
  249MPD1     C 3826   4.740   4.345  10.614 -0.3901  0.4217  0.0454
  249MPD1    C1 3827   0.083   4.407  10.707  0.0468  0.3835 -0.0140
  249MPD1    C2 3828   0.206   4.464  10.670  0.2538  0.4251 -0.5769
  249MPD1    C3 3829   0.238   4.461  10.537  0.0315  0.0395  0.0248
  249MPD1    C4 3830   0.143   4.406  10.448 -0.4636  0.0007  0.4146
  249MPD1    C5 3831   0.025   4.351  10.485  0.1226  0.4235 -0.3062
  249MPD1     H 3832   0.279   4.515  10.731 -0.2333  1.0017 -0.4863
  249MPD1    H1 3833   0.164   4.401  10.342 -0.0457  0.6728  0.4685
  249MPD1    H2 3834   4.646   4.303  10.650  0.1128  1.6652  2.8105
  249MPD1    H3 3835   4.698   4.305  10.416 -0.8153  0.3360  0.6812
  249MPD1     N 3836   0.364   4.518  10.497 -0.1219  0.0711  0.4874
  249MPD1    H5 3837   0.420   4.562  10.569  0.5338 -1.9788  1.2146
  249MPD1    N1 3838   0.057   4.411  10.844  0.3612 -0.4243  0.2898
  249MPD1    H6 3839   4.701   4.417  10.867  0.4478 -1.5905  0.9486
  249MPD1    H7 3840   0.108   4.490  10.883  1.2115 -0.8691  0.0740
  250MPD2     C 3841   2.084   4.184  13.501 -0.4639  0.1708  0.1316
  250MPD2    C1 3842   1.998   4.277  13.451 -0.2140  0.4170 -0.5484
  250MPD2    C2 3843   1.891   4.235  13.375  0.3995  0.2269 -0.8208
  250MPD2    C3 3844   1.867   4.107  13.345 -0.2551  0.0923 -0.7881
  250MPD2    C4 3845   1.950   4.017  13.405  0.7360 -0.3065  0.3231
  250MPD2    C5 3846   2.056   4.054  13.483 -0.2251 -0.2490  0.1640
  250MPD2     H 3847   1.846   4.314  13.315 -1.6588 -0.1952  0.1446
  250MPD2    H1 3848   1.928   3.911  13.395  3.6393 -0.6282 -2.5180
  250MPD2    H2 3849   2.170   4.211  13.560 -1.3015  2.5268  0.2871
  250MPD2    H3 3850   2.126   3.976  13.512 -0.7340 -0.6906  0.1938
  250MPD2     N 3851   1.765   4.055  13.257 -0.4245  0.3374  0.3092
  250MPD2    H5 3852   1.768   3.956  13.232 -2.0388  0.7777 -1.6428
  250MPD2    N1 3853   2.036   4.413  13.470  0.0238 -0.0353  0.0676
  250MPD2    H7 3854   2.130   4.418  13.508 -0.2889 -1.9592  1.1066
  251TMC3    C1 3855   2.023   4.642  13.434  0.4620  0.4748  0.5459
  251TMC3    C2 3856   1.949   0.009  13.483 -0.1888 -0.7297 -0.5257
  251TMC3    C3 3857   2.009   0.129  13.459  0.1853  0.2824 -0.0585
  251TMC3    C4 3858   2.146   4.655  13.369 -0.1839 -0.5824  0.6202
  251TMC3    C5 3859   2.189   0.037  13.349  0.1969  0.2283  0.4136
  251TMC3    C6 3860   2.123   0.146  13.389 -0.4292 -0.3117  0.3033
  251TMC3     C 3861   1.952   4.518  13.440  0.5148 -0.2775 -0.3742
  251TMC3     O 3862   1.833   4.520  13.415  0.1123  0.4534 -0.3761
  251TMC3     H 3863   1.857   4.730  13.536  1.4818 -3.4378  1.2909
  251TMC3    H1 3864   2.204   4.567  13.342 -0.4844 -1.4323  2.6740
  251TMC3    H2 3865   2.153   0.247  13.363  0.0868 -1.1523 -2.4226
  251TMC3    C7 3866   2.327   0.044  13.309  0.3877  0.3216 -0.3840
  251TMC3    C8 3867   1.929   0.250  13.484  0.2208 -0.7441 -0.1483
  251TMC3    O1 3868   2.390   4.690  13.347  0.2963  0.0282  0.5741
  251TMC3    O2 3869   1.994   0.345  13.519 -0.8016  0.0690 -0.5778
  252TMC3    C1 3870   0.566   1.121   9.445 -0.6358  0.8932  0.2179
  252TMC3    C2 3871   0.690   1.172   9.480 -0.4865 -0.4694  0.5749
  252TMC3    C3 3872   0.798   1.088   9.471 -0.1287  0.4218 -0.3905
  252TMC3    C4 3873   0.551   0.999   9.385  0.3221 -0.2422  0.2919
  252TMC3    C5 3874   0.662   0.915   9.390  0.3056 -0.0128 -0.7592
  252TMC3    C6 3875   0.780   0.955   9.437  0.6508 -0.2340  0.1864
  252TMC3     C 3876   0.453   1.213   9.480  0.8113  0.1376 -0.1519
  252TMC3     O 3877   0.484   1.329   9.512  0.2618 -0.0605 -0.0647
  252TMC3     H 3878   0.707   1.275   9.511  0.2834  0.1302 -1.8678
  252TMC3    H1 3879   0.460   0.971   9.332  1.2312 -1.4300 -0.6427
  252TMC3    H2 3880   0.864   0.887   9.443  0.4345 -0.6313 -1.4189
  252TMC3    C7 3881   0.636   0.776   9.347 -1.0730 -0.1806 -0.3347
  252TMC3    C8 3882   0.921   1.135   9.536  0.8087  0.5498 -0.2331
  252TMC3    O1 3883   0.533   0.763   9.284  0.0583  0.2042  0.4819
  252TMC3    O2 3884   0.931   1.256   9.564 -0.6334  0.3567 -0.5226
  253MPD2     C 3885   3.344   0.106  15.380  0.0996  0.4036  0.8223
  253MPD2    C1 3886   3.249   0.028  15.319 -0.3177 -0.1397  0.0216
  253MPD2    C2 3887   3.204   4.657  15.388 -0.3718 -0.2658  0.4655
  253MPD2    C3 3888   3.244   4.625  15.515 -0.4015  0.4668 -0.4577
  253MPD2    C4 3889   3.337   4.708  15.577 -0.7626 -0.6955  0.3560
  253MPD2    C5 3890   3.369   0.080  15.513 -0.2759 -0.0047 -0.4096
  253MPD2     H 3891   3.124   4.597  15.344 -1.3172  1.6277 -0.3788
  253MPD2    H1 3892   3.374   4.691  15.678  3.7349  0.5664 -1.1024
  253MPD2    H2 3893   3.378   0.203  15.345  2.5164 -0.3043  1.2107
  253MPD2    H3 3894   3.441   0.141  15.566 -0.0763 -0.4826 -0.1286
  253MPD2     N 3895   3.202   4.514  15.593  0.4768 -0.6379  0.2642
  253MPD2    H5 3896   3.228   4.516  15.691 -0.4545  0.8006  0.4738
  253MPD2    N1 3897   3.172   0.061  15.206 -0.1625  0.0412  0.0533
  253MPD2    H7 3898   3.078   0.023  15.198 -0.2751 -0.2649  2.6128
  254TMC3    C1 3899   3.051   4.344  15.663 -0.2324  0.1018 -0.4577
  254TMC3    C2 3900   2.922   4.308  15.640 -0.7540 -0.0944  0.9434
  254TMC3    C3 3901   2.854   4.232  15.731 -0.5092 -0.4128  0.3609
  254TMC3    C4 3902   3.108   4.320  15.789 -0.4258 -0.9458  0.5379
  254TMC3    C5 3903   3.050   4.237  15.870  0.5796 -0.2567 -0.6912
  254TMC3    C6 3904   2.923   4.201  15.847  0.5528  0.2787 -0.4884
  254TMC3     C 3905   3.123   4.412  15.554  0.6219  0.1260 -0.2841
  254TMC3     O 3906   3.078   4.384  15.444 -0.5547  0.3396  0.4299
  254TMC3     H 3907   2.870   4.330  15.547  0.4716 -2.5517 -0.3377
  254TMC3    H1 3908   3.214   4.340  15.802 -0.8394  0.5526  1.6147
  254TMC3    H2 3909   2.866   4.139  15.916  0.3314  1.9569  0.8430
  254TMC3    C7 3910   3.088   4.245  16.010  0.5085  1.1386  0.1531
  254TMC3    C8 3911   2.733   4.295  15.780 -0.1339 -0.8885 -0.6534
  254TMC3    O1 3912   3.026   4.168  16.083  0.4433 -0.1645 -0.1617
  254TMC3    O2 3913   2.694   4.264  15.895 -0.0321  0.3389 -0.5473
  255MPD2     C 3914   0.902   2.638  10.208 -0.5465  1.0905 -0.8946
  255MPD2    C1 3915   0.986   2.741  10.179 -0.4930 -0.8618  0.1791
  255MPD2    C2 3916   1.104   2.717  10.100  0.1013  0.0077 -0.0164
  255MPD2    C3 3917   1.129   2.594  10.052  0.1483 -0.1184 -0.5660
  255MPD2    C4 3918   1.040   2.492  10.074  0.3273 -0.5641 -0.5940
  255MPD2    C5 3919   0.934   2.515  10.153  0.5693  0.0928 -0.3036
  255MPD2     H 3920   1.176   2.797  10.089  0.3889  0.0407  1.9587
  255MPD2    H1 3921   1.047   2.395  10.026  0.4022 -0.6455 -0.4195
  255MPD2    H2 3922   0.812   2.652  10.267 -0.5704 -0.8426 -0.4868
  255MPD2    H3 3923   0.871   2.430  10.175  2.5740 -1.3035  0.0665
  255MPD2     N 3924   1.253   2.577   9.984 -0.1916  0.0935 -0.1261
  255MPD2    H5 3925   1.308   2.662   9.983  2.1168 -1.4130 -0.0767
  255MPD2    N1 3926   0.953   2.864  10.234 -0.1033 -0.3946 -0.7451
  255MPD2    H7 3927   0.887   2.865  10.310  0.9958 -0.1658  0.2069
  256TMC3    C1 3928   0.998   3.094  10.290 -0.1410  0.7484  0.7236
  256TMC3    C2 3929   1.054   3.211  10.252  0.1962  0.2312 -0.4473
  256TMC3    C3 3930   1.036   3.320  10.340 -0.2839  0.1144  0.6569
  256TMC3    C4 3931   0.933   3.076  10.408  0.0344 -0.4751 -0.6048
  256TMC3    C5 3932   0.913   3.185  10.489  0.2764  0.2141  0.4381
  256TMC3    C6 3933   0.959   3.307  10.453 -0.2032  0.4056 -0.3968
  256TMC3     C 3934   1.013   2.980  10.195 -0.0724  0.0428  0.0637
  256TMC3     O 3935   1.093   3.002  10.106 -0.2130  0.8143 -0.2259
  256TMC3     H 3936   1.102   3.229  10.157  1.5425 -2.4998 -0.2680
  256TMC3    H1 3937   0.895   2.980  10.440 -1.2761 -0.4407 -2.0483
  256TMC3    H2 3938   0.934   3.392  10.515  0.8243  2.0105 -2.2158
  256TMC3    C7 3939   0.806   3.170  10.588  0.6893 -0.2153 -0.3092
  256TMC3    C8 3940   1.031   3.460  10.291 -0.3480  0.0865  0.5153
  256TMC3    O1 3941   0.812   3.215  10.701 -0.3740 -0.7218 -0.1734
  256TMC3    O2 3942   0.922   3.508  10.311  0.1469  0.4250 -0.1371
  257MPD2     C 3943   0.162   4.065  13.333  1.0583  0.1258  0.2822
  257MPD2    C1 3944   0.278   4.043  13.257 -0.0992  0.3568  0.1370
  257MPD2    C2 3945   0.372   3.946  13.293 -0.1734 -1.1884 -0.5774
  257MPD2    C3 3946   0.354   3.871  13.408  0.3835 -0.2726 -0.4776
  257MPD2    C4 3947   0.239   3.895  13.481  0.3208  0.2026  0.4101
  257MPD2    C5 3948   0.141   3.988  13.442  0.1283  0.0103  0.9957
  257MPD2     H 3949   0.464   3.941  13.237  0.0803  1.3363 -0.4115
  257MPD2    H1 3950   0.225   3.845  13.576  0.5471 -0.0110  0.3311
  257MPD2    H2 3951   0.102   4.152  13.310  1.4622  0.6505  1.2250
  257MPD2    H3 3952   0.049   4.001  13.498  0.1403  1.9492  0.5854
  257MPD2     N 3953   0.448   3.770  13.436  0.3190 -0.3626  0.1821
  257MPD2    H5 3954   0.517   3.764  13.362  0.7360 -1.2206  0.6463
  257MPD2    N1 3955   0.292   4.133  13.141  0.8446  0.0359  0.7883
  257MPD2    H7 3956   0.231   4.214  13.141  0.8250  0.0200  0.5955
  258TMC3    C1 3957   0.551   3.585  13.556 -0.3834 -0.1595  0.1016
  258TMC3    C2 3958   0.622   3.548  13.437 -0.5271 -0.0124 -0.5875
  258TMC3    C3 3959   0.726   3.457  13.446  0.0802 -0.0112  0.0784
  258TMC3    C4 3960   0.597   3.535  13.681 -0.1675 -0.9529  0.0285
  258TMC3    C5 3961   0.703   3.457  13.682  0.0946 -0.4757 -0.3308
  258TMC3    C6 3962   0.767   3.412  13.571 -0.5801  0.0752  0.5216
  258TMC3     C 3963   0.455   3.695  13.558  0.8539 -0.5165  0.0926
  258TMC3     O 3964   0.381   3.703  13.659 -0.3217 -0.2694 -0.1601
  258TMC3     H 3965   0.606   3.587  13.337 -1.9975 -0.4861 -0.5381
  258TMC3    H1 3966   0.555   3.577  13.772 -3.0697  0.2098 -1.8295
  258TMC3    H2 3967   0.840   3.332  13.575  1.1084  1.5218 -1.2319
  258TMC3    C7 3968   0.782   3.458  13.808 -0.9026  0.2553  0.3139
  258TMC3    C8 3969   0.825   3.456  13.340 -0.6641  0.0145  0.1231
  258TMC3    O1 3970   0.743   3.526  13.904  0.1008  0.3428  0.4959
  258TMC3    O2 3971   0.783   3.489  13.228  0.4613  0.5299 -0.0363
  259MPD2     C 3972   3.965   1.521   0.668 -0.3654  0.1062 -0.5317
  259MPD2    C1 3973   4.052   1.436   0.630 -0.3251  0.1442 -0.4821
  259MPD2    C2 3974   4.077   1.419   0.494  0.9442  0.6740 -0.1997
  259MPD2    C3 3975   4.020   1.497   0.400 -0.1257  0.3698 -0.2825
  259MPD2    C4 3976   3.929   1.597   0.449 -0.3561  0.1892  0.0062
  259MPD2    C5 3977   3.904   1.600   0.583  0.1828 -0.0087  0.2011
  259MPD2     H 3978   4.154   1.351   0.463  0.3927 -0.0164 -0.0525
  259MPD2    H1 3979   3.867   1.661   0.386  0.5048  3.9095  2.9475
  259MPD2    H2 3980   3.960   1.549   0.772 -0.8160 -0.3629 -0.4300
  259MPD2    H3 3981   3.842   1.681   0.619  2.6736  0.4858  3.2979
  259MPD2     N 3982   4.048   1.465   0.268  0.5909  0.1151  0.2221
  259MPD2    H5 3983   4.115   1.390   0.263 -0.5440 -0.9803  1.3774
  259MPD2    N1 3984   4.110   1.358   0.737 -0.9865  0.5460  0.3028
  259MPD2    H7 3985   4.086   1.389   0.831 -1.1527 -0.4529  0.5839
  260TMC3    C1 3986   4.036   1.473   0.033  0.9144 -0.0822  0.2639
  260TMC3    C2 3987   4.074   1.564  17.700 -0.5265 -0.0979  0.1502
  260TMC3    C3 3988   4.127   1.515  17.579  0.1545 -1.4518 -0.4210
  260TMC3    C4 3989   4.056   1.339   0.018 -0.9336  0.5328 -0.0618
  260TMC3    C5 3990   4.110   1.291  17.665  0.0174  0.0211 -0.2894
  260TMC3    C6 3991   4.149   1.376  17.562  0.3512  0.1947 -0.9079
  260TMC3     C 3992   4.006   1.541   0.159  0.1792  0.3624  0.0934
  260TMC3     O 3993   3.940   1.645   0.162 -0.2204 -0.8227  0.0230
  260TMC3     H 3994   4.050   1.669  17.711 -0.3190  0.0193 -0.5347
  260TMC3    H1 3995   4.024   1.270   0.095  0.1867 -0.8368 -0.8224
  260TMC3    H2 3996   4.205   1.332  17.479  0.4418 -0.5442 -0.4567
  260TMC3    C7 3997   4.157   1.156  17.653 -0.2330 -0.6373 -0.2654
  260TMC3    C8 3998   4.244   1.599  17.543  0.1037  0.1035  0.9747
  260TMC3    O1 3999   4.169   1.098  17.544  0.2940 -0.7516  0.3495
  260TMC3    O2 4000   4.225   1.719  17.558 -0.1924 -0.0144  0.1144
  261MPD2     C 4001   1.056   4.263  12.796  0.2221  0.6036  0.1426
  261MPD2    C1 4002   1.138   4.185  12.720  0.1069 -0.2763 -0.8756
  261MPD2    C2 4003   1.093   4.151  12.595  0.2524 -0.3292  0.1244
  261MPD2    C3 4004   0.975   4.212  12.539 -0.5262  0.5749  0.0551
  261MPD2    C4 4005   0.896   4.289  12.624 -0.5799  0.0124 -0.2314
  261MPD2    C5 4006   0.942   4.318  12.748 -0.3430 -0.1475 -1.0753
  261MPD2     H 4007   1.157   4.091  12.530  0.5332 -1.7404  1.6927
  261MPD2    H1 4008   0.812   4.344  12.584 -0.6152  0.5244  0.5432
  261MPD2    H2 4009   1.085   4.284  12.898  0.1955 -2.3928  0.7693
  261MPD2    H3 4010   0.884   4.392  12.802 -1.1644 -1.6414  0.0661
  261MPD2     N 4011   0.936   4.186  12.406  0.4533  0.1678  0.1611
  261MPD2    H5 4012   0.995   4.122  12.355 -1.1503  0.3526 -1.9080
  261MPD2    N1 4013   1.258   4.136  12.776 -0.1647 -0.2346  0.4641
  261MPD2    H7 4014   1.313   4.073  12.719  0.1086  2.0726 -1.8489
  262TMC3    C1 4015   0.839   4.230  12.193 -0.4265 -0.4841  0.2920
  262TMC3    C2 4016   0.736   4.303  12.133  0.0624 -0.5438  0.4771
  262TMC3    C3 4017   0.745   4.333  11.995  0.4108  1.0712  0.3233
  262TMC3    C4 4018   0.957   4.205  12.132  0.4210  0.4700  0.3664
  262TMC3    C5 4019   0.959   4.240  11.997  0.7646 -0.5051 -0.6948
  262TMC3    C6 4020   0.857   4.295  11.932  0.2107  0.1900 -0.2016
  262TMC3     C 4021   0.827   4.240  12.334  0.5731 -0.8978  0.4627
  262TMC3     O 4022   0.734   4.306  12.374 -0.6619 -0.3653 -0.5321
  262TMC3     H 4023   0.640   4.318  12.181 -0.8084  0.2059 -1.4853
  262TMC3    H1 4024   1.050   4.170  12.175  0.7904  1.4583  0.3651
  262TMC3    H2 4025   0.853   4.298  11.824 -0.7338 -0.5893 -0.1908
  262TMC3    C7 4026   1.096   4.256  11.939 -0.2540 -0.1325  0.4504
  262TMC3    C8 4027   0.709   4.464  11.947  0.4777 -0.0868 -0.4789
  262TMC3    O1 4028   1.186   4.193  11.993  0.2331  0.6510  0.4604
  262TMC3    O2 4029   0.778   4.517  11.865 -0.6705  0.2917  0.4300
  263MPD2     C 4030   2.191   2.963  11.752  0.6670  1.0532  0.9106
  263MPD2    C1 4031   2.239   3.087  11.775 -0.1260 -0.2858 -0.3687
  263MPD2    C2 4032   2.169   3.192  11.723 -0.1765 -0.4131  0.1571
  263MPD2    C3 4033   2.054   3.171  11.648  0.3122  0.0061 -0.0022
  263MPD2    C4 4034   2.002   3.046  11.630  0.5428  0.7947  0.9096
  263MPD2    C5 4035   2.065   2.941  11.690 -0.3840  0.2107 -0.3298
  263MPD2     H 4036   2.213   3.291  11.712  1.2101 -0.7503  2.5863
  263MPD2    H1 4037   1.923   3.018  11.560 -0.1225  1.2638  1.4711
  263MPD2    H2 4038   2.235   2.877  11.801 -1.2968  0.4589  1.5960
  263MPD2    H3 4039   2.024   2.845  11.665  3.2324 -0.6655 -2.8891
  263MPD2     N 4040   2.016   3.278  11.562 -0.2250 -0.5322  0.3653
  263MPD2    H5 4041   2.057   3.370  11.579 -0.2705 -0.7556  1.6770
  263MPD2    N1 4042   2.351   3.103  11.858 -0.1591 -0.1606  0.2807
  263MPD2    H7 4043   2.398   3.018  11.888  0.1844 -0.5992 -1.5367
  264TMC3    C1 4044   1.885   3.410  11.422 -0.8860  0.2920 -0.3640
  264TMC3    C2 4045   1.856   3.507  11.509 -0.1623 -0.1172 -0.4038
  264TMC3    C3 4046   1.795   3.615  11.453  0.7151 -0.1172  0.6484
  264TMC3    C4 4047   1.873   3.416  11.284  0.4018  0.5000 -0.1746
  264TMC3    C5 4048   1.813   3.529  11.238 -0.3737 -0.2313  0.3614
  264TMC3    C6 4049   1.778   3.631  11.321 -0.1780 -0.0676  0.3103
  264TMC3     C 4050   1.920   3.274  11.466  0.5457  0.1231 -0.1518
  264TMC3     O 4051   1.858   3.180  11.413  0.4069 -0.2984 -0.2269
  264TMC3     H 4052   1.875   3.495  11.615 -0.1226  1.4410 -0.2325
  264TMC3    H1 4053   1.890   3.336  11.213 -1.4672  0.1134 -0.1943
  264TMC3    H2 4054   1.735   3.725  11.290  0.0777  0.6290  2.1006
  264TMC3    C7 4055   1.887   3.576  11.124  0.3232 -0.1840 -0.2626
  264TMC3    C8 4056   1.791   3.738  11.529  0.1331 -0.7303 -0.3554
  264TMC3    O1 4057   2.000   3.543  11.117 -0.1600 -0.0725 -0.3517
  264TMC3    O2 4058   1.743   3.835  11.468  0.0754  0.0516 -0.1297
  265MPD2     C 4059   4.465   4.067  15.611 -0.7295  0.3340 -0.7535
  265MPD2    C1 4060   4.497   4.174  15.530  0.0060  0.1126  0.1455
  265MPD2    C2 4061   4.573   4.149  15.414 -0.3437 -0.2833 -0.3432
  265MPD2    C3 4062   4.603   4.022  15.373 -0.0370 -0.2183  0.3795
  265MPD2    C4 4063   4.571   3.918  15.460 -0.7231 -0.5550 -0.0423
  265MPD2    C5 4064   4.498   3.939  15.575  1.0246  0.6383  0.2334
  265MPD2     H 4065   4.597   4.235  15.353 -1.0954 -1.1718 -1.8905
  265MPD2    H1 4066   4.601   3.817  15.433  0.7539 -0.5549  1.5882
  265MPD2    H2 4067   4.421   4.086  15.708 -0.2507  2.0939 -0.8756
  265MPD2    H3 4068   4.464   3.859  15.640  1.2565  0.2285 -0.1507
  265MPD2     N 4069   4.653   3.991  15.245  0.4594  0.1007  0.1553
  265MPD2    H5 4070   4.668   3.894  15.218  0.7455 -0.0703  0.9444
  265MPD2    N1 4071   4.460   4.308  15.557 -0.1476 -0.1586  0.0677
  265MPD2    H7 4072   4.484   4.380  15.490  0.5712  0.7663  1.3122
  266TMC3    C1 4073   4.413   4.495  15.687  0.0758  0.2591  0.0483
  266TMC3    C2 4074   4.428   4.548  15.806 -0.2085  0.2483 -0.4905
  266TMC3    C3 4075   4.414   4.683  15.819 -0.2403 -0.0850  0.5800
  266TMC3    C4 4076   4.388   4.560  15.568  0.0830 -0.0527  0.1351
  266TMC3    C5 4077   4.365   4.693  15.587  0.4084  0.0043  0.0420
  266TMC3    C6 4078   4.390   0.017  15.710  0.1613  0.7080  0.1730
  266TMC3     C 4079   4.409   4.351  15.678 -0.4649  0.8215 -0.4657
  266TMC3     O 4080   4.382   4.287  15.781 -0.0533  0.5055 -0.2167
  266TMC3     H 4081   4.440   4.479  15.889 -0.6624  0.4589 -0.2449
  266TMC3    H1 4082   4.370   4.517  15.470  0.2759 -1.6170  0.7855
  266TMC3    H2 4083   4.387   0.125  15.722  0.9663  0.8158 -0.6741
  266TMC3    C7 4084   4.366   0.033  15.463  0.3712 -1.2745 -0.0139
  266TMC3    C8 4085   4.488   4.736  15.940  0.2549 -0.3590  0.1163
  266TMC3    O1 4086   4.312   4.717  15.367  0.3971 -0.0616  0.2479
  266TMC3    O2 4087   4.529   4.651  16.019  0.0315 -0.4770 -0.0068
  267MPD2     C 4088   1.971   1.428   0.566 -0.4743  0.1650  0.0500
  267MPD2    C1 4089   2.036   1.388   0.448 -0.9111  0.9054 -0.3709
  267MPD2    C2 4090   1.976   1.440   0.329 -0.5524  0.0982  0.5217
  267MPD2    C3 4091   1.854   1.507   0.334 -0.5885  0.3381 -0.0187
  267MPD2    C4 4092   1.798   1.542   0.450 -0.1885 -0.1320 -0.0968
  267MPD2    C5 4093   1.854   1.496   0.565 -0.0199 -0.5353 -0.0916
  267MPD2     H 4094   2.024   1.410   0.237 -1.0283 -0.0810  0.3326
  267MPD2    H1 4095   1.711   1.606   0.459 -0.7108 -0.8587 -0.0019
  267MPD2    H2 4096   2.009   1.405   0.665  0.6092 -1.9877 -0.8467
  267MPD2    H3 4097   1.794   1.507   0.655 -1.2509 -1.0242 -0.8536
  267MPD2     N 4098   1.775   1.535   0.218  0.0987 -0.5186 -0.2634
  267MPD2    H5 4099   1.690   1.589   0.230 -0.7729 -1.8041 -0.7211
  267MPD2    N1 4100   2.150   1.307   0.451 -0.3645 -0.2501 -0.4169
  267MPD2    H7 4101   2.173   1.270   0.542 -0.3484 -0.9009 -0.6833
  268TMC3    C1 4102   2.369   1.238   0.374  0.1740  0.5528  0.1581
  268TMC3    C2 4103   2.466   1.253   0.282  0.4363  0.7074  0.5212
  268TMC3    C3 4104   2.569   1.160   0.278 -0.3467 -0.2487 -0.0532
  268TMC3    C4 4105   2.363   1.126   0.459  1.0044 -0.0232 -0.0908
  268TMC3    C5 4106   2.475   1.042   0.457 -0.0296 -0.0086 -0.0651
  268TMC3    C6 4107   2.571   1.059   0.368  0.5791  0.2219 -0.1712
  268TMC3     C 4108   2.249   1.319   0.347 -0.8141 -0.0265  0.4307
  268TMC3     O 4109   2.255   1.400   0.256  0.1001  0.4995 -0.1037
  268TMC3     H 4110   2.470   1.344   0.223 -1.3562  0.2521 -0.2959
  268TMC3    H1 4111   2.295   1.104   0.540  2.2718  1.6160  1.4346
  268TMC3    H2 4112   2.656   0.992   0.365 -0.6639 -1.2892 -1.8404
  268TMC3    C7 4113   2.496   0.943   0.559 -0.1963 -0.0018 -0.6405
  268TMC3    C8 4114   2.668   1.183   0.167 -0.3730 -0.0555 -0.1336
  268TMC3    O1 4115   2.595   0.874   0.564  0.1997 -0.3214  0.5515
  268TMC3    O2 4116   2.780   1.133   0.178  0.3741  0.3300 -0.1612
  269MPD2     C 4117   2.629   4.732  15.326  0.2329 -0.4844 -0.2191
  269MPD2    C1 4118   2.495   4.742  15.353  0.3482 -0.6093 -0.0603
  269MPD2    C2 4119   2.444   0.125  15.350 -0.5311 -0.8332  0.4496
  269MPD2    C3 4120   2.517   0.236  15.325  0.6542  0.1169  0.4771
  269MPD2    C4 4121   2.653   0.226  15.306  0.1196 -0.2034  0.0245
  269MPD2    C5 4122   2.711   0.101  15.310  1.1545 -0.5464 -0.3080
  269MPD2     H 4123   2.338   0.135  15.366 -0.8335 -2.2783 -0.6027
  269MPD2    H1 4124   2.721   0.310  15.294  0.4183 -0.4122  0.2794
  269MPD2    H2 4125   2.679   4.636  15.323 -0.7674 -1.0067 -0.2332
  269MPD2    H3 4126   2.818   0.086  15.311  1.1432 -0.7735 -1.8753
  269MPD2     N 4127   2.443   0.354  15.316 -0.8299 -0.2131  0.0433
  269MPD2    H5 4128   2.345   0.347  15.343 -0.3169 -2.3909  1.3744
  269MPD2    N1 4129   2.428   4.622  15.383  0.7029  0.5103  0.3507
  269MPD2    H7 4130   2.482   4.535  15.380  1.2015  0.7677  1.9145
  270TMC3    C1 4131   2.253   4.472  15.446 -0.1023  0.4998 -0.7257
  270TMC3    C2 4132   2.120   4.435  15.423  0.6476 -0.0656 -0.1891
  270TMC3    C3 4133   2.089   4.306  15.446  0.0322  0.3061  0.0166
  270TMC3    C4 4134   2.349   4.394  15.501  0.2041 -0.5574 -0.6287
  270TMC3    C5 4135   2.318   4.260  15.509 -0.3604 -0.7559  0.3168
  270TMC3    C6 4136   2.188   4.219  15.475 -0.2778  0.1988  0.2190
  270TMC3     C 4137   2.288   4.606  15.410 -0.3966  0.1417  0.4906
  270TMC3     O 4138   2.202   4.685  15.381  0.5293 -0.6653  0.3328
  270TMC3     H 4139   2.037   4.503  15.406 -0.4628 -0.8312  2.1181
  270TMC3    H1 4140   2.444   4.433  15.536 -0.1684  0.1679 -0.4321
  270TMC3    H2 4141   2.165   4.116  15.497 -0.2036 -0.2240 -1.6962
  270TMC3    C7 4142   2.421   4.157  15.500 -0.4497  0.5669  0.3552
  270TMC3    C8 4143   1.995   4.242  15.356  0.9383 -0.0866  0.6742
  270TMC3    O1 4144   2.520   4.156  15.571  0.1475  0.3846 -0.0370
  270TMC3    O2 4145   2.038   4.134  15.314  0.1712 -0.4379 -0.2903
  271MPD2     C 4146   1.211   4.122  13.703  0.1493 -0.2150  0.2728
  271MPD2    C1 4147   1.241   4.226  13.790 -0.2772  0.0830 -0.2261
  271MPD2    C2 4148   1.187   4.350  13.778  0.2659  0.2713  0.1348
  271MPD2    C3 4149   1.077   4.367  13.692  0.2753 -0.0342  0.3460
  271MPD2    C4 4150   1.041   4.264  13.611  0.1204 -0.2501 -0.2224
  271MPD2    C5 4151   1.109   4.144  13.613  0.1098 -0.1132 -0.1453
  271MPD2     H 4152   1.226   4.440  13.824  1.8405 -0.8246  0.9251
  271MPD2    H1 4153   0.959   4.270  13.541  0.9830 -0.0656 -1.2220
  271MPD2    H2 4154   1.246   4.020  13.707  0.5617 -0.1950 -2.3787
  271MPD2    H3 4155   1.081   4.072  13.536 -1.7982 -0.2759  0.6940
  271MPD2     N 4156   0.994   4.487  13.686  0.2228  0.1717 -0.5270
  271MPD2    H5 4157   0.906   4.478  13.634  0.7455 -1.2408 -1.1758
  271MPD2    N1 4158   1.328   4.207  13.896  0.1045  0.0952  0.5342
  271MPD2    H7 4159   1.356   4.286  13.952  0.2744 -0.1349  0.7744
  272TMC3    C1 4160   1.429   4.089  14.062 -0.5681 -0.5665 -0.8655
  272TMC3    C2 4161   1.555   4.048  14.089  0.1633 -0.5696 -0.1472
  272TMC3    C3 4162   1.612   4.061  14.214  1.2599  0.5056  0.0448
  272TMC3    C4 4163   1.360   4.149  14.167 -0.3447  0.0218  0.7637
  272TMC3    C5 4164   1.418   4.174  14.285  0.0643  0.3675 -0.5651
  272TMC3    C6 4165   1.540   4.120  14.314  0.1305 -0.1443  0.7162
  272TMC3     C 4166   1.373   4.082  13.931 -0.2187  0.3820 -0.3574
  272TMC3     O 4167   1.379   3.971  13.882  0.0186 -0.1942  0.4009
  272TMC3     H 4168   1.621   4.006  14.013 -0.9356 -0.7462 -1.0072
  272TMC3    H1 4169   1.260   4.184  14.143 -0.3087 -0.7060 -0.4303
  272TMC3    H2 4170   1.585   4.140  14.410 -0.6606  0.3151  0.9902
  272TMC3    C7 4171   1.357   4.275  14.375 -0.3246 -0.4291  0.1364
  272TMC3    C8 4172   1.751   4.102  14.212 -0.1096  0.2786 -0.7159
  272TMC3    O1 4173   1.246   4.309  14.342  0.0035 -0.1403 -0.0973
  272TMC3    O2 4174   1.787   4.149  14.106 -0.0837  0.2857  0.0147
  273MPD2     C 4175   2.816   2.421  11.714 -0.2604  0.3658 -0.0326
  273MPD2    C1 4176   2.818   2.555  11.696 -0.5291 -0.0051  0.4571
  273MPD2    C2 4177   2.819   2.591  11.566  0.2598 -0.1255  0.6679
  273MPD2    C3 4178   2.822   2.516  11.453  0.6341  0.3099 -0.9401
  273MPD2    C4 4179   2.826   2.380  11.473  0.5857 -0.2051 -0.1913
  273MPD2    C5 4180   2.818   2.336  11.607 -0.9493  0.2138  1.0675
  273MPD2     H 4181   2.834   2.698  11.554  1.9608 -0.6660 -2.0931
  273MPD2    H1 4182   2.851   2.321  11.386  1.3365 -2.4137  1.5288
  273MPD2    H2 4183   2.831   2.378  11.813  0.6759  2.0573  0.5559
  273MPD2    H3 4184   2.809   2.230  11.625 -0.0400 -0.1931 -0.7758
  273MPD2     N 4185   2.849   2.569  11.327 -0.5173  0.0046 -0.3957
  273MPD2    H5 4186   2.852   2.670  11.325 -0.7666 -0.0071 -1.2019
  273MPD2    N1 4187   2.854   2.652  11.792  0.8577  0.4971  0.3276
  273MPD2    H7 4188   2.872   2.750  11.770  1.6423  0.6946  1.8643
  274TMC3    C1 4189   2.849   2.596  11.100 -0.1434  0.5899 -0.5169
  274TMC3    C2 4190   2.767   2.585  10.993 -0.6095  0.1415  0.5407
  274TMC3    C3 4191   2.763   2.694  10.903  0.7842  0.4402 -0.1699
  274TMC3    C4 4192   2.924   2.707  11.124 -0.3226 -0.2699  0.0865
  274TMC3    C5 4193   2.913   2.816  11.040 -0.2549 -0.0632 -0.0341
  274TMC3    C6 4194   2.842   2.807  10.922  0.1354 -0.2130 -0.9671
  274TMC3     C 4195   2.822   2.509  11.211 -0.0088  0.0700  0.0834
  274TMC3     O 4196   2.777   2.397  11.197  0.6767  0.2468 -0.6458
  274TMC3     H 4197   2.701   2.500  10.984 -3.5074  2.4625  0.0366
  274TMC3    H1 4198   3.003   2.696  11.198  1.9166 -1.5245 -2.4880
  274TMC3    H2 4199   2.814   2.898  10.870  0.1748  0.3461 -0.0230
  274TMC3    C7 4200   2.965   2.939  11.087  0.1184  0.1097 -0.6830
  274TMC3    C8 4201   2.642   2.707  10.822 -0.0348  0.0260 -0.3907
  274TMC3    O1 4202   2.977   3.029  11.009  1.0906  0.0061 -0.3358
  274TMC3    O2 4203   2.547   2.633  10.842 -0.3802 -0.1652 -0.3852
  275MPD2     C 4204   2.811   0.659  14.548 -0.1291  0.5913  0.2580
  275MPD2    C1 4205   2.729   0.761  14.503  0.1039  0.7652  0.0566
  275MPD2    C2 4206   2.598   0.727  14.460  0.2821  0.3462  0.7757
  275MPD2    C3 4207   2.547   0.598  14.490  0.8753  0.0238 -0.2613
  275MPD2    C4 4208   2.637   0.496  14.522  0.1655 -0.6829 -0.0937
  275MPD2    C5 4209   2.765   0.526  14.548  0.5981 -0.9773  0.0090
  275MPD2     H 4210   2.533   0.804  14.423 -0.6368  0.8570  3.4539
  275MPD2    H1 4211   2.599   0.395  14.533  0.6149 -0.8017  0.3962
  275MPD2    H2 4212   2.916   0.676  14.573 -0.1298 -0.5735  1.0563
  275MPD2    H3 4213   2.836   0.446  14.569  0.7047 -1.1226 -0.9310
  275MPD2     N 4214   2.416   0.556  14.462 -0.4108 -0.2097  0.2104
  275MPD2    H5 4215   2.396   0.460  14.490 -2.7753  0.2438  0.1200
  275MPD2    N1 4216   2.765   0.898  14.497 -0.2595  0.3630 -0.1010
  275MPD2    H7 4217   2.693   0.962  14.467  0.5830  1.5786  0.4319
  276TMC3    C1 4218   2.847   1.084  14.620  0.4424  0.3858  0.7762
  276TMC3    C2 4219   2.717   1.102  14.656 -0.1338 -0.3654 -0.2835
  276TMC3    C3 4220   2.694   1.131  14.789 -0.1829 -0.1238  0.4747
  276TMC3    C4 4221   2.955   1.126  14.689  0.0617  0.0055  0.4394
  276TMC3    C5 4222   2.935   1.154  14.819 -0.2824 -0.1124 -0.0922
  276TMC3    C6 4223   2.801   1.146  14.867 -0.3568 -0.2194 -0.9775
  276TMC3     C 4224   2.879   0.948  14.562  0.5529  1.3524 -0.2570
  276TMC3     O 4225   2.987   0.896  14.582  0.2427 -0.1796  0.3807
  276TMC3     H 4226   2.628   1.078  14.599 -1.4315  0.6890  1.2899
  276TMC3    H1 4227   3.051   1.119  14.638 -0.7161 -0.6812 -0.9537
  276TMC3    H2 4228   2.798   1.138  14.975 -0.3745  1.0784 -0.8887
  276TMC3    C7 4229   3.043   1.163  14.909  0.0835  0.3133 -0.4964
  276TMC3    C8 4230   2.590   1.040  14.834 -0.4064  0.0230 -0.8040
  276TMC3    O1 4231   3.034   1.235  15.006  0.3554 -0.4280 -0.3967
  276TMC3    O2 4232   2.480   1.079  14.811 -0.1974  0.4747  0.6101
  277MPD2     C 4233   4.493   0.066  12.900 -0.0264  0.8266  0.7552
  277MPD2    C1 4234   4.377   0.065  12.978 -0.2248  0.3541  0.6467
  277MPD2    C2 4235   4.354   4.702  13.064  0.2766 -0.4610  0.1383
  277MPD2    C3 4236   4.441   4.597  13.074 -0.2545  0.8784 -0.0235
  277MPD2    C4 4237   4.556   4.596  12.996 -0.0327  0.0529  0.6245
  277MPD2    C5 4238   4.577   4.699  12.905  0.0986 -0.1563  0.0525
  277MPD2     H 4239   4.261   4.687  13.117 -1.1829 -2.1811 -2.8651
  277MPD2    H1 4240   4.627   4.515  12.998 -0.4613 -0.3532 -1.0158
  277MPD2    H2 4241   4.510   0.150  12.834  0.5809 -0.8993 -1.2626
  277MPD2    H3 4242   4.668   4.697  12.846  1.7011  1.1075  2.4547
  277MPD2     N 4243   4.430   4.502  13.176  0.5639 -0.4355  0.1063
  277MPD2    H5 4244   4.341   4.507  13.224  0.7949 -0.7035  0.5626
  277MPD2    N1 4245   4.283   0.169  12.956 -0.2457  0.4197  1.2081
  277MPD2    H7 4246   4.312   0.245  12.895  1.1043 -0.7795  0.3605
  278TMC3    C1 4247   4.475   4.315  13.322 -0.6399 -0.0097  0.3889
  278TMC3    C2 4248   4.515   4.187  13.320 -0.5644  0.3249 -0.2420
  278TMC3    C3 4249   4.455   4.103  13.416  0.3823 -0.1533 -0.2031
  278TMC3    C4 4250   4.398   4.368  13.423  0.1202  0.2389 -0.3980
  278TMC3    C5 4251   4.358   4.286  13.523 -0.4374  0.1940  0.5824
  278TMC3    C6 4252   4.382   4.152  13.521  0.3383  0.7893  0.4625
  278TMC3     C 4253   4.521   4.411  13.222 -0.5433 -0.3407 -0.0367
  278TMC3     O 4254   4.631   4.381  13.171  0.1003  0.4962  0.3077
  278TMC3     H 4255   4.587   4.151  13.247 -2.1784 -0.4134 -1.4816
  278TMC3    H1 4256   4.385   4.476  13.428  3.8991  0.6190  1.4198
  278TMC3    H2 4257   4.350   4.093  13.606  0.5290  0.1225  0.0716
  278TMC3    C7 4258   4.267   4.342  13.619 -0.0897  1.1286 -0.4106
  278TMC3    C8 4259   4.492   3.960  13.411  0.1038  0.0821  0.1175
  278TMC3    O1 4260   4.305   4.441  13.682  0.0278 -0.1513 -0.4576
  278TMC3    O2 4261   4.587   3.934  13.343  0.7110 -0.0040 -0.2282
  279MPD2     C 4262   4.032   4.328   0.314  0.2617  0.5656  0.2773
  279MPD2    C1 4263   3.983   4.448   0.273  0.7261 -1.1780 -0.2428
  279MPD2    C2 4264   3.955   4.478   0.140  0.2667 -0.1178  0.1432
  279MPD2    C3 4265   3.967   4.375   0.041  0.3363 -0.0044  0.2107
  279MPD2    C4 4266   4.002   4.249   0.088  0.5477 -0.2304  0.1124
  279MPD2    C5 4267   4.031   4.231   0.219  0.6498  1.0669  0.2252
  279MPD2     H 4268   3.926   4.578   0.109  0.8920 -0.6934 -2.3003
  279MPD2    H1 4269   4.000   4.168   0.016 -0.4738  1.2105 -1.4952
  279MPD2    H2 4270   4.068   4.320   0.416 -0.2909 -0.2585  0.4092
  279MPD2    H3 4271   4.060   4.131   0.247 -1.2265  0.4691  0.0618
  279MPD2     N 4272   3.939   4.391  17.673  0.7034 -0.6965  0.2466
  279MPD2    H5 4273   3.959   4.312  17.612  1.6708 -0.4059  0.1704
  279MPD2    N1 4274   3.964   4.539   0.381 -0.3937 -0.5689 -0.2658
  279MPD2    H7 4275   4.001   4.516   0.473 -1.8716 -0.5708  0.3135
  280TMC3    C1 4276   3.770   4.655   0.285 -0.5665 -0.4002  0.7903
  280TMC3    C2 4277   3.708   4.536   0.268 -0.6095 -0.0790  0.2667
  280TMC3    C3 4278   3.585   4.540   0.204 -0.5505  0.1848  0.5915
  280TMC3    C4 4279   3.721   0.029   0.244  0.5552  0.1360  0.4889
  280TMC3    C5 4280   3.595   0.025   0.186  0.3040  0.2775 -0.5653
  280TMC3    C6 4281   3.528   4.654   0.151 -0.1269  0.8107  0.3274
  280TMC3     C 4282   3.882   4.652   0.377 -0.7848  0.5803 -0.1820
  280TMC3     O 4283   3.873   4.735   0.466  0.6143  0.3097 -0.8196
  280TMC3     H 4284   3.729   4.454   0.336 -0.7722 -1.8236 -1.8007
  280TMC3    H1 4285   3.763   0.118   0.288  3.2443 -0.6582 -0.4476
  280TMC3    H2 4286   3.429   4.657   0.105  0.5382 -0.6874 -1.1674
  280TMC3    C7 4287   3.570   0.150   0.108  0.6432 -0.0392  0.4879
  280TMC3    C8 4288   3.505   4.420   0.192 -0.3342 -0.3577 -0.7930
  280TMC3    O1 4289   3.654   0.238   0.114  0.6671 -0.0680 -0.1222
  280TMC3    O2 4290   3.382   4.429   0.184  0.3459  0.3892 -0.6377
  281TMC3    C1 4291   2.855   0.067  13.719 -0.2562 -0.2716 -0.3724
  281TMC3    C2 4292   2.872   0.083  13.586 -0.8927  0.0398 -0.4865
  281TMC3    C3 4293   2.899   4.715  13.511 -0.1704 -0.8942 -0.7392
  281TMC3    C4 4294   2.890   4.692  13.775  0.1983  0.0392 -0.9140
  281TMC3    C5 4295   2.913   4.584  13.698  0.2339  0.7966  0.4913
  281TMC3    C6 4296   2.916   4.591  13.563 -0.3957  0.0058 -0.2848
  281TMC3     C 4297   2.721   0.088  13.762 -0.7192  0.4133  0.1140
  281TMC3     O 4298   2.680   0.017  13.853  0.0244 -0.3869  0.3501
  281TMC3     H 4299   2.875   0.183  13.545  0.1864  0.8351  1.5024
  281TMC3    H1 4300   2.882   4.676  13.882  0.7782  0.6138 -0.7824
  281TMC3    H2 4301   2.941   4.512  13.492  1.1501  1.1629 -1.0061
  281TMC3    C7 4302   2.945   4.465  13.767 -0.4141 -0.1682  0.5431
  281TMC3    C8 4303   2.826   4.718  13.391  0.6343  0.8491 -0.2724
  281TMC3    O1 4304   3.022   4.467  13.862  0.0213 -0.3633 -0.2801
  281TMC3    O2 4305   2.756   4.621  13.359 -0.0207  0.0923  0.6502
  282MPD2     C 4306   4.443   1.294  15.022  0.6304  0.3041  0.6831
  282MPD2    C1 4307   4.306   1.305  15.034 -0.0620 -0.7735  0.8930
  282MPD2    C2 4308   4.231   1.278  14.919  0.2252 -0.2000 -0.2842
  282MPD2    C3 4309   4.279   1.242  14.798 -0.1463  0.6247 -0.2514
  282MPD2    C4 4310   4.420   1.232  14.793 -0.0246  0.3990  0.3011
  282MPD2    C5 4311   4.489   1.254  14.903  0.2438 -0.1204  0.8702
  282MPD2     H 4312   4.124   1.273  14.936  0.4424 -1.6672  0.6711
  282MPD2    H1 4313   4.471   1.217  14.699 -0.0391  0.7641  0.2341
  282MPD2    H2 4314   4.521   1.318  15.093  2.2106 -0.9444 -0.6221
  282MPD2    H3 4315   4.596   1.247  14.895  0.0596 -0.3293 -1.4370
  282MPD2     N 4316   4.210   1.218  14.674 -0.4016  0.8902 -0.1828
  282MPD2    H5 4317   4.264   1.201  14.589  2.1262 -2.1636  2.0072
  282MPD2    N1 4318   4.235   1.331  15.158  0.1224 -0.9608 -0.3289
  282MPD2    H7 4319   4.134   1.324  15.166  0.2015 -0.9002  0.7293
  283TMC3    C1 4320   4.214   1.409  15.389  0.1607 -0.2631  0.2286
  283TMC3    C2 4321   4.265   1.499  15.474  0.5963 -0.7098  0.3062
  283TMC3    C3 4322   4.218   1.513  15.599  0.0533  0.1507  0.4079
  283TMC3    C4 4323   4.116   1.324  15.428 -0.0887 -0.3905 -0.1465
  283TMC3    C5 4324   4.073   1.333  15.559  1.0376  0.7529  0.0122
  283TMC3    C6 4325   4.118   1.431  15.637 -0.2202  0.4655  0.2593
  283TMC3     C 4326   4.300   1.374  15.273 -0.5292  0.2217 -0.0076
  283TMC3     O 4327   4.417   1.402  15.289  0.1822 -0.0917  0.5023
  283TMC3     H 4328   4.358   1.549  15.451  1.3675 -2.1581  0.2551
  283TMC3    H1 4329   4.076   1.252  15.358  0.6048  1.1729 -2.1192
  283TMC3    H2 4330   4.096   1.433  15.743 -1.2006  0.3367  0.0543
  283TMC3    C7 4331   3.969   1.245  15.619 -0.8613 -0.8216  0.1149
  283TMC3    C8 4332   4.272   1.604  15.694  0.4850 -0.3593 -0.7433
  283TMC3    O1 4333   3.916   1.287  15.719  0.1953 -0.0844  0.0069
  283TMC3    O2 4334   4.238   1.588  15.810  0.0273  0.4296 -0.5855
  284MPD2     C 4335   2.641   4.729  12.529 -0.1977 -0.0066 -0.6429
  284MPD2    C1 4336   2.531   0.016  12.448 -0.0540  0.6044 -0.3538
  284MPD2    C2 4337   2.432   4.667  12.442  0.2205 -0.7244  0.2421
  284MPD2    C3 4338   2.432   4.549  12.513  0.2922  0.6137  0.2078
  284MPD2    C4 4339   2.530   4.539  12.609  0.3796  0.2310 -0.3902
  284MPD2    C5 4340   2.634   4.618  12.613 -0.3389 -0.1392  0.3976
  284MPD2     H 4341   2.362   4.674  12.359 -0.6033  1.2181  1.1217
  284MPD2    H1 4342   2.539   4.442  12.656  0.1446  0.2564 -0.2901
  284MPD2    H2 4343   2.735   0.041  12.530 -0.2523  0.0675  0.7647
  284MPD2    H3 4344   2.722   4.594  12.672 -0.1275  0.0365  0.1548
  284MPD2     N 4345   2.338   4.445  12.492 -0.3442  0.2154  0.0084
  284MPD2    H5 4346   2.354   4.363  12.550  1.7671 -1.4031 -2.8946
  284MPD2    N1 4347   2.508   0.125  12.363 -0.0668 -0.0402 -0.1724
  284MPD2    H7 4348   2.421   0.118  12.310 -1.2320 -2.2581  2.0595
  285TMC3    C1 4349   2.569   0.297  12.217  0.3118 -0.1073 -0.3241
  285TMC3    C2 4350   2.472   0.251  12.124  0.5670  0.0031 -0.0093
  285TMC3    C3 4351   2.454   0.333  12.012  1.2115 -0.4372 -0.3491
  285TMC3    C4 4352   2.640   0.413  12.199  0.0800  0.4143 -0.1416
  285TMC3    C5 4353   2.611   0.487  12.090  0.1470  0.1347  0.1011
  285TMC3    C6 4354   2.529   0.442  11.992 -0.5563 -0.9434  0.2720
  285TMC3     C 4355   2.598   0.220  12.337 -0.7457 -0.1437  0.4711
  285TMC3     O 4356   2.698   0.256  12.404  0.1883  0.0157 -0.1727
  285TMC3     H 4357   2.414   0.161  12.138  2.7289 -1.4905 -0.6431
  285TMC3    H1 4358   2.715   0.451  12.267 -1.4244 -0.0001  1.7181
  285TMC3    H2 4359   2.523   0.491  11.896  2.2437  0.5204  0.8727
  285TMC3    C7 4360   2.687   0.610  12.065  0.5537 -0.4117  0.0509
  285TMC3    C8 4361   2.353   0.293  11.921 -0.1269  0.2593  0.4218
  285TMC3    O1 4362   2.796   0.617  12.124 -0.9802 -0.2195 -0.0746
  285TMC3    O2 4363   2.255   0.227  11.958  0.8363  0.1179 -0.1621
  286MPD2     C 4364   3.652   3.925   1.865  0.6077 -0.1150  0.1529
  286MPD2    C1 4365   3.560   3.920   1.765 -0.0616 -0.6731  0.6516
  286MPD2    C2 4366   3.592   3.865   1.644 -0.3162  0.6340 -0.4068
  286MPD2    C3 4367   3.722   3.811   1.625  1.2503  0.0034  0.2842
  286MPD2    C4 4368   3.816   3.818   1.728  0.4011  0.2165 -0.0041
  286MPD2    C5 4369   3.775   3.859   1.846 -0.1250  0.0618 -0.3328
  286MPD2     H 4370   3.514   3.866   1.568  0.0760 -0.9595 -0.8246
  286MPD2    H1 4371   3.918   3.782   1.719 -0.2862 -1.4794 -0.8998
  286MPD2    H2 4372   3.639   3.980   1.958  4.2124  0.1149  0.5226
  286MPD2    H3 4373   3.844   3.876   1.927  3.3428 -0.7602 -3.1356
  286MPD2     N 4374   3.777   3.782   1.494  0.6632  0.2250 -0.2365
  286MPD2    H5 4375   3.865   3.731   1.491  0.8244  0.5547 -1.2765
  286MPD2    N1 4376   3.437   3.983   1.778 -0.0772 -0.2408 -0.2128
  286MPD2    H7 4377   3.373   3.976   1.700 -1.1593  1.9001  0.4871
  287TMC3    C1 4378   3.776   3.775   1.250  0.3567 -0.3979  0.2372
  287TMC3    C2 4379   3.685   3.777   1.145 -0.8097 -0.1147  0.1389
  287TMC3    C3 4380   3.716   3.697   1.037  1.1298 -0.3610  0.1162
  287TMC3    C4 4381   3.884   3.698   1.251 -0.4008  0.7705 -0.2778
  287TMC3    C5 4382   3.917   3.631   1.136  0.7080  0.5706  1.0177
  287TMC3    C6 4383   3.829   3.631   1.029  0.2966 -0.0481  0.0715
  287TMC3     C 4384   3.722   3.821   1.372 -0.0786  0.9438 -0.4702
  287TMC3     O 4385   3.619   3.893   1.362  0.1032  0.6166 -0.3125
  287TMC3     H 4386   3.582   3.807   1.161 -0.9247 -0.0879 -0.6877
  287TMC3    H1 4387   3.956   3.708   1.332 -1.5888 -0.0355  0.8699
  287TMC3    H2 4388   3.848   3.581   0.935  0.5718 -0.6224  0.4355
  287TMC3    C7 4389   4.053   3.582   1.127 -0.0333  0.2606 -0.3377
  287TMC3    C8 4390   3.603   3.648   0.957  0.0450  0.0955  0.6328
  287TMC3    O1 4391   4.106   3.558   1.233 -0.7553 -0.2225  0.2894
  287TMC3    O2 4392   3.627   3.554   0.884  0.2526  0.6657 -0.3835
  288TMC3    C1 4393   0.459   3.960  14.354 -1.0049 -0.3433 -0.2933
  288TMC3    C2 4394   0.333   3.989  14.389  0.2306 -0.3786  0.4855
  288TMC3    C3 4395   0.262   4.078  14.320  0.1380 -0.3146  0.1415
  288TMC3    C4 4396   0.504   3.995  14.226 -0.3738  0.0210 -1.2669
  288TMC3    C5 4397   0.430   4.082  14.155  0.5421 -0.4472  0.2393
  288TMC3    C6 4398   0.304   4.129  14.197  0.0991  0.1975 -0.8684
  288TMC3     C 4399   0.553   3.884  14.429 -0.2831  0.0911 -0.5517
  288TMC3     O 4400   0.625   3.825  14.352 -0.2965 -0.2032 -0.3429
  288TMC3     H 4401   0.299   3.966  14.489  0.2200 -0.2473  0.5125
  288TMC3    H1 4402   0.601   3.967  14.188  0.1478  1.9492 -1.3643
  288TMC3    H2 4403   0.241   4.205  14.152  1.4701 -0.1518 -3.3324
  288TMC3    C7 4404   0.448   4.101  14.015  0.3611  0.5026  0.0972
  288TMC3    C8 4405   0.139   4.132  14.382  0.5589 -0.3958 -0.0700
  288TMC3    O1 4406   0.531   4.024  13.976 -0.4681 -0.1274 -0.3071
  288TMC3    O2 4407   0.100   4.243  14.345  0.4021 -0.2062 -0.7311
  289MPD2     C 4408   4.607   3.502  13.929  0.6726  0.3147 -0.7282
  289MPD2    C1 4409   4.574   3.409  13.830 -0.2801  0.6083 -0.1533
  289MPD2    C2 4410   4.479   3.312  13.863 -0.2488  0.2418 -0.3661
  289MPD2    C3 4411   4.409   3.322  13.983 -0.0831 -0.0669  0.9225
  289MPD2    C4 4412   4.446   3.412  14.077  0.9405  0.3931  0.0362
  289MPD2    C5 4413   4.547   3.503  14.052  0.1402  0.6528  0.6336
  289MPD2     H 4414   4.460   3.228  13.798 -0.5531 -0.7735  1.0215
  289MPD2    H1 4415   4.398   3.416  14.175  1.3519 -0.9237  0.2936
  289MPD2    H2 4416   4.695   3.564  13.916  1.5419 -0.1416  2.7677
  289MPD2    H3 4417   4.569   3.566  14.137 -0.4797 -2.0845  2.8111
  289MPD2     N 4418   4.297   3.244  14.011  0.4567  0.8095 -0.4480
  289MPD2    H5 4419   4.260   3.244  14.105 -1.9351 -0.3337 -1.3718
  289MPD2    N1 4420   4.647   3.398  13.709  0.2013 -0.3173  0.5194
  289MPD2    H7 4421   4.641   3.309  13.661  1.1666 -0.2750  0.3306
  290TMC3    C1 4422   4.109   3.116  14.013  0.2768 -0.1294  0.3233
  290TMC3    C2 4423   4.011   3.213  14.008 -0.2076 -0.3400  0.0600
  290TMC3    C3 4424   3.886   3.187  14.060  0.1136 -0.1261 -0.1754
  290TMC3    C4 4425   4.073   2.988  14.042 -0.0887 -0.0569 -0.4480
  290TMC3    C5 4426   3.944   2.969  14.097 -0.3415  0.1349 -0.1789
  290TMC3    C6 4427   3.845   3.065  14.108 -0.2411  0.0618 -0.5058
  290TMC3     C 4428   4.228   3.151  13.935  0.5926  0.5762 -0.3135
  290TMC3     O 4429   4.229   3.133  13.816 -0.4645 -0.4784 -0.1596
  290TMC3     H 4430   4.044   3.307  13.965 -1.3755 -0.7955 -1.8385
  290TMC3    H1 4431   4.146   2.908  14.045 -0.9240 -0.8404 -1.0328
  290TMC3    H2 4432   3.746   3.046  14.146 -0.0397  0.8274  0.3919
  290TMC3    C7 4433   3.939   2.887  14.215 -0.4135 -0.5882 -0.2233
  290TMC3    C8 4434   3.796   3.293  14.079  0.1665  0.3586 -0.4095
  290TMC3    O1 4435   3.866   2.929  14.304  0.2202  0.5908  0.0476
  290TMC3    O2 4436   3.678   3.278  14.114 -0.5902  0.7787  0.2913
  291MPD2     C 4437   4.058   2.800   0.705  0.1512  0.1230  0.0911
  291MPD2    C1 4438   4.066   2.687   0.630  0.8303  0.0248 -0.1274
  291MPD2    C2 4439   4.167   2.673   0.540 -0.0770 -0.6802  0.0525
  291MPD2    C3 4440   4.256   2.778   0.520 -0.7095 -0.0632 -0.7741
  291MPD2    C4 4441   4.241   2.896   0.592  0.3566 -0.4037 -0.2962
  291MPD2    C5 4442   4.139   2.906   0.683  0.3752 -0.0580 -0.2060
  291MPD2     H 4443   4.190   2.585   0.482 -1.4650 -1.2313  0.3213
  291MPD2    H1 4444   4.305   2.981   0.575 -0.2660 -0.0312 -0.7472
  291MPD2    H2 4445   3.984   2.810   0.784  2.6438  0.8084  2.3799
  291MPD2    H3 4446   4.111   2.998   0.732  1.2481  1.0733 -1.8315
  291MPD2     N 4447   4.371   2.765   0.439  0.1133  0.1454  0.1701
  291MPD2    H5 4448   4.432   2.846   0.448  0.9874 -0.8608  3.3609
  291MPD2    N1 4449   3.971   2.579   0.660  0.2988 -0.2262 -0.2049
  291MPD2    H7 4450   3.918   2.590   0.746  0.3152 -1.3377 -0.0533
  292TMC3    C1 4451   3.861   2.379   0.648 -0.4564 -0.2394  0.7671
  292TMC3    C2 4452   3.863   2.372   0.778  0.5390  0.7784 -0.3620
  292TMC3    C3 4453   3.789   2.276   0.841  0.0978 -0.4118 -0.7360
  292TMC3    C4 4454   3.806   2.282   0.571 -0.7496 -0.1754  0.4305
  292TMC3    C5 4455   3.734   2.186   0.638  0.4428 -0.2949  0.7657
  292TMC3    C6 4456   3.720   2.182   0.774 -0.0805 -0.1936 -0.2187
  292TMC3     C 4457   3.955   2.464   0.588  0.0128  0.6946  0.3071
  292TMC3     O 4458   3.996   2.434   0.476 -0.4420  0.0325  0.3863
  292TMC3     H 4459   3.907   2.447   0.843 -1.5792  1.6153  0.0789
  292TMC3    H1 4460   3.818   2.286   0.463 -0.9894 -1.3407  0.3672
  292TMC3    H2 4461   3.676   2.095   0.822  0.8739 -0.7197 -0.2899
  292TMC3    C7 4462   3.706   2.069   0.551 -0.0330  0.6570  0.3734
  292TMC3    C8 4463   3.759   2.308   0.982  0.2569 -0.4320 -0.8833
  292TMC3    O1 4464   3.719   2.078   0.430  0.3093  0.2227  0.2628
  292TMC3    O2 4465   3.844   2.354   1.056  0.5466 -0.1750 -0.2849
  293MPD2     C 4466   0.595   3.965  12.447  0.6836  0.8605 -0.1301
  293MPD2    C1 4467   0.510   4.029  12.539  0.7031  0.1818 -0.6094
  293MPD2    C2 4468   0.537   4.012  12.673  0.2898  0.1124  0.9921
  293MPD2    C3 4469   0.654   3.951  12.713 -0.0744  0.1933  0.4389
  293MPD2    C4 4470   0.728   3.882  12.619  0.2515 -0.6804 -0.7168
  293MPD2    C5 4471   0.701   3.896  12.486 -0.2465 -0.1363  0.6356
  293MPD2     H 4472   0.481   4.078  12.738 -0.0176 -1.0426  1.8971
  293MPD2    H1 4473   0.800   3.807  12.651  0.0752 -1.3162 -1.8376
  293MPD2    H2 4474   0.577   3.978  12.341 -1.2418 -1.5520 -0.1174
  293MPD2    H3 4475   0.770   3.850  12.416 -1.5583  0.4328 -1.0343
  293MPD2     N 4476   0.697   3.960  12.848 -0.0623 -0.3791 -0.0944
  293MPD2    H5 4477   0.640   4.006  12.919 -1.8394 -1.1933 -1.0136
  293MPD2    N1 4478   0.392   4.094  12.489  0.5322 -0.3743 -0.1539
  293MPD2    H7 4479   0.385   4.093  12.388  1.0126 -2.5834 -0.1646
  294TMC3    C1 4480   0.200   4.229  12.465 -0.0559 -0.3610  0.6706
  294TMC3    C2 4481   0.063   4.196  12.475  0.3992 -0.4786 -0.1358
  294TMC3    C3 4482   4.718   4.258  12.390 -0.4466 -0.3423  0.3028
  294TMC3    C4 4483   0.253   4.314  12.376 -0.3251  0.4025 -0.9133
  294TMC3    C5 4484   0.159   4.380  12.296  0.4012 -0.9677 -0.3368
  294TMC3    C6 4485   0.025   4.355  12.304 -0.2483  0.6958  0.4279
  294TMC3     C 4486   0.282   4.145  12.555 -0.2115  0.3557 -0.4425
  294TMC3     O 4487   0.245   4.127  12.670  0.3354 -0.2947 -0.7164
  294TMC3     H 4488   0.033   4.134  12.558 -1.3697 -0.7022 -0.9472
  294TMC3    H1 4489   0.359   4.335  12.367  0.1589 -2.3150 -1.4405
  294TMC3    H2 4490   4.716   4.400  12.220  1.9411  1.3459 -0.5686
  294TMC3    C7 4491   0.194   4.407  12.161 -0.1624  0.5058 -0.7044
  294TMC3    C8 4492   4.632   4.173  12.318 -0.3700 -0.2653 -0.1454
  294TMC3    O1 4493   0.150   4.500  12.100  0.2770  0.0382  0.0474
  294TMC3    O2 4494   4.562   4.234  12.240  0.2298  0.8318  0.1747
  295MPD2     C 4495   1.377   2.762   0.917  0.3233 -0.0108 -0.0059
  295MPD2    C1 4496   1.425   2.892   0.923 -0.5489 -0.4204  0.2083
  295MPD2    C2 4497   1.357   2.978   1.009 -0.0560 -0.3506 -0.1116
  295MPD2    C3 4498   1.261   2.937   1.099 -0.3359 -0.2607  0.1837
  295MPD2    C4 4499   1.240   2.810   1.095  0.7941  0.3481 -0.6644
  295MPD2    C5 4500   1.286   2.720   1.009  0.0815  0.0357  0.6086
  295MPD2     H 4501   1.389   3.082   1.006 -0.9527 -0.0998 -1.0910
  295MPD2    H1 4502   1.168   2.765   1.163  0.9488  1.3693  0.1675
  295MPD2    H2 4503   1.414   2.679   0.859 -1.0175  0.6138 -1.7723
  295MPD2    H3 4504   1.241   2.622   1.001  0.0435 -0.1377  2.9557
  295MPD2     N 4505   1.211   3.007   1.209  0.4475 -0.3623  1.1091
  295MPD2    H5 4506   1.155   2.955   1.275 -0.9838  0.3160  0.4249
  295MPD2    N1 4507   1.528   2.933   0.833  0.0158 -0.3474 -0.4361
  295MPD2    H7 4508   1.551   3.030   0.818 -2.6102  0.2379 -0.6609
  296TMC3    C1 4509   1.168   3.175   1.375 -0.0864 -0.4235  0.7349
  296TMC3    C2 4510   1.127   3.303   1.384  0.2817 -0.0060 -0.1601
  296TMC3    C3 4511   1.031   3.328   1.479  0.2300 -0.2393  0.2263
  296TMC3    C4 4512   1.126   3.073   1.462 -0.1522  0.3579 -0.4153
  296TMC3    C5 4513   1.021   3.106   1.546 -0.7113  0.1575  0.3259
  296TMC3    C6 4514   0.969   3.230   1.545  0.2042 -0.1688 -0.0055
  296TMC3     C 4515   1.234   3.143   1.243  0.5387  0.4595  0.0647
  296TMC3     O 4516   1.297   3.224   1.176  0.4415 -0.2795 -0.1004
  296TMC3     H 4517   1.147   3.356   1.292 -1.3676 -1.8981 -1.6267
  296TMC3    H1 4518   1.183   2.982   1.471 -2.2618 -0.7823  1.5202
  296TMC3    H2 4519   0.906   3.264   1.626 -0.6362  2.7564 -1.8779
  296TMC3    C7 4520   0.960   3.009   1.634 -0.2903  0.3146  0.6586
  296TMC3    C8 4521   0.957   3.452   1.470  0.7612  1.0370  0.3720
  296TMC3    O1 4522   0.870   3.043   1.710  0.1259 -0.0972  0.2986
  296TMC3    O2 4523   0.837   3.450   1.496  0.1211  0.2680  0.1488
  297MPD2     C 4524   3.363   0.145  16.148  0.4680  0.0004  0.1437
  297MPD2    C1 4525   3.397   0.211  16.028  0.1703  0.4559 -0.1519
  297MPD2    C2 4526   3.529   0.262  16.015 -0.0056 -0.3206 -0.3320
  297MPD2    C3 4527   3.621   0.246  16.119 -0.4869 -0.1436  0.1198
  297MPD2    C4 4528   3.582   0.179  16.234 -0.6109  0.2817  0.3914
  297MPD2    C5 4529   3.454   0.140  16.250  0.1530  0.1237  0.0779
  297MPD2     H 4530   3.552   0.324  15.929  1.2375 -1.0957 -0.5660
  297MPD2    H1 4531   3.646   0.168  16.321 -0.3715  2.8886  0.5444
  297MPD2    H2 4532   3.263   0.108  16.168  1.1482 -2.2029 -0.4603
  297MPD2    H3 4533   3.426   0.104  16.349  2.2675  1.1598  1.0599
  297MPD2     N 4534   3.751   0.294  16.122 -0.2022 -0.4510  0.9791
  297MPD2    H5 4535   3.793   0.294  16.214  0.4943  0.3239  0.6561
  297MPD2    N1 4536   3.301   0.228  15.931 -0.0084  0.1566 -0.2053
  297MPD2    H7 4537   3.323   0.296  15.859  0.4012 -0.5192 -0.7127
  298TMC3    C1 4538   3.105   0.210  15.806  0.2509  0.2590  0.1022
  298TMC3    C2 4539   3.157   0.268  15.690  0.2277  0.6559 -0.8666
  298TMC3    C3 4540   3.064   0.324  15.611  0.9755 -0.4590  0.6121
  298TMC3    C4 4541   2.972   0.193  15.823 -0.2418  0.0601  0.1066
  298TMC3    C5 4542   2.883   0.258  15.746  0.2528 -0.4485 -0.6791
  298TMC3    C6 4543   2.928   0.316  15.632  0.0616 -0.0129  0.4048
  298TMC3     C 4544   3.192   0.149  15.906 -0.1153 -0.2851  0.9217
  298TMC3     O 4545   3.149   0.045  15.954 -0.5115 -0.2143  0.2617
  298TMC3     H 4546   3.264   0.270  15.670  0.4165  0.2514  0.1019
  298TMC3    H1 4547   2.934   0.155  15.917 -0.1560 -0.3758 -0.0362
  298TMC3    H2 4548   2.863   0.372  15.566 -0.5737 -0.7602  0.3924
  298TMC3    C7 4549   2.762   0.311  15.816 -0.9086 -0.4681 -0.6150
  298TMC3    C8 4550   3.104   0.383  15.485 -0.1996 -0.1412  0.0109
  298TMC3    O1 4551   2.741   0.279  15.929 -0.1665  0.4162  0.5126
  298TMC3    O2 4552   3.014   0.406  15.404 -0.0028 -0.3741  0.1117
  299MPD2     C 4553   3.344   4.303  10.984  0.1172  0.3084 -0.8496
  299MPD2    C1 4554   3.316   4.430  10.936  0.5875 -0.3009 -0.3268
  299MPD2    C2 4555   3.223   4.445  10.834 -0.2061 -0.0254 -0.1977
  299MPD2    C3 4556   3.148   4.336  10.802  0.9373  0.3003 -0.5417
  299MPD2    C4 4557   3.162   4.213  10.860 -0.3319 -1.0530  0.4642
  299MPD2    C5 4558   3.261   4.197  10.948  0.2360 -0.6236  0.0518
  299MPD2     H 4559   3.202   4.540  10.788 -1.3240  0.6385  1.7116
  299MPD2    H1 4560   3.093   4.136  10.830 -0.2075 -0.6876 -0.7414
  299MPD2    H2 4561   3.428   4.289  11.052 -2.5712 -0.3780  2.3132
  299MPD2    H3 4562   3.271   4.100  10.996 -0.8127 -1.5807 -1.6556
  299MPD2     N 4563   3.039   4.336  10.715  0.1947  0.0107 -0.2041
  299MPD2    H5 4564   2.992   4.248  10.696  0.6878 -0.3873  0.4367
  299MPD2    N1 4565   3.375   4.536  10.997  0.2722  0.7008  0.0475
  299MPD2    H7 4566   3.415   4.517  11.089  2.4970 -0.9446 -1.2461
  300TMC3    C1 4567   2.848   4.421  10.606  0.5456 -0.4577  0.0178
  300TMC3    C2 4568   2.780   4.530  10.556  0.3655 -0.2979 -0.7073
  300TMC3    C3 4569   2.643   4.523  10.555  0.2349  0.3233  1.0538
  300TMC3    C4 4570   2.783   4.317  10.678 -0.2830 -0.3005  0.1003
  300TMC3    C5 4571   2.649   4.325  10.677 -0.6388  0.4293  0.2968
  300TMC3    C6 4572   2.579   4.421  10.612 -0.4088  0.5643 -0.4528
  300TMC3     C 4573   2.988   4.444  10.640  0.2352 -0.4967  0.3364
  300TMC3     O 4574   3.033   4.558  10.632  0.6519 -0.0592 -1.0512
  300TMC3     H 4575   2.837   4.614  10.519 -1.6953  1.5395  0.2696
  300TMC3    H1 4576   2.824   4.246  10.750 -0.6738 -0.5296  0.0954
  300TMC3    H2 4577   2.473   4.405  10.593 -0.7362  1.4294  0.6398
  300TMC3    C7 4578   2.578   4.231  10.758  0.9172 -0.8139 -0.4961
  300TMC3    C8 4579   2.572   4.640  10.498  0.2516 -0.4666 -0.0205
  300TMC3    O1 4580   2.622   4.118  10.774  0.8072 -0.0672  0.0335
  300TMC3    O2 4581   2.643   4.716  10.434 -0.1844  0.0224 -0.0636
  301MPD2     C 4582   1.673   1.328   1.204  0.2245 -0.2499 -0.2011
  301MPD2    C1 4583   1.572   1.316   1.112  0.3398  0.1271 -0.1137
  301MPD2    C2 4584   1.553   1.189   1.052 -0.6130 -0.4055 -0.4889
  301MPD2    C3 4585   1.632   1.078   1.095 -0.3805 -0.2679  0.1720
  301MPD2    C4 4586   1.731   1.091   1.192  0.3705 -0.7565  0.6305
  301MPD2    C5 4587   1.749   1.220   1.247 -0.1383 -0.2229 -0.6244
  301MPD2     H 4588   1.472   1.178   0.980 -2.4325 -1.0939  1.6613
  301MPD2    H1 4589   1.786   1.002   1.222  0.7759  0.3062  3.0276
  301MPD2    H2 4590   1.703   1.421   1.250  0.0296  0.7548 -2.1255
  301MPD2    H3 4591   1.830   1.246   1.313 -0.4393  1.9245 -1.1094
  301MPD2     N 4592   1.608   0.951   1.040 -0.1233 -0.1554 -0.4778
  301MPD2    H5 4593   1.651   0.872   1.088  0.8422  1.7026  1.6968
  301MPD2    N1 4594   1.482   1.409   1.062 -0.1985 -0.5021 -0.2310
  301MPD2    H7 4595   1.407   1.368   1.007 -1.0337  0.4166  0.2368
  302TMC3    C1 4596   1.516   0.782   0.895  0.0358  0.6292  0.0393
  302TMC3    C2 4597   1.531   0.679   0.985 -0.1700  0.6166  0.2272
  302TMC3    C3 4598   1.475   0.553   0.947  0.1023 -0.2570 -0.7743
  302TMC3    C4 4599   1.446   0.766   0.779 -0.3344 -0.1791 -0.1258
  302TMC3    C5 4600   1.390   0.646   0.751  0.2545 -0.2196  0.2804
  302TMC3    C6 4601   1.417   0.531   0.820  0.0728  0.0845  0.3340
  302TMC3     C 4602   1.518   0.923   0.939  0.5932 -0.0126  0.1879
  302TMC3     O 4603   1.474   0.994   0.855  0.4759 -0.0826 -0.3854
  302TMC3     H 4604   1.562   0.707   1.084  1.2585 -0.3363  0.0651
  302TMC3    H1 4605   1.429   0.848   0.709 -0.3596  0.0369  0.1320
  302TMC3    H2 4606   1.378   0.434   0.791  0.6332 -0.1025  0.2145
  302TMC3    C7 4607   1.328   0.627   0.624  0.1086  0.1819  0.2746
  302TMC3    C8 4608   1.532   0.436   1.009  0.6040  0.0602  0.3579
  302TMC3    O1 4609   1.340   0.519   0.566 -0.4164  0.0095  0.0320
  302TMC3    O2 4610   1.529   0.324   0.956  0.1657  0.6031  0.2985
  303MPD2     C 4611   1.082   4.182  10.578  0.1665 -0.5462  0.0191
  303MPD2    C1 4612   0.966   4.236  10.620  0.0518  0.7707  0.0750
  303MPD2    C2 4613   0.873   4.277  10.521  0.2641 -0.5042  0.2791
  303MPD2    C3 4614   0.901   4.260  10.385 -1.4106  0.4085 -0.0971
  303MPD2    C4 4615   1.020   4.204  10.344 -0.1739  0.7652 -0.5478
  303MPD2    C5 4616   1.109   4.168  10.445  0.4480 -0.0379  0.2352
  303MPD2     H 4617   0.783   4.321  10.565  0.3779  0.6872 -0.6700
  303MPD2    H1 4618   1.053   4.178  10.244  1.6421  0.0943  0.2281
  303MPD2    H2 4619   1.162   4.155  10.646  1.0664  0.7256 -0.5356
  303MPD2    H3 4620   1.205   4.128  10.415 -0.9479 -1.9774 -1.6883
  303MPD2     N 4621   0.806   4.277  10.287 -0.4611  0.4506  0.4724
  303MPD2    H5 4622   0.828   4.250  10.192  2.2865  1.1157  0.9340
  303MPD2    N1 4623   0.941   4.234  10.764  0.3459  0.1593 -0.3030
  303MPD2    H7 4624   1.011   4.192  10.825  0.5521 -1.6724 -1.7987
  304TMC3    C1 4625   0.838   4.264  10.975 -0.2936 -0.4515  0.3639
  304TMC3    C2 4626   0.773   4.349  11.055 -0.3001 -0.2470 -0.0633
  304TMC3    C3 4627   0.727   4.303  11.177  0.2553 -0.8639  0.0640
  304TMC3    C4 4628   0.832   4.129  11.002  0.2251  0.3526 -0.1011
  304TMC3    C5 4629   0.773   4.085  11.112  1.0202 -0.4310 -0.1133
  304TMC3    C6 4630   0.738   4.174  11.209  0.0050 -0.1790 -0.7513
  304TMC3     C 4631   0.834   4.291  10.831  0.5263  0.0627 -0.5180
  304TMC3     O 4632   0.732   4.343  10.789 -0.1233 -0.2546  0.2822
  304TMC3     H 4633   0.742   4.449  11.029  0.0732 -0.8157 -2.7340
  304TMC3    H1 4634   0.881   4.055  10.940 -1.3996  0.4934 -1.5372
  304TMC3    H2 4635   0.684   4.151  11.300  1.7647 -0.7037  0.1547
  304TMC3    C7 4636   0.667   3.990  11.094 -0.1184 -0.0757  0.0445
  304TMC3    C8 4637   0.597   4.367  11.205  0.4341 -0.1632 -0.7596
  304TMC3    O1 4638   0.563   4.019  11.150 -0.1378 -0.0895 -0.1989
  304TMC3    O2 4639   0.598   4.490  11.203 -0.2472  0.3568  0.5864
  305MPD2     C 4640   4.723   1.587  13.819 -0.5752  0.4131 -0.3929
  305MPD2    C1 4641   4.629   1.488  13.845 -0.7026  0.4992 -0.1409
  305MPD2    C2 4642   4.579   1.422  13.743  0.0639 -0.3664 -0.7795
  305MPD2    C3 4643   4.612   1.447  13.609  0.2291  0.0700 -0.0005
  305MPD2    C4 4644   4.701   1.546  13.583 -0.6343 -0.8640 -0.6699
  305MPD2    C5 4645   0.022   1.608  13.690 -0.6495  0.4934  0.5145
  305MPD2     H 4646   4.519   1.336  13.770 -2.0374  0.3315 -3.2745
  305MPD2    H1 4647   4.730   1.584  13.485  0.4727  1.8185  0.6934
  305MPD2    H2 4648   0.029   1.642  13.899  0.1398 -0.4107 -0.2502
  305MPD2    H3 4649   0.093   1.688  13.670  1.3347 -1.7542 -1.4120
  305MPD2     N 4650   4.556   1.381  13.497 -0.3733 -0.0142  0.0885
  305MPD2    H5 4651   4.586   1.418  13.407 -2.3782  1.7417  0.1383
  305MPD2    N1 4652   4.602   1.448  13.977  0.1888  0.1858  0.2668
  305MPD2    H7 4653   4.556   1.358  13.985  0.3675 -0.0725 -1.4982
  306TMC3    C1 4654   4.607   1.452  14.211  0.1944 -0.1302 -0.6297
  306TMC3    C2 4655   4.692   1.339  14.227  0.0343  0.0759 -0.1518
  306TMC3    C3 4656   0.001   1.325  14.350 -0.1620  0.3196  0.1349
  306TMC3    C4 4657   4.569   1.527  14.311 -0.7774  0.5910 -0.2399
  306TMC3    C5 4658   4.613   1.500  14.438  0.0215  0.2044 -0.1147
  306TMC3    C6 4659   4.699   1.397  14.461 -0.1604 -0.0629  0.3866
  306TMC3     C 4660   4.612   1.525  14.091  0.8992  0.1386 -0.2146
  306TMC3     O 4661   4.638   1.644  14.100 -0.0350 -0.1464  0.1297
  306TMC3     H 4662   4.740   1.287  14.145 -0.9331  0.5903 -1.0506
  306TMC3    H1 4663   4.502   1.611  14.294 -3.8014 -2.1531 -1.8584
  306TMC3    H2 4664   4.722   1.371  14.564 -1.1903  0.4786  0.7488
  306TMC3    C7 4665   4.526   1.559  14.544 -0.5359 -0.1416 -0.7276
  306TMC3    C8 4666   0.073   1.205  14.370  0.0513 -0.4579  0.1741
  306TMC3    O1 4667   4.414   1.587  14.510  0.4330 -0.2406  0.0143
  306TMC3    O2 4668   0.031   1.101  14.321 -0.6596 -0.7272  0.5865
  307MPD2     C 4669   2.651   0.037   0.695 -0.6414 -0.2116 -0.2426
  307MPD2    C1 4670   2.580   0.148   0.674 -0.0892 -0.0709  0.4991
  307MPD2    C2 4671   2.466   0.169   0.744  0.5121 -0.1256 -0.6537
  307MPD2    C3 4672   2.413   0.076   0.833 -1.0604 -0.1490  0.0357
  307MPD2    C4 4673   2.481   4.699   0.845  0.0160 -0.8340  0.0397
  307MPD2    C5 4674   2.606   4.687   0.787  0.2128 -0.0271 -0.4999
  307MPD2     H 4675   2.429   0.271   0.738  0.9905 -0.0763 -2.7608
  307MPD2    H1 4676   2.444   4.618   0.907  0.9926 -1.0572  0.3388
  307MPD2    H2 4677   2.737   0.005   0.638  1.4555 -1.8491  3.8505
  307MPD2    H3 4678   2.658   4.595   0.809 -0.5975 -0.6054 -1.0264
  307MPD2     N 4679   2.284   0.106   0.887 -0.3211  0.3336 -0.2359
  307MPD2    H5 4680   2.247   0.200   0.879  0.7382  1.0442  3.2534
  307MPD2    N1 4681   2.618   0.242   0.578 -0.3178 -0.6434 -0.3803
  307MPD2    H7 4682   2.548   0.314   0.568  1.2600  0.9368 -0.1646
  308TMC3    C1 4683   1.857   0.068   0.933 -0.2187 -0.2718  0.6210
  308TMC3    C2 4684   1.839   0.204   0.963 -0.8727  0.0655  0.1705
  308TMC3    C3 4685   1.953   0.257   1.024 -0.0937 -0.3123  0.1466
  308TMC3    C4 4686   1.973   4.739   0.947  0.7282 -0.7827  0.2740
  308TMC3    C5 4687   2.081   0.068   1.005  0.3389 -0.2075  0.2707
  308TMC3    C6 4688   2.075   0.196   1.040  0.1079 -0.3447  0.7805
  308TMC3     C 4689   1.749   4.739   0.875 -0.4302 -0.6056 -0.1659
  308TMC3     O 4690   1.745   4.618   0.898  0.5001  0.2901 -0.4733
  308TMC3     H 4691   1.747   0.261   0.963 -1.8020 -1.4242  2.1165
  308TMC3    H1 4692   1.978   4.636   0.912  0.9487  0.0263 -2.0621
  308TMC3    H2 4693   2.158   0.249   1.084 -0.5754  1.0098  0.4325
  308TMC3    C7 4694   2.205   0.013   0.955  0.0396 -0.4275 -0.0064
  308TMC3    C8 4695   1.959   0.403   1.049 -0.4875  0.7857  0.6279
  308TMC3    O1 4696   2.209   4.636   0.934 -0.2597  0.3248 -0.6353
  308TMC3    O2 4697   2.001   0.444   1.154 -0.0276  0.3928 -0.1641
  309MPD2     C 4698   1.462   0.070  17.246  0.2519 -0.1043  0.4788
  309MPD2    C1 4699   1.401   0.039  17.124  0.4622  0.6730  0.2191
  309MPD2    C2 4700   1.267   0.064  17.106 -0.0800  0.1994  0.5173
  309MPD2    C3 4701   1.186   0.108  17.221  0.7484 -0.4148  0.4216
  309MPD2    C4 4702   1.252   0.121  17.341  0.6496  0.3749  0.5491
  309MPD2    C5 4703   1.385   0.110  17.356  0.3317  0.5937  0.3246
  309MPD2     H 4704   1.211   0.055  17.014  1.2364 -2.1217 -0.0617
  309MPD2    H1 4705   1.195   0.151  17.429  0.9440  0.5845  0.6707
  309MPD2    H2 4706   1.568   0.076  17.264  0.2170 -0.7275  0.9042
  309MPD2    H3 4707   1.429   0.139  17.451  0.0382 -2.1914  1.2956
  309MPD2     N 4708   1.052   0.152  17.212 -0.4672  0.4058  1.0906
  309MPD2    H5 4709   1.014   0.191  17.298 -0.1802 -0.3019  1.5327
  309MPD2    N1 4710   1.472   0.002  17.014 -0.1140  0.0157  0.2611
  309MPD2    H7 4711   1.417   4.722  16.932  1.1124 -1.2515 -0.2083
  310TMC3    C1 4712   1.657   4.680  16.877 -0.8603  0.6419  0.0913
  310TMC3    C2 4713   1.605   4.740  16.770 -0.0483  0.5722  0.2709
  310TMC3    C3 4714   1.660   4.698  16.646  0.2014  0.1240 -0.2325
  310TMC3    C4 4715   1.766   4.611  16.874 -0.2930 -0.1167 -0.3478
  310TMC3    C5 4716   1.823   4.581  16.754  0.9573 -0.0752 -0.0032
  310TMC3    C6 4717   1.771   4.625  16.635  0.7807 -0.4176 -0.4442
  310TMC3     C 4718   1.608   4.715  17.011 -0.0638  0.0846  0.3710
  310TMC3     O 4719   1.683   4.686  17.102  0.1464  0.3621  0.1805
  310TMC3     H 4720   1.517   0.058  16.787 -0.0070  1.1592 -1.5817
  310TMC3    H1 4721   1.818   4.579  16.963 -1.3132  1.2486  0.7464
  310TMC3    H2 4722   1.791   4.572  16.543  0.1171 -2.0889  0.3535
  310TMC3    C7 4723   1.934   4.495  16.762  0.0004 -0.2364 -0.6611
  310TMC3    C8 4724   1.580   4.721  16.531  0.3765  0.4160  0.2081
  310TMC3    O1 4725   1.948   4.428  16.865 -0.5300 -0.3909  0.3946
  310TMC3    O2 4726   1.459   4.734  16.544 -0.3230  0.4366 -0.2914
  311MPD2     C 4727   3.317   1.434  12.352 -0.0369  0.3157  0.4388
  311MPD2    C1 4728   3.382   1.405  12.474 -0.0164  0.6688  0.3767
  311MPD2    C2 4729   3.305   1.344  12.576  0.5939  0.0433 -0.2510
  311MPD2    C3 4730   3.173   1.318  12.563 -0.1696 -0.2341  0.1975
  311MPD2    C4 4731   3.111   1.366  12.445 -0.9256  0.6146  0.5882
  311MPD2    C5 4732   3.183   1.414  12.343  0.5282 -0.1904  0.1147
  311MPD2     H 4733   3.358   1.320  12.668  0.7451  2.3267  0.2429
  311MPD2    H1 4734   3.004   1.363  12.428 -0.8341  3.6725 -0.5491
  311MPD2    H2 4735   3.368   1.486  12.272 -0.9379  2.2761  1.1385
  311MPD2    H3 4736   3.122   1.435  12.255 -1.3776 -1.3651  1.1504
  311MPD2     N 4737   3.094   1.250  12.654 -0.2579 -0.2904  0.6764
  311MPD2    H5 4738   3.130   1.238  12.748 -2.2698 -0.3105  1.4369
  311MPD2    N1 4739   3.522   1.430  12.487  0.8747 -0.3897  0.3856
  311MPD2    H7 4740   3.558   1.435  12.581 -1.0949  0.6763  1.0897
  312TMC3    C1 4741   2.893   1.136  12.730  0.2572  0.2961  0.1563
  312TMC3    C2 4742   2.797   1.042  12.692  0.2647  0.0754  0.3047
  312TMC3    C3 4743   2.725   0.987  12.792  0.0996 -0.2637 -0.0694
  312TMC3    C4 4744   2.923   1.164  12.858 -0.2208  0.6511 -0.3144
  312TMC3    C5 4745   2.845   1.106  12.954 -0.6414 -0.9796  0.5747
  312TMC3    C6 4746   2.751   1.018  12.922  0.1812 -0.0743 -0.4290
  312TMC3     C 4747   2.972   1.190  12.621  0.7801 -0.1649 -0.3536
  312TMC3     O 4748   2.914   1.182  12.516 -0.3041 -0.5587  0.1477
  312TMC3     H 4749   2.785   1.013  12.588 -0.8964  0.1443  0.4135
  312TMC3    H1 4750   2.993   1.243  12.881  1.2543 -0.9989  0.8438
  312TMC3    H2 4751   2.682   0.978  12.996 -0.5010  0.9407 -0.5162
  312TMC3    C7 4752   2.866   1.115  13.098 -0.0549  0.1521  0.0465
  312TMC3    C8 4753   2.608   0.909  12.765  0.2631  0.3103  0.1134
  312TMC3    O1 4754   2.805   1.046  13.176  0.1548 -0.0593  0.4488
  312TMC3    O2 4755   2.570   0.835  12.854 -0.0368 -0.3679  0.1003
  313MPD2     C 4756   1.771   4.668  11.283 -0.5047  0.1129 -0.4228
  313MPD2    C1 4757   1.811   4.697  11.157  0.0194  0.5807 -0.7784
  313MPD2    C2 4758   1.811   4.597  11.063 -0.5919  0.0465 -0.6791
  313MPD2    C3 4759   1.788   4.463  11.100 -0.0065 -0.4159 -0.5510
  313MPD2    C4 4760   1.744   4.434  11.226  0.5562  0.2817 -0.1789
  313MPD2    C5 4761   1.740   4.537  11.315 -0.5452 -0.4773 -0.4074
  313MPD2     H 4762   1.853   4.622  10.966 -2.0168  0.0994 -1.2727
  313MPD2    H1 4763   1.704   4.337  11.254 -0.4955  1.1323  1.2766
  313MPD2    H2 4764   1.753   4.735  11.366  1.5160  1.0458 -0.7439
  313MPD2    H3 4765   1.711   4.524  11.419  0.4842  2.4328  0.2429
  313MPD2     N 4766   1.790   4.361  10.999  0.3752 -0.4942  0.0892
  313MPD2    H5 4767   1.790   4.400  10.906 -2.2249 -2.0626 -0.5739
  313MPD2    N1 4768   1.847   0.082  11.119 -0.0278 -1.0368  0.6782
  313MPD2    H7 4769   1.854   0.103  11.020  0.1338  0.9273  1.1140
  314TMC3    C1 4770   1.890   0.314  11.141 -0.2055  0.3677  0.0779
  314TMC3    C2 4771   1.966   0.420  11.191 -0.5532 -0.0480 -1.1759
  314TMC3    C3 4772   1.968   0.552  11.138 -0.1947 -0.1713  0.3493
  314TMC3    C4 4773   1.824   0.334  11.023 -0.3888 -0.3506  0.1468
  314TMC3    C5 4774   1.827   0.457  10.968 -0.9236  0.3102 -0.1081
  314TMC3    C6 4775   1.906   0.559  11.012  0.1635  0.3105  0.3627
  314TMC3     C 4776   1.883   0.182  11.206  0.3130  0.0728 -0.1947
  314TMC3     O 4777   1.928   0.170  11.318 -0.1904  0.0385  0.4636
  314TMC3     H 4778   2.012   0.401  11.287 -1.9057  1.3062 -0.2604
  314TMC3    H1 4779   1.760   0.261  10.973  1.3168 -1.5377 -0.2898
  314TMC3    H2 4780   1.916   0.657  10.967  1.0375 -0.3067 -0.7751
  314TMC3    C7 4781   1.696   0.496  10.921  0.2250 -0.6437  0.4122
  314TMC3    C8 4782   2.078   0.641  11.160 -0.5277  0.4273  0.4311
  314TMC3    O1 4783   1.600   0.447  10.980 -0.2019  0.3876 -0.7874
  314TMC3    O2 4784   2.108   0.715  11.070 -0.1308 -0.3938 -0.1666
  315MPD2     C 4785   2.485   4.698   0.098  0.8343 -0.0941 -0.3529
  315MPD2    C1 4786   2.625   4.678   0.077 -0.1356  1.1029 -0.5231
  315MPD2    C2 4787   2.681   4.722  17.731  0.3833  0.3664 -0.5202
  315MPD2    C3 4788   2.611   0.050  17.630  0.2249 -0.5737  0.7444
  315MPD2    C4 4789   2.474   0.071  17.649 -0.0216  0.6999 -0.7299
  315MPD2    C5 4790   2.416   0.029   0.006  0.7822 -0.3595 -0.3160
  315MPD2     H 4791   2.787   4.706  17.714  0.6966 -0.5902  2.3777
  315MPD2    H1 4792   2.409   0.130  17.586 -1.0103 -0.1292 -0.4954
  315MPD2    H2 4793   2.439   4.696   0.196 -0.7652 -0.7581 -1.1167
  315MPD2    H3 4794   2.311   0.037   0.029  1.0263 -0.3291  0.7817
  315MPD2     N 4795   2.687   0.100  17.526 -0.7693  0.0576 -0.6896
  315MPD2    H5 4796   2.787   0.091  17.536 -0.9704 -1.1699  0.2071
  315MPD2    N1 4797   2.718   4.633   0.175 -0.3745 -0.7739  0.2553
  315MPD2    H7 4798   2.816   4.638   0.148 -0.5696 -3.9622 -1.0548
  316TMC3    C1 4799   2.735   0.246  17.340  0.3192  0.5953 -0.1283
  316TMC3    C2 4800   2.856   0.271  17.397  0.1275  0.0237 -0.2007
  316TMC3    C3 4801   2.961   0.312  17.319 -0.8145  0.7592  0.2250
  316TMC3    C4 4802   2.712   0.272  17.206  0.0920  0.1323  0.1866
  316TMC3    C5 4803   2.824   0.312  17.127  0.8816 -0.7285  0.2548
  316TMC3    C6 4804   2.950   0.326  17.185 -0.1140 -0.7459 -0.2742
  316TMC3     C 4805   2.636   0.172  17.418  0.8916  0.0259  0.5892
  316TMC3     O 4806   2.519   0.171  17.370 -0.0827 -0.3758 -0.6879
  316TMC3     H 4807   2.873   0.270  17.504 -0.3123 -1.0678 -0.1401
  316TMC3    H1 4808   2.625   0.227  17.161 -0.5586 -0.3529  1.9434
  316TMC3    H2 4809   3.035   0.360  17.127 -1.7582  0.9205 -1.6955
  316TMC3    C7 4810   2.833   0.297  16.983 -0.1951 -0.4219 -0.2929
  316TMC3    C8 4811   3.078   0.366  17.383 -0.2782  0.6421 -0.9870
  316TMC3    O1 4812   2.947   0.275  16.942  0.1327  0.5047 -0.1437
  316TMC3    O2 4813   3.130   0.460  17.326  0.2803 -0.3897 -0.0562
  317MPD2     C 4814   4.563   3.256  12.393  0.6414 -0.1375 -0.0896
  317MPD2    C1 4815   4.475   3.216  12.494 -0.3552 -0.1881 -0.5468
  317MPD2    C2 4816   4.529   3.148  12.601 -0.1174  0.2652 -0.2451
  317MPD2    C3 4817   4.661   3.120  12.610  0.0455 -0.3946 -0.2168
  317MPD2    C4 4818   0.006   3.148  12.509 -0.2945 -0.0891  0.5844
  317MPD2    C5 4819   4.696   3.223  12.407 -0.2792  0.1552  0.5247
  317MPD2     H 4820   4.457   3.117  12.676  3.0542 -1.0518  2.2647
  317MPD2    H1 4821   0.111   3.124  12.503 -0.6519 -1.5288  0.2003
  317MPD2    H2 4822   4.535   3.300  12.298 -0.4835 -1.7472 -0.4960
  317MPD2    H3 4823   0.016   3.240  12.320  0.2006  1.1964  1.0775
  317MPD2     N 4824   4.703   3.039  12.722  0.1010 -0.4528  0.2383
  317MPD2    H5 4825   0.047   2.987  12.710  1.1326  0.9482  1.5681
  317MPD2    N1 4826   4.339   3.217  12.467  0.4908 -0.1294  0.1542
  317MPD2    H7 4827   4.282   3.164  12.534  0.0035  0.9667  0.5995
  318TMC3    C1 4828   4.701   2.914  12.920  0.6035 -0.3831  0.3277
  318TMC3    C2 4829   4.619   2.848  13.009 -0.1629  0.0107  0.4473
  318TMC3    C3 4830   4.679   2.750  13.088  0.3525 -0.1524  0.5306
  318TMC3    C4 4831   0.096   2.912  12.921 -0.1542  0.6144 -0.3092
  318TMC3    C5 4832   0.148   2.819  13.013  0.2948 -0.3582 -0.5437
  318TMC3    C6 4833   0.074   2.728  13.092 -0.9300 -0.0308  0.0820
  318TMC3     C 4834   4.636   3.021  12.841 -0.0398 -0.5379  0.6871
  318TMC3     O 4835   4.528   3.075  12.880 -0.0731  0.2161  0.2574
  318TMC3     H 4836   4.516   2.879  13.018 -0.1542  0.4904 -1.0418
  318TMC3    H1 4837   0.157   2.988  12.873 -0.1458  0.4316 -0.5901
  318TMC3    H2 4838   0.111   2.642  13.146  1.3263  0.0735 -1.3090
  318TMC3    C7 4839   0.292   2.840  13.038  0.5111  0.3178  0.1712
  318TMC3    C8 4840   4.600   2.668  13.167  0.4556 -0.2716 -0.0725
  318TMC3    O1 4841   0.350   2.911  12.956 -0.2829  0.0535 -0.9615
  318TMC3    O2 4842   4.653   2.598  13.253  0.2196 -0.1119  0.3431
  319MPD2     C 4843   0.944   4.540  16.986  0.0437  0.9129  0.6430
  319MPD2    C1 4844   0.996   4.425  16.932  1.1951  0.3264  0.4738
  319MPD2    C2 4845   0.933   4.365  16.827 -0.7140 -0.4022  0.2118
  319MPD2    C3 4846   0.812   4.409  16.784  0.0212  0.4925 -0.0650
  319MPD2    C4 4847   0.758   4.525  16.832 -0.7741 -0.5629 -0.1312
  319MPD2    C5 4848   0.820   4.586  16.934 -0.0259  0.4150  0.7070
  319MPD2     H 4849   0.983   4.276  16.789  0.6062  0.6201 -0.4210
  319MPD2    H1 4850   0.664   4.567  16.798 -1.2889 -1.2519  0.4377
  319MPD2    H2 4851   0.989   4.594  17.069  0.0362  1.7321  0.1066
  319MPD2    H3 4852   0.776   4.674  16.979  2.4746  1.0004  1.9995
  319MPD2     N 4853   0.730   4.336  16.696 -0.6300  0.2867  0.4806
  319MPD2    H5 4854   0.635   4.372  16.684 -0.0831  1.4226 -0.5080
  319MPD2    N1 4855   1.121   4.367  16.978  0.5678  0.0412  0.2911
  319MPD2    H7 4856   1.168   4.300  16.918  0.6091 -0.6267  1.0840
  320TMC3    C1 4857   0.634   4.147  16.585 -0.2339 -0.5109 -0.1546
  320TMC3    C2 4858   0.527   4.230  16.562 -0.2560 -0.0376  0.3672
  320TMC3    C3 4859   0.426   4.169  16.489 -0.0861  0.1477  0.5278
  320TMC3    C4 4860   0.649   4.014  16.555  0.1592  0.9402  0.7418
  320TMC3    C5 4861   0.543   3.949  16.495  0.4770  0.3193  0.6580
  320TMC3    C6 4862   0.433   4.029  16.462 -0.1728 -0.6758 -0.6762
  320TMC3     C 4863   0.754   4.209  16.651 -0.3799 -0.0750 -0.3655
  320TMC3     O 4864   0.849   4.137  16.674  0.1767  0.0005  0.3580
  320TMC3     H 4865   0.532   4.338  16.556 -0.3343 -0.1068 -0.8760
  320TMC3    H1 4866   0.744   3.966  16.575  0.2664  0.8246 -0.0660
  320TMC3    H2 4867   0.348   3.976  16.420 -2.7314  0.9041  2.5754
  320TMC3    C7 4868   0.521   3.805  16.515 -0.6347 -0.1991 -0.2659
  320TMC3    C8 4869   0.365   4.253  16.393  0.0070  0.0814 -0.1982
  320TMC3    O1 4870   0.432   3.748  16.451  0.4688  0.2563 -0.0426
  320TMC3    O2 4871   0.439   4.325  16.329  0.4316 -0.2514  0.2593
  321TMC3    C1 4872   1.319   4.344  17.096 -0.4883 -0.3613 -0.8656
  321TMC3    C2 4873   1.348   4.236  17.029  0.0107 -0.6619  0.3284
  321TMC3    C3 4874   1.483   4.204  17.014 -0.3143 -0.2077  0.7405
  321TMC3    C4 4875   1.416   4.425  17.147 -0.6086  0.0238 -0.4465
  321TMC3    C5 4876   1.554   4.401  17.121 -0.7292 -0.1926 -0.2217
  321TMC3    C6 4877   1.583   4.284  17.048 -0.0724 -0.4695 -0.0102
  321TMC3     C 4878   1.186   4.397  17.091 -0.6201 -0.1883 -0.6862
  321TMC3     O 4879   1.167   4.494  17.164 -0.2004 -0.0166  0.3892
  321TMC3     H 4880   1.271   4.172  16.987 -0.6072 -1.2971  2.3893
  321TMC3    H1 4881   1.380   4.510  17.203  2.7162  0.1043  1.6010
  321TMC3    H2 4882   1.684   4.247  17.032  0.0441  0.1911 -0.7776
  321TMC3    C7 4883   1.643   4.412  17.235  0.3781  0.0418 -0.2371
  321TMC3    C8 4884   1.511   4.069  17.049  0.3300 -0.2450 -0.0571
  321TMC3    O1 4885   1.725   4.318  17.245 -0.3490  0.2469 -0.1070
  321TMC3    O2 4886   1.423   3.990  17.015  0.2234  0.1604 -0.0382
  322MPD2     C 4887   4.281   0.851  13.429 -0.1327 -0.3265 -0.5838
  322MPD2    C1 4888   4.280   0.765  13.535 -0.2714  0.3956 -0.0158
  322MPD2    C2 4889   4.311   0.632  13.505 -0.0926  0.2108  0.5052
  322MPD2    C3 4890   4.346   0.595  13.372 -0.0754  0.2468  0.3323
  322MPD2    C4 4891   4.329   0.683  13.266 -0.4597 -0.6192 -0.5211
  322MPD2    C5 4892   4.304   0.811  13.296  0.0560 -0.3473  0.2472
  322MPD2     H 4893   4.305   0.550  13.575  0.0447 -0.5894 -0.4143
  322MPD2    H1 4894   4.352   0.656  13.163 -1.1766 -0.3773 -0.7434
  322MPD2    H2 4895   4.276   0.954  13.461 -2.8549 -0.9797  1.1035
  322MPD2    H3 4896   4.311   0.887  13.219 -0.1134 -1.6926 -1.1052
  322MPD2     N 4897   4.382   0.454  13.351 -0.2198 -0.6843  0.4733
  322MPD2    H5 4898   4.406   0.409  13.439  0.2107  0.7278  1.0712
  322MPD2    N1 4899   4.254   0.819  13.660 -0.4071  0.7162 -0.2965
  322MPD2    H7 4900   4.253   0.921  13.662  2.0923  0.7564 -1.4704
  323TMC3    C1 4901   4.306   0.838  13.888 -0.0556 -0.5457  0.9006
  323TMC3    C2 4902   4.370   0.960  13.853  0.1394  0.2901 -0.5492
  323TMC3    C3 4903   4.469   1.007  13.936  0.4206  0.6395  0.0514
  323TMC3    C4 4904   4.339   0.772  14.003  1.0304 -0.3580  0.0368
  323TMC3    C5 4905   4.448   0.826  14.071  0.5349  0.6602 -0.1708
  323TMC3    C6 4906   4.503   0.951  14.046 -0.8355 -0.5751 -0.1380
  323TMC3     C 4907   4.255   0.750  13.783  0.6641 -0.0180 -0.1791
  323TMC3     O 4908   4.230   0.634  13.802  0.2022 -0.0469  0.0418
  323TMC3     H 4909   4.330   1.025  13.776 -0.6604 -1.0322 -1.2461
  323TMC3    H1 4910   4.306   0.674  14.035 -1.8554  0.4761 -0.4437
  323TMC3    H2 4911   4.599   0.976  14.091 -1.5904  1.0798  0.5630
  323TMC3    C7 4912   4.500   0.749  14.181  0.1863 -0.5928 -0.2307
  323TMC3    C8 4913   4.589   1.045  13.855  0.3856  0.1185 -0.8998
  323TMC3    O1 4914   4.479   0.629  14.180  0.2321 -0.1654  0.2737
  323TMC3    O2 4915   4.686   1.088  13.912 -0.0991  0.2454  0.0525
  324MPD2     C 4916   1.166   1.689  14.190 -0.3342 -0.6701  0.0465
  324MPD2    C1 4917   1.179   1.827  14.163 -0.3430 -0.5429  0.2721
  324MPD2    C2 4918   1.096   1.885  14.075  0.7877  0.7705 -0.6403
  324MPD2    C3 4919   1.005   1.809  14.011 -0.1016  0.2768 -0.0702
  324MPD2    C4 4920   0.999   1.672  14.030 -0.0576  0.1750  0.5374
  324MPD2    C5 4921   1.071   1.609  14.128 -0.0211  0.3690  0.6876
  324MPD2     H 4922   1.108   1.992  14.058  0.9645  0.6543 -1.2423
  324MPD2    H1 4923   0.922   1.613  13.983  0.5285 -0.8999  0.9387
  324MPD2    H2 4924   1.221   1.637  14.267  3.4693 -0.4336 -2.5405
  324MPD2    H3 4925   1.065   1.502  14.141  1.0827  0.1073 -0.9762
  324MPD2     N 4926   0.919   1.868  13.919  0.4063 -0.2319  0.7901
  324MPD2    H5 4927   0.871   1.794  13.870  1.4069 -1.6657  1.9623
  324MPD2    N1 4928   1.276   1.908  14.220 -0.2125 -0.6089 -0.0052
  324MPD2    H7 4929   1.275   2.008  14.206  0.9573 -0.7194 -0.8772
  325TMC3    C1 4930   0.777   2.015  13.801  0.0950 -0.0025  0.7664
  325TMC3    C2 4931   0.750   1.907  13.715 -0.7222 -0.0863  0.8335
  325TMC3    C3 4932   0.648   1.922  13.629  0.0570  0.5341 -0.6660
  325TMC3    C4 4933   0.704   2.132  13.798 -0.5022 -0.2125  0.5643
  325TMC3    C5 4934   0.600   2.146  13.702  0.2873  0.1245  0.1736
  325TMC3    C6 4935   0.569   2.038  13.621 -0.1392  0.1602  0.2125
  325TMC3     C 4936   0.884   2.002  13.900 -0.4923 -0.6254  0.3922
  325TMC3     O 4937   0.907   2.097  13.969 -0.1609  0.0307 -0.5073
  325TMC3     H 4938   0.803   1.812  13.713  1.7995  1.3638 -1.6043
  325TMC3    H1 4939   0.731   2.213  13.864  3.7223 -0.6702 -0.6509
  325TMC3    H2 4940   0.490   2.046  13.547  0.4745  0.7727 -0.3726
  325TMC3    C7 4941   0.573   2.277  13.655  0.7566  0.4330  0.6434
  325TMC3    C8 4942   0.632   1.817  13.537 -0.4824  0.0500  0.5513
  325TMC3    O1 4943   0.567   2.293  13.534 -0.4459  0.3602  0.1294
  325TMC3    O2 4944   0.736   1.779  13.490 -0.6541  0.1681 -0.0690
  326MPD2     C 4945   1.921   2.670  11.157 -0.7558 -0.4484 -0.2717
  326MPD2    C1 4946   1.945   2.796  11.106  0.6996  0.5815  0.3479
  326MPD2    C2 4947   2.027   2.887  11.175 -1.1398  0.0668  0.4931
  326MPD2    C3 4948   2.099   2.844  11.281  0.1029  0.5390 -0.3185
  326MPD2    C4 4949   2.089   2.717  11.321 -0.8667 -0.2418  0.1770
  326MPD2    C5 4950   2.000   2.633  11.264  0.3432  0.0977 -0.2287
  326MPD2     H 4951   2.053   2.984  11.135 -0.2385  0.1585  1.3052
  326MPD2    H1 4952   2.153   2.675  11.397 -0.5275  0.2395  0.1529
  326MPD2    H2 4953   1.856   2.598  11.109 -0.4324 -1.1938  0.4212
  326MPD2    H3 4954   2.004   2.527  11.287 -2.2295 -0.5771 -2.9143
  326MPD2     N 4955   2.205   2.916  11.343 -0.4985  0.1429 -0.0904
  326MPD2    H5 4956   2.276   2.877  11.405 -0.8002  0.4882  0.4683
  326MPD2    N1 4957   1.897   2.840  10.981 -0.1667 -0.0159  0.0968
  326MPD2    H7 4958   1.923   2.931  10.945  0.1200  0.1823  0.8085
  327TMC3    C1 4959   1.853   2.820  10.762  0.2088 -0.2759  0.2474
  327TMC3    C2 4960   1.737   2.870  10.714  0.1493  0.0151 -0.5498
  327TMC3    C3 4961   1.742   2.962  10.615 -0.1740 -0.4547  0.2785
  327TMC3    C4 4962   1.974   2.867  10.728 -0.5549 -0.2519 -0.0882
  327TMC3    C5 4963   1.979   2.968  10.636 -0.1716  0.8080  0.7993
  327TMC3    C6 4964   1.867   2.999  10.568 -0.4557  0.0197  0.4242
  327TMC3     C 4965   1.838   2.756  10.889 -0.4213 -0.0451  0.4277
  327TMC3     O 4966   1.790   2.645  10.902  0.1035 -0.2349  0.0084
  327TMC3     H 4967   1.651   2.827  10.764 -1.2089  0.7681 -2.2302
  327TMC3    H1 4968   2.066   2.832  10.774  1.9276  1.6901 -3.5427
  327TMC3    H2 4969   1.870   3.083  10.499  3.5553 -0.0440  0.5124
  327TMC3    C7 4970   2.103   2.992  10.562  0.2010 -0.3785  0.0193
  327TMC3    C8 4971   1.632   3.056  10.613 -0.5344 -0.1966 -0.0324
  327TMC3    O1 4972   2.104   3.067  10.461 -0.6884 -0.0659 -0.6868
  327TMC3    O2 4973   1.630   3.140  10.524  0.2118 -0.5894  0.2064
  328MPD2     C 4974   0.451   2.884  17.261  0.1288  0.1530  0.1714
  328MPD2    C1 4975   0.350   2.837  17.189  0.0348 -0.1809 -0.3809
  328MPD2    C2 4976   0.254   2.921  17.138 -0.9941  0.2480 -0.4014
  328MPD2    C3 4977   0.252   3.056  17.162  0.2275  0.2724 -0.2820
  328MPD2    C4 4978   0.358   3.104  17.227 -0.1616  0.0677  0.4341
  328MPD2    C5 4979   0.454   3.016  17.278  0.0470 -0.2296 -0.0372
  328MPD2     H 4980   0.177   2.877  17.076 -0.5815  0.9566 -1.4147
  328MPD2    H1 4981   0.352   3.208  17.259  1.2171  1.5662 -4.1389
  328MPD2    H2 4982   0.528   2.831  17.316  1.5613  3.6038  1.5086
  328MPD2    H3 4983   0.532   3.056  17.341  1.1444  1.0857 -2.2253
  328MPD2     N 4984   0.155   3.151  17.118 -0.5680 -0.2293  0.2671
  328MPD2    H5 4985   0.154   3.250  17.140  0.6937  0.1043 -1.0958
  328MPD2    N1 4986   0.334   2.703  17.174  0.3555 -0.2157  0.2232
  328MPD2    H7 4987   0.381   2.644  17.242  1.6656 -1.6674 -1.9411
  329TMC3    C1 4988   0.295   2.493  17.054 -0.4487  0.3476 -0.1177
  329TMC3    C2 4989   0.283   2.421  17.169 -0.6079  0.5409  0.6536
  329TMC3    C3 4990   0.269   2.283  17.154 -0.1868  0.6115  0.3484
  329TMC3    C4 4991   0.292   2.438  16.929 -0.4092 -0.0993  0.8961
  329TMC3    C5 4992   0.271   2.306  16.918  0.6626  1.0151  0.2709
  329TMC3    C6 4993   0.260   2.223  17.031 -0.4365 -0.4693  0.6658
  329TMC3     C 4994   0.286   2.638  17.063 -0.0005 -0.2335  0.2969
  329TMC3     O 4995   0.257   2.690  16.958  0.0211  0.1896 -0.3327
  329TMC3     H 4996   0.279   2.476  17.262  0.0427 -1.2704  1.7369
  329TMC3    H1 4997   0.317   2.501  16.845  0.0742  2.0539  2.6561
  329TMC3    H2 4998   0.240   2.116  17.025  0.7248 -0.7548  1.9462
  329TMC3    C7 4999   0.259   2.256  16.783 -0.0813  0.3601  0.8729
  329TMC3    C8 5000   0.191   2.206  17.256  0.1946 -0.4980  1.0163
  329TMC3    O1 5001   0.244   2.334  16.691  0.0003  0.4181  0.6301
  329TMC3    O2 5002   0.182   2.082  17.241  0.0611 -0.0281 -0.2956
  330TMC3    C1 5003   2.200   2.364   9.684 -0.0990 -0.2017 -0.0857
  330TMC3    C2 5004   2.069   2.340   9.711 -0.2486  0.3904  0.0662
  330TMC3    C3 5005   2.035   2.228   9.785  0.8820  0.1920  0.8161
  330TMC3    C4 5006   2.297   2.283   9.726  0.1460  0.4324  0.3006
  330TMC3    C5 5007   2.262   2.171   9.792  0.1371  0.4167  0.4690
  330TMC3    C6 5008   2.136   2.149   9.832 -0.0554  0.7466 -0.4562
  330TMC3     C 5009   2.246   2.503   9.669 -0.2486 -0.1421  0.0262
  330TMC3     O 5010   2.359   2.528   9.716 -0.5919  0.4341  0.2762
  330TMC3     H 5011   1.993   2.412   9.687 -0.5374 -0.0574 -0.3725
  330TMC3    H1 5012   2.403   2.286   9.704  0.4534 -4.7027  1.0514
  330TMC3    H2 5013   2.110   2.081   9.912 -0.8256 -0.6916 -1.9367
  330TMC3    C7 5014   2.358   2.088   9.862 -0.1901 -0.2470  0.6625
  330TMC3    C8 5015   1.890   2.203   9.813  0.2153  0.0814  0.2150
  330TMC3    O1 5016   2.464   2.145   9.883 -0.0860  0.0500  0.6839
  330TMC3    O2 5017   1.823   2.299   9.779  0.6782  0.2117  0.2370
  331MPD2     C 5018   1.125   1.326  12.297 -0.4425 -0.1804 -0.0138
  331MPD2    C1 5019   1.000   1.279  12.316 -0.0725  0.5072 -0.7505
  331MPD2    C2 5020   0.981   1.162  12.385 -0.4248  0.4316 -0.2871
  331MPD2    C3 5021   1.077   1.095  12.440  0.1091 -0.2799 -0.3182
  331MPD2    C4 5022   1.206   1.133  12.413  0.1946 -0.0256  0.6314
  331MPD2    C5 5023   1.237   1.253  12.340 -0.0105 -0.2390 -0.7894
  331MPD2     H 5024   0.875   1.148  12.407  0.1187  2.2460  3.3665
  331MPD2    H1 5025   1.296   1.086  12.450  0.9896  2.3660  1.7406
  331MPD2    H2 5026   1.147   1.418  12.244  1.1370 -0.0077  0.9299
  331MPD2    H3 5027   1.337   1.292  12.325  0.4788 -1.3533 -0.3939
  331MPD2     N 5028   1.042   0.982  12.515  0.6615  0.0220 -0.1724
  331MPD2    H5 5029   0.943   0.963  12.508  0.4688  0.7075  0.6505
  331MPD2    N1 5030   0.879   1.345  12.269  0.0037  0.1072  0.3462
  331MPD2    H7 5031   0.793   1.300  12.295 -1.1358  2.1404  0.1304
  332TMC3    C1 5032   1.031   0.822  12.675  0.0838  0.4575  0.0303
  332TMC3    C2 5033   0.900   0.867  12.699 -0.4526  0.3967  0.0206
  332TMC3    C3 5034   0.834   0.789  12.786 -0.0763  0.4483  0.3628
  332TMC3    C4 5035   1.090   0.716  12.749  0.6467  0.3239 -0.0924
  332TMC3    C5 5036   1.010   0.644  12.832 -0.4868 -0.6940  0.2910
  332TMC3    C6 5037   0.885   0.686  12.858 -0.0860  0.2072 -0.7062
  332TMC3     C 5038   1.123   0.897  12.595 -0.3222 -0.3601 -0.3910
  332TMC3     O 5039   1.250   0.898  12.603  0.6457 -0.2564  0.0103
  332TMC3     H 5040   0.851   0.945  12.642 -1.7610 -1.3367 -1.2211
  332TMC3    H1 5041   1.197   0.711  12.736  0.5372  1.4979 -1.5408
  332TMC3    H2 5042   0.824   0.620  12.919 -0.5232  0.0331 -1.3275
  332TMC3    C7 5043   1.080   0.545  12.921  0.1323 -0.0709 -0.4280
  332TMC3    C8 5044   0.696   0.823  12.812 -0.2581 -0.0087 -0.1993
  332TMC3    O1 5045   1.023   0.532  13.027 -0.5383  0.0706  0.3499
  332TMC3    O2 5046   0.634   0.897  12.739  0.0782 -0.2298 -0.4752
  333MPD2     C 5047   0.383   1.601  11.014  0.4932  0.3888 -0.1715
  333MPD2    C1 5048   0.449   1.509  10.928  0.0681  0.6821  0.3062
  333MPD2    C2 5049   0.469   1.377  10.973 -0.1254  0.0297 -0.0464
  333MPD2    C3 5050   0.444   1.341  11.105 -0.6491  0.1067  0.3572
  333MPD2    C4 5051   0.388   1.433  11.193  0.2646 -0.3489 -0.1042
  333MPD2    C5 5052   0.360   1.559  11.147 -0.5720  0.6184  0.0921
  333MPD2     H 5053   0.519   1.308  10.907  2.3396  1.3082  0.4908
  333MPD2    H1 5054   0.363   1.415  11.297 -0.2387 -0.0000 -0.1636
  333MPD2    H2 5055   0.354   1.701  10.982 -0.9892  0.8810  2.7115
  333MPD2    H3 5056   0.300   1.626  11.208 -1.6048  1.2830 -1.6210
  333MPD2     N 5057   0.483   1.207  11.150  0.2644  0.9833  0.1266
  333MPD2    H5 5058   0.536   1.151  11.084  0.6611  0.0506  1.2433
  333MPD2    N1 5059   0.467   1.554  10.797  0.0933  0.5646  0.3412
  333MPD2    H7 5060   0.440   1.651  10.785  0.9272  0.9287  1.3849
  334TMC3    C1 5061   0.511   1.540  10.567  0.2077 -0.3017 -0.4047
  334TMC3    C2 5062   0.597   1.481  10.485  0.7669 -0.0083  0.3147
  334TMC3    C3 5063   0.681   1.542  10.397  0.1316  0.3294 -1.0102
  334TMC3    C4 5064   0.507   1.677  10.564 -0.3460 -0.2915 -0.5497
  334TMC3    C5 5065   0.603   1.750  10.489  0.2342  0.3381 -0.7817
  334TMC3    C6 5066   0.693   1.680  10.412  0.0718 -0.3892  0.2247
  334TMC3     C 5067   0.493   1.471  10.694  0.5204  0.4482 -0.3084
  334TMC3     O 5068   0.487   1.347  10.690 -1.2209  0.1685 -0.1401
  334TMC3     H 5069   0.606   1.374  10.501 -0.4899  0.4138  3.7030
  334TMC3    H1 5070   0.446   1.739  10.629  1.1352  1.3388 -0.7077
  334TMC3    H2 5071   0.772   1.731  10.359  0.5853 -1.3533  0.0549
  334TMC3    C7 5072   0.627   1.887  10.506 -0.4602  0.5171 -0.1395
  334TMC3    C8 5073   0.800   1.462  10.378  0.4369  0.3333 -0.3348
  334TMC3    O1 5074   0.746   1.914  10.517 -0.1212  0.5234 -0.0172
  334TMC3    O2 5075   0.801   1.372  10.303  0.4649  0.1836  0.1864
  335TMC3    C1 5076   1.120   2.929  17.364 -0.6154 -0.4292 -0.1487
  335TMC3    C2 5077   1.018   2.891  17.276 -0.9519  0.5149 -0.5830
  335TMC3    C3 5078   1.044   2.772  17.207 -0.6338  0.1180 -0.4240
  335TMC3    C4 5079   1.226   2.847  17.390  0.3213 -0.7535  0.1798
  335TMC3    C5 5080   1.225   2.727  17.334 -0.0705  0.7538  0.2154
  335TMC3    C6 5081   1.142   2.685  17.233 -0.6873 -0.2544  0.8079
  335TMC3     C 5082   1.105   3.046  17.451 -0.6913  0.4002  0.2455
  335TMC3     O 5083   1.190   3.056  17.542 -0.5435 -0.1885 -0.4290
  335TMC3     H 5084   0.933   2.949  17.241 -1.6534 -0.3148 -0.2522
  335TMC3    H1 5085   1.299   2.881  17.462  0.3804  0.8955 -0.6609
  335TMC3    H2 5086   1.159   2.591  17.182 -1.9154 -1.8001  3.2703
  335TMC3    C7 5087   1.341   2.641  17.351  0.0851  0.3454 -0.4391
  335TMC3    C8 5088   0.936   2.737  17.114  0.7644  0.2989  0.2750
  335TMC3    O1 5089   1.365   2.561  17.259  0.1246 -0.5985 -0.2121
  335TMC3    O2 5090   0.897   2.827  17.043  0.2941 -0.4859  0.6739
  336MPD2     C 5091   0.699   0.650  15.885  0.2240 -0.5121 -1.1113
  336MPD2    C1 5092   0.676   0.553  15.792  0.4626  0.1032 -0.8684
  336MPD2    C2 5093   0.688   0.421  15.831 -0.1732  0.2768  0.0814
  336MPD2    C3 5094   0.737   0.387  15.952 -0.5569 -0.9368  0.2801
  336MPD2    C4 5095   0.756   0.485  16.040 -0.1895 -0.5480  0.1341
  336MPD2    C5 5096   0.744   0.615  16.004  0.3718  0.1577  0.0990
  336MPD2     H 5097   0.664   0.347  15.755 -0.9259 -0.5306  1.1163
  336MPD2    H1 5098   0.785   0.464  16.142  1.2774  1.8510  0.2248
  336MPD2    H2 5099   0.689   0.755  15.860 -2.5657 -0.2827  0.9222
  336MPD2    H3 5100   0.761   0.698  16.072 -1.8530  1.5130 -1.0074
  336MPD2     N 5101   0.757   0.256  15.995  0.0625  0.7692  0.7996
  336MPD2    H5 5102   0.794   0.247  16.089  1.2792  1.2443  0.3782
  336MPD2    N1 5103   0.627   0.579  15.662 -0.0409 -0.1902  0.1585
  336MPD2    H7 5104   0.597   0.499  15.608  0.7020 -0.8243  0.6832
  337TMC3    C1 5105   0.570   0.702  15.472  0.8495 -0.3712  0.1716
  337TMC3    C2 5106   0.470   0.612  15.439  0.6979 -0.0889 -0.2754
  337TMC3    C3 5107   0.395   0.631  15.328 -0.7159  0.4125 -0.1485
  337TMC3    C4 5108   0.599   0.806  15.386 -0.5026  0.3537  0.3378
  337TMC3    C5 5109   0.527   0.822  15.273 -0.4860  0.0183  0.6996
  337TMC3    C6 5110   0.436   0.728  15.242  0.6929 -0.7562 -0.2966
  337TMC3     C 5111   0.638   0.705  15.601  0.4187  0.3272  0.2225
  337TMC3     O 5112   0.700   0.809  15.636  0.6829 -0.2581  0.7539
  337TMC3     H 5113   0.431   0.537  15.507  1.3398 -1.8790 -1.8808
  337TMC3    H1 5114   0.673   0.879  15.417  0.6704 -0.4478 -0.5797
  337TMC3    H2 5115   0.389   0.731  15.144  1.8094 -0.4974 -0.8237
  337TMC3    C7 5116   0.494   0.958  15.256 -0.1357  0.0805  1.0171
  337TMC3    C8 5117   0.251   0.616  15.347  0.4539 -0.2309  0.4246
  337TMC3    O1 5118   0.527   1.040  15.339 -0.5538  0.1469 -0.3659
  337TMC3    O2 5119   0.218   0.562  15.452 -0.3375 -0.3833 -0.4632
  338MPD2     C 5120   0.716   0.716   0.849 -0.4924  0.8389 -0.1447
  338MPD2    C1 5121   0.661   0.627   0.758  0.0740 -0.4827 -0.6626
  338MPD2    C2 5122   0.524   0.595   0.762 -0.6348 -0.1677  1.0178
  338MPD2    C3 5123   0.442   0.676   0.841  0.4700  0.4507  0.1147
  338MPD2    C4 5124   0.494   0.776   0.921  0.2062  0.2684 -0.5892
  338MPD2    C5 5125   0.631   0.790   0.926 -0.0915  0.0541 -0.2113
  338MPD2     H 5126   0.478   0.528   0.691  0.3741  1.3359 -1.0738
  338MPD2    H1 5127   0.430   0.852   0.964  1.9610  0.2089  2.0901
  338MPD2    H2 5128   0.818   0.752   0.840 -0.1513  0.4049  2.1128
  338MPD2    H3 5129   0.682   0.864   0.986 -0.4118 -1.7209  2.2643
  338MPD2     N 5130   0.301   0.664   0.834  0.4069  0.4781  0.1720
  338MPD2    H5 5131   0.242   0.736   0.874  0.3508  0.3330  0.3567
  338MPD2    N1 5132   0.745   0.551   0.675 -0.5165  0.1653  0.1914
  338MPD2    H7 5133   0.706   0.488   0.606  0.5577  0.8128 -1.0121
  339TMC3    C1 5134   0.086   0.555   0.808 -0.1404 -0.5180 -0.6197
  339TMC3    C2 5135   0.041   0.420   0.803  0.2518  0.2867 -0.4636
  339TMC3    C3 5136   4.699   0.387   0.704 -0.1539  0.1281  0.8846
  339TMC3    C4 5137   0.050   0.640   0.710 -0.4767 -0.3085  0.0873
  339TMC3    C5 5138   4.709   0.596   0.610 -0.4878  0.7713  0.5274
  339TMC3    C6 5139   4.654   0.471   0.611  0.3630  0.5913  0.3562
  339TMC3     C 5140   0.233   0.546   0.813 -0.3409  0.5874  0.3930
  339TMC3     O 5141   0.281   0.438   0.786 -0.3185  0.3203 -0.5649
  339TMC3     H 5142   0.076   0.346   0.873 -2.7535 -0.7765 -0.1119
  339TMC3    H1 5143   0.116   0.726   0.702  0.8911 -1.0120  3.3940
  339TMC3    H2 5144   4.575   0.430   0.550 -0.4878 -0.6037  2.2403
  339TMC3    C7 5145   4.742   0.641   0.477 -1.0774  0.1111 -0.0539
  339TMC3    C8 5146   4.659   0.250   0.698  0.6485 -0.4209  0.3748
  339TMC3    O1 5147   0.076   0.742   0.469 -0.0852 -0.7199  0.0223
  339TMC3    O2 5148   4.623   0.202   0.588 -0.6182  0.2742 -0.6424
  340MPD2     C 5149   0.303   3.064  10.632  0.4466 -0.2475 -1.1842
  340MPD2    C1 5150   0.349   3.045  10.502  0.6706 -0.0344 -0.0613
  340MPD2    C2 5151   0.481   3.061  10.468 -0.2924 -0.2377  0.5418
  340MPD2    C3 5152   0.572   3.104  10.567 -0.0263  0.1691 -0.4720
  340MPD2    C4 5153   0.524   3.131  10.692 -0.6675  0.5340  0.3942
  340MPD2    C5 5154   0.395   3.108  10.725 -0.1486  0.6962 -0.7760
  340MPD2     H 5155   0.520   3.025  10.374 -0.4213 -1.3040  0.8952
  340MPD2    H1 5156   0.584   3.170  10.774  0.9158 -1.1384  0.0227
  340MPD2    H2 5157   0.203   3.049  10.673  0.6956  2.1400  0.2497
  340MPD2    H3 5158   0.350   3.124  10.823 -0.8962 -0.0497 -0.9953
  340MPD2     N 5159   0.702   3.116  10.522 -0.2119 -0.0390  0.1582
  340MPD2    H5 5160   0.712   3.105  10.422 -0.2700 -1.3911  0.3022
  340MPD2    N1 5161   0.261   3.006  10.406 -0.4394  0.1525 -0.1341
  340MPD2    H7 5162   0.173   2.962  10.433 -0.2814 -0.3656 -0.4553
  341TMC3    C1 5163   0.227   2.935  10.184  0.5916 -0.2864 -0.3947
  341TMC3    C2 5164   0.216   2.811  10.231 -0.4900 -0.3034 -0.2618
  341TMC3    C3 5165   0.266   2.704  10.154  0.3870  0.4337 -0.0993
  341TMC3    C4 5166   0.266   2.958  10.057 -0.5859 -1.4104 -0.2318
  341TMC3    C5 5167   0.314   2.851   9.976  0.1040  0.1141 -0.6884
  341TMC3    C6 5168   0.314   2.720  10.024  0.4369 -0.4847 -0.3976
  341TMC3     C 5169   0.283   3.037  10.270  0.3395 -0.4174  0.1580
  341TMC3     O 5170   0.373   3.103  10.214 -0.3164  0.4756 -0.2413
  341TMC3     H 5171   0.172   2.791  10.328  0.3679 -2.5182 -0.3426
  341TMC3    H1 5172   0.278   3.061  10.026  1.6623 -2.1040 -1.7056
  341TMC3    H2 5173   0.357   2.636   9.971  0.6915  0.5581 -1.8545
  341TMC3    C7 5174   0.334   2.870   9.834 -0.3890  0.3176  0.6823
  341TMC3    C8 5175   0.235   2.569  10.198  0.0204 -0.1860 -0.6517
  341TMC3    O1 5176   0.421   2.796   9.790 -0.5413 -0.0617  0.0099
  341TMC3    O2 5177   0.145   2.544  10.276 -0.1059  0.6546 -0.0887
  342MPD2     C 5178   3.682   0.690  17.718  0.1829 -0.8387  0.2894
  342MPD2    C1 5179   3.708   0.757  17.600  0.0850  0.1094 -0.3827
  342MPD2    C2 5180   3.695   0.894  17.602  0.2253 -0.0177 -0.3813
  342MPD2    C3 5181   3.647   0.962  17.717  0.5092 -0.2863  0.1710
  342MPD2    C4 5182   3.606   0.893   0.063  0.5084 -0.0006 -0.9998
  342MPD2    C5 5183   3.624   0.756   0.061  0.0395 -0.2105 -0.2765
  342MPD2     H 5184   3.717   0.952  17.514  3.3642  0.5312  0.7480
  342MPD2    H1 5185   3.559   0.944   0.147 -0.7782 -0.7238 -1.2794
  342MPD2    H2 5186   3.690   0.582  17.725 -3.7845 -1.4148 -3.6922
  342MPD2    H3 5187   3.582   0.703   0.145  1.2314  1.0980  1.1594
  342MPD2     N 5188   3.619   1.106  17.715  0.1044 -0.0933 -0.9219
  342MPD2    H5 5189   3.591   1.155   0.032  1.6005 -0.9952  0.1019
  342MPD2    N1 5190   3.760   0.695  17.482 -0.0614  0.1564  0.0561
  342MPD2    H7 5191   3.764   0.748  17.396 -1.2955  0.0219 -0.0743
  343TMC3    C1 5192   3.839   0.525  17.337 -0.5637 -0.0511 -0.0145
  343TMC3    C2 5193   3.914   0.604  17.257  0.7928 -0.0917 -0.2216
  343TMC3    C3 5194   3.963   0.552  17.143 -0.0268 -0.0465 -0.1691
  343TMC3    C4 5195   3.802   0.399  17.299 -0.3594  0.6804  0.3194
  343TMC3    C5 5196   3.850   0.354  17.185 -0.0459  0.2531  0.1930
  343TMC3    C6 5197   3.940   0.423  17.109  0.0952  0.0122 -0.5190
  343TMC3     C 5198   3.799   0.564  17.471 -0.1736 -0.0056 -0.7108
  343TMC3     O 5199   3.792   0.473  17.553 -0.6552 -0.1390  0.0527
  343TMC3     H 5200   3.938   0.708  17.276 -0.0728  0.0960 -0.1323
  343TMC3    H1 5201   3.745   0.335  17.366  1.1983  0.2097  1.1963
  343TMC3    H2 5202   3.978   0.369  17.023 -2.0087 -2.6886  0.2182
  343TMC3    C7 5203   3.770   0.244  17.132  0.2890 -0.5814 -0.4117
  343TMC3    C8 5204   4.047   0.640  17.063  0.4348 -0.0688  0.2885
  343TMC3    O1 5205   3.712   0.170  17.211 -0.5222 -0.9358 -0.3058
  343TMC3    O2 5206   4.060   0.758  17.087  0.8371  0.0080  0.5246
  344MPD2     C 5207   3.368   0.636  10.993 -0.6524 -0.3860 -0.0530
  344MPD2    C1 5208   3.469   0.542  10.973  0.1134  0.8681 -0.3337
  344MPD2    C2 5209   3.572   0.572  10.887  0.0845 -0.2275 -0.7516
  344MPD2    C3 5210   3.588   0.700  10.831 -0.5587  0.0783 -0.1399
  344MPD2    C4 5211   3.483   0.785  10.849 -0.6821 -0.1697  0.7148
  344MPD2    C5 5212   3.378   0.749  10.925 -0.1493 -0.0616  0.1432
  344MPD2     H 5213   3.642   0.492  10.866  0.0601 -0.5870  0.5552
  344MPD2    H1 5214   3.480   0.879  10.794  1.6613 -1.5391 -1.7013
  344MPD2    H2 5215   3.275   0.620  11.047 -0.7415  0.5920  0.0661
  344MPD2    H3 5216   3.297   0.822  10.923 -1.2881 -1.3207  0.6581
  344MPD2     N 5217   3.696   0.742  10.748 -0.0947 -0.1169 -0.0400
  344MPD2    H5 5218   3.685   0.837  10.715 -2.4289 -0.0789  0.8375
  344MPD2    N1 5219   3.459   0.412  11.022  0.6397  0.2224 -0.2184
  344MPD2    H7 5220   3.526   0.343  10.991  2.1589  0.9824  1.3600
  345TMC3    C1 5221   3.904   0.762  10.660  0.2913  0.3880 -0.0510
  345TMC3    C2 5222   4.026   0.790  10.708  0.8461  0.6234  0.0002
  345TMC3    C3 5223   4.097   0.902  10.661 -0.1891 -0.1078  0.5801
  345TMC3    C4 5224   3.845   0.850  10.568 -0.4970  0.3327 -0.0492
  345TMC3    C5 5225   3.926   0.942  10.507 -0.4242 -0.9264  0.0348
  345TMC3    C6 5226   4.052   0.965  10.549 -0.3447  0.0077  0.3376
  345TMC3     C 5227   3.816   0.675  10.738 -0.3120 -0.0041  0.7997
  345TMC3     O 5228   3.863   0.580  10.797  0.4793 -0.3249 -0.8259
  345TMC3     H 5229   4.046   0.751  10.808 -4.8877 -1.7078  0.2411
  345TMC3    H1 5230   3.745   0.835  10.530  0.0929  2.3727 -2.3975
  345TMC3    H2 5231   4.112   1.036  10.494 -1.9310  0.0456 -1.3540
  345TMC3    C7 5232   3.878   1.047  10.418  0.1272 -0.8711  0.4370
  345TMC3    C8 5233   4.127   0.996  10.771 -0.0271 -0.1081  0.2165
  345TMC3    O1 5234   3.930   1.157  10.432  0.5228 -0.6120  0.6112
  345TMC3    O2 5235   4.140   0.953  10.884  0.1551  0.1144  0.5387
  346MPD2     C 5236   4.449   2.230  13.928  0.0030  0.2635 -0.1799
  346MPD2    C1 5237   4.582   2.223  13.902  0.1035  0.5746 -0.2594
  346MPD2    C2 5238   4.653   2.337  13.936  0.6596  0.5799 -0.4994
  346MPD2    C3 5239   4.595   2.447  13.992 -0.2123  0.3025 -0.3604
  346MPD2    C4 5240   4.467   2.452  14.016  0.1410 -0.1848  0.1854
  346MPD2    C5 5241   4.388   2.345  13.972 -0.5747 -0.2750 -0.0654
  346MPD2     H 5242   0.018   2.342  13.924  0.4846  2.8808 -1.1168
  346MPD2    H1 5243   4.416   2.541  14.050 -0.7567 -0.7547  0.3447
  346MPD2    H2 5244   4.378   2.156  13.891  1.9531 -1.1260 -1.1177
  346MPD2    H3 5245   4.280   2.338  13.979 -0.5737 -1.0833 -0.8634
  346MPD2     N 5246   4.682   2.544  14.036 -0.1310 -0.4774  0.5632
  346MPD2    H5 5247   0.039   2.535  14.020 -0.2190  0.7854 -0.7661
  346MPD2    N1 5248   4.650   2.121  13.833 -0.0134 -0.0057  0.7298
  346MPD2    H7 5249   4.741   2.156  13.805  1.5131 -4.0984  0.5015
  347TMC3    C1 5250   0.032   2.704  14.170 -0.3005 -0.6067  0.5304
  347TMC3    C2 5251   0.132   2.731  14.081 -1.3274  0.4672  1.1543
  347TMC3    C3 5252   0.253   2.780  14.130  0.5658  0.4973  0.0015
  347TMC3    C4 5253   0.043   2.749  14.298 -0.6033 -1.1037  0.1533
  347TMC3    C5 5254   0.161   2.815  14.336  0.4261 -0.1857  0.0526
  347TMC3    C6 5255   0.269   2.825  14.258  0.1768  0.0202 -0.1160
  347TMC3     C 5256   4.653   2.635  14.129 -0.4217  0.2743  0.0373
  347TMC3     O 5257   4.547   2.664  14.188 -0.3455  0.2550 -0.9765
  347TMC3     H 5258   0.115   2.698  13.979 -0.5344  1.3786  0.7284
  347TMC3    H1 5259   4.710   2.722  14.370 -1.5456 -0.3887 -0.5611
  347TMC3    H2 5260   0.357   2.879  14.289  0.7597 -1.5317  0.9268
  347TMC3    C7 5261   0.170   2.860  14.477  0.1374  0.1849 -0.3631
  347TMC3    C8 5262   0.362   2.722  14.063 -0.7813  0.2655 -0.6596
  347TMC3    O1 5263   0.092   2.814  14.557  0.1311 -0.3201  0.1386
  347TMC3    O2 5264   0.451   2.665  14.121  0.5108  0.3609 -0.6521
  348MPD2     C 5265   3.300   2.042  11.818  0.2489 -0.0818  0.5293
  348MPD2    C1 5266   3.270   1.975  11.706  0.3456  0.7108 -0.3248
  348MPD2    C2 5267   3.252   2.049  11.582  0.4311 -0.3577 -0.0376
  348MPD2    C3 5268   3.255   2.188  11.583  0.7370  0.0959 -0.7307
  348MPD2    C4 5269   3.301   2.251  11.696  0.1841  0.1508 -0.5540
  348MPD2    C5 5270   3.320   2.183  11.815  0.7254 -0.6949  0.9401
  348MPD2     H 5271   3.232   1.994  11.490 -0.7294  0.3834 -0.2335
  348MPD2    H1 5272   3.316   2.358  11.706 -1.0167  0.5923 -3.6732
  348MPD2    H2 5273   3.293   1.994  11.915 -3.0812  1.8139  1.2312
  348MPD2    H3 5274   3.359   2.234  11.902  2.8580  0.2185 -0.5467
  348MPD2     N 5275   3.223   2.257  11.464  0.0904 -0.0185 -0.5418
  348MPD2    H5 5276   3.203   2.202  11.380 -2.2948  0.7603 -0.5067
  348MPD2    N1 5277   3.259   1.839  11.699 -0.0894  0.4805 -0.8020
  348MPD2    H7 5278   3.233   1.813  11.605 -0.9323 -1.4214 -0.0597
  349TMC3    C1 5279   3.244   1.616  11.762  0.6863 -0.0783 -0.4102
  349TMC3    C2 5280   3.305   1.517  11.835 -0.3103  0.3474  0.5080
  349TMC3    C3 5281   3.270   1.388  11.809 -0.4326 -0.1615 -0.7630
  349TMC3    C4 5282   3.144   1.585  11.673  0.6472  0.4024  0.3091
  349TMC3    C5 5283   3.106   1.455  11.651  0.0840  0.1109  0.2412
  349TMC3    C6 5284   3.166   1.355  11.725 -0.2676 -0.2558  0.4647
  349TMC3     C 5285   3.268   1.749  11.803 -0.0869  0.0646 -0.4042
  349TMC3     O 5286   3.277   1.768  11.923  0.5999 -0.4563  0.1860
  349TMC3     H 5287   3.382   1.523  11.911 -1.1865 -0.4506  1.4723
  349TMC3    H1 5288   3.091   1.665  11.622  2.4889  0.1763 -1.9833
  349TMC3    H2 5289   3.132   1.252  11.715 -1.8226  0.2614  0.3683
  349TMC3    C7 5290   2.988   1.427  11.566 -0.3624  0.5660  0.2537
  349TMC3    C8 5291   3.315   1.292  11.903 -1.1166  0.2204 -0.0726
  349TMC3    O1 5292   2.954   1.314  11.550 -0.0926  0.3086 -0.6889
  349TMC3    O2 5293   3.235   1.261  11.988  0.1714 -0.6588 -1.0319
  350MPD2     C 5294   1.366   4.578  10.250 -0.3656  0.1228 -0.4675
  350MPD2    C1 5295   1.350   4.446  10.227  0.1136 -0.3488  0.1814
  350MPD2    C2 5296   1.412   4.354  10.313 -0.3675 -0.1198 -0.4363
  350MPD2    C3 5297   1.486   4.399  10.420  0.2584  0.2787  0.3640
  350MPD2    C4 5298   1.499   4.537  10.442 -0.4651 -0.0763 -0.1176
  350MPD2    C5 5299   1.436   4.625  10.357 -0.3846  0.1638  0.3753
  350MPD2     H 5300   1.412   4.248  10.294 -0.7101 -0.4038  1.1905
  350MPD2    H1 5301   1.567   4.581  10.514 -1.3583  2.4139 -0.7965
  350MPD2    H2 5302   1.316   4.646  10.182 -0.0814  0.0785 -0.7247
  350MPD2    H3 5303   1.460   4.731  10.350 -3.5263  0.8868  0.6372
  350MPD2     N 5304   1.553   4.303  10.500 -0.3977  0.3446 -0.2891
  350MPD2    H5 5305   1.533   4.207  10.475 -1.4915  0.2245  1.0491
  350MPD2    N1 5306   1.284   4.390  10.113  0.4131 -0.1550  0.2937
  350MPD2    H7 5307   1.285   4.288  10.110  0.4470 -0.1410 -0.1893
  351TMC3    C1 5308   1.176   4.380   9.912  0.6838 -0.3695  0.3136
  351TMC3    C2 5309   1.241   4.341   9.802 -0.1838  0.1064 -0.5814
  351TMC3    C3 5310   1.222   4.223   9.739  0.6943 -0.0111  0.0938
  351TMC3    C4 5311   1.095   4.288   9.971 -0.1388  0.1103 -0.1002
  351TMC3    C5 5312   1.057   4.174   9.895  0.7237 -0.2036 -0.3022
  351TMC3    C6 5313   1.120   4.138   9.774  0.2132  0.4062  0.1035
  351TMC3     C 5314   1.248   4.460   9.998 -0.1083  0.5141  0.0025
  351TMC3     O 5315   1.252   4.578   9.965  0.2071  0.0312 -0.1234
  351TMC3     H 5316   1.310   4.417   9.766  0.8737 -0.8494 -0.5988
  351TMC3    H1 5317   1.048   4.318  10.064  1.8487 -0.0113  0.9497
  351TMC3    H2 5318   1.098   4.048   9.717 -1.1334 -0.6223  2.2293
  351TMC3    C7 5319   0.931   4.114   9.943 -0.3472 -0.2340  0.9285
  351TMC3    C8 5320   1.314   4.186   9.632 -0.2745 -0.1742 -0.0155
  351TMC3    O1 5321   0.888   4.161  10.050  0.0187  1.0378  0.0087
  351TMC3    O2 5322   1.416   4.258   9.641 -0.8856  0.1434 -0.2292
  352MPD2     C 5323   1.063   2.370   1.279  1.0948  0.5821 -0.0220
  352MPD2    C1 5324   0.989   2.292   1.197 -0.5066 -0.1056  0.6742
  352MPD2    C2 5325   1.043   2.176   1.142 -0.4177  0.2413  0.5231
  352MPD2    C3 5326   1.174   2.144   1.166  0.2306 -0.0636  0.2812
  352MPD2    C4 5327   1.248   2.230   1.240  0.2731 -0.3349 -0.1667
  352MPD2    C5 5328   1.196   2.336   1.301 -0.6649 -0.0171  0.1002
  352MPD2     H 5329   0.981   2.103   1.092  0.3483  0.1022 -0.2082
  352MPD2    H1 5330   1.352   2.217   1.268  0.9518 -0.8387 -2.9433
  352MPD2    H2 5331   1.020   2.449   1.340  3.1199  0.1318  1.9893
  352MPD2    H3 5332   1.271   2.393   1.355  0.7662 -1.9642  0.1812
  352MPD2     N 5333   1.240   2.030   1.115  0.1051  0.1769 -0.0900
  352MPD2    H5 5334   1.336   2.012   1.144  0.3294  0.5149 -0.6202
  352MPD2    N1 5335   0.857   2.339   1.160  0.7458 -0.2254 -0.4006
  352MPD2    H7 5336   0.837   2.431   1.196 -1.7534 -0.5042 -1.0854
  353TMC3    C1 5337   1.269   1.816   0.992  0.0551 -0.0018  0.0546
  353TMC3    C2 5338   1.340   1.740   1.072 -0.4316  0.0980  0.4512
  353TMC3    C3 5339   1.376   1.615   1.023  0.5410 -0.0436 -0.3343
  353TMC3    C4 5340   1.239   1.774   0.869  0.2634 -0.2077  0.1054
  353TMC3    C5 5341   1.269   1.648   0.819 -0.4431  0.2755  0.3676
  353TMC3    C6 5342   1.341   1.568   0.897 -0.4711  0.3721 -0.1560
  353TMC3     C 5343   1.186   1.937   1.031 -0.0257 -0.6441  0.0010
  353TMC3     O 5344   1.074   1.935   0.978 -0.3612 -0.1828  1.0410
  353TMC3     H 5345   1.376   1.776   1.167  0.6034  0.2097  0.0154
  353TMC3    H1 5346   1.186   1.847   0.807 -0.2533 -1.1274 -0.5342
  353TMC3    H2 5347   1.356   1.466   0.864  2.3030  0.6579  0.1904
  353TMC3    C7 5348   1.145   1.580   0.769 -0.4889  0.2751 -0.2517
  353TMC3    C8 5349   1.469   1.541   1.104 -0.1092 -0.5180  0.2902
  353TMC3    O1 5350   1.153   1.463   0.750 -0.3627 -0.0286  0.4334
  353TMC3    O2 5351   1.535   1.599   1.190 -0.3930 -0.5551  0.2908
  354TMC3    C1 5352   2.675   2.707  13.815 -0.3463 -0.2592 -0.3351
  354TMC3    C2 5353   2.723   2.829  13.828 -0.0539 -1.3392 -0.5377
  354TMC3    C3 5354   2.818   2.866  13.733  0.1079 -0.3216  0.8315
  354TMC3    C4 5355   2.718   2.623  13.714  0.5501  0.3943 -0.7775
  354TMC3    C5 5356   2.834   2.651  13.642 -0.2470 -0.1738 -0.0859
  354TMC3    C6 5357   2.884   2.774  13.656 -0.5904 -0.9376 -0.1110
  354TMC3     C 5358   2.624   2.633  13.930 -0.7384 -0.5161 -0.4602
  354TMC3     O 5359   2.566   2.525  13.913 -0.4833  0.2475 -0.3142
  354TMC3     H 5360   2.685   2.901  13.900  0.8491 -2.0621  0.6681
  354TMC3    H1 5361   2.688   2.519  13.720  0.8852  0.2519 -1.5958
  354TMC3    H2 5362   2.963   2.811  13.592  0.1051 -1.5004  0.4198
  354TMC3    C7 5363   2.842   2.618  13.504  0.2884 -0.0177  0.3340
  354TMC3    C8 5364   2.794   2.991  13.665  0.0786  0.3803 -0.2422
  354TMC3    O1 5365   2.745   2.575  13.448 -0.1999 -0.2331  0.5217
  354TMC3    O2 5366   2.684   3.039  13.655 -0.6499 -0.0859 -0.5480
  355MPD2     C 5367   2.374   3.508  12.213  0.1123  0.2517  0.4524
  355MPD2    C1 5368   2.458   3.605  12.252  0.1911 -0.7644  0.1056
  355MPD2    C2 5369   2.552   3.575  12.345  0.7771 -0.0362 -0.1532
  355MPD2    C3 5370   2.573   3.443  12.387  0.9477  0.0857 -1.0937
  355MPD2    C4 5371   2.485   3.346  12.342  0.7822 -0.1027 -0.3124
  355MPD2    C5 5372   2.383   3.382  12.265 -0.4777 -0.5806  0.0588
  355MPD2     H 5373   2.604   3.658  12.391 -0.0361  0.1898  0.3625
  355MPD2    H1 5374   2.489   3.243  12.376 -1.9023  0.1472  0.7539
  355MPD2    H2 5375   2.291   3.525  12.146  0.8780 -2.1282 -1.1230
  355MPD2    H3 5376   2.313   3.308  12.229  1.9684 -2.2688 -1.1805
  355MPD2     N 5377   2.664   3.393  12.486 -0.8385  0.2346 -0.2454
  355MPD2    H5 5378   2.644   3.298  12.516 -0.4808  0.2372  0.0059
  355MPD2    N1 5379   2.455   3.731  12.198 -0.1145 -0.2166 -0.3290
  355MPD2    H7 5380   2.377   3.744  12.135  0.0923  1.9796 -0.1401
  356TMC3    C1 5381   2.827   3.577  12.498  0.3034 -0.9775  0.0629
  356TMC3    C2 5382   2.845   3.583  12.362 -0.0833 -0.4547  0.3184
  356TMC3    C3 5383   2.909   3.695  12.321  0.2468  0.3877 -0.5555
  356TMC3    C4 5384   2.887   3.666  12.587  0.0707  0.3566 -0.2756
  356TMC3    C5 5385   2.959   3.775  12.542 -0.0800 -0.2234  1.3226
  356TMC3    C6 5386   2.973   3.784  12.405 -0.5160  0.3587  0.1110
  356TMC3     C 5387   2.767   3.463  12.552  0.1817 -0.8390 -0.5885
  356TMC3     O 5388   2.836   3.426  12.649 -0.0487  0.6678 -0.0526
  356TMC3     H 5389   2.803   3.509  12.295 -1.2593 -1.0608  1.7034
  356TMC3    H1 5390   2.871   3.666  12.694 -1.0054 -0.5015 -0.4407
  356TMC3    H2 5391   3.045   3.860  12.374  0.7737 -0.4375  1.1348
  356TMC3    C7 5392   3.054   3.835  12.627 -0.9561  0.7048 -0.0504
  356TMC3    C8 5393   2.899   3.719  12.179  0.3512 -0.3388 -0.2546
  356TMC3    O1 5394   3.093   3.761  12.719 -0.2217  0.1490  0.8258
  356TMC3    O2 5395   2.861   3.634  12.101  0.2417  0.0110 -0.5418
  357MPD2     C 5396   2.627   4.005   1.183  0.0502  0.6841  0.0457
  357MPD2    C1 5397   2.746   3.941   1.217  0.3309  0.4387 -0.9967
  357MPD2    C2 5398   2.782   3.949   1.353  0.5824  0.7263 -0.0802
  357MPD2    C3 5399   2.712   4.026   1.446  0.0379  0.4838 -0.5674
  357MPD2    C4 5400   2.598   4.089   1.408  0.2100 -0.0152  0.0496
  357MPD2    C5 5401   2.555   4.076   1.281 -0.7326 -0.4886  0.9104
  357MPD2     H 5402   2.868   3.895   1.393  0.5452  1.2253  0.6849
  357MPD2    H1 5403   2.536   4.139   1.481  2.6156  2.6236  0.2543
  357MPD2    H2 5404   2.588   4.005   1.082  1.1388  0.7360 -0.3676
  357MPD2    H3 5405   2.463   4.125   1.249  0.3370  0.7163 -0.3296
  357MPD2     N 5406   2.749   4.047   1.577  0.0291  0.1734  0.5898
  357MPD2    H5 5407   2.681   4.096   1.635 -1.4101 -1.1532  0.0083
  357MPD2    N1 5408   2.828   3.857   1.126  0.0150 -0.2585 -0.3910
  357MPD2    H7 5409   2.794   3.862   1.030 -1.2733  0.4093  0.1042
  358TMC3    C1 5410   2.994   3.697   1.054  0.1281  0.4163 -0.0749
  358TMC3    C2 5411   2.901   3.640   0.973 -0.3571 -0.1827 -0.5225
  358TMC3    C3 5412   2.936   3.514   0.921  0.0052 -0.4117  0.3798
  358TMC3    C4 5413   3.113   3.640   1.087 -0.8801 -0.4783 -0.2633
  358TMC3    C5 5414   3.138   3.512   1.031 -0.6566  0.7304  0.0743
  358TMC3    C6 5415   3.041   3.444   0.960  0.8186  0.3759 -0.3430
  358TMC3     C 5416   2.949   3.789   1.158  0.0825  0.0676  0.2940
  358TMC3     O 5417   3.015   3.794   1.267  0.6979 -0.4408 -0.0596
  358TMC3     H 5418   2.804   3.684   0.956 -1.0549 -2.1195 -1.5280
  358TMC3    H1 5419   3.187   3.696   1.143 -0.2784 -1.4671 -0.0710
  358TMC3    H2 5420   3.072   3.351   0.913  1.3018  0.3591  0.0082
  358TMC3    C7 5421   3.268   3.452   1.057 -0.1797 -0.0822 -0.2417
  358TMC3    C8 5422   2.839   3.436   0.857 -0.6565  0.3523 -0.2776
  358TMC3    O1 5423   3.304   3.367   0.980 -0.3156 -0.0026 -0.2536
  358TMC3    O2 5424   2.749   3.481   0.788 -0.2460  0.1618  0.3734
  359MPD2     C 5425   3.149   2.568  12.533  0.4170 -0.1507 -0.3069
  359MPD2    C1 5426   3.020   2.604  12.490  0.1440  0.4738  0.2040
  359MPD2    C2 5427   2.910   2.532  12.536 -0.5109  0.4668  1.4801
  359MPD2    C3 5428   2.927   2.424  12.619  0.4447 -0.5694  0.0519
  359MPD2    C4 5429   3.050   2.383  12.656 -0.4270 -0.0579  0.1051
  359MPD2    C5 5430   3.158   2.453  12.617 -0.0378  0.1010  0.7809
  359MPD2     H 5431   2.814   2.553  12.491  0.4055 -1.5965 -1.4554
  359MPD2    H1 5432   3.062   2.294  12.718  3.6616  0.1066 -0.4655
  359MPD2    H2 5433   3.242   2.606  12.493 -0.3021  0.0825 -1.7558
  359MPD2    H3 5434   3.256   2.422  12.651  0.1620  1.1076  1.1080
  359MPD2     N 5435   2.827   2.349  12.674  0.2990 -0.1065  0.4190
  359MPD2    H5 5436   2.856   2.261  12.716  0.0537 -1.0579 -1.3556
  359MPD2    N1 5437   2.996   2.695  12.386  0.0240 -0.1363 -0.6231
  359MPD2    H7 5438   2.897   2.700  12.366 -0.6253  0.0352  2.6653
  360TMC3    C1 5439   3.044   2.799  12.184 -0.1169 -0.1474  0.2482
  360TMC3    C2 5440   3.141   2.857  12.115  0.1494  0.2474 -0.1503
  360TMC3    C3 5441   3.167   2.826  11.981 -0.3916  0.3224 -1.0632
  360TMC3    C4 5442   2.958   2.720  12.118 -0.2992 -0.2908  0.9377
  360TMC3    C5 5443   2.970   2.702  11.983 -0.6160 -1.0091  0.3362
  360TMC3    C6 5444   3.078   2.747  11.916  0.1981  0.1452 -0.6703
  360TMC3     C 5445   3.095   2.753  12.309  0.3042  0.3674 -0.1222
  360TMC3     O 5446   3.217   2.766  12.319  0.9141  0.4732  0.0294
  360TMC3     H 5447   3.210   2.920  12.169  1.3591 -0.8161 -0.4505
  360TMC3    H1 5448   2.884   2.664  12.174  0.2551 -1.8599  0.0981
  360TMC3    H2 5449   3.094   2.727  11.811 -2.1621  0.5535 -1.1255
  360TMC3    C7 5450   2.865   2.626  11.924 -0.3922  0.3605  0.2688
  360TMC3    C8 5451   3.273   2.889  11.910  0.1170  0.0836 -0.0024
  360TMC3    O1 5452   2.818   2.538  11.995  0.1805  0.1482  0.2074
  360TMC3    O2 5453   3.277   3.012  11.915  0.6296  0.0468 -0.1035
  361MPD2     C 5454   4.661   1.758  16.511 -0.1677 -0.0101 -0.0228
  361MPD2    C1 5455   4.608   1.761  16.636  0.3859  0.0652  0.1763
  361MPD2    C2 5456   4.651   1.672  16.735  0.2557 -0.2147 -0.4214
  361MPD2    C3 5457   0.007   1.584  16.699  0.5952 -0.3058 -0.3360
  361MPD2    C4 5458   0.051   1.569  16.571  0.2316  0.2287  0.5320
  361MPD2    C5 5459   0.009   1.662  16.482  0.7380  0.4118 -0.0433
  361MPD2     H 5460   4.610   1.669  16.836  0.3900 -0.8121 -0.3818
  361MPD2    H1 5461   0.127   1.499  16.539  1.5962  0.7845  2.5958
  361MPD2    H2 5462   4.625   1.832  16.441 -3.8308 -0.2597  1.6117
  361MPD2    H3 5463   0.048   1.659  16.381 -0.6954 -1.1899 -0.5488
  361MPD2     N 5464   0.062   1.487  16.788 -0.1028 -0.1380 -0.0477
  361MPD2    H5 5465   0.125   1.425  16.738 -0.6169  1.4853 -2.6714
  361MPD2    N1 5466   4.511   1.860  16.660 -0.6555 -0.6468  0.2478
  361MPD2    H7 5467   4.508   1.937  16.595 -0.6031 -1.8955 -1.2298
  362TMC3    C1 5468   4.358   1.990  16.783  0.5616  0.1580 -0.6896
  362TMC3    C2 5469   4.289   2.003  16.899 -0.2621  0.1850 -0.2766
  362TMC3    C3 5470   4.201   2.108  16.920 -0.2501  0.2489 -0.2912
  362TMC3    C4 5471   4.330   2.070  16.679 -0.1021 -0.3722 -1.1953
  362TMC3    C5 5472   4.254   2.175  16.700 -1.3536  0.0288 -0.6474
  362TMC3    C6 5473   4.187   2.195  16.818  0.3946  0.0412 -0.0674
  362TMC3     C 5474   4.429   1.871  16.774 -0.5035  0.3993 -0.0568
  362TMC3     O 5475   4.403   1.790  16.862 -0.6598  0.2930  0.3991
  362TMC3     H 5476   4.300   1.938  16.985  0.5504  0.6410 -0.0435
  362TMC3    H1 5477   4.388   2.057  16.589  0.4763 -3.3445 -0.4112
  362TMC3    H2 5478   4.114   2.275  16.829  1.1904  0.6237  0.9345
  362TMC3    C7 5479   4.246   2.280  16.603  0.6872 -0.7439 -0.0206
  362TMC3    C8 5480   4.097   2.090  17.019  0.3508  0.2954 -0.7939
  362TMC3    O1 5481   4.236   2.392  16.638  0.3932 -0.0517  0.6296
  362TMC3    O2 5482   4.063   1.977  17.048 -0.0977 -0.0392 -0.2326
  363TMC3    C1 5483   2.590   4.093   9.813 -0.2554 -0.0075 -0.1903
  363TMC3    C2 5484   2.650   3.999   9.886  0.2262 -0.3383 -0.8686
  363TMC3    C3 5485   2.594   3.984  10.016 -0.3755 -0.3395  0.1959
  363TMC3    C4 5486   2.498   4.188   9.859 -0.1530  0.6126  0.0285
  363TMC3    C5 5487   2.435   4.158   9.980 -0.3990 -0.0240 -0.4654
  363TMC3    C6 5488   2.477   4.053  10.058 -0.5300 -0.1318  0.0828
  363TMC3     C 5489   2.673   4.138   9.706  0.0252  0.1944 -0.0045
  363TMC3     O 5490   2.795   4.120   9.717  0.4187 -0.0982 -0.4881
  363TMC3     H 5491   2.733   3.943   9.846  0.9936  0.4616 -0.4008
  363TMC3    H1 5492   2.459   4.271   9.801 -0.5926  0.7403  0.5010
  363TMC3    H2 5493   2.435   4.057  10.158 -1.1286 -0.1384 -0.1644
  363TMC3    C7 5494   2.325   4.245  10.019  0.4419 -0.2183 -0.9208
  363TMC3    C8 5495   2.618   3.857  10.089  0.4013 -0.1722  0.6409
  363TMC3    O1 5496   2.336   4.356   9.970  0.0827  0.3591 -0.0756
  363TMC3    O2 5497   2.559   3.837  10.194 -0.5488 -0.5790 -0.4651
  364MPD2     C 5498   1.168   3.205  10.766  0.7920 -0.0045 -0.5326
  364MPD2    C1 5499   1.263   3.270  10.690  0.6716  0.0443 -0.6889
  364MPD2    C2 5500   1.383   3.207  10.659 -0.3543  0.6999  0.1360
  364MPD2    C3 5501   1.424   3.100  10.731  0.9528 -0.1989 -0.1044
  364MPD2    C4 5502   1.337   3.046  10.828 -0.1509 -0.1445 -0.1513
  364MPD2    C5 5503   1.209   3.100  10.840  0.6521  0.2341  0.5239
  364MPD2     H 5504   1.453   3.263  10.598 -0.9839  0.2726 -0.9861
  364MPD2    H1 5505   1.357   2.957  10.886 -1.8926 -0.0770  0.5324
  364MPD2    H2 5506   1.070   3.244  10.792  0.9213 -0.7733  1.0431
  364MPD2    H3 5507   1.145   3.061  10.919  0.9711 -1.6730 -0.1615
  364MPD2     N 5508   1.548   3.041  10.723 -0.2545  0.0785 -0.2430
  364MPD2    H5 5509   1.573   2.984  10.803  1.5107  1.1027 -0.0768
  364MPD2    N1 5510   1.228   3.397  10.640  0.0041  0.4169  0.4545
  364MPD2    H7 5511   1.137   3.434  10.665 -2.0530 -3.4314 -1.3593
  365TMC3    C1 5512   1.281   3.622  10.570  0.4368  0.0018 -0.0119
  365TMC3    C2 5513   1.362   3.697  10.478 -0.0308 -0.4188  0.1158
  365TMC3    C3 5514   1.369   3.835  10.495  0.2799 -0.1538  0.1341
  365TMC3    C4 5515   1.219   3.680  10.679 -0.7073 -0.1021 -0.4899
  365TMC3    C5 5516   1.249   3.816  10.697  0.3095 -0.5068  0.6759
  365TMC3    C6 5517   1.317   3.889  10.607 -0.6898 -0.6038 -1.3802
  365TMC3     C 5518   1.303   3.475  10.558  0.6459  0.2869 -0.0948
  365TMC3     O 5519   1.394   3.451  10.479 -0.3086 -0.2762  0.0455
  365TMC3     H 5520   1.387   3.650  10.383 -0.5567  2.4457 -1.4400
  365TMC3    H1 5521   1.161   3.627  10.754  0.1365 -0.3963 -0.0448
  365TMC3    H2 5522   1.320   3.996  10.619 -1.8098 -0.9786  2.0930
  365TMC3    C7 5523   1.198   3.885  10.814 -0.6443 -0.1761 -0.3664
  365TMC3    C8 5524   1.479   3.908  10.424 -0.0507  0.3072 -0.2438
  365TMC3    O1 5525   1.150   3.997  10.804 -0.4421  0.7107  0.4862
  365TMC3    O2 5526   1.487   4.029  10.445  0.4488 -0.4852 -0.2558
  366MPD2     C 5527   0.114   4.457  15.477  0.2599 -0.2149 -0.1345
  366MPD2    C1 5528   0.205   4.503  15.388 -0.7521 -0.2856  0.0014
  366MPD2    C2 5529   0.283   4.419  15.307  0.3326  0.7709  0.2316
  366MPD2    C3 5530   0.275   4.280  15.335 -0.6019 -0.6310 -0.2977
  366MPD2    C4 5531   0.188   4.233  15.426  0.4728 -0.0592 -0.2625
  366MPD2    C5 5532   0.110   4.320  15.498  0.3895  0.1823 -0.1722
  366MPD2     H 5533   0.339   4.456  15.222 -0.2783 -0.0240 -0.5147
  366MPD2    H1 5534   0.163   4.128  15.433 -2.1060  0.6127  0.6041
  366MPD2    H2 5535   0.061   4.518  15.550 -0.1266  0.0564 -0.6455
  366MPD2    H3 5536   0.041   4.274  15.568 -0.6348  1.3057 -0.4552
  366MPD2     N 5537   0.348   4.197  15.240 -0.2069 -0.3093  0.6504
  366MPD2    H5 5538   0.411   4.241  15.174 -0.6820 -1.1632 -0.3801
  366MPD2    N1 5539   0.222   4.635  15.364 -0.6949  0.3618 -0.1123
  366MPD2    H7 5540   0.300   4.660  15.305 -0.6825 -0.2841 -0.3695
  367TMC3    C1 5541   0.170   0.120  15.359 -1.0193 -0.3561 -0.1548
  367TMC3    C2 5542   0.295   0.145  15.388  0.1638 -0.0040  0.0015
  367TMC3    C3 5543   0.372   0.242  15.325 -1.0887  0.2126  0.6987
  367TMC3    C4 5544   0.114   0.184  15.256 -0.0036 -1.4290 -0.1276
  367TMC3    C5 5545   0.187   0.275  15.189  0.0996 -0.2927  0.1820
  367TMC3    C6 5546   0.314   0.310  15.221  0.0908  0.1950  0.5487
  367TMC3     C 5547   0.122   4.730  15.391 -0.1463 -0.6970  0.0588
  367TMC3     O 5548   0.003   4.718  15.418  0.2336 -0.3512  0.1464
  367TMC3     H 5549   0.344   0.077  15.456  0.6756  0.4435  0.0826
  367TMC3    H1 5550   0.011   0.173  15.223 -0.6798 -0.7602  1.6993
  367TMC3    H2 5551   0.367   0.383  15.161 -1.5858  0.6694 -0.3511
  367TMC3    C7 5552   0.123   0.348  15.077 -0.0054  0.0959 -0.7971
  367TMC3    C8 5553   0.488   0.275  15.404  0.3245 -0.0054  0.3104
  367TMC3    O1 5554   0.153   0.468  15.064  0.1693  0.0774 -0.1902
  367TMC3    O2 5555   0.477   0.269  15.524  0.2626  0.2471  0.4465
  368MPD2     C 5556   2.005   1.290  12.723 -0.2127  0.3735  0.8159
  368MPD2    C1 5557   1.961   1.376  12.629 -0.7451  0.0544 -0.0415
  368MPD2    C2 5558   2.051   1.404  12.524 -0.1896 -1.2163 -0.2713
  368MPD2    C3 5559   2.187   1.358  12.529 -0.1511  0.1946  0.2139
  368MPD2    C4 5560   2.232   1.286  12.640 -0.7072 -0.0618  0.5799
  368MPD2    C5 5561   2.131   1.249  12.729 -0.3655 -0.2290 -0.5999
  368MPD2     H 5562   2.024   1.468  12.441  1.8583  0.1639  0.1084
  368MPD2    H1 5563   2.333   1.254  12.661 -0.6466 -1.8288 -2.2692
  368MPD2    H2 5564   1.936   1.257  12.800 -0.9499 -2.1696 -0.9430
  368MPD2    H3 5565   2.157   1.192  12.817  2.4676 -0.5758 -1.6597
  368MPD2     N 5566   2.286   1.391  12.430 -0.3358 -0.5052 -0.3702
  368MPD2    H5 5567   2.379   1.362  12.459  0.5776  1.0729 -1.7076
  368MPD2    N1 5568   1.833   1.439  12.646 -0.2336 -0.0936 -0.1871
  368MPD2    H7 5569   1.760   1.404  12.707  0.0416 -1.6002 -0.6985
  369TMC3    C1 5570   1.659   1.576  12.596 -0.1876 -0.5558  0.4767
  369TMC3    C2 5571   1.638   1.709  12.622 -0.6667 -0.6881 -0.7103
  369TMC3    C3 5572   1.510   1.739  12.673 -0.3164  0.2527 -0.0855
  369TMC3    C4 5573   1.566   1.476  12.609  0.0595 -0.1930  0.0947
  369TMC3    C5 5574   1.441   1.518  12.648 -0.2291  0.1122 -0.2486
  369TMC3    C6 5575   1.414   1.650  12.691  0.9417 -0.6959 -0.4773
  369TMC3     C 5576   1.799   1.540  12.568  0.3308 -0.3475  0.2038
  369TMC3     O 5577   1.873   1.628  12.529 -0.4791 -0.2120 -0.7592
  369TMC3     H 5578   1.722   1.774  12.603 -1.4954 -0.4412 -3.5014
  369TMC3    H1 5579   1.581   1.370  12.599 -0.2524 -0.2161 -0.1454
  369TMC3    H2 5580   1.318   1.681  12.730  0.4174 -1.4623 -1.1444
  369TMC3    C7 5581   1.335   1.421  12.684  0.0266  0.2443 -0.3085
  369TMC3    C8 5582   1.479   1.877  12.716 -0.3092  0.4278  0.0801
  369TMC3    O1 5583   1.357   1.310  12.728  0.3809 -0.0536 -0.7536
  369TMC3    O2 5584   1.368   1.895  12.764  0.5348  0.6764 -0.0765
  370TMC3    C1 5585   1.145   2.159  16.389 -0.3171  0.1871 -0.1086
  370TMC3    C2 5586   1.070   2.083  16.467  0.0290 -0.1451 -0.1979
  370TMC3    C3 5587   1.013   1.968  16.419  0.4826  0.3222 -0.1226
  370TMC3    C4 5588   1.163   2.133  16.257  0.9659  0.0180  0.5261
  370TMC3    C5 5589   1.098   2.024  16.206 -0.3616 -0.2429  0.1192
  370TMC3    C6 5590   1.036   1.934  16.290  0.8860  0.1782  0.4360
  370TMC3     C 5591   1.222   2.262  16.468  0.8643  0.5177  0.2595
  370TMC3     O 5592   1.215   2.274  16.590 -0.4505  0.3063 -0.2407
  370TMC3     H 5593   1.073   2.102  16.574  0.6971  2.2564 -0.6428
  370TMC3    H1 5594   1.239   2.183  16.199  1.8606  0.2140  1.8656
  370TMC3    H2 5595   0.994   1.840  16.256 -2.1818  0.6475  2.8883
  370TMC3    C7 5596   1.131   1.981  16.073 -0.1285  0.0159  0.4532
  370TMC3    C8 5597   0.948   1.874  16.516 -0.2741  0.4210 -0.0095
  370TMC3    O1 5598   1.193   2.063  16.008  0.7985 -0.3493 -0.3181
  370TMC3    O2 5599   0.929   1.761  16.474 -0.6808  0.5442 -0.3062
  371TMC3    C1 5600   2.389   0.589  15.303  0.3025  0.0466  0.8054
  371TMC3    C2 5601   2.273   0.570  15.377  0.5412  0.1810  0.0915
  371TMC3    C3 5602   2.201   0.681  15.411  0.2434 -0.0131  0.3472
  371TMC3    C4 5603   2.434   0.711  15.278 -0.4021 -0.7677 -0.6276
  371TMC3    C5 5604   2.351   0.816  15.299  0.0340 -0.1915 -0.1128
  371TMC3    C6 5605   2.232   0.809  15.374  0.2315 -0.2069  0.4510
  371TMC3     C 5606   2.490   0.481  15.286 -1.3293  0.4623 -0.1301
  371TMC3     O 5607   2.601   0.517  15.246  0.8065  0.3629  0.6654
  371TMC3     H 5608   2.247   0.475  15.423  0.0366 -0.3338 -1.2322
  371TMC3    H1 5609   2.512   0.720  15.203 -2.1283  2.1871 -2.0623
  371TMC3    H2 5610   2.180   0.897  15.410 -0.3423 -0.3497 -0.0284
  371TMC3    C7 5611   2.396   0.948  15.247  0.1266  0.0400  0.5894
  371TMC3    C8 5612   2.103   0.656  15.517  0.2885  0.2001 -0.4132
  371TMC3    O1 5613   2.312   1.032  15.212  0.2831 -0.1008 -0.1112
  371TMC3    O2 5614   2.058   0.543  15.508 -0.0431  0.1367  1.4173
  372MPD2     C 5615   1.697   1.881  13.007  0.2896 -0.0919 -0.1702
  372MPD2    C1 5616   1.796   1.798  13.054 -0.4535 -0.6632  0.2457
  372MPD2    C2 5617   1.776   1.748  13.185  0.3251 -0.7517  0.0591
  372MPD2    C3 5618   1.654   1.759  13.248  0.0958 -0.1891  0.1429
  372MPD2    C4 5619   1.551   1.834  13.197  0.3777  0.3435 -1.2446
  372MPD2    C5 5620   1.577   1.892  13.077  0.2342 -0.3644 -0.4114
  372MPD2     H 5621   1.859   1.698  13.233  1.4086  0.7092 -0.3015
  372MPD2    H1 5622   1.456   1.848  13.248  0.0380 -2.0147 -1.2372
  372MPD2    H2 5623   1.717   1.938  12.917 -0.1355  1.2069  0.5586
  372MPD2    H3 5624   1.497   1.943  13.024  0.8636  0.8328 -0.2134
  372MPD2     N 5625   1.648   1.684  13.368 -0.2471  0.0309 -0.5688
  372MPD2    H5 5626   1.724   1.623  13.394  0.2598  1.8423  2.3206
  372MPD2    N1 5627   1.927   1.778  12.995  0.3104  0.2279 -0.4746
  372MPD2    H7 5628   1.992   1.724  13.052  0.8566 -0.3132 -1.6214
  373TMC3    C1 5629   1.566   1.601  13.565  0.5992  0.4145  0.0177
  373TMC3    C2 5630   1.478   1.616  13.668  0.1276  0.6583 -0.2922
  373TMC3    C3 5631   1.468   1.521  13.762 -0.5393 -0.1488 -0.1203
  373TMC3    C4 5632   1.633   1.479  13.544 -0.0654  0.6217  0.0594
  373TMC3    C5 5633   1.623   1.382  13.647  0.1794  0.3386 -0.4434
  373TMC3    C6 5634   1.526   1.396  13.743 -0.8151  0.1175 -0.1455
  373TMC3     C 5635   1.542   1.696  13.458  0.9200  0.4001  1.0928
  373TMC3     O 5636   1.435   1.753  13.447 -0.0104 -0.0778  0.2282
  373TMC3     H 5637   1.419   1.706  13.680 -0.3448  0.3656 -0.4360
  373TMC3    H1 5638   1.701   1.452  13.463  0.9197  3.6996 -0.1172
  373TMC3    H2 5639   1.498   1.313  13.806 -2.1577  1.4430  1.0063
  373TMC3    C7 5640   1.711   1.271  13.655  0.0715 -0.5390 -0.0835
  373TMC3    C8 5641   1.360   1.544  13.867  0.5808 -0.8364  0.5485
  373TMC3    O1 5642   1.785   1.249  13.558 -0.1260  0.6177  0.3950
  373TMC3    O2 5643   1.261   1.593  13.813  0.1722 -0.2577 -0.1698
  374TMC3    C1 5644   1.509   2.177  10.227  0.2620 -0.5309  0.0625
  374TMC3    C2 5645   1.613   2.243  10.167  0.1342  0.2976 -0.9331
  374TMC3    C3 5646   1.606   2.376  10.166 -0.7395  0.1802 -0.0343
  374TMC3    C4 5647   1.424   2.248  10.307 -0.6993 -0.5177  1.1107
  374TMC3    C5 5648   1.421   2.384  10.309  1.0519  0.4814  0.0386
  374TMC3    C6 5649   1.518   2.448  10.240 -0.0385  0.0271  0.1375
  374TMC3     C 5650   1.502   2.030  10.234 -0.3465 -0.2448  0.1477
  374TMC3     O 5651   1.398   1.970  10.256 -0.4712  0.2239  0.1787
  374TMC3     H 5652   1.679   2.190  10.100  1.1614  2.2411 -1.4548
  374TMC3    H1 5653   1.337   2.196  10.347 -2.1252 -0.6848 -2.2620
  374TMC3    H2 5654   1.535   2.555  10.240 -0.2288  0.0555 -0.7508
  374TMC3    C7 5655   1.320   2.451  10.387 -0.1278 -0.3429 -0.6168
  374TMC3    C8 5656   1.725   2.441  10.098  0.4796  0.1100  0.3477
  374TMC3    O1 5657   1.224   2.385  10.421  0.0103 -0.1575 -0.0095
  374TMC3    O2 5658   1.722   2.561  10.078 -0.7042  0.3533  0.4805
  375MPD2     C 5659   2.580   2.173  17.186 -0.1167 -0.1769  0.1574
  375MPD2    C1 5660   2.462   2.212  17.121  0.2906 -0.5303 -0.2258
  375MPD2    C2 5661   2.457   2.276  17.001  0.3407  0.6793 -0.0040
  375MPD2    C3 5662   2.574   2.299  16.934  0.1640  0.1226  0.1813
  375MPD2    C4 5663   2.692   2.257  16.996  1.1925 -0.3423  0.4382
  375MPD2    C5 5664   2.693   2.213  17.126  0.0881  0.4306 -0.8505
  375MPD2     H 5665   2.363   2.323  16.973 -0.4289 -1.2326 -0.6323
  375MPD2    H1 5666   2.786   2.287  16.951  1.1211 -2.8496 -1.3751
  375MPD2    H2 5667   2.585   2.134  17.287 -0.5001  0.3726  0.3947
  375MPD2    H3 5668   2.784   2.182  17.176 -0.5703 -0.4291 -0.1754
  375MPD2     N 5669   2.580   2.363  16.805 -0.0085 -0.3045 -0.4986
  375MPD2    H5 5670   2.670   2.365  16.759 -0.4267  0.8176 -1.2769
  375MPD2    N1 5671   2.337   2.165  17.167 -0.1997  0.0705  0.1739
  375MPD2    H7 5672   2.264   2.205  17.109 -0.2881  2.9492  2.2733
  376TMC3    C1 5673   2.493   2.460  16.604 -0.6363 -0.2685 -0.5127
  376TMC3    C2 5674   2.612   2.513  16.568 -0.0706 -0.1117 -0.1958
  376TMC3    C3 5675   2.621   2.562  16.441 -0.7119  0.6148  0.2067
  376TMC3    C4 5676   2.386   2.455  16.520 -0.0445 -0.1149 -0.4697
  376TMC3    C5 5677   2.400   2.494  16.393 -0.2476  0.0044  0.1215
  376TMC3    C6 5678   2.515   2.558  16.350  0.1289  0.6583 -0.0022
  376TMC3     C 5679   2.464   2.409  16.742 -0.0684  0.0011 -0.1221
  376TMC3     O 5680   2.352   2.429  16.779  0.2503 -0.0240  0.2392
  376TMC3     H 5681   2.701   2.508  16.630  0.7534 -1.0388 -1.4755
  376TMC3    H1 5682   2.294   2.406  16.550 -0.7572  2.4781  1.6281
  376TMC3    H2 5683   2.539   2.547  16.244  1.3692 -0.9475  0.4321
  376TMC3    C7 5684   2.299   2.459  16.293  0.2979  0.2193  0.5028
  376TMC3    C8 5685   2.734   2.643  16.408  0.2393  0.2653 -0.2093
  376TMC3    O1 5686   2.206   2.392  16.333 -0.0651 -0.4734 -0.4191
  376TMC3    O2 5687   2.839   2.623  16.460  0.2105  0.3925  0.4390
  377MPD2     C 5688   0.855   1.839  12.631  0.6850 -0.3585  0.2949
  377MPD2    C1 5689   0.779   1.940  12.579 -0.4894 -0.3930 -0.0026
  377MPD2    C2 5690   0.668   1.993  12.649 -0.3856 -0.6080 -0.7032
  377MPD2    C3 5691   0.633   1.925  12.767 -0.2223 -0.4374 -0.5704
  377MPD2    C4 5692   0.717   1.827  12.819  0.6383  0.1729  0.0564
  377MPD2    C5 5693   0.822   1.782  12.751 -0.7777 -0.1400  0.1200
  377MPD2     H 5694   0.603   2.068  12.606 -1.3904 -0.7597  0.5548
  377MPD2    H1 5695   0.689   1.785  12.915 -0.0958 -2.1472 -1.1830
  377MPD2    H2 5696   0.942   1.813  12.572 -0.4944 -1.4974 -0.9369
  377MPD2    H3 5697   0.874   1.700  12.798  1.8522  1.0082 -0.7447
  377MPD2     N 5698   0.512   1.948  12.842 -0.5598 -0.4243  0.1913
  377MPD2    H5 5699   0.505   1.873  12.909 -1.3892  1.3919  2.1568
  377MPD2    N1 5700   0.819   1.988  12.447 -0.3919 -0.2668 -0.8139
  377MPD2    H7 5701   0.895   1.929  12.415  2.2573  1.4802  2.2439
  378TMC3    C1 5702   0.760   2.235  12.059 -0.4309 -0.1227  0.4434
  378TMC3    C2 5703   0.735   2.215  12.187  0.2200  0.1058  0.2628
  378TMC3    C3 5704   0.816   2.130  12.261  0.5043  0.1467  0.5744
  378TMC3    C4 5705   0.864   2.175  12.003 -0.0055  0.1259  0.0524
  378TMC3    C5 5706   0.951   2.100  12.077  0.0798 -0.0191 -0.4488
  378TMC3    C6 5707   0.919   2.064  12.206  0.0450  0.6447 -0.0646
  378TMC3     C 5708   0.671   2.321  11.988 -0.0136 -0.2735  0.5260
  378TMC3     O 5709   0.599   2.387  12.061  0.1025 -0.2007 -0.3724
  378TMC3     H 5710   0.659   2.277  12.233  0.8480  0.0298  1.4015
  378TMC3    H1 5711   0.881   2.203  11.900  0.7555  1.9124  0.6707
  378TMC3    H2 5712   0.985   2.008  12.272  0.2067  1.9313  0.8698
  378TMC3    C7 5713   1.054   2.021  12.022  0.3361  0.1832  0.1368
  378TMC3    C8 5714   0.783   2.112  12.395  0.2890 -1.1595 -0.4523
  378TMC3    O1 5715   1.135   1.977  12.104  0.3071  0.0074 -0.1458
  378TMC3    O2 5716   0.715   2.199  12.446 -0.1009 -0.0648 -0.0457
  379MPD2     C 5717   1.574   0.179  16.059  0.1716 -0.5658 -0.2443
  379MPD2    C1 5718   1.473   0.127  16.134 -0.3577 -0.3839  0.1579
  379MPD2    C2 5719   1.500   0.077  16.258  0.1943 -0.0545 -0.8231
  379MPD2    C3 5720   1.628   0.065  16.300 -0.2533 -0.5557  0.2539
  379MPD2    C4 5721   1.732   0.112  16.218 -0.1419 -0.2477 -0.0185
  379MPD2    C5 5722   1.702   0.179  16.104  0.5559  0.7452  0.8918
  379MPD2     H 5723   1.418   0.052  16.325 -0.7921 -0.6324 -2.2327
  379MPD2    H1 5724   1.834   0.104  16.254  0.0243  1.0436 -0.2365
  379MPD2    H2 5725   1.562   0.200  15.953 -0.3809  2.1548  0.3570
  379MPD2    H3 5726   1.786   0.225  16.052  0.4162 -1.4167 -1.2472
  379MPD2     N 5727   1.667   0.007  16.427  0.4995 -0.4668  0.1227
  379MPD2    H5 5728   1.766   4.733  16.442  0.8427  2.2439  0.8357
  379MPD2    N1 5729   1.342   0.136  16.084 -0.0449 -0.2567  0.0465
  379MPD2    H7 5730   1.345   0.195  16.002 -1.5427 -0.0489  0.1341
  380TMC3    C1 5731   1.140   0.077  16.010 -0.4588  0.1313 -0.1960
  380TMC3    C2 5732   1.122   4.700  15.949  0.4382 -0.5819 -0.1088
  380TMC3    C3 5733   1.079   4.692  15.823  0.2852  0.0528 -0.1632
  380TMC3    C4 5734   1.117   0.201  15.949  0.8688  0.0588  0.3804
  380TMC3    C5 5735   1.058   0.194  15.826  0.2665 -0.1858 -0.1520
  380TMC3    C6 5736   1.041   0.069  15.762 -0.3790 -0.2414 -0.0010
  380TMC3     C 5737   1.229   0.072  16.123 -0.4436  0.5014 -0.3240
  380TMC3     O 5738   1.213   4.730  16.210 -0.0195 -0.0658 -0.3597
  380TMC3     H 5739   1.148   4.610  16.003  0.6048 -0.1322  0.5671
  380TMC3    H1 5740   1.132   0.295  16.001 -3.5368  1.0012 -0.0133
  380TMC3    H2 5741   1.017   0.069  15.656  1.0651 -2.9601 -0.3452
  380TMC3    C7 5742   1.033   0.313  15.742  0.5976 -1.2226  1.6942
  380TMC3    C8 5743   1.155   4.598  15.740  0.6460  0.1270 -0.4674
  380TMC3    O1 5744   1.119   0.396  15.747 -0.0871  0.5840 -0.1368
  380TMC3    O2 5745   1.123   4.584  15.621  0.5761 -0.0760  0.7150
  381TMC3    C1 5746   0.968   1.157  16.238 -0.3052 -0.0880  0.4467
  381TMC3    C2 5747   1.070   1.237  16.265  0.0106 -0.8404  0.1654
  381TMC3    C3 5748   1.058   1.344  16.350 -0.5909 -0.7621 -0.5055
  381TMC3    C4 5749   0.844   1.190  16.288  0.3498 -0.0612 -0.5879
  381TMC3    C5 5750   0.833   1.292  16.374  0.3831  0.0716 -0.1893
  381TMC3    C6 5751   0.940   1.374  16.419 -0.6221 -0.0201 -0.6828
  381TMC3     C 5752   0.975   1.039  16.156  0.6125  0.0565  0.1618
  381TMC3     O 5753   0.871   1.009  16.100 -0.3773  0.4904  0.3081
  381TMC3     H 5754   1.166   1.213  16.222  1.1661  4.5250 -0.2524
  381TMC3    H1 5755   0.757   1.137  16.249 -1.2296  1.9165  0.2332
  381TMC3    H2 5756   0.925   1.473  16.461  1.1437 -0.2293  0.4187
  381TMC3    C7 5757   0.732   1.265  16.466  0.2384  0.0303  0.2887
  381TMC3    C8 5758   1.183   1.422  16.350 -0.3565  0.8267  0.4223
  381TMC3    O1 5759   0.701   1.149  16.475 -0.0450  0.1112 -0.0139
  381TMC3    O2 5760   1.239   1.419  16.242 -0.4271  0.0094  0.0767
  382MPD2     C 5761   0.431   4.124  16.887 -0.3373  0.5515 -0.4388
  382MPD2    C1 5762   0.464   4.159  17.017  0.0041 -0.0061  0.9690
  382MPD2    C2 5763   0.485   4.071  17.116 -0.5550 -0.2894  0.1816
  382MPD2    C3 5764   0.462   3.934  17.092 -0.5370  0.1029  0.0653
  382MPD2    C4 5765   0.430   3.901  16.963  0.1123 -1.0384 -0.0721
  382MPD2    C5 5766   0.417   3.989  16.863  0.5637  0.7230 -0.2688
  382MPD2     H 5767   0.499   4.103  17.219  0.0581 -1.0744  0.3453
  382MPD2    H1 5768   0.408   3.798  16.934 -0.8437 -0.0840 -2.8075
  382MPD2    H2 5769   0.429   4.194  16.805 -1.9157 -0.2981 -1.1264
  382MPD2    H3 5770   0.400   3.948  16.764  1.6481  1.9418 -0.9737
  382MPD2     N 5771   0.459   3.834  17.197 -0.2496  0.3182 -0.4355
  382MPD2    H5 5772   0.442   3.737  17.173 -0.6603 -0.3664  2.6219
  382MPD2    N1 5773   0.468   4.299  17.058 -0.3635  0.3292  0.0270
  382MPD2    H7 5774   0.483   4.310  17.158  0.1215 -1.5362  0.1645
  383TMC3    C1 5775   0.503   3.747  17.420 -0.1509  0.3112 -0.3062
  383TMC3    C2 5776   0.422   3.639  17.402 -0.0657  0.4510 -0.0143
  383TMC3    C3 5777   0.435   3.523  17.474  0.4368  0.4836  0.4240
  383TMC3    C4 5778   0.575   3.748  17.534  0.3455  0.4372  0.2238
  383TMC3    C5 5779   0.574   3.642  17.614 -0.5270  0.0134 -0.1869
  383TMC3    C6 5780   0.500   3.531  17.590  0.5297 -0.3439  0.4127
  383TMC3     C 5781   0.499   3.863  17.328  0.0059 -0.0572 -0.7393
  383TMC3     O 5782   0.539   3.961  17.392  0.2910 -0.3364 -0.5651
  383TMC3     H 5783   0.360   3.625  17.314 -2.0290 -0.3882  1.5332
  383TMC3    H1 5784   0.649   3.826  17.545 -0.5286  1.2985  0.0210
  383TMC3    H2 5785   0.490   3.442  17.652  1.2039 -1.5842 -1.2363
  383TMC3    C7 5786   0.675   3.627  17.728  1.3006  0.6907 -0.2315
  383TMC3    C8 5787   0.336   3.409  17.452  0.0386 -0.1146 -0.6774
  383TMC3    O1 5788   0.685   3.520   0.021 -0.2672  0.2444 -0.1116
  383TMC3    O2 5789   0.351   3.305  17.516  0.2211  1.0362 -0.6560
  384MPD2     C 5790   1.315   4.638  12.219  0.3387 -0.3142 -0.1921
  384MPD2    C1 5791   1.401   4.635  12.322  0.3030 -0.1430 -0.9119
  384MPD2    C2 5792   1.509   4.542  12.311 -0.6163  0.3878  0.1538
  384MPD2    C3 5793   1.523   4.468  12.198 -0.4943 -0.6540  0.4066
  384MPD2    C4 5794   1.426   4.469  12.101  0.4046  0.1569 -0.5909
  384MPD2    C5 5795   1.327   4.557  12.108  0.2634 -0.0269 -0.1666
  384MPD2     H 5796   1.577   4.542  12.395 -1.8918 -0.4897  1.1733
  384MPD2    H1 5797   1.423   4.415  12.006  2.0599  0.4952 -0.8348
  384MPD2    H2 5798   1.229   4.704  12.218 -1.3996 -2.6114 -0.1969
  384MPD2    H3 5799   1.255   4.558  12.027 -1.1584 -0.5564  1.0857
  384MPD2     N 5800   1.626   4.370  12.199  0.0903  0.0203 -0.0211
  384MPD2    H5 5801   1.697   4.384  12.270  1.4051 -0.2752 -1.2810
  384MPD2    N1 5802   1.398   4.719  12.434 -0.2521 -0.2640  0.1689
  384MPD2    H7 5803   1.471   4.694  12.500 -1.0113 -1.4270  0.5776
  385TMC3    C1 5804   1.760   4.184  12.153  0.1778 -0.0255 -0.4766
  385TMC3    C2 5805   1.708   4.056  12.164  0.3249 -0.6406  0.2094
  385TMC3    C3 5806   1.718   3.987  12.285 -0.1173  1.1259  0.1712
  385TMC3    C4 5807   1.832   4.236  12.253 -0.4336 -0.1837 -0.2268
  385TMC3    C5 5808   1.838   4.168  12.372  0.2227  0.4246  0.0878
  385TMC3    C6 5809   1.785   4.042  12.394 -0.0717 -0.0409 -0.2099
  385TMC3     C 5810   1.653   4.271  12.105  0.5616 -0.6291 -0.5412
  385TMC3     O 5811   1.581   4.224  12.018  0.2928 -0.2929  0.3615
  385TMC3     H 5812   1.676   4.009  12.072 -0.5791 -2.0923  1.2702
  385TMC3    H1 5813   1.876   4.334  12.245  1.7405 -1.1851 -0.4881
  385TMC3    H2 5814   1.785   3.996  12.492 -1.3905  2.5882  1.0388
  385TMC3    C7 5815   1.837   4.270  12.482 -0.6765  0.2882  0.7314
  385TMC3    C8 5816   1.728   3.844  12.282  0.2178  0.2161 -0.3914
  385TMC3    O1 5817   1.823   4.383  12.448  0.0283  0.1748  0.1972
  385TMC3    O2 5818   1.796   3.789  12.366  0.6528  0.3181  0.5836
  386TMC3    C1 5819   1.548   2.063  11.795 -0.3249  0.4740  0.5557
  386TMC3    C2 5820   1.537   2.083  11.658  0.5492 -0.4587 -0.3735
  386TMC3    C3 5821   1.451   2.184  11.618  0.5825 -0.0473 -0.1212
  386TMC3    C4 5822   1.462   2.118  11.890 -0.2591  0.0846  0.3818
  386TMC3    C5 5823   1.376   2.219  11.843 -0.1173  0.2263  0.2041
  386TMC3    C6 5824   1.374   2.249  11.708 -0.4235  1.0135  0.0616
  386TMC3     C 5825   1.624   1.946  11.834  0.6596  0.0918 -0.0134
  386TMC3     O 5826   1.646   1.864  11.746 -0.2728  0.3216  0.0603
  386TMC3     H 5827   1.599   2.031  11.587  1.8909  1.8382 -0.8753
  386TMC3    H1 5828   1.456   2.088  11.993 -1.0892  0.9865  0.6004
  386TMC3    H2 5829   1.303   2.324  11.673  0.1014  1.6108  0.2875
  386TMC3    C7 5830   1.289   2.283  11.947 -0.2991  0.1408  0.0066
  386TMC3    C8 5831   1.421   2.217  11.482 -0.3305  0.0039  0.0097
  386TMC3    O1 5832   1.330   2.273  12.064 -0.1960 -0.0428  0.2223
  386TMC3    O2 5833   1.342   2.307  11.463  0.1441 -0.5107 -0.2438
  387MPD2     C 5834   3.668   2.393   9.884  0.5754 -0.1193  0.0033
  387MPD2    C1 5835   3.752   2.341   9.986 -0.3437  0.2590  0.6010
  387MPD2    C2 5836   3.776   2.206   9.976  0.0962  0.4276  0.2020
  387MPD2    C3 5837   3.720   2.123   9.882 -0.2380 -0.2412 -0.5454
  387MPD2    C4 5838   3.643   2.180   9.782 -0.0179 -0.5800 -0.2947
  387MPD2    C5 5839   3.614   2.314   9.790  0.4631  0.0187 -0.2337
  387MPD2     H 5840   3.820   2.156  10.061  1.2932 -2.8928 -2.3663
  387MPD2    H1 5841   3.598   2.115   9.708 -0.4036  0.5316 -1.0390
  387MPD2    H2 5842   3.665   2.499   9.863  0.4009 -0.2806 -0.7724
  387MPD2    H3 5843   3.554   2.364   9.715 -0.3254 -1.1733 -0.4155
  387MPD2     N 5844   3.766   1.990   9.887  0.3861 -0.2610  0.4144
  387MPD2    H5 5845   3.827   1.968   9.965  0.4294  0.1828  0.5055
  387MPD2    N1 5846   3.827   2.412  10.083 -0.1350  0.2488  0.3030
  387MPD2    H7 5847   3.883   2.354  10.144 -2.0695 -1.0389  0.8667
  388TMC3    C1 5848   3.903   2.573  10.227 -0.1882  0.0181 -0.5924
  388TMC3    C2 5849   3.969   2.691  10.206  0.3888  0.2465  0.4782
  388TMC3    C3 5850   4.096   2.702  10.258  0.0043  0.4311 -0.2657
  388TMC3    C4 5851   3.961   2.463  10.287  0.1944 -0.1546  0.2737
  388TMC3    C5 5852   4.084   2.484  10.339 -0.4896 -0.1220 -0.0397
  388TMC3    C6 5853   4.153   2.599  10.328  0.3118 -0.3427  0.2037
  388TMC3     C 5854   3.808   2.543  10.118  0.0866 -0.2074  0.0129
  388TMC3     O 5855   3.764   2.634  10.048 -0.5381  0.2348  0.1245
  388TMC3     H 5856   3.928   2.760  10.133 -1.9850 -0.2559  1.3551
  388TMC3    H1 5857   3.918   2.366  10.309  1.7530 -1.0464 -0.6251
  388TMC3    H2 5858   4.250   2.583  10.374 -0.5372 -4.1635  0.7142
  388TMC3    C7 5859   4.167   2.374  10.384  0.0319 -0.1625 -0.4310
  388TMC3    C8 5860   4.149   2.842  10.251  0.1952  0.1417  0.4445
  388TMC3    O1 5861   4.243   2.384  10.477 -0.0677  0.1246 -0.5699
  388TMC3    O2 5862   4.084   2.927  10.187  0.0590  0.2316  0.1154
  389MPD2     C 5863   2.835   4.710  10.816 -0.6417  0.0225  0.5794
  389MPD2    C1 5864   2.768   0.080  10.852 -0.5377  0.2338  0.1516
  389MPD2    C2 5865   2.717   0.087  10.986 -0.6105  0.4236  0.3146
  389MPD2    C3 5866   2.743   4.729  11.084 -0.5221 -0.4733 -0.1491
  389MPD2    C4 5867   2.811   4.616  11.038  1.1397 -0.5766  0.2726
  389MPD2    C5 5868   2.858   4.609  10.907  0.1149 -0.2207 -0.2716
  389MPD2     H 5869   2.665   0.174  11.022 -0.5387 -0.6429  3.0388
  389MPD2    H1 5870   2.833   4.536  11.108 -1.2827  0.7258  2.5240
  389MPD2    H2 5871   2.876   4.700  10.715  0.9316 -0.5980  1.2800
  389MPD2    H3 5872   2.923   4.531  10.870  1.2290 -0.0965  1.4148
  389MPD2     N 5873   2.696   4.736  11.219 -1.1140 -0.0260 -0.5096
  389MPD2    H5 5874   2.684   4.645  11.263 -0.5694  0.3706  0.4764
  389MPD2    N1 5875   2.742   0.179  10.757 -0.1167 -0.3417  0.8658
  389MPD2    H7 5876   2.804   0.176  10.676 -0.7300 -2.3746  0.4695
  390TMC3    C1 5877   2.595   0.075  11.422 -0.0440 -0.2527  0.3074
  390TMC3    C2 5878   2.666   0.112  11.532  0.0628  0.8185 -0.5144
  390TMC3    C3 5879   2.626   0.068  11.660 -0.0762 -0.2337 -0.0029
  390TMC3    C4 5880   2.499   4.721  11.431  0.2022  0.0438  0.3974
  390TMC3    C5 5881   2.460   4.677  11.553  0.1448 -0.3166  0.2556
  390TMC3    C6 5882   2.526   4.717  11.665 -0.2110 -0.0389  0.2224
  390TMC3     C 5883   2.663   0.103  11.294  0.7900 -0.1659 -0.2557
  390TMC3     O 5884   2.690   0.219  11.264 -0.2319  0.2615  0.1926
  390TMC3     H 5885   2.753   0.175  11.527  1.3974 -0.8484  1.5793
  390TMC3    H1 5886   2.448   4.702  11.337  2.0344  1.5137 -0.9113
  390TMC3    H2 5887   2.505   4.668  11.759  1.6200  1.8306  1.6140
  390TMC3    C7 5888   2.385   4.549  11.553  0.0408  0.7045 -0.3457
  390TMC3    C8 5889   2.738   0.012  11.725  0.4711  0.2888 -0.1840
  390TMC3    O1 5890   2.362   4.503  11.438  0.6759 -0.1231  0.6822
  390TMC3    O2 5891   2.768   4.641  11.692 -0.7910  0.1596  0.1504
  391MPD2     C 5892   2.834   2.013  11.014 -0.2829 -0.6820 -0.2075
  391MPD2    C1 5893   2.878   2.131  10.957  0.1888 -0.0500  0.0706
  391MPD2    C2 5894   2.823   2.176  10.838 -0.6203  0.2061  0.4281
  391MPD2    C3 5895   2.735   2.096  10.774  0.1352 -1.0220 -0.0254
  391MPD2    C4 5896   2.703   1.973  10.817 -0.2531  0.6142 -0.4680
  391MPD2    C5 5897   2.750   1.939  10.941  0.6918  0.6319  0.0490
  391MPD2     H 5898   2.841   2.273  10.794  0.5623 -0.5506 -0.7762
  391MPD2    H1 5899   2.622   1.921  10.767 -0.3472  0.5666 -0.2649
  391MPD2    H2 5900   2.868   1.965  11.104  0.5186 -1.7130 -1.0667
  391MPD2    H3 5901   2.718   1.851  10.997 -3.8336  1.0369 -1.9457
  391MPD2     N 5902   2.677   2.152  10.653 -0.5896 -0.5858  0.0088
  391MPD2    H5 5903   2.705   2.245  10.626 -0.3338 -0.6186  0.1631
  391MPD2    N1 5904   2.978   2.201  11.032 -0.2640 -0.0871 -0.5316
  391MPD2    H7 5905   3.026   2.150  11.106 -0.7571 -0.5230 -0.5130
  392TMC3    C1 5906   2.604   2.149  10.435 -0.1050  0.7710 -0.1866
  392TMC3    C2 5907   2.486   2.127  10.370  0.3426 -0.7132 -0.0267
  392TMC3    C3 5908   2.470   2.208  10.257  0.4072  0.1476 -0.3165
  392TMC3    C4 5909   2.710   2.213  10.392 -0.3443 -0.6585 -0.1520
  392TMC3    C5 5910   2.696   2.287  10.277  0.8610 -0.0581 -0.8325
  392TMC3    C6 5911   2.577   2.282  10.204  0.6157  0.0720  0.2610
  392TMC3     C 5912   2.613   2.075  10.558  0.6006 -0.2804  0.0131
  392TMC3     O 5913   2.563   1.961  10.558  0.2663  0.4247 -0.4028
  392TMC3     H 5914   2.400   2.097  10.429  0.5419 -0.6776  0.2806
  392TMC3    H1 5915   2.809   2.210  10.435 -0.1507 -0.8119 -0.6046
  392TMC3    H2 5916   2.570   2.327  10.105 -1.1635  0.8745  0.7529
  392TMC3    C7 5917   2.815   2.374  10.249  0.4580 -0.2225 -0.9773
  392TMC3    C8 5918   2.333   2.243  10.225  0.1121 -0.1554 -0.5027
  392TMC3    O1 5919   2.917   2.371  10.315  0.5159  0.5387  0.5877
  392TMC3    O2 5920   2.246   2.172  10.273  0.0958  0.5506 -0.0233
  393TMC3    C1 5921   1.453   0.177  10.872 -0.3732  0.0280 -0.0199
  393TMC3    C2 5922   1.331   0.235  10.861 -0.4011 -0.1647  0.8830
  393TMC3    C3 5923   1.240   0.203  10.962  0.0033 -1.0032 -0.6938
  393TMC3    C4 5924   1.488   0.093  10.975  0.0827 -0.1985  0.5589
  393TMC3    C5 5925   1.405   0.081  11.077 -0.2303 -0.3737  0.2189
  393TMC3    C6 5926   1.281   0.137  11.079  0.4978  0.3227 -0.0900
  393TMC3     C 5927   1.544   0.191  10.760 -1.0493 -0.1142 -0.2337
  393TMC3     O 5928   1.664   0.164  10.769  0.0313 -0.1777  0.1503
  393TMC3     H 5929   1.291   0.298  10.783  0.6653 -0.3124  0.2063
  393TMC3    H1 5930   1.590   0.058  10.976  0.0142 -0.4144 -0.1384
  393TMC3    H2 5931   1.217   0.127  11.165  1.1317  3.4807  0.7310
  393TMC3    C7 5932   1.418   4.724  11.174  0.1976 -0.0751 -0.2410
  393TMC3    C8 5933   1.102   0.232  10.949  0.6436 -0.1557 -0.5625
  393TMC3    O1 5934   1.373   4.742  11.284 -0.1740 -0.0998 -1.0718
  393TMC3    O2 5935   1.043   0.272  11.051 -0.7056  0.4746 -0.2599
  394TMC3    C1 5936   2.637   0.350  10.646 -0.2406 -0.5303 -0.6391
  394TMC3    C2 5937   2.517   0.348  10.583  0.5121  0.4432  0.2445
  394TMC3    C3 5938   2.522   0.391  10.456 -0.7822 -0.0737  0.2903
  394TMC3    C4 5939   2.757   0.383  10.594 -0.5080 -0.7874 -0.1351
  394TMC3    C5 5940   2.755   0.425  10.469 -0.9503 -0.3675 -0.0682
  394TMC3    C6 5941   2.638   0.430  10.397 -0.0853 -0.2599 -0.4228
  394TMC3     C 5942   2.645   0.279  10.772  0.3919 -0.6336 -0.1856
  394TMC3     O 5943   2.556   0.275  10.857 -0.1553 -0.0323  0.5629
  394TMC3     H 5944   2.428   0.322  10.639  1.8562  0.1828  2.2493
  394TMC3    H1 5945   2.842   0.384  10.661 -0.1482 -1.3590 -0.5818
  394TMC3    H2 5946   2.641   0.467  10.295 -1.1461  4.5663  1.3153
  394TMC3    C7 5947   2.872   0.484  10.415  0.6337  0.1037 -0.1325
  394TMC3    C8 5948   2.402   0.432  10.383  0.1841  0.3471 -0.0399
  394TMC3    O1 5949   2.862   0.548  10.311  1.4159  0.2411 -0.4159
  394TMC3    O2 5950   2.417   0.541  10.324  0.1739  0.1850 -0.6727
  395TMC3    C1 5951   3.757   2.618  14.797 -0.2224 -0.6649  0.1685
  395TMC3    C2 5952   3.661   2.580  14.713 -0.1776 -0.1581  0.0402
  395TMC3    C3 5953   3.591   2.675  14.638 -0.0649 -0.7053  0.0594
  395TMC3    C4 5954   3.799   2.751  14.799  0.3110 -0.2611 -0.4136
  395TMC3    C5 5955   3.741   2.839  14.717 -0.5560 -0.0513 -0.4051
  395TMC3    C6 5956   3.633   2.806  14.637  0.4116  0.9814  0.3399
  395TMC3     C 5957   3.825   2.527  14.878 -0.5280 -0.1176 -0.1392
  395TMC3     O 5958   3.947   2.538  14.903  0.1255  0.7152 -0.5149
  395TMC3     H 5959   3.635   2.475  14.719 -0.7337  0.0006  0.3508
  395TMC3    H1 5960   3.873   2.777  14.873  0.7939 -0.3781 -0.8586
  395TMC3    H2 5961   3.575   2.875  14.577 -2.8903 -2.0291  0.0804
  395TMC3    C7 5962   3.799   2.974  14.710  0.4305  0.5127 -0.3131
  395TMC3    C8 5963   3.455   2.647  14.611 -0.2322 -0.2575 -0.5265
  395TMC3    O1 5964   3.896   2.991  14.782  0.1635 -0.1540  0.2260
  395TMC3    O2 5965   3.376   2.739  14.602 -0.0093  0.4395 -0.7392
  396MPD2     C 5966   2.806   3.328  16.880  0.3655  0.5637 -0.4569
  396MPD2    C1 5967   2.934   3.344  16.922 -1.0473  0.3967 -0.1215
  396MPD2    C2 5968   2.997   3.459  16.886  0.3659 -0.6493 -0.2212
  396MPD2    C3 5969   2.939   3.555  16.814 -0.1066  0.0426 -0.9338
  396MPD2    C4 5970   2.811   3.533  16.764  0.6329 -0.1335 -0.0076
  396MPD2    C5 5971   2.743   3.418  16.795 -0.8701 -0.1058 -0.3177
  396MPD2     H 5972   3.090   3.489  16.932  0.5014  0.8770 -1.4783
  396MPD2    H1 5973   2.754   3.603  16.704  2.2002 -0.5478 -1.9956
  396MPD2    H2 5974   2.759   3.235  16.910 -0.4279  1.1530  0.1330
  396MPD2    H3 5975   2.651   3.400  16.741 -0.5220  0.1164 -0.9748
  396MPD2     N 5976   3.012   3.673  16.796  0.7105  0.4779  0.3039
  396MPD2    H5 5977   3.101   3.674  16.844  1.2773 -2.0827 -0.7357
  396MPD2    N1 5978   3.001   3.244  17.003  0.1716 -0.1583 -0.0276
  396MPD2    H7 5979   2.945   3.168  17.039 -0.1490  0.4745  0.7971
  397TMC3    C1 5980   3.176   3.152  17.140 -0.1585  0.3291  0.0383
  397TMC3    C2 5981   3.304   3.196  17.175 -0.1615 -0.1599 -0.8376
  397TMC3    C3 5982   3.348   3.207  17.303 -0.0343 -0.1781 -0.2649
  397TMC3    C4 5983   3.085   3.141  17.246  0.7110 -0.1533  0.4080
  397TMC3    C5 5984   3.131   3.165  17.372  0.1884 -0.4417  0.0752
  397TMC3    C6 5985   3.259   3.187  17.410 -0.2116  0.7560  0.3741
  397TMC3     C 5986   3.138   3.244  17.032 -1.1035  0.1056 -0.5880
  397TMC3     O 5987   3.222   3.328  16.997  0.3453 -0.4292  0.1739
  397TMC3     H 5988   3.385   3.190  17.103  1.3722  1.1484  0.7851
  397TMC3    H1 5989   2.983   3.113  17.224  0.4896  1.2854 -0.3884
  397TMC3    H2 5990   3.286   3.212  17.511  1.0720  0.8762 -0.0010
  397TMC3    C7 5991   3.029   3.141  17.475 -0.3122  0.2628 -0.5690
  397TMC3    C8 5992   3.418   3.329  17.328 -0.4491  0.3728  0.1674
  397TMC3    O1 5993   2.917   3.100  17.437  0.2750  0.0860 -0.7010
  397TMC3    O2 5994   3.457   3.350  17.440 -0.2547 -0.4183 -0.0385
  398MPD2     C 5995   1.352   0.276   0.016  0.2303  0.2644  0.0647
  398MPD2    C1 5996   1.412   0.259   0.140 -0.2568  0.5590 -0.4334
  398MPD2    C2 5997   1.458   0.375   0.202 -0.3475  0.1602 -0.5951
  398MPD2    C3 5998   1.464   0.501   0.136  0.4708 -0.3236  0.1767
  398MPD2    C4 5999   1.418   0.505   0.007  0.1899 -0.1942  0.5037
  398MPD2    C5 6000   1.361   0.398  17.716  0.3155  0.0085 -0.7317
  398MPD2     H 6001   1.509   0.364   0.297  0.3861  2.4670 -0.7377
  398MPD2    H1 6002   1.439   0.592  17.712 -2.8728 -1.5314 -2.4743
  398MPD2    H2 6003   1.288   0.206  17.731  0.3028 -0.0712  0.4272
  398MPD2    H3 6004   1.331   0.403  17.612 -1.8653  1.9280 -0.0150
  398MPD2     N 6005   1.532   0.608   0.198  0.5427 -0.5047  0.9125
  398MPD2    H5 6006   1.569   0.586   0.290 -1.6193 -3.0150  1.1830
  398MPD2    N1 6007   1.408   0.134   0.214 -0.3801  0.0172  0.1367
  398MPD2    H7 6008   1.448   0.144   0.307  1.0954 -2.5372 -0.2259
  399TMC3    C1 6009   1.394   4.640   0.252  0.5052  0.1767 -0.1268
  399TMC3    C2 6010   1.486   4.652   0.349  0.0297  0.3595 -0.4571
  399TMC3    C3 6011   1.554   4.548   0.382  0.2980  0.2549 -0.1739
  399TMC3    C4 6012   1.367   4.524   0.182 -0.2900 -0.1802  1.7192
  399TMC3    C5 6013   1.444   4.419   0.223 -0.0336  0.0201 -0.2998
  399TMC3    C6 6014   1.530   4.424   0.326 -0.5525 -0.0971  0.0264
  399TMC3     C 6015   1.353   0.017   0.167  0.7127  1.1001  0.6335
  399TMC3     O 6016   1.312   4.727   0.057  0.0741 -0.1058 -0.1205
  399TMC3     H 6017   1.512   0.006   0.392 -1.5794  0.0464  1.2097
  399TMC3    H1 6018   1.282   4.502   0.119  1.0570 -1.2018  0.2492
  399TMC3    H2 6019   1.595   4.340   0.351 -0.5708  0.4315  1.8930
  399TMC3    C7 6020   1.431   4.287   0.159  0.0059 -0.0929 -0.1249
  399TMC3    C8 6021   1.678   4.568   0.452 -0.2660  0.1670 -0.0532
  399TMC3    O1 6022   1.487   4.197   0.218  0.1890 -0.0852  0.4898
  399TMC3    O2 6023   1.739   4.673   0.443 -0.2896 -0.8059  0.6324
  400TMC3    C1 6024   4.696   3.231  17.029  0.8334  1.5412  0.2211
  400TMC3    C2 6025   4.569   3.207  16.987 -0.2438 -0.0305  0.6008
  400TMC3    C3 6026   4.481   3.314  16.983 -0.2489 -0.4595 -0.1742
  400TMC3    C4 6027   4.737   3.365  17.048  0.6818 -0.0938  0.1093
  400TMC3    C5 6028   4.648   3.468  17.022  0.8366  0.2726 -0.4100
  400TMC3    C6 6029   4.518   3.448  16.997 -0.9059  0.1640 -0.2046
  400TMC3     C 6030   0.035   3.115  17.057 -0.2168  0.0108 -0.0275
  400TMC3     O 6031   4.735   3.009  17.020  0.3861  0.4282  0.9973
  400TMC3     H 6032   4.524   3.108  16.982 -1.9150  0.8667 -2.2164
  400TMC3    H1 6033   0.098   3.393  17.062  0.8288 -0.1062 -0.9371
  400TMC3    H2 6034   4.444   3.526  17.008  0.7042  1.6088  0.4572
  400TMC3    C7 6035   4.709   3.593  16.991 -0.4281 -0.3220 -0.2305
  400TMC3    C8 6036   4.338   3.292  16.951  0.1996 -0.3277  0.6809
  400TMC3    O1 6037   0.065   3.628  17.049 -0.4364 -0.1710  0.3987
  400TMC3    O2 6038   4.256   3.338  17.029 -0.5039 -1.0529 -0.2737
  401MPD2     C 6039   2.937   1.685   1.787  0.4429 -0.3833 -0.6582
  401MPD2    C1 6040   2.904   1.658   1.656  0.0830 -0.0052  0.0800
  401MPD2    C2 6041   2.865   1.530   1.627  0.1526 -0.3064 -0.1497
  401MPD2    C3 6042   2.868   1.432   1.722  0.5881 -0.4659 -0.5440
  401MPD2    C4 6043   2.912   1.459   1.848 -0.3305 -0.2755  0.2356
  401MPD2    C5 6044   2.935   1.592   1.888 -0.1823  0.6341  0.1358
  401MPD2     H 6045   2.833   1.502   1.527 -0.2995 -2.6726  0.6603
  401MPD2    H1 6046   2.901   1.392   1.933 -0.9995  0.9760  1.1413
  401MPD2    H2 6047   2.962   1.787   1.815  1.4116 -0.6910 -0.4076
  401MPD2    H3 6048   2.963   1.611   1.991  3.3823 -2.8850 -0.1842
  401MPD2     N 6049   2.823   1.303   1.676  0.6728 -0.6297 -0.2117
  401MPD2    H5 6050   2.803   1.295   1.577  2.2429  2.9705 -0.8004
  401MPD2    N1 6051   2.902   1.756   1.552  0.8627 -0.1095 -0.3063
  401MPD2    H7 6052   2.863   1.725   1.463 -3.1536  0.9396  1.0977
  402TMC3    C1 6053   2.815   1.073   1.676 -0.0868 -0.4598  0.7087
  402TMC3    C2 6054   2.851   0.949   1.734  0.6663  0.6504  0.3469
  402TMC3    C3 6055   2.842   0.841   1.656 -0.8732 -1.0936  0.2082
  402TMC3    C4 6056   2.769   1.081   1.543  0.0901 -0.1244 -0.4618
  402TMC3    C5 6057   2.784   0.969   1.467 -0.2185 -0.0737 -0.1163
  402TMC3    C6 6058   2.811   0.846   1.517 -0.5359 -0.0553  0.7321
  402TMC3     C 6059   2.820   1.193   1.760 -0.3150  0.2683 -0.4691
  402TMC3     O 6060   2.849   1.173   1.874  0.0961  0.4740 -0.3597
  402TMC3     H 6061   2.871   0.953   1.840 -0.5766  0.6387  0.5875
  402TMC3    H1 6062   2.719   1.170   1.506 -0.8730 -0.2102  0.6119
  402TMC3    H2 6063   2.808   0.754   1.459  1.3788 -1.3415  2.6675
  402TMC3    C7 6064   2.737   0.985   1.328  0.2934 -0.3387  0.1895
  402TMC3    C8 6065   2.930   0.739   1.701 -0.2453 -0.3492  0.2120
  402TMC3    O1 6066   2.661   1.079   1.310 -0.4968  0.1149  0.0803
  402TMC3    O2 6067   3.009   0.692   1.624  0.0107 -0.0389  0.4026
  403MPD2     C 6068   1.321   3.810  13.259 -0.0640  0.0736 -0.5008
  403MPD2    C1 6069   1.284   3.940  13.282  0.2024 -0.2280  0.5760
  403MPD2    C2 6070   1.350   4.026  13.371  0.1418 -0.1498 -0.2896
  403MPD2    C3 6071   1.462   3.974  13.435  0.9716  0.5314 -1.5315
  403MPD2    C4 6072   1.510   3.847  13.397 -0.0146  0.6867  0.7505
  403MPD2    C5 6073   1.443   3.765  13.308  0.0403  0.8571 -0.2408
  403MPD2     H 6074   1.323   4.130  13.384  0.2967 -0.0535 -0.7274
  403MPD2    H1 6075   1.607   3.807  13.422 -0.5104  0.1746  1.8369
  403MPD2    H2 6076   1.257   3.747  13.198  0.3140  0.1035 -0.9349
  403MPD2    H3 6077   1.480   3.664  13.298 -0.8354  0.4737  0.4191
  403MPD2     N 6078   1.541   4.060  13.517  0.2292  0.6046 -0.3318
  403MPD2    H5 6079   1.522   4.157  13.496 -0.6699  0.9907  2.2129
  403MPD2    N1 6080   1.168   3.984  13.213  0.0699 -0.3820 -0.0866
  403MPD2    H7 6081   1.113   3.917  13.160 -0.6097 -1.5855  2.1436
  404TMC3    C1 6082   0.976   4.118  13.169 -0.2848 -0.6371 -0.4485
  404TMC3    C2 6083   0.879   4.104  13.265 -0.2253  0.4847  0.1235
  404TMC3    C3 6084   0.768   4.033  13.230  0.0672 -0.4024 -0.0040
  404TMC3    C4 6085   0.963   4.055  13.044  0.1923  0.1365 -0.4335
  404TMC3    C5 6086   0.851   3.975  13.018 -0.0194 -0.1800 -0.0966
  404TMC3    C6 6087   0.747   3.969  13.109 -0.2345  0.4524 -0.3623
  404TMC3     C 6088   1.113   4.110  13.218 -0.0953  0.7738  0.8903
  404TMC3     O 6089   1.136   4.201  13.291 -0.6513 -0.3306  0.2962
  404TMC3     H 6090   0.890   4.164  13.354 -1.2162 -0.1665  0.6799
  404TMC3    H1 6091   1.034   4.053  12.963  1.3422  0.8879  0.5635
  404TMC3    H2 6092   0.659   3.909  13.089  0.5135 -0.1474 -1.8643
  404TMC3    C7 6093   0.829   3.926  12.882  0.2700  0.3396 -0.0823
  404TMC3    C8 6094   0.718   3.953  13.336  0.1268 -0.4013 -0.0449
  404TMC3    O1 6095   0.928   3.880  12.820  0.2631  0.6837  0.1617
  404TMC3    O2 6096   0.693   3.835  13.316 -0.4085  0.6579 -0.0359
  405MPD2     C 6097   1.470   0.969  15.182 -0.2310 -0.0561  0.0552
  405MPD2    C1 6098   1.479   0.876  15.079 -0.3759 -0.1476  0.6566
  405MPD2    C2 6099   1.393   0.900  14.973 -0.3618 -0.9812  0.2538
  405MPD2    C3 6100   1.309   1.005  14.957  0.0147  0.4943  0.7858
  405MPD2    C4 6101   1.304   1.091  15.057 -0.5307 -0.6189  0.2237
  405MPD2    C5 6102   1.382   1.073  15.170  0.5685 -0.3156  0.7859
  405MPD2     H 6103   1.392   0.834  14.887  0.7919 -0.7970  0.1037
  405MPD2    H1 6104   1.242   1.180  15.049 -2.8103 -2.1399  0.9126
  405MPD2    H2 6105   1.545   0.978  15.259  1.4266 -1.0582 -1.4382
  405MPD2    H3 6106   1.370   1.138  15.255  2.4127  0.0998  0.7138
  405MPD2     N 6107   1.230   1.012  14.846  0.1708  0.5111  0.0212
  405MPD2    H5 6108   1.241   0.939  14.776 -2.3086  1.7258 -1.6627
  405MPD2    N1 6109   1.571   0.763  15.086 -0.6277 -0.0079  0.4404
  405MPD2    H7 6110   1.638   0.756  15.162  1.1247 -1.6748 -1.2352
  406TMC3    C1 6111   0.874   1.060  14.552  0.2823  0.3892 -0.1922
  406TMC3    C2 6112   0.871   0.922  14.533 -0.3214  0.4394  0.2329
  406TMC3    C3 6113   0.952   0.843  14.606  0.1043 -0.5005  0.4763
  406TMC3    C4 6114   0.960   1.129  14.643  0.6660  0.4595  0.0255
  406TMC3    C5 6115   1.040   1.045  14.719 -0.5332  0.3133 -0.2316
  406TMC3    C6 6116   1.033   0.903  14.702  0.0853  0.5575  0.3931
  406TMC3     C 6117   0.776   1.136  14.477 -0.9822 -0.1115 -0.7536
  406TMC3     O 6118   0.745   1.254  14.507  0.4507 -0.1240  0.2418
  406TMC3     H 6119   0.805   0.873  14.462  1.3141  1.3025 -1.9066
  406TMC3    H1 6120   0.955   1.234  14.671 -0.4298  0.4364 -0.0564
  406TMC3    H2 6121   1.078   0.836  14.775 -2.1986  0.9405  2.1557
  406TMC3    C7 6122   1.125   1.101  14.829 -0.2520 -0.4256 -0.3046
  406TMC3    C8 6123   0.974   0.704  14.564  0.9411  0.0196  0.2733
  406TMC3    O1 6124   1.094   1.201  14.895 -0.2139 -0.3108  0.3552
  406TMC3    O2 6125   0.902   0.642  14.487 -0.2740  0.5469 -0.1879
  407MPD2     C 6126   3.367   1.567   9.484 -0.1496 -0.3021 -0.7014
  407MPD2    C1 6127   3.443   1.665   9.544 -0.1806 -0.2397 -0.1491
  407MPD2    C2 6128   3.375   1.759   9.620  0.7650 -0.7293 -0.1747
  407MPD2    C3 6129   3.239   1.762   9.640 -0.1563  0.3196 -0.4191
  407MPD2    C4 6130   3.168   1.654   9.586  0.4721  0.4093  0.3117
  407MPD2    C5 6131   3.229   1.561   9.503  0.7650 -0.2214 -0.5144
  407MPD2     H 6132   3.441   1.830   9.670 -0.6429  0.0587  0.5580
  407MPD2    H1 6133   3.061   1.635   9.591  0.1396  2.3955  0.7673
  407MPD2    H2 6134   3.410   1.484   9.431  2.4919 -0.3291  1.4528
  407MPD2    H3 6135   3.173   1.480   9.458 -0.3976 -0.1567  0.8456
  407MPD2     N 6136   3.171   1.859   9.722 -0.4665 -0.1898  0.5041
  407MPD2    H5 6137   3.073   1.853   9.747 -0.3546  1.5542  1.4178
  407MPD2    N1 6138   3.584   1.687   9.524 -0.6266 -0.2468  0.7538
  407MPD2    H7 6139   3.618   1.772   9.568 -1.1664  0.9390 -1.1239
  408TMC3    C1 6140   3.799   1.650   9.451 -0.5114 -0.5521  0.1866
  408TMC3    C2 6141   3.894   1.573   9.502 -0.0889  0.4789  0.1214
  408TMC3    C3 6142   4.013   1.628   9.560 -0.1061 -0.1495 -0.7407
  408TMC3    C4 6143   3.812   1.788   9.444 -0.5310  0.5584  0.6067
  408TMC3    C5 6144   3.930   1.841   9.493  0.0023 -0.1455  0.0957
  408TMC3    C6 6145   4.032   1.766   9.556  0.6816  0.4635  0.6615
  408TMC3     C 6146   3.662   1.602   9.455 -0.3256 -0.5115  0.9791
  408TMC3     O 6147   3.653   1.484   9.431 -0.0077  0.1734  0.0226
  408TMC3     H 6148   3.880   1.466   9.494 -1.0983  0.4811  1.7772
  408TMC3    H1 6149   3.729   1.839   9.396 -1.1542 -1.8387 -0.8679
  408TMC3    H2 6150   4.116   1.812   9.606 -0.1003  1.0141  1.4821
  408TMC3    C7 6151   3.937   1.986   9.504 -0.6329  0.6486  0.3236
  408TMC3    C8 6152   4.098   1.532   9.623  0.3051  0.2150 -0.0023
  408TMC3    O1 6153   4.013   2.024   9.590  0.1759 -0.4885 -0.3544
  408TMC3    O2 6154   4.050   1.417   9.631 -0.4613 -0.2052  0.1169
  409MPD2     C 6155   3.640   3.151  17.137 -0.3559 -0.3363  0.8337
  409MPD2    C1 6156   3.709   3.164  17.258  0.1054  0.6911  0.0210
  409MPD2    C2 6157   3.801   3.266  17.276  0.2618 -0.2818  0.1388
  409MPD2    C3 6158   3.816   3.362  17.177  0.0602 -0.2110  0.3440
  409MPD2    C4 6159   3.745   3.352  17.051 -0.5242  0.1509  0.4877
  409MPD2    C5 6160   3.654   3.250  17.039 -0.6619  0.0037 -0.2872
  409MPD2     H 6161   3.864   3.273  17.364 -0.2130 -0.7274  0.5131
  409MPD2    H1 6162   3.760   3.411  16.962  2.7963 -2.6958 -0.8333
  409MPD2    H2 6163   3.573   3.067  17.122  0.8619 -1.3145  0.8171
  409MPD2    H3 6164   3.600   3.239  16.946  0.2130 -0.9525 -0.6891
  409MPD2     N 6165   3.910   3.468  17.185 -0.2768  0.3403 -0.1447
  409MPD2    H5 6166   3.908   3.533  17.106 -2.6244 -1.4264 -1.5299
  409MPD2    N1 6167   3.712   3.068  17.357  0.0305  0.0877 -0.4183
  409MPD2    H7 6168   3.781   3.078  17.430 -0.8563  0.4088  0.3651
  410TMC3    C1 6169   4.107   3.583  17.240 -0.3017 -0.1559 -0.1331
  410TMC3    C2 6170   4.230   3.568  17.300  0.0553 -0.0986 -0.0053
  410TMC3    C3 6171   4.328   3.639  17.238  0.0922  0.1011 -0.2075
  410TMC3    C4 6172   4.074   3.659  17.129 -0.2131 -0.1440  0.5387
  410TMC3    C5 6173   4.174   3.733  17.081  0.0016  0.7909  0.1679
  410TMC3    C6 6174   4.302   3.724  17.134  0.4789 -0.2804 -0.5272
  410TMC3     C 6175   4.004   3.487  17.280  0.1635 -0.0800  0.5287
  410TMC3     O 6176   4.028   3.424  17.383 -0.1673  0.0987 -0.4587
  410TMC3     H 6177   4.248   3.509  17.389 -3.1767 -1.5437 -0.3171
  410TMC3    H1 6178   3.975   3.683  17.091 -0.1717  0.3787  0.7531
  410TMC3    H2 6179   4.381   3.772  17.077  1.6224 -0.7156  0.6931
  410TMC3    C7 6180   4.168   3.739  16.937  0.2647 -0.8316  0.2830
  410TMC3    C8 6181   4.472   3.600  17.273  0.4322  0.0878  0.3131
  410TMC3    O1 6182   4.109   3.651  16.873 -0.1348  0.6825  0.0019
  410TMC3    O2 6183   4.558   3.686  17.263  0.5864  0.2215  0.0242
  411MPD2     C 6184   4.189   4.146  14.677 -0.6592  0.6956  0.0256
  411MPD2    C1 6185   4.048   4.170  14.703  0.1885  0.3372  0.0504
  411MPD2    C2 6186   3.947   4.078  14.670 -0.3225 -0.5465  0.3570
  411MPD2    C3 6187   3.986   3.957  14.599  0.2683 -0.6906 -0.5551
  411MPD2    C4 6188   4.124   3.933  14.578 -0.3867  0.2763  0.1212
  411MPD2    C5 6189   4.219   4.030  14.609  0.0956 -0.6232  0.2953
  411MPD2     H 6190   3.843   4.085  14.699 -0.1261  1.5502  0.5698
  411MPD2    H1 6191   4.155   3.858  14.507 -0.5710  0.1244  0.2008
  411MPD2    H2 6192   4.257   4.229  14.687 -0.3075  0.5573 -1.2290
  411MPD2    H3 6193   4.318   4.027  14.565  0.7843  1.2444  1.7112
  411MPD2     N 6194   3.892   3.861  14.555  0.0490 -0.1880 -0.1713
  411MPD2    H5 6195   3.926   3.768  14.532 -0.9794 -0.3357 -1.0637
  411MPD2    N1 6196   4.008   4.285  14.768  0.2841  0.0698  0.1237
  411MPD2    H7 6197   3.909   4.302  14.752  0.4665  0.4390 -0.6218
  412TMC3    C1 6198   3.671   3.778  14.507 -0.4105 -0.2790 -0.3935
  412TMC3    C2 6199   3.564   3.816  14.439 -0.3357  0.3289  0.5383
  412TMC3    C3 6200   3.444   3.806  14.506 -0.0585  0.2846 -0.3922
  412TMC3    C4 6201   3.668   3.703  14.624 -0.2043  0.2453  0.0112
  412TMC3    C5 6202   3.548   3.683  14.682 -0.5054  0.8142  0.0833
  412TMC3    C6 6203   3.440   3.740  14.623  0.3541  0.3532 -0.0499
  412TMC3     C 6204   3.755   3.889  14.527 -0.2740 -0.0511  0.3569
  412TMC3     O 6205   3.707   3.998  14.504  0.2913 -0.8682  0.4626
  412TMC3     H 6206   3.582   3.887  14.360 -1.7116 -1.1269 -1.0827
  412TMC3    H1 6207   3.759   3.659  14.664  1.5203  0.9587 -3.0827
  412TMC3    H2 6208   3.344   3.735  14.672 -0.6082  1.6690 -1.8285
  412TMC3    C7 6209   3.529   3.545  14.715 -0.3870  0.4429  0.3138
  412TMC3    C8 6210   3.339   3.750  14.420 -0.4482 -0.1499  0.1204
  412TMC3    O1 6211   3.614   3.513  14.796 -0.3911  0.0664  0.0366
  412TMC3    O2 6212   3.280   3.661  14.477  0.5786 -0.2087  0.0024
  413MPD2     C 6213   0.519   2.038  15.450 -0.4921  0.1066 -0.5452
  413MPD2    C1 6214   0.486   1.902  15.455 -0.1847 -0.2110  0.4398
  413MPD2    C2 6215   0.587   1.815  15.453  0.4833 -0.4165  0.3701
  413MPD2    C3 6216   0.713   1.851  15.440 -0.1875 -0.2613  0.1086
  413MPD2    C4 6217   0.746   1.983  15.440 -0.4725 -0.2018  0.4111
  413MPD2    C5 6218   0.643   2.081  15.437 -0.2918  0.3249 -0.4873
  413MPD2     H 6219   0.568   1.709  15.462 -2.4361  0.0574 -0.0637
  413MPD2    H1 6220   0.849   2.015  15.436 -0.5922  0.2142  0.6243
  413MPD2    H2 6221   0.439   2.109  15.470 -0.8239 -0.5269  0.3495
  413MPD2    H3 6222   0.667   2.186  15.449 -1.6392  0.7712 -1.7897
  413MPD2     N 6223   0.809   1.746  15.420  0.2192  0.0005  0.5958
  413MPD2    H5 6224   0.781   1.652  15.445 -0.4374 -0.2080 -0.9585
  413MPD2    N1 6225   0.350   1.866  15.464 -0.3987  0.2603  0.7662
  413MPD2    H7 6226   0.283   1.937  15.436 -0.9811  0.0502  1.6355
  414TMC3    C1 6227   0.990   1.656  15.298  0.4001  0.5956  0.3735
  414TMC3    C2 6228   0.958   1.530  15.354 -0.6976  0.2471 -0.4296
  414TMC3    C3 6229   1.002   1.414  15.284  0.1282  0.0653  0.4997
  414TMC3    C4 6230   1.064   1.670  15.179  0.0145  0.1194 -0.4552
  414TMC3    C5 6231   1.106   1.559  15.117  0.2442  0.2068  0.1350
  414TMC3    C6 6232   1.082   1.433  15.165  0.1106  0.2353 -0.5071
  414TMC3     C 6233   0.924   1.771  15.355  0.5649 -0.4498 -0.0068
  414TMC3     O 6234   0.953   1.877  15.303 -0.0369 -0.5766  0.0908
  414TMC3     H 6235   0.920   1.524  15.456 -0.1963  1.8683 -0.1452
  414TMC3    H1 6236   1.090   1.769  15.142 -0.8068  0.1705 -0.8825
  414TMC3    H2 6237   1.120   1.347  15.110 -0.2249 -0.0284 -0.3231
  414TMC3    C7 6238   1.201   1.584  15.010 -0.2919 -0.2667 -0.8660
  414TMC3    C8 6239   1.037   1.290  15.343  0.0767  0.0498  1.1797
  414TMC3    O1 6240   1.251   1.694  15.004  0.6611 -0.0326 -0.6302
  414TMC3    O2 6241   1.038   1.188  15.278 -0.7388  0.7159 -0.5633
  415TMC3    C1 6242   0.594   4.282  10.184  0.2919  0.1082  0.6825
  415TMC3    C2 6243   0.647   4.306  10.067 -0.3979  0.3875 -0.5238
  415TMC3    C3 6244   0.565   4.308   9.953 -0.1452  0.0724  0.6773
  415TMC3    C4 6245   0.465   4.241  10.199  0.0620  0.4127  0.1502
  415TMC3    C5 6246   0.394   4.223  10.078 -0.0336 -0.1055 -0.0589
  415TMC3    C6 6247   0.438   4.264   9.956 -0.5736 -0.1524 -0.3959
  415TMC3     C 6248   0.673   4.287  10.306  0.3236 -0.9521 -0.7868
  415TMC3     O 6249   0.611   4.268  10.408 -0.2828 -0.2056 -0.4618
  415TMC3     H 6250   0.746   4.348  10.055  0.2904 -0.9390  0.5127
  415TMC3    H1 6251   0.423   4.222  10.298  0.4560 -1.1342  0.0315
  415TMC3    H2 6252   0.394   4.226   9.864 -1.3406 -1.2531  0.4196
  415TMC3    C7 6253   0.282   4.130  10.081 -0.9662  0.0373 -0.0884
  415TMC3    C8 6254   0.633   4.283   9.825 -0.3709  0.2435 -0.3252
  415TMC3    O1 6255   0.215   4.111   9.978 -0.5431 -0.5332  0.1544
  415TMC3    O2 6256   0.583   4.205   9.739 -0.4286 -0.5097  0.0264
  416MPD2     C 6257   2.914   3.292  11.455 -0.2036 -0.1761 -0.1277
  416MPD2    C1 6258   2.881   3.164  11.502  0.0005  0.1117  0.2841
  416MPD2    C2 6259   2.903   3.047  11.425 -0.5278 -0.2569 -0.8802
  416MPD2    C3 6260   2.959   3.063  11.299 -0.1899  0.8557 -0.3329
  416MPD2    C4 6261   3.000   3.184  11.255 -0.1260  0.4419  0.4017
  416MPD2    C5 6262   2.978   3.298  11.330  0.3985 -0.0086 -0.2170
  416MPD2     H 6263   2.879   2.950  11.466  1.8318  0.4889  2.2892
  416MPD2    H1 6264   3.044   3.199  11.157 -0.5417 -1.4610 -0.0691
  416MPD2    H2 6265   2.905   3.383  11.513 -2.8718 -1.0588  0.8734
  416MPD2    H3 6266   3.000   3.391  11.279 -0.1654 -0.1343 -0.6982
  416MPD2     N 6267   2.963   2.939  11.224  0.3982  0.4680 -0.0711
  416MPD2    H5 6268   2.910   2.863  11.264  2.2451 -0.1942  1.1096
  416MPD2    N1 6269   2.837   3.161  11.637 -0.0174  0.4398 -0.3327
  416MPD2    H7 6270   2.814   3.252  11.676 -0.7897 -0.1987  0.7132
  417TMC3    C1 6271   2.752   3.091  11.847 -0.4562  0.5817  0.1020
  417TMC3    C2 6272   2.778   3.043  11.971 -0.5911  0.0525  0.6667
  417TMC3    C3 6273   2.688   3.082  12.063 -0.2988  0.0658  0.0292
  417TMC3    C4 6274   2.633   3.161  11.822 -0.6608 -0.2550  0.1930
  417TMC3    C5 6275   2.547   3.182  11.917 -0.0441 -0.1743  0.3777
  417TMC3    C6 6276   2.575   3.150  12.043  0.0618 -0.4260  0.2281
  417TMC3     C 6277   2.834   3.050  11.733  0.3303 -0.1849 -0.7041
  417TMC3     O 6278   2.883   2.938  11.733 -0.2498  0.1357 -0.3704
  417TMC3     H 6279   2.863   2.982  12.000  1.3347  3.1796  1.5261
  417TMC3    H1 6280   2.602   3.178  11.719  1.2043 -0.6971 -0.4462
  417TMC3    H2 6281   2.496   3.174  12.114  2.1838  1.5933  1.9138
  417TMC3    C7 6282   2.419   3.216  11.883  0.7408  0.1060 -0.6012
  417TMC3    C8 6283   2.719   3.064  12.200  0.1980  0.1009  0.4732
  417TMC3    O1 6284   2.380   3.336  11.870 -0.6907  0.0027 -0.0774
  417TMC3    O2 6285   2.623   3.028  12.268 -0.2020 -0.2257 -0.4541
  418TMC3    C1 6286   1.849   0.912   0.256  0.0885  0.1015  0.0318
  418TMC3    C2 6287   1.749   0.874   0.174  0.4872  0.4431  0.1794
  418TMC3    C3 6288   1.635   0.818   0.230 -0.3733  0.1029 -0.0467
  418TMC3    C4 6289   1.849   0.889   0.389 -0.2977 -0.0989  0.7921
  418TMC3    C5 6290   1.731   0.829   0.443  0.6284 -0.3334  0.0197
  418TMC3    C6 6291   1.627   0.789   0.365 -0.4627 -0.3152 -0.7466
  418TMC3     C 6292   1.967   0.961   0.185 -0.5425 -0.2126 -0.2874
  418TMC3     O 6293   1.949   1.018   0.077 -0.0923 -1.0235 -0.1848
  418TMC3     H 6294   1.753   0.896   0.068  2.3040 -2.2236 -0.3085
  418TMC3    H1 6295   1.937   0.898   0.452 -0.5781  0.1480  1.1440
  418TMC3    H2 6296   1.542   0.746   0.417  0.8269 -2.2684 -0.2623
  418TMC3    C7 6297   1.741   0.770   0.573  0.4064  0.6503  0.3229
  418TMC3    C8 6298   1.555   0.737   0.143  0.0243  0.2879 -0.3131
  418TMC3    O1 6299   1.672   0.670   0.594 -0.1031 -0.0214  0.6073
  418TMC3    O2 6300   1.554   0.768   0.026  0.1516 -0.5609  0.3421
  419MPD2     C 6301   0.432   3.172  12.602 -0.1287 -0.3083  0.0437
  419MPD2    C1 6302   0.346   3.276  12.567 -0.4000  0.0014  0.1550
  419MPD2    C2 6303   0.249   3.321  12.658 -0.2290  0.0264  0.1890
  419MPD2    C3 6304   0.241   3.279  12.789 -0.1772  0.5886  0.3999
  419MPD2    C4 6305   0.338   3.186  12.826  0.2757  0.0387 -0.7922
  419MPD2    C5 6306   0.433   3.135  12.735  0.4475  0.1566 -0.3837
  419MPD2     H 6307   0.171   3.387  12.620 -0.5191  0.1947  1.0654
  419MPD2    H1 6308   0.348   3.147  12.927 -2.6805 -0.9374 -0.8624
  419MPD2    H2 6309   0.508   3.133  12.537  0.8836 -0.4319  1.2976
  419MPD2    H3 6310   0.516   3.071  12.764  0.3779  0.2641  0.0635
  419MPD2     N 6311   0.148   3.333  12.877 -0.1434  0.4690  0.1826
  419MPD2    H5 6312   0.086   3.403  12.839 -1.1641 -0.4492  0.1511
  419MPD2    N1 6313   0.327   3.316  12.433  0.1408 -0.5954  0.1722
  419MPD2    H7 6314   0.259   3.389  12.415  0.0519 -0.0876  2.5641
  420TMC3    C1 6315   0.016   3.326  13.083  0.2897  0.7711  0.0913
  420TMC3    C2 6316   4.682   3.428  13.029  0.1512  0.6773  0.0246
  420TMC3    C3 6317   4.543   3.417  13.039 -0.2623 -0.3087 -0.2578
  420TMC3    C4 6318   4.698   3.224  13.156 -0.0887  0.3080  0.3367
  420TMC3    C5 6319   4.563   3.233  13.175 -0.4954 -0.2164  0.0155
  420TMC3    C6 6320   4.481   3.319  13.111  0.2245 -0.1667  0.1633
  420TMC3     C 6321   0.138   3.292  13.009 -0.8274  0.1989  0.1384
  420TMC3     O 6322   0.195   3.196  13.062 -0.3799  0.1443 -0.5579
  420TMC3     H 6323   4.728   3.504  12.966  0.3654 -0.8486 -1.6762
  420TMC3    H1 6324   0.018   3.145  13.199  0.1393 -0.7251 -1.9081
  420TMC3    H2 6325   4.375   3.320  13.130  0.7529  2.7700  2.9869
  420TMC3    C7 6326   4.502   3.110  13.212 -0.9888 -0.6262 -0.8666
  420TMC3    C8 6327   4.470   3.470  12.926  0.3035 -0.3859 -0.2470
  420TMC3    O1 6328   4.540   3.056  13.313 -0.0600 -0.3887 -0.1471
  420TMC3    O2 6329   4.507   3.578  12.870 -0.1445 -0.0561  0.2067
  421TMC3    C1 6330   1.714   4.121  13.656 -0.2933 -0.0207  0.2293
  421TMC3    C2 6331   1.668   4.255  13.665 -1.0704  0.3308  0.3900
  421TMC3    C3 6332   1.736   4.341  13.743 -0.2395 -0.2872  0.4160
  421TMC3    C4 6333   1.825   4.078  13.723 -0.0555 -0.6541 -0.8566
  421TMC3    C5 6334   1.877   4.164  13.816 -0.1563  0.5342 -0.9336
  421TMC3    C6 6335   1.837   4.301  13.817  0.6771 -0.2646  0.4767
  421TMC3     C 6336   1.634   4.009  13.608  0.3500  0.0857  0.6210
  421TMC3     O 6337   1.646   3.895  13.646 -0.0465  0.1366  0.5135
  421TMC3     H 6338   1.571   4.292  13.635 -1.6146 -0.0326  1.7033
  421TMC3    H1 6339   1.871   3.985  13.692 -1.9618 -0.7074 -3.5089
  421TMC3    H2 6340   1.886   4.359  13.895 -0.9012  1.1375  0.4166
  421TMC3    C7 6341   2.014   4.138  13.863  0.9910 -0.0618 -1.1334
  421TMC3    C8 6342   1.689   4.474  13.748  0.5738 -0.2314  0.1051
  421TMC3    O1 6343   2.092   4.231  13.848  0.0153  0.0079 -0.4399
  421TMC3    O2 6344   1.568   4.487  13.745 -0.3281  0.1472  1.0585
  422TMC3    C1 6345   3.958   1.547  12.344  0.1912  0.0258 -0.3786
  422TMC3    C2 6346   3.970   1.650  12.435 -0.2371  0.9422 -0.1719
  422TMC3    C3 6347   3.867   1.674  12.524  0.4250  0.8184 -0.4685
  422TMC3    C4 6348   3.850   1.462  12.347 -0.3781  0.8290 -0.6512
  422TMC3    C5 6349   3.747   1.484  12.434  0.0004  0.2789 -0.2204
  422TMC3    C6 6350   3.756   1.590  12.520 -0.0102  0.9242 -0.9063
  422TMC3     C 6351   4.026   1.567  12.218 -0.4393  0.1122  0.2562
  422TMC3     O 6352   4.117   1.651  12.221 -0.8162  0.9591  0.2281
  422TMC3     H 6353   4.051   1.721  12.444  0.9861 -0.3282 -1.0625
  422TMC3    H1 6354   3.831   1.371  12.291  2.8654 -0.3728  0.2242
  422TMC3    H2 6355   3.664   1.619  12.567 -1.9602 -1.3585 -3.3168
  422TMC3    C7 6356   3.608   1.456  12.381 -0.2778 -0.0487  0.0207
  422TMC3    C8 6357   3.843   1.818  12.524 -0.2903  0.2811 -0.6502
  422TMC3    O1 6358   3.603   1.449  12.260 -0.4002 -0.0004  0.3025
  422TMC3    O2 6359   3.933   1.887  12.573  0.2422  0.8819  0.0796
  423MPD2     C 6360   0.227   2.188   0.585  0.1293  0.1630  0.1039
  423MPD2    C1 6361   0.363   2.197   0.603 -0.1005 -0.6899  0.8899
  423MPD2    C2 6362   0.442   2.145   0.505 -0.3059 -0.4009 -0.9276
  423MPD2    C3 6363   0.393   2.088   0.384  0.1066 -0.4335 -0.5337
  423MPD2    C4 6364   0.256   2.083   0.364  0.4688  0.2886 -0.1292
  423MPD2    C5 6365   0.176   2.128   0.466  0.0947 -0.4329  0.6940
  423MPD2     H 6366   0.549   2.139   0.523 -0.4587 -0.7839 -0.1295
  423MPD2    H1 6367   0.220   2.050   0.267  2.4796 -3.1375  0.2570
  423MPD2    H2 6368   0.160   2.215   0.666 -1.0159 -2.1728 -0.0559
  423MPD2    H3 6369   0.069   2.129   0.449  0.0657 -0.4125  0.8862
  423MPD2     N 6370   0.483   2.038   0.291  0.1092 -0.3400 -0.0116
  423MPD2    H5 6371   0.582   2.060   0.290  0.3381 -1.3447  0.2214
  423MPD2    N1 6372   0.428   2.241   0.717 -0.3724 -0.6372  0.3443
  423MPD2    H7 6373   0.527   2.227   0.731  0.0304 -0.3377 -2.3257
  424TMC3    C1 6374   0.461   2.372   0.915  0.5665  0.0777  0.5762
  424TMC3    C2 6375   0.588   2.329   0.924 -0.1633  0.7298 -0.4459
  424TMC3    C3 6376   0.659   2.360   1.038  1.0922 -0.2978 -0.4424
  424TMC3    C4 6377   0.403   2.446   1.016 -0.5862  0.0138 -0.2169
  424TMC3    C5 6378   0.485   2.482   1.123  0.2928 -0.4444 -0.0853
  424TMC3    C6 6379   0.609   2.439   1.138  0.0993  0.4645  0.3559
  424TMC3     C 6380   0.368   2.321   0.814  0.2343  0.4274  0.4769
  424TMC3     O 6381   0.253   2.359   0.818 -0.4385 -0.0484 -0.0879
  424TMC3     H 6382   0.631   2.274   0.841 -0.0743 -0.3799  0.3376
  424TMC3    H1 6383   0.309   2.492   0.989 -1.5285 -1.4145  0.5817
  424TMC3    H2 6384   0.670   2.452   1.227  0.1136 -2.1069  0.7310
  424TMC3    C7 6385   0.428   2.550   1.243  0.2977  0.3742  0.4431
  424TMC3    C8 6386   0.773   2.280   1.066 -0.0239 -0.3573  0.1577
  424TMC3    O1 6387   0.508   2.607   1.316 -0.1222 -0.6410  0.0592
  424TMC3    O2 6388   0.801   2.187   0.987 -0.3275 -0.6257 -0.6733
  425MPD2     C 6389   4.095   1.581  17.206  0.0221  0.3372  0.3754
  425MPD2    C1 6390   4.022   1.466  17.206  0.7040  0.4759  0.6548
  425MPD2    C2 6391   3.891   1.469  17.250 -0.6364  0.0101 -0.6873
  425MPD2    C3 6392   3.844   1.578  17.326 -0.3052  0.4443 -0.0582
  425MPD2    C4 6393   3.924   1.693  17.331  0.1190 -0.2531  0.6505
  425MPD2    C5 6394   4.050   1.690  17.261  0.1277  0.2455 -0.1393
  425MPD2     H 6395   3.834   1.377  17.251 -1.0933  0.3016  2.7567
  425MPD2    H1 6396   3.890   1.785  17.378 -0.2596 -1.2794  2.3838
  425MPD2    H2 6397   4.192   1.595  17.160  0.0318  2.7811  1.1155
  425MPD2    H3 6398   4.102   1.784  17.252  2.1119 -0.7230  1.1593
  425MPD2     N 6399   3.723   1.563  17.393  0.3447 -0.3856  0.3423
  425MPD2    H5 6400   3.687   1.470  17.376  0.2568 -0.4660  0.9557
  425MPD2    N1 6401   4.083   1.356  17.145 -0.0481  0.4181 -0.3931
  425MPD2    H7 6402   4.176   1.378  17.110  0.0281  2.4974  1.1040
  426TMC3    C1 6403   4.153   1.137  17.149  0.2325  0.4233  0.3087
  426TMC3    C2 6404   4.259   1.162  17.060  0.1724  0.0083  0.1445
  426TMC3    C3 6405   4.367   1.077  17.052 -0.2441  0.6857  0.3451
  426TMC3    C4 6406   4.154   1.027  17.229  0.2998 -0.0072  0.3420
  426TMC3    C5 6407   4.268   0.955  17.222  0.4312 -0.1914  1.4686
  426TMC3    C6 6408   4.375   0.973  17.139  0.1537  0.2640  0.6412
  426TMC3     C 6409   4.044   1.231  17.172  0.5141  0.0241  0.3856
  426TMC3     O 6410   3.943   1.190  17.222 -0.4603 -0.4146 -1.1107
  426TMC3     H 6411   4.234   1.243  16.992 -0.4780 -1.0785 -0.8920
  426TMC3    H1 6412   4.067   0.986  17.279  0.1828 -1.3353 -0.9449
  426TMC3    H2 6413   4.441   0.891  17.117  0.6424  0.3662  1.7203
  426TMC3    C7 6414   4.274   0.831  17.297  0.0670  0.5671  0.7099
  426TMC3    C8 6415   4.467   1.080  16.946 -0.1473  0.4265 -0.2305
  426TMC3    O1 6416   4.336   0.738  17.251  0.1040  0.4655  0.0849
  426TMC3    O2 6417   4.547   0.989  16.929  0.0725 -0.2498 -0.1225
  427MPD2     C 6418   2.961   4.139  14.981  0.4488  0.3704  0.5601
  427MPD2    C1 6419   2.947   4.003  15.005  0.5231 -0.7926  0.1559
  427MPD2    C2 6420   2.827   3.943  14.967  0.3237  0.2800 -0.7095
  427MPD2    C3 6421   2.724   4.004  14.902 -0.2145  0.6653  0.6520
  427MPD2    C4 6422   2.735   4.139  14.889  0.7922  0.3582 -0.5411
  427MPD2    C5 6423   2.852   4.202  14.930 -0.3451 -0.3415 -1.1098
  427MPD2     H 6424   2.814   3.840  14.999  0.5753  0.1731 -0.9486
  427MPD2    H1 6425   2.665   4.199  14.832 -0.8193  0.6793  1.7745
  427MPD2    H2 6426   3.050   4.195  15.003  1.7041 -1.2191 -0.4879
  427MPD2    H3 6427   2.865   4.308  14.913 -1.7345  0.1493  0.9489
  427MPD2     N 6428   2.607   3.930  14.869  0.1031  0.0668  0.3455
  427MPD2    H5 6429   2.522   3.986  14.870 -0.7665 -1.1786 -3.3021
  427MPD2    N1 6430   3.038   3.907  15.048 -0.1795 -0.5325  0.4543
  427MPD2    H7 6431   3.012   3.809  15.042  0.0184 -0.6194  1.0408
  428TMC3    C1 6432   3.254   3.817  15.095 -0.3546  0.2194  0.3901
  428TMC3    C2 6433   3.195   3.692  15.128 -0.2262  0.3256  0.3207
  428TMC3    C3 6434   3.268   3.576  15.111 -0.0993  0.5010  0.0837
  428TMC3    C4 6435   3.389   3.817  15.057  0.4439  0.3785  0.6934
  428TMC3    C5 6436   3.458   3.699  15.039 -0.2242 -0.3806 -0.0923
  428TMC3    C6 6437   3.395   3.581  15.060 -0.8826  0.2938  0.3977
  428TMC3     C 6438   3.173   3.937  15.077  0.1747 -0.4118 -0.4100
  428TMC3     O 6439   3.235   4.044  15.073 -0.0607  0.7205  0.1901
  428TMC3     H 6440   3.095   3.683  15.169 -0.5305 -0.1610 -0.5345
  428TMC3    H1 6441   3.433   3.915  15.039  1.6243 -0.0914  1.0439
  428TMC3    H2 6442   3.455   3.490  15.067 -0.7313  0.4078  0.5968
  428TMC3    C7 6443   3.592   3.705  15.085 -0.9459 -0.4332 -0.1853
  428TMC3    C8 6444   3.220   3.450  15.169 -0.1955  0.8154 -0.7926
  428TMC3    O1 6445   3.629   3.615  15.163 -0.1485 -0.7678  0.1564
  428TMC3    O2 6446   3.101   3.429  15.150  0.0016 -0.2180 -0.3865
  429MPD2     C 6447   4.280   4.133  17.652  0.1913  0.3028  0.3687
  429MPD2    C1 6448   4.367   4.033  17.615 -0.5794  0.6807  0.0447
  429MPD2    C2 6449   4.461   4.071  17.514 -0.1201 -0.2367  0.5860
  429MPD2    C3 6450   4.468   4.194  17.462 -0.3702  0.0249  0.0120
  429MPD2    C4 6451   4.376   4.285  17.491  0.2553  0.2030  0.5568
  429MPD2    C5 6452   4.283   4.255  17.587  0.2628  0.0982 -0.0079
  429MPD2     H 6453   4.540   4.004  17.484  1.2062  0.8773  1.6193
  429MPD2    H1 6454   4.371   4.384  17.448 -0.2881 -0.9354 -1.9538
  429MPD2    H2 6455   4.221   4.123  17.742  0.2950  1.9904  0.6318
  429MPD2    H3 6456   4.214   4.331  17.622 -0.8316 -1.2209  0.6795
  429MPD2     N 6457   4.581   4.224  17.378 -0.6544  0.3460  0.3179
  429MPD2    H5 6458   4.636   4.149  17.337 -0.3225 -0.4356  2.1803
  429MPD2    N1 6459   4.374   3.897  17.673  0.2501  0.0205 -0.2020
  429MPD2    H7 6460   4.439   3.831  17.631  2.9004  2.2021  0.4756
  430TMC3    C1 6461   0.010   4.360  17.277 -0.1989  0.1187  0.0706
  430TMC3    C2 6462   0.033   4.471  17.199 -0.0842 -0.6905  0.3804
  430TMC3    C3 6463   0.110   4.461  17.085 -0.1730 -0.5415 -0.5446
  430TMC3    C4 6464   0.075   4.243  17.245 -0.3342 -0.1326  0.2674
  430TMC3    C5 6465   0.140   4.238  17.129  0.0663  0.7356  0.0131
  430TMC3    C6 6466   0.159   4.343  17.041  0.4537 -0.7852  0.2180
  430TMC3     C 6467   4.627   4.352  17.352  0.2026  0.0782 -0.0382
  430TMC3     O 6468   4.566   4.459  17.367  0.3621 -0.0697 -0.0316
  430TMC3     H 6469   4.726   4.565  17.220 -0.0629 -0.3165 -1.2809
  430TMC3    H1 6470   0.070   4.158  17.312 -1.9673 -1.8914 -2.0806
  430TMC3    H2 6471   0.194   4.334  16.938 -1.3580 -0.4133 -0.4212
  430TMC3    C7 6472   0.117   4.107  17.070 -0.3320 -0.0808 -0.0416
  430TMC3    C8 6473   0.096   4.567  16.978  0.4324  1.3443  0.6280
  430TMC3    O1 6474   0.115   4.010  17.145 -0.6795 -0.1542  0.3712
  430TMC3    O2 6475   0.128   4.530  16.866  0.4250  0.2043  0.1437
  431MPD2     C 6476   4.552   3.973  12.134  0.2879 -0.4879 -0.0762
  431MPD2    C1 6477   4.651   3.955  12.225  0.1431  0.4210 -0.6677
  431MPD2    C2 6478   4.723   3.838  12.223  0.1515 -0.1779 -0.3438
  431MPD2    C3 6479   4.709   3.745  12.132  0.1037  0.1626  0.5495
  431MPD2    C4 6480   4.617   3.765  12.029 -0.2062  0.4194  0.4472
  431MPD2    C5 6481   4.532   3.876  12.036 -0.2707  0.1943 -0.2493
  431MPD2     H 6482   0.057   3.841  12.300 -0.3049 -1.1168  0.1377
  431MPD2    H1 6483   4.614   3.696  11.946  0.5012 -0.0213  0.7930
  431MPD2    H2 6484   4.491   4.064  12.132  1.5312  0.3399 -0.2884
  431MPD2    H3 6485   4.459   3.884  11.957 -1.3816 -0.3834  0.7162
  431MPD2     N 6486   0.060   3.636  12.120  0.2615  0.2108  0.3290
  431MPD2    H5 6487   0.034   3.565  12.052  1.9886 -0.6082  0.5233
  431MPD2    N1 6488   4.678   4.042  12.325  0.3192  0.2200 -0.3398
  431MPD2    H7 6489   4.739   4.019  12.403  1.3303  3.5237 -0.1632
  432TMC3    C1 6490   0.265   3.515  12.109 -0.4070  0.7219 -1.1064
  432TMC3    C2 6491   0.375   3.525  12.033  0.3543  0.1920  0.3731
  432TMC3    C3 6492   0.458   3.421  12.026  0.1120 -0.1888  0.8920
  432TMC3    C4 6493   0.241   3.410  12.197  0.9770 -0.3274  0.1498
  432TMC3    C5 6494   0.337   3.311  12.200 -0.7272  0.0015  0.3795
  432TMC3    C6 6495   0.442   3.308  12.106  0.6346 -0.7703  0.0009
  432TMC3     C 6496   0.194   3.638  12.145  0.6293  0.8134 -0.6156
  432TMC3     O 6497   0.261   3.736  12.174 -0.4647  0.4118  0.5328
  432TMC3     H 6498   0.390   3.620  11.982 -1.9608  0.0983 -0.5051
  432TMC3    H1 6499   0.171   3.419  12.280  0.9418 -1.2078  0.2218
  432TMC3    H2 6500   0.501   3.220  12.087  1.1650 -0.3390 -0.3559
  432TMC3    C7 6501   0.380   3.250  12.327  0.0993 -0.2586 -0.5278
  432TMC3    C8 6502   0.575   3.432  11.934  0.6217  0.1205  0.2397
  432TMC3    O1 6503   0.469   3.165  12.321 -0.1258 -0.2794  0.3662
  432TMC3    O2 6504   0.573   3.505  11.834  0.3955 -0.0462  0.4721
  433MPD2     C 6505   3.291   2.257  10.662 -0.1094 -0.8602  0.2936
  433MPD2    C1 6506   3.268   2.155  10.748  0.1406 -0.6375  0.3743
  433MPD2    C2 6507   3.328   2.166  10.872 -0.1083  0.9481 -0.4823
  433MPD2    C3 6508   3.416   2.272  10.902  0.0533 -0.0215  0.1398
  433MPD2    C4 6509   3.445   2.363  10.811 -0.0452 -0.1238 -0.6825
  433MPD2    C5 6510   3.387   2.354  10.687 -0.0005  0.5989  0.6433
  433MPD2     H 6511   3.334   2.081  10.939 -1.1760  0.2007 -1.3302
  433MPD2    H1 6512   3.519   2.442  10.821 -0.2885  0.0383 -0.1748
  433MPD2    H2 6513   3.253   2.261  10.560  1.0247 -0.2054 -0.0926
  433MPD2    H3 6514   3.409   2.424  10.607 -1.9051 -1.3585 -1.5514
  433MPD2     N 6515   3.483   2.274  11.028 -0.1972 -0.0796  0.0247
  433MPD2    H5 6516   3.451   2.198  11.087 -1.2342  0.1290 -0.2732
  433MPD2    N1 6517   3.177   2.057  10.698  0.7784 -0.5451 -0.1021
  433MPD2    H7 6518   3.150   2.074  10.602 -2.7509 -0.8358  0.8205
  434TMC3    C1 6519   3.120   1.832  10.667 -0.7246  0.8540  0.0475
  434TMC3    C2 6520   3.142   1.705  10.724 -0.1156  0.5187 -0.0025
  434TMC3    C3 6521   3.203   1.605  10.653  0.2190 -0.0095 -0.1527
  434TMC3    C4 6522   3.136   1.845  10.531 -0.0404 -0.7667  0.3105
  434TMC3    C5 6523   3.192   1.735  10.460 -0.0628 -0.3270  0.0827
  434TMC3    C6 6524   3.221   1.619  10.519 -0.5170  0.3104  0.2147
  434TMC3     C 6525   3.144   1.942  10.758 -0.6665 -0.2794  0.3419
  434TMC3     O 6526   3.152   1.915  10.876  0.2456  0.1695 -0.2625
  434TMC3     H 6527   3.128   1.682  10.829 -2.6945  0.2401 -0.4283
  434TMC3    H1 6528   3.139   1.940  10.478 -0.9683 -0.6307  0.5040
  434TMC3    H2 6529   3.272   1.548  10.455 -3.5056 -0.8840 -0.8296
  434TMC3    C7 6530   3.133   1.719  10.332 -0.9321  0.1366 -0.6356
  434TMC3    C8 6531   3.310   1.541  10.728 -0.2955  0.7559 -0.3626
  434TMC3    O1 6532   3.138   1.814  10.261 -0.3865 -0.8248 -0.0868
  434TMC3    O2 6533   3.311   1.547  10.851  0.1258  0.0672 -0.7911
  435MPD2     C 6534   1.228   2.432  15.546  0.0760 -0.1679  0.1600
  435MPD2    C1 6535   1.182   2.404  15.675  0.5465 -0.3283 -0.5378
  435MPD2    C2 6536   1.260   2.319  15.752  0.5277  0.5900  0.3973
  435MPD2    C3 6537   1.366   2.246  15.700 -0.1475  0.2033  0.3574
  435MPD2    C4 6538   1.407   2.272  15.572 -0.2009 -0.2081 -0.4426
  435MPD2    C5 6539   1.337   2.361  15.500  0.2712 -0.4689  0.2081
  435MPD2     H 6540   1.222   2.286  15.848 -2.5819  0.9802 -0.6959
  435MPD2    H1 6541   1.487   2.215  15.527  0.5986  0.7936 -0.2861
  435MPD2    H2 6542   1.169   2.499  15.485  0.0100 -1.6713 -1.4374
  435MPD2    H3 6543   1.375   2.376  15.400  1.3274 -0.3849  0.6277
  435MPD2     N 6544   1.425   2.153  15.786  0.4591 -0.3915  0.2931
  435MPD2    H5 6545   1.376   2.127  15.871  1.2297  2.3384  1.5972
  435MPD2    N1 6546   1.069   2.462  15.736  0.3010 -0.2146 -0.2842
  435MPD2    H7 6547   1.042   2.419  15.824 -3.3752  0.3219 -1.1658
  436TMC3    C1 6548   0.873   2.673  16.024 -0.2569 -0.0045  0.0893
  436TMC3    C2 6549   0.934   2.599  15.919 -0.0683  0.5659  0.2220
  436TMC3    C3 6550   0.936   2.654  15.793 -0.1779 -0.1063  0.5395
  436TMC3    C4 6551   0.814   2.798  15.997 -0.2086 -0.3820  0.3451
  436TMC3    C5 6552   0.808   2.841  15.868 -0.6311 -0.0614  0.4202
  436TMC3    C6 6553   0.864   2.769  15.762  0.1411  0.2892  0.1766
  436TMC3     C 6554   0.934   2.641  16.152  0.0885  0.0078  0.0539
  436TMC3     O 6555   1.038   2.576  16.154 -0.3468  0.1128 -0.7829
  436TMC3     H 6556   0.987   2.515  15.963 -1.6500 -2.1075 -2.9563
  436TMC3    H1 6557   0.789   2.869  16.075  0.5966 -4.0988  4.0325
  436TMC3    H2 6558   0.863   2.815  15.664 -2.6801  0.0026  0.0788
  436TMC3    C7 6559   0.717   2.945  15.836  0.6467  0.2534  0.5609
  436TMC3    C8 6560   1.001   2.574  15.689 -0.4922  0.2534  0.5739
  436TMC3    O1 6561   0.732   2.994  15.725  0.4038 -0.2008  0.0077
  436TMC3    O2 6562   1.012   2.630  15.579 -0.4472 -0.3036 -0.6323
  437TMC3    C1 6563   4.259   4.274  12.361 -0.4915  0.2513  0.0211
  437TMC3    C2 6564   4.185   4.277  12.247 -0.3449  0.0288 -0.2133
  437TMC3    C3 6565   4.180   4.403  12.190  0.5971  0.3026 -0.5576
  437TMC3    C4 6566   4.326   4.380  12.422 -0.2209 -0.8474 -0.1477
  437TMC3    C5 6567   4.321   4.499  12.348 -0.3424  0.1777  0.5622
  437TMC3    C6 6568   4.251   4.514  12.236  0.6913 -0.2817  0.0570
  437TMC3     C 6569   4.282   4.152  12.429  0.5816  0.0072  0.0186
  437TMC3     O 6570   4.305   4.158  12.550 -0.1661 -0.1702 -0.2894
  437TMC3     H 6571   4.134   4.192  12.202 -0.8204 -0.4213  1.1909
  437TMC3    H1 6572   4.397   4.365  12.503  0.1905 -0.7337 -0.4889
  437TMC3    H2 6573   4.266   4.594  12.164  0.6977  0.3844  0.7933
  437TMC3    C7 6574   4.433   4.583  12.348 -0.1777  0.3872  0.0125
  437TMC3    C8 6575   4.085   4.434  12.083  0.0352 -0.3727  0.3453
  437TMC3    O1 6576   4.450   4.663  12.257 -0.1268 -0.2893 -0.0891
  437TMC3    O2 6577   4.084   4.551  12.043 -0.0542 -0.5914  0.3096
  438MPD2     C 6578   2.011   0.211  16.638  0.5182  0.2873  0.1382
  438MPD2    C1 6579   2.100   0.127  16.701 -0.1826  0.3562  0.5319
  438MPD2    C2 6580   2.069   0.089  16.833  0.5720  0.1602  1.3549
  438MPD2    C3 6581   1.966   0.144  16.903  0.1211 -0.2639  0.8939
  438MPD2    C4 6582   1.888   0.234  16.832  0.0869 -0.2766  0.1621
  438MPD2    C5 6583   1.908   0.264  16.707  0.3718 -1.0715  0.4169
  438MPD2     H 6584   2.121   0.004  16.876  1.6300 -0.0805 -0.3882
  438MPD2    H1 6585   1.818   0.298  16.885  0.8860  1.6947 -1.1552
  438MPD2    H2 6586   2.022   0.244  16.535  1.9177  0.8434  0.4634
  438MPD2    H3 6587   1.849   0.342  16.660 -1.0986 -1.9386  0.8160
  438MPD2     N 6588   1.931   0.114  17.037  0.1253 -0.3112  0.3402
  438MPD2    H5 6589   1.860   0.174  17.077  0.1282  0.3465 -0.6410
  438MPD2    N1 6590   2.207   0.067  16.627 -0.1080 -0.0981  0.2730
  438MPD2    H7 6591   2.252   4.735  16.678  1.7570  0.9047  0.1111
  439TMC3    C1 6592   2.362   0.018  16.452 -0.1065 -1.0817  0.1668
  439TMC3    C2 6593   2.371   4.740  16.319  0.0554 -0.3233  0.0292
  439TMC3    C3 6594   2.487   4.673  16.270  0.3951 -0.1347 -0.0884
  439TMC3    C4 6595   2.450   4.707  16.543  0.9761  0.5728  0.5191
  439TMC3    C5 6596   2.550   4.631  16.498 -0.2436 -0.8932 -0.2065
  439TMC3    C6 6597   2.574   4.617  16.361  0.1005 -0.2620  0.5270
  439TMC3     C 6598   2.244   0.091  16.503  0.5458  0.3773 -0.0545
  439TMC3     O 6599   2.190   0.158  16.414  0.4470  0.1143  0.0030
  439TMC3     H 6600   2.295   0.045  16.258 -0.2822  0.0437  0.7379
  439TMC3    H1 6601   2.432   4.720  16.649 -0.7064 -0.2246  0.3292
  439TMC3    H2 6602   2.645   4.543  16.326 -0.2639 -0.1819 -0.3770
  439TMC3    C7 6603   2.654   4.578  16.593 -0.0427 -0.4002  0.4532
  439TMC3    C8 6604   2.485   4.604  16.150  0.4985  0.9684  0.3939
  439TMC3    O1 6605   2.766   4.552  16.551  0.2054 -1.0039  0.4321
  439TMC3    O2 6606   2.488   4.483  16.162  0.2950 -0.4202 -0.7397
  440MPD2     C 6607   0.792   0.748  14.894  0.3689 -0.7684 -0.1229
  440MPD2    C1 6608   0.857   0.824  14.982 -0.6158  0.1287  0.2555
  440MPD2    C2 6609   0.958   0.774  15.059 -0.3028 -0.5126 -0.5005
  440MPD2    C3 6610   1.008   0.643  15.039 -0.0156 -0.1798  0.5454
  440MPD2    C4 6611   0.938   0.568  14.952 -0.3248 -0.0875  0.3501
  440MPD2    C5 6612   0.838   0.616  14.872  0.4174  0.2091 -0.0958
  440MPD2     H 6613   1.013   0.838  15.127 -0.7489  0.8650 -1.4673
  440MPD2    H1 6614   0.960   0.462  14.945 -1.6017 -0.4920  2.2144
  440MPD2    H2 6615   0.709   0.783  14.834 -0.3150  0.4488  1.5510
  440MPD2    H3 6616   0.794   0.556  14.793  0.9227  0.4030 -0.5244
  440MPD2     N 6617   1.128   0.592  15.093  1.4069 -0.5300  0.3090
  440MPD2    H5 6618   1.150   0.498  15.063  0.1885 -1.3202  1.8833
  440MPD2    N1 6619   0.825   0.956  15.014  0.3590 -0.2009 -0.6347
  440MPD2    H7 6620   0.871   1.003  15.091  0.6185 -0.0290 -0.8968
  441TMC3    C1 6621   1.300   0.582  15.269  0.4188  0.1981  0.2945
  441TMC3    C2 6622   1.345   0.671  15.359  0.8093  0.2975 -0.1592
  441TMC3    C3 6623   1.354   0.645  15.493 -0.4876  0.6395  0.0372
  441TMC3    C4 6624   1.260   0.460  15.320  0.1007 -0.5089  0.8239
  441TMC3    C5 6625   1.287   0.430  15.453 -0.1348  0.0765  0.2269
  441TMC3    C6 6626   1.340   0.518  15.543 -0.5749 -0.1091 -0.3429
  441TMC3     C 6627   1.185   0.646  15.209 -0.7254 -0.7748 -0.1996
  441TMC3     O 6628   1.144   0.737  15.278  0.0531  0.3173 -0.1487
  441TMC3     H 6629   1.359   0.767  15.310 -0.7759  1.3309  1.3819
  441TMC3    H1 6630   1.219   0.392  15.246 -0.4381  2.0513 -1.2372
  441TMC3    H2 6631   1.364   0.493  15.646 -0.9009  2.6073  0.3836
  441TMC3    C7 6632   1.290   0.292  15.497  0.5797  0.0459 -0.1982
  441TMC3    C8 6633   1.349   0.755  15.587 -0.3496 -0.0149  0.2720
  441TMC3    O1 6634   1.196   0.225  15.462 -0.0308 -0.0212 -0.4005
  441TMC3    O2 6635   1.413   0.751  15.690  0.5487  0.3742  0.4380
  442MPD2     C 6636   4.268   1.057  16.509 -0.1272  0.8609 -0.2027
  442MPD2    C1 6637   4.173   0.965  16.549  0.4290 -0.0855  0.0794
  442MPD2    C2 6638   4.145   0.855  16.468  0.0763 -0.2432  0.2427
  442MPD2    C3 6639   4.208   0.841  16.348  0.4068 -1.2590  0.6071
  442MPD2    C4 6640   4.303   0.937  16.306  0.2089  0.1417 -0.1863
  442MPD2    C5 6641   4.337   1.041  16.390  0.7596  0.3545  0.4106
  442MPD2     H 6642   4.069   0.782  16.497  2.7598 -2.7304  0.9900
  442MPD2    H1 6643   4.360   0.923  16.215 -0.9399 -1.0143 -0.7413
  442MPD2    H2 6644   4.282   1.144  16.571  0.1960  0.2344  0.6021
  442MPD2    H3 6645   4.414   1.111  16.359  2.1060 -1.2682  0.0865
  442MPD2     N 6646   4.172   0.737  16.260 -0.4563 -0.2592 -0.6312
  442MPD2    H5 6647   4.221   0.744  16.171 -0.2671 -1.5312 -0.6373
  442MPD2    N1 6648   4.095   0.988  16.667  0.0947 -0.1764  0.0537
  442MPD2    H7 6649   4.034   0.911  16.695  0.3499 -0.4190 -0.0657
  443TMC3    C1 6650   3.995   1.083  16.850 -0.1649 -0.4762 -0.0347
  443TMC3    C2 6651   3.919   1.199  16.873 -0.2950  0.7960 -0.8279
  443TMC3    C3 6652   3.788   1.182  16.909 -0.2946 -0.9665  0.1972
  443TMC3    C4 6653   3.942   0.959  16.860  0.1569  0.3229 -0.1430
  443TMC3    C5 6654   3.810   0.949  16.897  0.3942 -0.0042  0.1830
  443TMC3    C6 6655   3.731   1.058  16.922 -0.2081  0.7637 -0.1642
  443TMC3     C 6656   4.098   1.097  16.749  0.0871 -0.0432  0.5731
  443TMC3     O 6657   4.159   1.204  16.748  0.0164 -0.4734 -0.0875
  443TMC3     H 6658   3.949   1.292  16.826  0.0272  0.4380 -1.3339
  443TMC3    H1 6659   4.007   0.873  16.848  0.2672  0.4011 -0.1161
  443TMC3    H2 6660   3.631   1.046  16.963  0.0899 -1.9583 -0.2359
  443TMC3    C7 6661   3.751   0.816  16.926 -0.1226 -0.3505  0.2187
  443TMC3    C8 6662   3.702   1.281  16.855 -0.2890 -0.5777  0.0276
  443TMC3    O1 6663   3.774   0.727  16.845  0.0341  0.3784  0.4294
  443TMC3    O2 6664   3.725   1.400  16.866 -0.7558 -0.1052 -0.0194
  444MPD2     C 6665   4.249   0.743  16.868 -0.3292  0.1463 -0.0708
  444MPD2    C1 6666   4.186   0.616  16.861  0.1736  0.4199 -0.0726
  444MPD2    C2 6667   4.219   0.522  16.758 -0.4967  0.0810  0.9604
  444MPD2    C3 6668   4.328   0.548  16.675 -0.3644  0.3038  0.3622
  444MPD2    C4 6669   4.392   0.674  16.679  0.2765  0.1869  0.3584
  444MPD2    C5 6670   4.351   0.763  16.776 -0.3019  0.0400 -0.0182
  444MPD2     H 6671   4.179   0.422  16.759  0.9700 -0.5328 -1.8335
  444MPD2    H1 6672   4.472   0.692  16.609  1.0717  2.3438  1.8212
  444MPD2    H2 6673   4.217   0.819  16.938  1.6509  0.8573  0.0609
  444MPD2    H3 6674   4.406   0.856  16.782  0.9012 -0.7056  0.6066
  444MPD2     N 6675   4.379   0.441  16.593  0.1962  0.2391 -0.2125
  444MPD2    H5 6676   4.328   0.354  16.586  0.6777  0.1507 -2.6642
  444MPD2    N1 6677   4.096   0.572  16.955  0.5297  0.1892 -0.1621
  444MPD2    H7 6678   4.056   0.479  16.947 -1.6827  1.2091 -0.9702
  445TMC3    C1 6679   4.495   0.329  16.435  0.0282  0.4910  0.3964
  445TMC3    C2 6680   4.384   0.293  16.371 -0.1849 -0.1286 -0.5295
  445TMC3    C3 6681   4.374   0.170  16.303 -0.3206  0.6797 -0.3406
  445TMC3    C4 6682   4.602   0.247  16.449 -0.1399  0.1382 -0.4532
  445TMC3    C5 6683   4.587   0.121  16.403  0.0306 -0.1584 -0.0502
  445TMC3    C6 6684   4.477   0.076  16.327 -0.0807 -0.0780 -0.0056
  445TMC3     C 6685   4.500   0.440  16.528  0.3798  0.4634 -0.0179
  445TMC3     O 6686   4.601   0.505  16.544 -0.1973  0.6410 -0.0850
  445TMC3     H 6687   4.311   0.372  16.364 -1.1454 -0.8554  1.2095
  445TMC3    H1 6688   4.679   0.280  16.518 -0.3689 -0.0020 -0.1330
  445TMC3    H2 6689   4.452   4.714  16.310  0.0539 -0.1111 -0.0016
  445TMC3    C7 6690   4.688   0.024  16.439  1.0164  0.3672  0.3029
  445TMC3    C8 6691   4.258   0.143  16.226  0.5685  0.3942 -0.5014
  445TMC3    O1 6692   4.643   4.658  16.469  1.0287 -0.1102 -0.3775
  445TMC3    O2 6693   4.170   0.228  16.225  0.2484 -0.1166 -0.2701
  446MPD2     C 6694   3.160   1.297  11.296 -0.1917  0.7010  0.6119
  446MPD2    C1 6695   3.105   1.366  11.185 -0.0085  0.2256 -0.1308
  446MPD2    C2 6696   3.184   1.460  11.124  0.4223  0.1266 -0.8612
  446MPD2    C3 6697   3.297   1.521  11.181  0.2583  0.2019 -0.3507
  446MPD2    C4 6698   3.327   1.473  11.305 -0.3799  0.0218  0.6651
  446MPD2    C5 6699   3.267   1.359  11.348 -0.0713  0.3801  0.0443
  446MPD2     H 6700   3.145   1.509  11.035  0.9503 -0.2722 -1.3148
  446MPD2    H1 6701   3.417   1.501  11.358  0.1733  1.2190 -0.8992
  446MPD2    H2 6702   3.123   1.204  11.337 -0.7493  0.4807 -0.4166
  446MPD2    H3 6703   3.306   1.316  11.440 -2.3665  1.9105  1.7107
  446MPD2     N 6704   3.366   1.628  11.117 -0.5453 -0.2295 -0.2822
  446MPD2    H5 6705   3.335   1.653  11.024 -0.0904  3.1737  0.4843
  446MPD2    N1 6706   2.985   1.319  11.120  0.3967 -0.1599  0.2195
  446MPD2    H7 6707   2.965   1.365  11.032  1.5257  1.1658  0.6601
  447TMC3    C1 6708   3.552   1.753  11.051 -0.1824  0.0954  0.2453
  447TMC3    C2 6709   3.496   1.810  10.934  0.8162 -0.0907 -0.4367
  447TMC3    C3 6710   3.578   1.887  10.846  0.4456 -0.2915  0.0469
  447TMC3    C4 6711   3.685   1.785  11.077  0.1070  0.1169 -1.0692
  447TMC3    C5 6712   3.763   1.850  10.986 -0.2813  0.0333 -0.1149
  447TMC3    C6 6713   3.713   1.897  10.865  0.5994  0.3522  0.0658
  447TMC3     C 6714   3.482   1.684  11.156 -0.2305 -0.5799  0.0989
  447TMC3     O 6715   3.546   1.668  11.262  0.0296 -0.0306  0.1851
  447TMC3     H 6716   3.393   1.782  10.912  0.8364 -0.3060 -0.2524
  447TMC3    H1 6717   3.724   1.752  11.173  2.6002 -0.2077 -2.1975
  447TMC3    H2 6718   3.777   1.940  10.789 -0.3164  0.1902 -0.8003
  447TMC3    C7 6719   3.905   1.840  11.006 -0.6570  0.5947  0.6084
  447TMC3    C8 6720   3.521   1.913  10.711 -0.8190 -0.1922 -0.2524
  447TMC3    O1 6721   3.980   1.820  10.915 -0.2855 -0.2630 -0.9116
  447TMC3    O2 6722   3.438   1.837  10.666  0.0890  0.3948  0.0750
  448TMC3    C1 6723   2.198   1.493  17.145 -0.4403  0.8163 -0.5470
  448TMC3    C2 6724   2.166   1.420  17.035  0.5202  1.1794 -0.8674
  448TMC3    C3 6725   2.261   1.340  16.980  0.7013 -0.4278  0.1620
  448TMC3    C4 6726   2.322   1.487  17.211  0.0368  0.2992 -0.1420
  448TMC3    C5 6727   2.406   1.392  17.162  0.6672 -0.3646 -0.4330
  448TMC3    C6 6728   2.379   1.320  17.044 -0.3034  1.1470 -0.1638
  448TMC3     C 6729   2.094   1.581  17.206 -0.4974 -0.2592 -0.5585
  448TMC3     O 6730   1.980   1.571  17.162  0.3259  0.9709  0.6325
  448TMC3     H 6731   2.068   1.432  16.989 -0.1520  1.2035  0.5858
  448TMC3    H1 6732   2.355   1.558  17.286 -0.3988  1.6823 -1.2421
  448TMC3    H2 6733   2.443   1.241  17.007  0.0698  1.1461  0.4799
  448TMC3    C7 6734   2.528   1.361  17.226  0.4512 -0.2161 -1.0055
  448TMC3    C8 6735   2.231   1.252  16.867 -0.1971 -0.3411 -0.0776
  448TMC3    O1 6736   2.626   1.311  17.169  0.2737 -0.3961  0.1623
  448TMC3    O2 6737   2.298   1.154  16.844  0.8908 -0.1345 -0.1050
  449MPD2     C 6738   3.584   0.303  14.211  0.1595  0.4877  0.0696
  449MPD2    C1 6739   3.473   0.358  14.149 -0.5844 -0.0280  0.4026
  449MPD2    C2 6740   3.358   0.285  14.148 -0.1532  0.0124 -0.2645
  449MPD2    C3 6741   3.346   0.160  14.210  0.6619  0.3543  0.3817
  449MPD2    C4 6742   3.457   0.106  14.272 -0.1811  0.1621 -0.8131
  449MPD2    C5 6743   3.571   0.178  14.277  0.3510 -0.0423 -0.2208
  449MPD2     H 6744   3.267   0.321  14.100 -0.0851  0.6157  0.0562
  449MPD2    H1 6745   3.453   0.004  14.309  0.9280  0.4755  0.1735
  449MPD2    H2 6746   3.674   0.361  14.223  0.1241  0.8781 -1.4447
  449MPD2    H3 6747   3.666   0.141  14.313  0.7967 -1.2806 -2.6267
  449MPD2     N 6748   3.221   0.090  14.219  0.1174  0.3792  0.4317
  449MPD2    H5 6749   3.149   0.121  14.154 -0.8655 -1.1058  0.7966
  449MPD2    N1 6750   3.464   0.488  14.104  0.1423  0.1341  0.8402
  449MPD2    H7 6751   3.371   0.516  14.076  0.0260 -1.9428 -0.7987
  450TMC3    C1 6752   3.497   0.698  14.004 -0.2425  0.4065  0.0157
  450TMC3    C2 6753   3.549   0.704  13.877  0.6367  0.0478 -0.5554
  450TMC3    C3 6754   3.467   0.717  13.770  0.3343 -0.0659  0.1505
  450TMC3    C4 6755   3.364   0.713  14.022  0.1142  0.3732  0.4435
  450TMC3    C5 6756   3.280   0.730  13.914  0.1555  0.3475  0.2219
  450TMC3    C6 6757   3.327   0.734  13.786  0.1248 -0.3772 -0.0078
  450TMC3     C 6758   3.555   0.585  14.069  0.3313  0.1526  0.0907
  450TMC3     O 6759   3.675   0.569  14.064  0.5921  0.3700  0.2929
  450TMC3     H 6760   3.657   0.696  13.876  0.7208  1.1738 -0.5523
  450TMC3    H1 6761   3.320   0.709  14.121  0.3135  1.7378  0.5958
  450TMC3    H2 6762   3.266   0.770  13.704 -0.3782 -0.2785  0.4119
  450TMC3    C7 6763   3.186   0.626  13.930 -0.0802 -0.3390  0.8434
  450TMC3    C8 6764   3.527   0.806  13.671 -0.4673 -0.4000 -0.1515
  450TMC3    O1 6765   3.225   0.537  14.013  0.4089  0.0253 -0.0697
  450TMC3    O2 6766   3.476   0.917  13.671  0.1771  0.7417 -0.2083
  451MPD2     C 6767   0.535   3.770   1.154 -0.0978  0.2961 -0.9400
  451MPD2    C1 6768   0.472   3.693   1.059  0.3767 -0.4661  0.0594
  451MPD2    C2 6769   0.541   3.584   1.011  0.8871 -0.0287 -0.0033
  451MPD2    C3 6770   0.668   3.554   1.069 -0.0015 -0.4130  0.1584
  451MPD2    C4 6771   0.730   3.629   1.161  0.2573 -0.4240  0.1904
  451MPD2    C5 6772   0.660   3.736   1.202  0.0382 -0.3835 -0.2629
  451MPD2     H 6773   0.496   3.529   0.929 -2.5718  2.5447  0.1645
  451MPD2    H1 6774   0.825   3.602   1.208  1.8649  1.9812 -1.6982
  451MPD2    H2 6775   0.487   3.858   1.196  0.5500 -0.8127  2.1380
  451MPD2    H3 6776   0.714   3.802   1.269  2.4196 -1.4612 -1.1498
  451MPD2     N 6777   0.735   3.434   1.022 -0.0538  0.0433  0.4386
  451MPD2    H5 6778   0.679   3.371   0.967 -1.2843  0.9023  0.7099
  451MPD2    N1 6779   0.339   3.735   1.025 -0.3423  0.5896 -0.5061
  451MPD2    H7 6780   0.302   3.812   1.080  3.1175  0.0612  2.5998
  452TMC3    C1 6781   0.907   3.270   0.974  0.5205  0.4746  0.1886
  452TMC3    C2 6782   0.839   3.157   1.004  0.0718 -0.0659 -0.0497
  452TMC3    C3 6783   0.901   3.033   0.977  0.3678  0.3924  0.3295
  452TMC3    C4 6784   1.032   3.263   0.919  1.1883 -0.2267 -0.0512
  452TMC3    C5 6785   1.071   3.142   0.866 -0.5255  0.3869  0.3642
  452TMC3    C6 6786   1.008   3.028   0.891  0.2431  0.4009 -0.4737
  452TMC3     C 6787   0.867   3.399   1.046 -0.8179  0.2439  0.5653
  452TMC3     O 6788   0.959   3.466   1.094  0.2415 -0.3656  0.1331
  452TMC3     H 6789   0.759   3.173   1.075  2.5019 -2.1849  3.1721
  452TMC3    H1 6790   1.093   3.349   0.893 -0.3558 -0.1399 -3.3960
  452TMC3    H2 6791   1.051   2.932   0.865  0.7567  0.6890 -0.6771
  452TMC3    C7 6792   1.176   3.142   0.762 -0.4389  0.1107 -0.8771
  452TMC3    C8 6793   0.808   2.921   0.956  0.0198  0.6562  0.4529
  452TMC3    O1 6794   1.240   3.248   0.748  0.2381  0.2151  0.1033
  452TMC3    O2 6795   0.843   2.836   0.874  0.1945  0.0870  0.2332
  453TMC3    C1 6796   1.054   0.493  11.866 -0.0060  0.4085  0.5146
  453TMC3    C2 6797   0.951   0.409  11.889  0.6877  0.2261  0.8426
  453TMC3    C3 6798   0.824   0.453  11.881 -0.3771 -0.4337 -0.3320
  453TMC3    C4 6799   1.039   0.614  11.817 -0.3014  1.0037 -0.2513
  453TMC3    C5 6800   0.916   0.659  11.813  0.7226 -0.1609  0.1867
  453TMC3    C6 6801   0.801   0.584  11.850 -0.8760 -0.1306  0.0140
  453TMC3     C 6802   1.188   0.442  11.885 -0.4071  0.3590  0.4008
  453TMC3     O 6803   1.261   0.539  11.902  0.3069  0.3658  0.2646
  453TMC3     H 6804   0.966   0.318  11.946 -2.4504  1.0726  2.9804
  453TMC3    H1 6805   1.122   0.682  11.803  1.0741 -0.3057  1.6983
  453TMC3    H2 6806   0.699   0.619  11.843 -0.1088  1.5433 -2.5633
  453TMC3    C7 6807   0.895   0.785  11.752 -0.2635 -0.1781  0.1964
  453TMC3    C8 6808   0.723   0.383  11.948 -0.2613 -0.5074 -0.0691
  453TMC3    O1 6809   0.976   0.823  11.666 -0.3827 -0.6757 -0.5614
  453TMC3    O2 6810   0.657   0.449  12.024  0.3742 -0.1563  0.1016
  454MPD2     C 6811   0.470   0.359  16.164 -0.6629 -1.0780  0.8152
  454MPD2    C1 6812   0.393   0.390  16.054 -0.2233 -0.5296  0.6669
  454MPD2    C2 6813   0.344   0.517  16.048  0.1195 -0.3895 -0.3701
  454MPD2    C3 6814   0.366   0.613  16.147  0.0021 -0.3763  0.2644
  454MPD2    C4 6815   0.439   0.579  16.257  0.9127  0.1142  0.0273
  454MPD2    C5 6816   0.494   0.449  16.266  0.0494 -0.2551 -0.4090
  454MPD2     H 6817   0.276   0.540  15.966 -0.3475 -1.0272 -0.1598
  454MPD2    H1 6818   0.457   0.653  16.334  0.8238 -1.5645  1.6631
  454MPD2    H2 6819   0.510   0.259  16.171 -0.3721 -1.0489 -0.4791
  454MPD2    H3 6820   0.548   0.431  16.359  0.2979  0.8073 -0.3463
  454MPD2     N 6821   0.297   0.738  16.150 -0.1514  0.0825 -0.3040
  454MPD2    H5 6822   0.277   0.779  16.240 -0.5101 -2.6143  0.8531
  454MPD2    N1 6823   0.371   0.304  15.945  0.6278 -0.2576  0.0671
  454MPD2    H7 6824   0.343   0.356  15.862 -0.7917 -2.1272 -0.6388
  455TMC3    C1 6825   0.103   0.840  16.074  0.4031  0.7916 -0.0167
  455TMC3    C2 6826   0.099   0.937  16.170  0.8399  0.9241  0.1239
  455TMC3    C3 6827   0.004   0.922  16.264 -0.5169  0.2707  0.2893
  455TMC3    C4 6828   0.020   0.739  16.080  0.2138  0.1532  0.3027
  455TMC3    C5 6829   4.670   0.731  16.177  0.5900  0.2534 -0.2354
  455TMC3    C6 6830   4.651   0.821  16.279  0.2988 -0.1534  0.0479
  455TMC3     C 6831   0.229   0.784  16.042  0.5204 -0.3489  0.6080
  455TMC3     O 6832   0.249   0.774  15.922  0.6004 -0.4851  0.1340
  455TMC3     H 6833   0.182   1.006  16.173  0.7850  0.9997 -0.0663
  455TMC3    H1 6834   0.028   0.662  16.004  2.0534 -0.7889  1.4444
  455TMC3    H2 6835   4.575   0.816  16.357 -0.9417  1.4734 -1.0395
  455TMC3    C7 6836   4.605   0.603  16.182 -0.5619 -0.2463  0.5800
  455TMC3    C8 6837   4.739   1.039  16.342 -0.0354 -0.5890  0.3588
  455TMC3    O1 6838   4.484   0.585  16.182 -0.9029 -0.0236 -0.0889
  455TMC3    O2 6839   0.036   1.141  16.290 -0.6319 -0.4559 -0.2605
  456MPD2     C 6840   2.527   0.561  15.686 -0.0826  0.4647 -0.2095
  456MPD2    C1 6841   2.581   0.473  15.776  0.7529 -0.2428  0.5023
  456MPD2    C2 6842   2.534   0.473  15.911 -0.7105  0.4307 -0.2145
  456MPD2    C3 6843   2.421   0.551  15.942  0.3666 -0.3288  0.7269
  456MPD2    C4 6844   2.349   0.608  15.844 -0.3370 -0.5714 -0.6594
  456MPD2    C5 6845   2.403   0.615  15.717  0.3292 -0.3736  0.4675
  456MPD2     H 6846   2.574   0.407  15.987 -0.4075  2.7394  1.6487
  456MPD2    H1 6847   2.259   0.668  15.849  0.2254  0.3168 -1.2171
  456MPD2    H2 6848   2.570   0.580  15.589  0.0299  1.9358  0.1321
  456MPD2    H3 6849   2.367   0.688  15.645 -2.1929  0.4824  2.6189
  456MPD2     N 6850   2.379   0.551  16.079  0.8150 -0.4059  0.0673
  456MPD2    H5 6851   2.439   0.506  16.147  1.3223  0.4212  0.1699
  456MPD2    N1 6852   2.695   0.397  15.734 -0.6110 -0.0058 -0.7665
  456MPD2    H7 6853   2.740   0.434  15.651  1.2282  0.0254  0.2466
  457TMC3    C1 6854   2.262   0.619  16.275  0.6871 -0.4886  0.5806
  457TMC3    C2 6855   2.197   0.731  16.334  0.2578 -0.2126  0.1643
  457TMC3    C3 6856   2.157   0.727  16.467  0.4305  0.3046 -0.3682
  457TMC3    C4 6857   2.288   0.506  16.350  0.4324 -0.1023  0.0643
  457TMC3    C5 6858   2.246   0.500  16.479 -0.9117  0.8092 -0.1855
  457TMC3    C6 6859   2.190   0.611  16.538 -0.6033  0.1683  0.0272
  457TMC3     C 6860   2.273   0.623  16.126 -0.2982  0.1672  0.3384
  457TMC3     O 6861   2.198   0.702  16.074 -0.0031 -0.0271 -0.4263
  457TMC3     H 6862   2.191   0.828  16.285 -1.1256  0.1954  1.1355
  457TMC3    H1 6863   2.314   0.414  16.300 -0.3926  0.0639 -0.6531
  457TMC3    H2 6864   2.164   0.606  16.643  0.4198  1.6048  0.3495
  457TMC3    C7 6865   2.337   0.441  16.574  0.3150  0.6208 -0.9842
  457TMC3    C8 6866   2.115   0.843  16.550 -0.1965 -0.1543 -0.3036
  457TMC3    O1 6867   2.316   0.463  16.693 -0.0406  0.9379  0.2885
  457TMC3    O2 6868   2.154   0.845  16.666 -0.0689  0.0989 -0.0952
  458MPD2     C 6869   0.157   4.728  12.522 -0.1979  0.2623 -0.3932
  458MPD2    C1 6870   0.110   4.630  12.609 -0.6547 -0.7832 -0.7960
  458MPD2    C2 6871   4.724   4.573  12.587  0.3863  0.1164 -0.1537
  458MPD2    C3 6872   4.648   4.619  12.482  0.1565 -0.6100  0.8761
  458MPD2    C4 6873   4.697   4.724  12.404 -0.8662  0.3476  0.4626
  458MPD2    C5 6874   0.080   0.032  12.415 -0.0409  0.1842 -0.1922
  458MPD2     H 6875   4.683   4.505  12.662  0.6810  1.3042  1.0858
  458MPD2    H1 6876   4.641   0.034  12.327 -1.3465 -0.0010  0.5732
  458MPD2    H2 6877   0.258   0.026  12.532 -0.1161  0.2021 -1.0001
  458MPD2    H3 6878   0.124   0.113  12.359  0.1842 -0.7086 -1.3046
  458MPD2     N 6879   4.520   4.554  12.457 -0.9890  0.0740  0.5107
  458MPD2    H5 6880   4.485   4.493  12.531 -0.8001 -0.2611  0.3261
  458MPD2    N1 6881   0.194   4.587  12.713 -0.1242 -0.5081 -0.7299
  458MPD2    H7 6882   0.288   4.625  12.709  0.0957 -0.9591  0.1117
  459TMC3    C1 6883   0.280   4.443  12.886  0.0095 -0.3339  0.1705
  459TMC3    C2 6884   0.411   4.497  12.867  0.3946  0.1340 -0.1461
  459TMC3    C3 6885   0.526   4.428  12.915  0.1432 -0.2554 -0.6328
  459TMC3    C4 6886   0.274   4.318  12.947  0.7341  0.3509 -0.0599
  459TMC3    C5 6887   0.391   4.259  12.980 -0.3929  0.2243  0.5811
  459TMC3    C6 6888   0.518   4.308  12.977 -0.3772  0.4025  0.0698
  459TMC3     C 6889   0.173   4.477  12.792 -0.2203 -0.3969  0.2007
  459TMC3     O 6890   0.065   4.427  12.821 -0.4066 -0.0873  0.2187
  459TMC3     H 6891   0.414   4.595  12.821  0.0774 -0.6798 -1.8942
  459TMC3    H1 6892   0.185   4.256  12.943  0.7591  0.4598 -2.5734
  459TMC3    H2 6893   0.602   4.250  13.013  1.9755  3.0371 -1.1903
  459TMC3    C7 6894   0.386   4.132  13.042 -0.4340  0.3006  0.1189
  459TMC3    C8 6895   0.653   4.492  12.928 -0.4902 -0.8512  0.6479
  459TMC3    O1 6896   0.480   4.056  13.014 -0.6533 -0.4761  0.1312
  459TMC3    O2 6897   0.666   4.584  12.847  0.3682  0.2528  0.3253
  460MPD2     C 6898   3.648   2.198  10.514  0.2009 -0.5185  0.5758
  460MPD2    C1 6899   3.576   2.083  10.531 -0.3048 -0.3604  0.7126
  460MPD2    C2 6900   3.487   2.030  10.442  0.2708 -0.4774 -0.8352
  460MPD2    C3 6901   3.472   2.098  10.322  0.3872 -0.2376 -0.1494
  460MPD2    C4 6902   3.556   2.206  10.297 -0.4281 -0.2046 -1.2694
  460MPD2    C5 6903   3.633   2.260  10.394 -0.0458 -0.3416 -0.1780
  460MPD2     H 6904   3.434   1.942  10.476 -0.2128  0.4155  0.7348
  460MPD2    H1 6905   3.560   2.243  10.195 -2.2453  2.0248 -0.5404
  460MPD2    H2 6906   3.715   2.232  10.593 -1.0386  0.1879  1.3255
  460MPD2    H3 6907   3.688   2.349  10.368 -0.5523 -0.3829 -1.4321
  460MPD2     N 6908   3.372   2.067  10.230  0.3283 -0.1487 -0.6206
  460MPD2    H5 6909   3.307   1.994  10.256  0.0944 -0.0706 -0.9860
  460MPD2    N1 6910   3.590   2.023  10.658 -0.3973  0.1733  0.0330
  460MPD2    H7 6911   3.662   2.058  10.720  0.6399 -1.1918 -0.3943
  461TMC3    C1 6912   3.190   2.123  10.088 -0.1182  0.6154 -0.0209
  461TMC3    C2 6913   3.199   2.018  10.001  0.1877  0.1436 -0.3695
  461TMC3    C3 6914   3.141   2.024   9.875  0.3343  0.7175  0.5474
  461TMC3    C4 6915   3.120   2.239  10.045 -0.4589 -0.3771  0.5939
  461TMC3    C5 6916   3.064   2.241   9.917 -0.3462  0.1634 -0.0423
  461TMC3    C6 6917   3.082   2.136   9.827  0.2820  0.0532  0.9785
  461TMC3     C 6918   3.316   2.156  10.138  0.3398  0.1878 -0.1874
  461TMC3     O 6919   3.345   2.270  10.112 -0.5198  0.6290 -0.2148
  461TMC3     H 6920   3.246   1.929  10.041  1.6031  1.0480 -0.0157
  461TMC3    H1 6921   3.108   2.322  10.113 -1.3235 -0.4564  0.5405
  461TMC3    H2 6922   3.054   2.146   9.723  3.2828  4.9435  0.6399
  461TMC3    C7 6923   3.105   2.362   9.850 -0.2289  0.4062  0.5047
  461TMC3    C8 6924   3.230   1.968   9.784 -0.4946  0.1126  0.5853
  461TMC3    O1 6925   3.040   2.402   9.749  0.6468  0.5940 -0.3151
  461TMC3    O2 6926   3.337   2.022   9.761 -0.6128 -0.0977  0.8417
  462TMC3    C1 6927   4.729   2.779   0.250 -0.0787 -0.3137  0.0887
  462TMC3    C2 6928   0.005   2.722   0.129  0.0026 -0.1395  0.3009
  462TMC3    C3 6929   4.658   2.627   0.093 -0.2399  0.2203 -0.1523
  462TMC3    C4 6930   4.613   2.765   0.319 -0.0511 -0.0025  0.1504
  462TMC3    C5 6931   4.519   2.682   0.269  0.7257  1.0566 -0.1797
  462TMC3    C6 6932   4.546   2.599   0.164  0.2374  0.4303 -0.5628
  462TMC3     C 6933   0.102   2.815   0.325  0.8617  0.5730  0.1444
  462TMC3     O 6934   0.105   2.792   0.447 -0.0346  0.3017 -0.8443
  462TMC3     H 6935   0.098   2.730   0.074  0.2320 -0.3880  0.6552
  462TMC3    H1 6936   4.603   2.807   0.419  0.1590  1.2499 -0.3563
  462TMC3    H2 6937   4.461   2.558   0.112  1.5510 -0.2323 -2.2061
  462TMC3    C7 6938   4.394   2.672   0.343 -0.1444 -0.2223  0.5537
  462TMC3    C8 6939   4.677   2.547  17.737  0.0163 -1.0817  0.2965
  462TMC3    O1 6940   4.319   2.586   0.299  0.0253  0.9181  0.0412
  462TMC3    O2 6941   0.025   2.595  17.666 -0.1444 -0.0872  0.0526
  463MPD2     C 6942   1.156   1.407   1.286  0.6077  0.1117 -0.3911
  463MPD2    C1 6943   1.079   1.515   1.252 -0.7591 -0.4817 -0.6365
  463MPD2    C2 6944   1.104   1.637   1.307  0.1268  0.0545 -0.4544
  463MPD2    C3 6945   1.208   1.660   1.394  0.1186  0.8552 -0.0163
  463MPD2    C4 6946   1.285   1.553   1.421  0.6209  0.3293 -0.7236
  463MPD2    C5 6947   1.259   1.423   1.374 -0.5615 -0.2537  0.8102
  463MPD2     H 6948   1.029   1.713   1.287 -2.6363 -2.7369 -0.7557
  463MPD2    H1 6949   1.375   1.559   1.481 -1.1855  1.1455  1.8760
  463MPD2    H2 6950   1.145   1.306   1.249 -0.6701 -0.5661  1.7965
  463MPD2    H3 6951   1.319   1.337   1.401 -1.0559 -0.5389  0.9897
  463MPD2     N 6952   1.235   1.785   1.446 -0.2703  0.4288 -0.1295
  463MPD2    H5 6953   1.324   1.789   1.496 -0.7134  0.6455  0.6449
  463MPD2    N1 6954   0.959   1.502   1.172 -0.6157  0.1418  0.3139
  463MPD2    H7 6955   0.908   1.589   1.157  0.5461  0.6130 -0.9021
  464TMC3    C1 6956   0.767   1.413   1.064 -0.9266 -0.6827  0.6736
  464TMC3    C2 6957   0.695   1.518   1.103 -0.5335  0.6019 -0.0066
  464TMC3    C3 6958   0.561   1.513   1.073 -0.0304 -0.3905  0.1858
  464TMC3    C4 6959   0.723   1.312   0.984 -0.4942  0.6731  0.2489
  464TMC3    C5 6960   0.585   1.308   0.965 -0.5256 -0.0074 -0.1141
  464TMC3    C6 6961   0.503   1.408   1.008  0.5956  0.6668 -0.0386
  464TMC3     C 6962   0.909   1.397   1.106  0.8153  0.2712  0.7314
  464TMC3     O 6963   0.963   1.290   1.089 -0.5421 -0.2133  0.0291
  464TMC3     H 6964   0.748   1.597   1.156 -2.1991  2.9506 -1.8096
  464TMC3    H1 6965   0.783   1.233   0.940  0.1764  0.9082  0.7383
  464TMC3    H2 6966   0.395   1.405   1.022  0.6810  1.1572  0.7325
  464TMC3    C7 6967   0.532   1.200   0.879  0.6715 -0.4147  0.1990
  464TMC3    C8 6968   0.480   1.631   1.087 -0.3113 -0.1621 -0.0611
  464TMC3    O1 6969   0.605   1.125   0.814  0.2391  0.2577  0.4409
  464TMC3    O2 6970   0.379   1.631   1.017 -0.4820 -0.1244  1.0322
  465MPD2     C 6971   1.768   1.049  16.820  0.3761  0.0124 -0.6404
  465MPD2    C1 6972   1.721   0.937  16.880 -0.0449 -0.1723  0.2224
  465MPD2    C2 6973   1.678   0.832  16.803 -0.9391  0.1124  0.0110
  465MPD2    C3 6974   1.654   0.853  16.668 -0.4652  0.3417 -0.1390
  465MPD2    C4 6975   1.711   0.962  16.609  0.1292  0.5846 -0.7304
  465MPD2    C5 6976   1.759   1.063  16.684  0.5270  0.3739 -0.1098
  465MPD2     H 6977   1.652   0.747  16.865  1.8060 -0.6932  0.0600
  465MPD2    H1 6978   1.725   0.966  16.502  0.3519 -0.4977 -0.7402
  465MPD2    H2 6979   1.817   1.133  16.868 -4.0225  1.4666  1.2862
  465MPD2    H3 6980   1.804   1.149  16.636  0.9655  0.4667  0.4720
  465MPD2     N 6981   1.596   0.747  16.595  0.0774  0.3430  0.2948
  465MPD2    H5 6982   1.576   0.656  16.636  2.3540 -0.8260 -1.1582
  465MPD2    N1 6983   1.742   0.916  17.014 -0.3315 -0.2349  0.0258
  465MPD2    H7 6984   1.704   0.827  17.047  2.0745 -1.2185  0.1361
  466TMC3    C1 6985   1.547   0.402  16.414  0.9793 -0.2347  0.0602
  466TMC3    C2 6986   1.454   0.401  16.311  0.3582  0.2067 -0.0430
  466TMC3    C3 6987   1.411   0.515  16.252  0.1378 -0.3284  0.4529
  466TMC3    C4 6988   1.608   0.523  16.454  0.9603  0.2462  0.5384
  466TMC3    C5 6989   1.562   0.640  16.391  0.0666  0.0968  0.1849
  466TMC3    C6 6990   1.480   0.633  16.281  0.5855  0.3300  0.1715
  466TMC3     C 6991   1.494   0.337  16.540  0.5907  0.3605 -0.4874
  466TMC3     O 6992   1.570   0.346  16.637  0.4091 -0.2738 -0.1731
  466TMC3     H 6993   1.403   0.306  16.299 -1.7038  1.4687 -1.3937
  466TMC3    H1 6994   1.668   0.527  16.545  0.1784 -0.5718  1.0881
  466TMC3    H2 6995   1.452   0.731  16.244  1.0839 -0.4139 -2.1658
  466TMC3    C7 6996   1.557   0.760  16.470  0.5276  0.4571  0.4967
  466TMC3    C8 6997   1.264   0.510  16.234 -0.6511  0.7995  0.2582
  466TMC3    O1 6998   1.509   0.855  16.407  0.0978  0.0319  0.2487
  466TMC3    O2 6999   1.213   0.398  16.206 -0.8832 -0.0273  0.3783
  467TMC3    C1 7000   2.563   3.629  13.612  0.3706  0.0783  0.6033
  467TMC3    C2 7001   2.586   3.692  13.728 -0.6477 -0.6857 -0.2691
  467TMC3    C3 7002   2.500   3.795  13.769  0.0197  0.4596  0.0965
  467TMC3    C4 7003   2.449   3.649  13.539  0.1526  0.2095 -0.2592
  467TMC3    C5 7004   2.353   3.731  13.602 -0.5699 -1.1017 -0.2449
  467TMC3    C6 7005   2.379   3.814  13.704 -0.6243  0.5368  0.8778
  467TMC3     C 7006   2.682   3.605  13.534  0.2992 -0.3937 -0.0370
  467TMC3     O 7007   2.712   3.679  13.443 -0.5022  0.6323  0.4896
  467TMC3     H 7008   2.683   3.672  13.771 -0.9209 -2.6365 -0.5462
  467TMC3    H1 7009   2.431   3.589  13.451 -0.6316 -1.5117  1.0847
  467TMC3    H2 7010   2.312   3.898  13.719 -0.7667  0.4867  0.5322
  467TMC3    C7 7011   2.218   3.726  13.556  0.2210 -0.4311  0.3392
  467TMC3    C8 7012   2.568   3.926  13.788  0.1121  0.2296  0.4424
  467TMC3    O1 7013   2.209   3.686  13.443 -0.4087 -0.2028  0.1177
  467TMC3    O2 7014   2.511   4.030  13.742  0.1883 -0.6505 -0.6293
  468MPD2     C 7015   0.528   2.361  10.663  0.4371  0.3491 -0.1192
  468MPD2    C1 7016   0.650   2.294  10.662 -0.1360  0.3156 -0.4222
  468MPD2    C2 7017   0.643   2.165  10.616 -0.9505  0.9355  0.2044
  468MPD2    C3 7018   0.526   2.101  10.573  0.7298 -0.3849  0.0601
  468MPD2    C4 7019   0.408   2.173  10.562 -0.7113 -0.3062  0.0805
  468MPD2    C5 7020   0.418   2.303  10.605 -0.1960  0.3677  0.8605
  468MPD2     H 7021   0.723   2.094  10.634 -0.6630  1.7504  2.1669
  468MPD2    H1 7022   0.312   2.135  10.529  0.2133 -3.2202  0.7445
  468MPD2    H2 7023   0.519   2.464  10.697  2.7439  0.3477  0.4875
  468MPD2    H3 7024   0.327   2.363  10.600 -1.4277 -1.8125 -3.2956
  468MPD2     N 7025   0.519   1.963  10.536 -0.1458  1.1756 -0.3199
  468MPD2    H5 7026   0.425   1.931  10.514 -0.2817  0.4712  1.2988
  468MPD2    N1 7027   0.771   2.337  10.719  0.3669  0.0417 -0.6465
  468MPD2    H7 7028   0.846   2.269  10.719 -0.2786 -0.6736 -0.1700
  469TMC3    C1 7029   0.950   2.446  10.811 -0.2974  0.3581  0.9392
  469TMC3    C2 7030   1.038   2.348  10.772 -0.3068  0.2622  0.1481
  469TMC3    C3 7031   1.170   2.356  10.797 -0.1502  0.6723  0.5383
  469TMC3    C4 7032   0.998   2.563  10.867  0.6210 -0.7540  0.1594
  469TMC3    C5 7033   1.131   2.567  10.888  0.3961 -0.5442  1.1261
  469TMC3    C6 7034   1.214   2.463  10.859 -0.2874 -0.1434 -0.5773
  469TMC3     C 7035   0.806   2.453  10.774 -0.1288 -0.2654 -0.1817
  469TMC3     O 7036   0.739   2.554  10.795 -0.6109 -0.3433 -0.3435
  469TMC3     H 7037   0.994   2.259  10.728 -1.7977 -0.4378  3.0249
  469TMC3    H1 7038   0.924   2.634  10.902 -0.0419 -1.4437  0.1755
  469TMC3    H2 7039   1.320   2.485  10.868 -0.1597  0.2263 -2.7577
  469TMC3    C7 7040   1.174   2.665  10.987 -0.4704 -0.4011  1.0608
  469TMC3    C8 7041   1.239   2.238  10.841  0.0558 -0.5630  0.3527
  469TMC3    O1 7042   1.097   2.761  10.994  0.3217  0.2414  0.4352
  469TMC3    O2 7043   1.229   2.135  10.780 -0.9281  0.0897  0.0390
  470TMC3    C1 7044   3.344   3.668   0.255  0.1474  0.6738  0.0907
  470TMC3    C2 7045   3.352   3.739   0.373  0.4348  0.1156 -0.1849
  470TMC3    C3 7046   3.471   3.754   0.432  0.2888  0.5518  0.2519
  470TMC3    C4 7047   3.450   3.594   0.205 -0.4294 -0.2927  0.1679
  470TMC3    C5 7048   3.569   3.608   0.270 -0.0188 -0.0540  0.2844
  470TMC3    C6 7049   3.583   3.686   0.384 -0.2498  0.0255 -0.1284
  470TMC3     C 7050   3.216   3.602   0.228 -0.2835 -0.3391  0.7657
  470TMC3     O 7051   3.221   3.496   0.165 -0.1552 -0.1801 -0.0367
  470TMC3     H 7052   3.260   3.786   0.403 -0.5463 -0.7290 -1.8821
  470TMC3    H1 7053   3.441   3.527   0.121 -0.6259  0.7218 -0.6222
  470TMC3    H2 7054   3.677   3.699   0.436 -0.2186  1.4877 -0.5341
  470TMC3    C7 7055   3.686   3.535   0.222 -0.5836  0.7209 -0.5495
  470TMC3    C8 7056   3.489   3.867   0.528  0.4114 -0.0255  0.1190
  470TMC3    O1 7057   3.680   3.489   0.107  0.1046 -0.1292  0.0267
  470TMC3    O2 7058   3.600   3.871   0.574  0.0908 -0.0944 -0.2721
  471MPD2     C 7059   4.537   0.194  16.826  0.6089  0.0762 -0.6460
  471MPD2    C1 7060   4.553   0.067  16.779  0.0307  0.0100 -0.7934
  471MPD2    C2 7061   4.656   4.732  16.831  0.4679  0.5406 -0.5563
  471MPD2    C3 7062   4.728   0.033  16.936  0.8022 -0.0378 -0.4593
  471MPD2    C4 7063   4.701   0.156  16.990  0.3195 -0.3418 -0.3139
  471MPD2    C5 7064   4.621   0.238  16.924  0.2217 -0.1736 -0.6614
  471MPD2     H 7065   4.662   4.628  16.803  4.0958  0.9251 -1.2852
  471MPD2    H1 7066   0.016   0.197  17.072 -0.0042  1.0189 -0.7638
  471MPD2    H2 7067   4.460   0.258  16.785  1.0565  0.5553 -0.7298
  471MPD2    H3 7068   4.610   0.344  16.948 -3.4655 -0.8790  0.7933
  471MPD2     N 7069   0.058   4.690  17.020 -0.0362 -0.5894 -1.4187
  471MPD2    H5 7070   0.056   4.716  17.118  0.2118 -2.9448 -0.7898
  471MPD2    N1 7071   4.467   0.008  16.695 -0.5367  0.6709  0.1015
  471MPD2    H7 7072   4.502   4.659  16.667  2.4240  2.0315 -0.6040
  472TMC3    C1 7073   4.290   4.681  16.576  0.1432 -1.0170  0.3715
  472TMC3    C2 7074   4.163   4.703  16.522  0.2501 -0.9278  0.3789
  472TMC3    C3 7075   4.094   4.601  16.470  0.3379 -0.6307 -0.1624
  472TMC3    C4 7076   4.342   4.553  16.594 -0.0256 -0.0391 -0.2289
  472TMC3    C5 7077   4.261   4.449  16.543  0.2199  0.4692  0.2276
  472TMC3    C6 7078   4.139   4.474  16.482  0.2349  0.6064  0.2441
  472TMC3     C 7079   4.347   0.048  16.645 -0.3071  0.1338  0.2053
  472TMC3     O 7080   4.294   0.158  16.643  0.3887  0.5563 -0.4161
  472TMC3     H 7081   4.127   0.062  16.512  0.6948 -0.9054 -0.9948
  472TMC3    H1 7082   4.423   4.521  16.659  2.5128 -1.7798 -4.2607
  472TMC3    H2 7083   4.091   4.388  16.437  0.9848 -1.1499  2.7470
  472TMC3    C7 7084   4.261   4.323  16.625  0.2561  0.2151  0.2700
  472TMC3    C8 7085   3.950   4.619  16.438 -0.3913 -1.1334  0.6604
  472TMC3    O1 7086   4.288   4.335  16.749 -0.0610 -0.2053  0.4390
  472TMC3    O2 7087   3.902   4.725  16.408  0.0800 -0.1642 -0.4177
  473MPD2     C 7088   4.269   1.742  14.224 -0.3933 -1.0740  0.7741
  473MPD2    C1 7089   4.354   1.794  14.123  0.3077 -0.2826  0.0000
  473MPD2    C2 7090   4.426   1.904  14.160 -0.1839  0.9457  0.6403
  473MPD2    C3 7091   4.413   1.974  14.277  0.2129 -0.2205  0.0432
  473MPD2    C4 7092   4.316   1.933  14.362 -0.1150 -0.9457  0.6359
  473MPD2    C5 7093   4.250   1.815  14.337  0.0744  0.7376  1.0842
  473MPD2     H 7094   4.494   1.940  14.083 -0.7389  0.3249 -0.1405
  473MPD2    H1 7095   4.306   1.991  14.454 -0.3626 -2.2822  1.4432
  473MPD2    H2 7096   4.205   1.656  14.216 -1.4076 -0.2562  0.0436
  473MPD2    H3 7097   4.181   1.777  14.411 -0.6387 -0.8806 -0.3914
  473MPD2     N 7098   4.482   2.093  14.308 -0.1990  0.5594  0.1757
  473MPD2    H5 7099   4.446   2.140  14.391  1.2554 -1.3666  1.8845
  473MPD2    N1 7100   4.355   1.741  13.991 -0.1157 -0.0506 -0.0490
  473MPD2    H7 7101   4.406   1.791  13.919  2.9901  0.0676  2.2508
  474TMC3    C1 7102   4.638   2.255  14.343  0.3441  0.2979  0.5244
  474TMC3    C2 7103   4.561   2.366  14.359  0.4878 -0.1607 -0.2340
  474TMC3    C3 7104   4.596   2.454  14.455  0.1773 -0.4285  1.0475
  474TMC3    C4 7105   0.005   2.230  14.415 -0.3013 -0.3611  0.2207
  474TMC3    C5 7106   0.040   2.327  14.508 -0.3656 -0.0531 -0.5572
  474TMC3    C6 7107   4.703   2.434  14.537  0.3187 -0.5181  0.6333
  474TMC3     C 7108   4.596   2.142  14.256 -0.2215 -0.5729 -0.2399
  474TMC3     O 7109   4.684   2.075  14.198  0.1958 -0.0154  0.2707
  474TMC3     H 7110   4.470   2.369  14.299  1.1194  2.2775 -1.0578
  474TMC3    H1 7111   0.078   2.170  14.364  2.6390  0.6266  3.2893
  474TMC3    H2 7112   4.720   2.509  14.613 -1.2541  0.8625 -0.3589
  474TMC3    C7 7113   0.126   2.273  14.615  0.1325  0.8801  0.3061
  474TMC3    C8 7114   4.488   2.521  14.526  1.2086  0.5217  0.2246
  474TMC3    O1 7115   0.184   2.170  14.593 -0.2346  0.1934 -0.2239
  474TMC3    O2 7116   4.485   2.521  14.647 -0.5125  0.2372  0.1428
  475MPD2     C 7117   1.452   4.223  11.266  0.1217  0.0727 -0.0815
  475MPD2    C1 7118   1.435   4.243  11.132 -0.0220 -0.8734  0.1268
  475MPD2    C2 7119   1.419   4.371  11.088 -0.5270 -0.6101 -0.5169
  475MPD2    C3 7120   1.421   4.479  11.175  0.1290  0.2827 -0.3520
  475MPD2    C4 7121   1.434   4.458  11.310  0.5988 -0.1340  0.5494
  475MPD2    C5 7122   1.446   4.327  11.358 -0.0204  0.2703 -0.2751
  475MPD2     H 7123   1.411   4.391  10.982 -1.4163  0.0499 -0.3261
  475MPD2    H1 7124   1.440   4.542  11.379  0.0101 -0.0963  0.5534
  475MPD2    H2 7125   1.471   4.123  11.305  0.6581 -0.7372 -2.3675
  475MPD2    H3 7126   1.462   4.301  11.462  3.5576  0.9064 -0.6678
  475MPD2     N 7127   1.419   4.604  11.109 -0.7321 -0.0086 -0.0687
  475MPD2    H5 7128   1.438   4.600  11.009  0.8550  3.1679  0.0886
  475MPD2    N1 7129   1.448   4.129  11.051  0.1481 -0.6914  0.1667
  475MPD2    H7 7130   1.478   4.046  11.100  1.3376  0.4363  1.3244
  476TMC3    C1 7131   1.545   4.068  10.843 -0.1623 -0.2537 -0.6536
  476TMC3    C2 7132   1.554   4.122  10.715  0.2025  0.1578  0.4846
  476TMC3    C3 7133   1.662   4.204  10.691  0.5832  0.1818  0.8582
  476TMC3    C4 7134   1.651   4.069  10.924 -0.6019 -1.2118 -0.0215
  476TMC3    C5 7135   1.762   4.149  10.897  0.3288  0.3151  0.4101
  476TMC3    C6 7136   1.762   4.234  10.787 -0.0970  0.3944  0.0434
  476TMC3     C 7137   1.438   4.127  10.918 -0.4518  0.1459 -0.1922
  476TMC3     O 7138   1.379   4.208  10.843 -0.2241  0.2127  0.9824
  476TMC3     H 7139   1.471   4.151  10.651  3.7629  1.0827 -3.7122
  476TMC3    H1 7140   1.655   4.018  11.019  1.8518  1.9635  1.6082
  476TMC3    H2 7141   1.850   4.291  10.758  0.1812  0.0289  0.1798
  476TMC3    C7 7142   1.795   4.223  11.023  0.1208 -0.1481 -0.8859
  476TMC3    C8 7143   1.632   4.326  10.614  0.6686 -0.5358 -0.2940
  476TMC3    O1 7144   1.802   4.153  11.126  0.2332  0.0066  0.2831
  476TMC3    O2 7145   1.674   4.430  10.663  0.2448 -0.1206 -0.1893
  477MPD2     C 7146   3.967   0.709  11.317  0.1443  0.2320  0.2748
  477MPD2    C1 7147   3.933   0.791  11.423  0.4629  0.2941 -0.4835
  477MPD2    C2 7148   4.008   0.779  11.541  0.2148 -0.0484 -0.6030
  477MPD2    C3 7149   4.114   0.697  11.554  0.2635  0.9245  0.0715
  477MPD2    C4 7150   4.143   0.613  11.447  0.5808 -0.0409 -0.1572
  477MPD2    C5 7151   4.074   0.626  11.327 -0.2794 -0.2366 -0.5805
  477MPD2     H 7152   3.989   0.837  11.631 -3.0667  1.0347 -1.9772
  477MPD2    H1 7153   4.223   0.540  11.454 -0.6179 -1.3438  0.0134
  477MPD2    H2 7154   3.912   0.712  11.223 -1.0441 -0.1458  0.9569
  477MPD2    H3 7155   4.102   0.555  11.250  0.1615 -0.0080 -0.6349
  477MPD2     N 7156   4.189   0.705  11.670 -0.4951 -0.3266 -0.6688
  477MPD2    H5 7157   4.143   0.768  11.735 -0.9184 -1.7267  0.3732
  477MPD2    N1 7158   3.829   0.886  11.405  0.2889  0.4453 -0.1217
  477MPD2    H7 7159   3.792   0.890  11.310  0.9192  0.3585 -0.3731
  478TMC3    C1 7160   3.723   1.086  11.430  0.5423 -0.5439  0.2968
  478TMC3    C2 7161   3.681   1.183  11.512 -0.2458 -0.1750 -0.5580
  478TMC3    C3 7162   3.662   1.310  11.464 -0.1981 -0.2389  0.0698
  478TMC3    C4 7163   3.751   1.113  11.304  0.0091  0.0292  0.0122
  478TMC3    C5 7164   3.720   1.235  11.252  1.3571  0.0958  0.1692
  478TMC3    C6 7165   3.680   1.341  11.327 -0.0817  0.0406 -0.1419
  478TMC3     C 7166   3.785   0.975  11.500  0.3136  0.3310  0.3065
  478TMC3     O 7167   3.799   0.979  11.620  0.4664  0.0442 -0.3712
  478TMC3     H 7168   3.664   1.162  11.617  1.9998  0.4096 -0.0896
  478TMC3    H1 7169   3.767   1.031  11.235 -0.1127 -0.6502  0.7858
  478TMC3    H2 7170   3.638   1.431  11.282 -1.0911 -1.2255 -1.7120
  478TMC3    C7 7171   3.744   1.251  11.110  0.2331 -0.4483 -0.1487
  478TMC3    C8 7172   3.633   1.418  11.559  0.1406 -0.1772 -0.0618
  478TMC3    O1 7173   3.846   1.193  11.065 -0.1407  0.4596  0.1527
  478TMC3    O2 7174   3.582   1.389  11.667  0.5510  0.4445  0.0970
  479MPD2     C 7175   3.867   3.943  14.982  0.0034  0.8199  0.0697
  479MPD2    C1 7176   3.803   3.843  15.056  1.0223 -0.4099 -0.1437
  479MPD2    C2 7177   3.861   3.795  15.173  0.2663  0.1524 -0.0499
  479MPD2    C3 7178   3.979   3.857  15.216  0.0395 -0.8886 -0.0687
  479MPD2    C4 7179   4.046   3.945  15.134 -0.2603 -0.0007 -0.0837
  479MPD2    C5 7180   3.992   3.984  15.018 -0.3802  0.5910  0.0376
  479MPD2     H 7181   3.809   3.718  15.228 -0.4947 -0.7481 -2.0261
  479MPD2    H1 7182   4.126   4.013  15.161 -0.7053  0.8653 -0.9565
  479MPD2    H2 7183   3.820   3.984  14.893 -0.6898 -2.2547 -0.9848
  479MPD2    H3 7184   4.046   4.059  14.962  1.4122 -2.6685 -2.6668
  479MPD2     N 7185   4.036   3.837  15.348 -0.1716  0.4559  0.1499
  479MPD2    H5 7186   4.122   3.889  15.366  0.4691 -0.2566 -0.8273
  479MPD2    N1 7187   3.666   3.804  15.023  0.5663  0.1664  0.5594
  479MPD2    H7 7188   3.619   3.856  14.951  0.0733 -1.1830 -0.0994
  480TMC3    C1 7189   3.996   3.785  15.812 -0.4472 -0.5127 -0.6588
  480TMC3    C2 7190   4.067   3.898  15.835 -0.6326  0.0110 -0.1160
  480TMC3    C3 7191   4.092   3.973  15.725 -0.3620  0.5852  0.3360
  480TMC3    C4 7192   3.988   3.733  15.687 -0.0620 -0.7020 -0.0459
  480TMC3    C5 7193   4.045   3.797  15.577  0.3035  1.1055 -0.2123
  480TMC3    C6 7194   4.090   3.928  15.597  0.6141  0.1143 -0.1189
  480TMC3     C 7195   3.946   3.698  15.920 -0.2656 -0.3999 -0.1353
  480TMC3     O 7196   3.891   3.592  15.875 -0.1571  0.3535 -0.4500
  480TMC3     H 7197   4.077   3.938  15.935 -0.6229 -0.8130  0.2116
  480TMC3    H1 7198   3.922   3.650  15.668 -1.5119  0.4832 -0.1672
  480TMC3    H2 7199   4.132   3.992  15.520 -1.9328  1.6416 -0.2398
  480TMC3    C7 7200   3.988   3.757  15.444  0.5353  0.1336 -0.4521
  480TMC3    C8 7201   4.088   4.116  15.735  0.5799 -0.3107  0.1131
  480TMC3    O1 7202   3.900   3.673  15.454 -0.2777  0.1313  0.3100
  480TMC3    O2 7203   4.126   4.155  15.845 -0.4587 -0.5988 -0.1352
  481MPD2     C 7204   4.501   2.922  13.812  1.1102  0.0091  1.1752
  481MPD2    C1 7205   4.407   2.873  13.897 -0.2142  0.2931 -0.2341
  481MPD2    C2 7206   4.416   2.899  14.035  0.2680 -1.4932 -0.5480
  481MPD2    C3 7207   4.529   2.965  14.085 -0.2685  0.4423  0.7037
  481MPD2    C4 7208   4.622   3.006  13.999  0.8890 -0.1697 -0.1569
  481MPD2    C5 7209   4.607   2.992  13.867 -0.0942 -0.4800 -0.2210
  481MPD2     H 7210   4.346   2.859  14.107 -0.8573 -1.3965 -1.6033
  481MPD2    H1 7211   4.713   3.063  14.015 -0.0872  1.6226 -0.9120
  481MPD2    H2 7212   4.498   2.916  13.704  0.2995 -0.7250  1.2382
  481MPD2    H3 7213   4.679   3.037  13.800 -0.6304 -1.2825 -1.3337
  481MPD2     N 7214   4.549   3.000  14.219 -0.2030 -0.2038  0.2589
  481MPD2    H5 7215   4.644   3.025  14.243 -0.3542  2.5423 -2.0528
  481MPD2    N1 7216   4.314   2.794  13.834  0.3845  0.1855  0.0097
  481MPD2    H7 7217   4.328   2.793  13.734 -0.3560  1.3424 -0.1134
  482TMC3    C1 7218   4.138   2.645  13.789 -0.1302  0.4070  0.3237
  482TMC3    C2 7219   4.078   2.526  13.812 -0.6921  0.7124 -0.1125
  482TMC3    C3 7220   4.015   2.464  13.712  0.0721  0.0192 -0.6690
  482TMC3    C4 7221   4.128   2.710  13.673 -0.0786  0.1636  0.2846
  482TMC3    C5 7222   4.044   2.655  13.583 -0.0450 -0.1502  0.6757
  482TMC3    C6 7223   3.981   2.533  13.596 -0.5915 -0.2638  0.1091
  482TMC3     C 7224   4.224   2.707  13.891  0.2820 -0.0191  0.2487
  482TMC3     O 7225   4.194   2.692  14.010  0.1557 -0.1457 -0.3738
  482TMC3     H 7226   4.100   2.480  13.908 -0.0678  0.0203 -0.5865
  482TMC3    H1 7227   4.160   2.813  13.663  1.3257 -0.1508  1.4593
  482TMC3    H2 7228   3.912   2.495  13.521 -0.0351  0.9637 -1.0369
  482TMC3    C7 7229   4.019   2.723  13.453  0.6138 -0.1072 -0.1594
  482TMC3    C8 7230   4.076   2.338  13.686 -1.2761  0.0889  0.2565
  482TMC3    O1 7231   3.910   2.699  13.399  0.4104 -0.0263 -0.0152
  482TMC3    O2 7232   4.175   2.315  13.754  0.5480 -0.1490 -0.7579
  483TMC3    C1 7233   2.949   1.948   1.434 -0.4386  0.1208 -0.6374
  483TMC3    C2 7234   3.059   2.020   1.396 -0.0951 -0.5291 -0.2419
  483TMC3    C3 7235   3.069   2.036   1.260  0.4100  0.2657  0.2760
  483TMC3    C4 7236   2.853   1.897   1.350  0.3371 -0.5178 -0.5856
  483TMC3    C5 7237   2.876   1.903   1.215  0.0687 -0.6311  0.4347
  483TMC3    C6 7238   2.985   1.974   1.168  0.1183  1.0183 -0.4224
  483TMC3     C 7239   2.948   1.883   1.561  0.0289 -0.1666 -0.0071
  483TMC3     O 7240   3.021   1.929   1.646 -0.5431  0.3428  0.1207
  483TMC3     H 7241   3.124   2.052   1.477  0.6408 -0.4793 -0.8535
  483TMC3    H1 7242   2.766   1.841   1.384 -0.5914  1.2722 -0.0232
  483TMC3    H2 7243   3.018   1.980   1.065  0.5378  0.4606 -0.3201
  483TMC3    C7 7244   2.859   1.768   1.157  0.2889 -0.5209 -0.3079
  483TMC3    C8 7245   3.187   2.105   1.211 -0.1510 -0.0526  0.3728
  483TMC3    O1 7246   2.843   1.676   1.231 -0.4030 -0.1128 -0.4382
  483TMC3    O2 7247   3.212   2.081   1.095  0.5786 -0.6294  0.8744
  484MPD2     C 7248   0.884   4.496  13.217 -0.1323  0.0362 -0.0892
  484MPD2    C1 7249   0.838   4.525  13.089 -1.0031 -0.0456  0.2243
  484MPD2    C2 7250   0.923   4.580  12.995  0.5628  0.0787 -0.0009
  484MPD2    C3 7251   1.051   4.608  13.040 -0.2933  1.1125  0.2087
  484MPD2    C4 7252   1.086   4.591  13.172 -0.1606 -0.1021 -0.2863
  484MPD2    C5 7253   1.008   4.528  13.260  0.1056 -0.9958  0.1986
  484MPD2     H 7254   0.894   4.596  12.892  0.3876  0.2444  0.0732
  484MPD2    H1 7255   1.180   4.625  13.214 -2.0443  2.2812  2.0535
  484MPD2    H2 7256   0.824   4.444  13.291 -1.7152 -2.3392 -3.0143
  484MPD2    H3 7257   1.034   4.509  13.364  0.6074  1.5661  0.5430
  484MPD2     N 7258   1.142   4.697  12.965 -0.6212 -0.1958 -1.1765
  484MPD2    H5 7259   1.231   4.715  13.011 -0.7785 -0.9681 -0.5674
  484MPD2    N1 7260   0.710   4.468  13.050  0.1035 -0.3764  0.0747
  484MPD2    H7 7261   0.670   4.395  13.108 -0.1565 -0.3600 -0.0838
  485TMC3    C1 7262   1.249   0.062  12.786 -0.2191  0.1061 -0.6087
  485TMC3    C2 7263   1.361   4.742  12.822 -0.1452  0.2103  0.5247
  485TMC3    C3 7264   1.473   0.030  12.748  0.2360  0.2360  0.6613
  485TMC3    C4 7265   1.226   0.128  12.674  0.2290  0.0733 -0.0522
  485TMC3    C5 7266   1.333   0.143  12.594  0.4486  1.7839  0.3911
  485TMC3    C6 7267   1.455   0.096  12.634 -0.1934  1.0267  0.4784
  485TMC3     C 7268   1.125   0.004  12.835  1.1074  0.0911  0.3404
  485TMC3     O 7269   1.032   0.004  12.758 -0.0311 -0.0318  0.5387
  485TMC3     H 7270   1.361   4.647  12.876 -1.2489 -0.4460 -0.6384
  485TMC3    H1 7271   1.132   0.169  12.639 -0.3349  0.8428  2.4094
  485TMC3    H2 7272   1.546   0.123  12.582 -0.8217 -1.8532 -2.0827
  485TMC3    C7 7273   1.303   0.077  12.460  0.6623 -0.0540  0.5486
  485TMC3    C8 7274   1.578   4.676  12.725  0.4075  0.5811  0.6143
  485TMC3    O1 7275   1.192   0.090  12.408 -0.7528 -0.2551  0.6082
  485TMC3    O2 7276   1.616   4.661  12.613 -0.1228 -0.0971  0.6168
  486MPD2     C 7277   3.505   3.780  13.317  0.2727 -0.5079  0.3233
  486MPD2    C1 7278   3.403   3.685  13.288 -0.2556 -0.6212  0.1027
  486MPD2    C2 7279   3.280   3.723  13.243 -0.5464  0.5286 -0.2077
  486MPD2    C3 7280   3.252   3.858  13.224 -0.4633  0.4122  0.6317
  486MPD2    C4 7281   3.351   3.950  13.250 -0.1523 -0.0277 -0.4810
  486MPD2    C5 7282   3.478   3.906  13.283  0.1052  0.4438 -0.4128
  486MPD2     H 7283   3.203   3.655  13.208 -0.1537 -0.6643  1.2827
  486MPD2    H1 7284   3.349   4.053  13.217  2.2194  0.1243 -0.1213
  486MPD2    H2 7285   3.603   3.758  13.356  0.1290 -0.3829  0.7689
  486MPD2    H3 7286   3.557   3.978  13.299  0.7109  0.2788 -2.6851
  486MPD2     N 7287   3.122   3.893  13.193 -0.6937  0.0287  0.6936
  486MPD2    H5 7288   3.053   3.822  13.169 -0.1188 -0.3612  0.2065
  486MPD2    N1 7289   3.441   3.543  13.304 -0.1508 -0.2920  0.6221
  486MPD2    H7 7290   3.538   3.522  13.324  0.9050  2.5319 -1.4830
  487TMC3    C1 7291   3.424   3.305  13.317 -0.5202  0.6214  0.3098
  487TMC3    C2 7292   3.406   3.196  13.239  0.0656  0.0195  0.0108
  487TMC3    C3 7293   3.447   3.073  13.288 -0.4473 -0.4567  0.4178
  487TMC3    C4 7294   3.463   3.301  13.451  0.1342 -0.2802  0.2304
  487TMC3    C5 7295   3.499   3.177  13.495 -0.5378 -0.8436  0.6079
  487TMC3    C6 7296   3.506   3.070  13.410  0.4155  0.0453  0.6510
  487TMC3     C 7297   3.364   3.431  13.272 -0.2948  0.6375  0.0529
  487TMC3     O 7298   3.274   3.423  13.192 -0.9511 -0.4724  0.1950
  487TMC3     H 7299   3.363   3.201  13.140  1.7380  1.3550 -0.6451
  487TMC3    H1 7300   3.463   3.393  13.508  1.5223  0.3521 -0.7737
  487TMC3    H2 7301   3.531   2.972  13.450  1.0568  0.4649  1.2855
  487TMC3    C7 7302   3.433   3.143  13.619 -0.4017 -0.4397  0.3398
  487TMC3    C8 7303   3.363   2.951  13.280 -0.7273  0.4967  0.1136
  487TMC3    O1 7304   3.397   3.241  13.685 -0.4635  0.0370  0.2031
  487TMC3    O2 7305   3.393   2.846  13.339 -0.0833 -0.0095 -0.4837
  488MPD2     C 7306   3.080   0.433  16.134  1.0946  0.2522 -0.6015
  488MPD2    C1 7307   3.185   0.480  16.205 -0.0876  0.0171 -0.4778
  488MPD2    C2 7308   3.224   0.427  16.325  0.3361  0.0931 -0.1081
  488MPD2    C3 7309   3.155   0.319  16.383  0.1569 -0.2772  0.1261
  488MPD2    C4 7310   3.048   0.266  16.310  0.8085 -0.0006  0.3149
  488MPD2    C5 7311   3.017   0.318  16.188 -0.3231 -0.0714 -0.4722
  488MPD2     H 7312   3.299   0.486  16.377  0.7375  0.7150 -1.3764
  488MPD2    H1 7313   2.997   0.180  16.352  1.4375  0.6712  2.4805
  488MPD2    H2 7314   3.058   0.462  16.032 -1.8941 -2.2060 -0.6370
  488MPD2    H3 7315   2.935   0.271  16.135  0.9728 -1.4105 -1.2986
  488MPD2     N 7316   3.203   0.271  16.511 -0.0081  0.4998  0.0245
  488MPD2    H5 7317   3.276   0.326  16.555  0.8565  0.3975 -1.3009
  488MPD2    N1 7318   3.255   0.599  16.176 -0.1927  0.3532 -0.2871
  488MPD2    H7 7319   3.300   0.641  16.256 -1.8309 -1.7079  1.7375
  489TMC3    C1 7320   3.238   0.128  16.699 -0.1048 -0.3566 -0.7047
  489TMC3    C2 7321   3.353   0.200  16.722  0.2110  0.0326  0.2142
  489TMC3    C3 7322   3.398   0.211  16.856 -0.4199 -0.7871  1.0844
  489TMC3    C4 7323   3.178   0.050  16.796 -1.1431 -0.3273  0.3095
  489TMC3    C5 7324   3.231   0.056  16.919 -0.3467 -0.1001 -0.5217
  489TMC3    C6 7325   3.339   0.131  16.952 -0.4026 -0.0978  0.3820
  489TMC3     C 7326   3.159   0.163  16.586  0.1329 -0.4915 -0.8448
  489TMC3     O 7327   3.067   0.087  16.557  0.0913 -0.1372  0.2859
  489TMC3     H 7328   3.407   0.257  16.648 -1.3467 -2.4097 -2.8187
  489TMC3    H1 7329   3.087   4.735  16.785 -1.0584 -0.0407 -1.8860
  489TMC3    H2 7330   3.374   0.123  17.054 -0.0672 -0.8497  0.2079
  489TMC3    C7 7331   3.165   4.731  17.032  0.0654 -0.4884 -0.4959
  489TMC3    C8 7332   3.471   0.334  16.895  0.0362 -0.3789  0.5478
  489TMC3    O1 7333   3.234   4.714  17.134  0.0423  0.2146  0.4089
  489TMC3    O2 7334   3.509   0.414  16.807  0.2129 -0.6481  0.1755
  490MPD2     C 7335   4.113   0.149  17.043 -0.0818 -0.1235 -0.2535
  490MPD2    C1 7336   4.110   0.136  17.176 -0.7126 -0.0242  0.4573
  490MPD2    C2 7337   4.196   0.211  17.258 -0.2308 -0.0465 -0.0950
  490MPD2    C3 7338   4.284   0.298  17.194  0.0948  0.3896 -0.4191
  490MPD2    C4 7339   4.290   0.308  17.057 -0.2997  0.4256  0.0106
  490MPD2    C5 7340   4.209   0.228  16.981  0.3397  0.1764 -0.8418
  490MPD2     H 7341   4.190   0.192  17.364 -1.1805 -1.2099 -0.3702
  490MPD2    H1 7342   4.365   0.376  17.019  0.4119 -1.0935 -1.2969
  490MPD2    H2 7343   4.055   0.084  16.977  0.8399 -2.1106  0.8892
  490MPD2    H3 7344   4.216   0.227  16.873  0.0608  0.9073 -0.8649
  490MPD2     N 7345   4.380   0.374  17.255 -0.4821 -0.5142 -0.5382
  490MPD2    H5 7346   4.432   0.436  17.194 -0.3593 -1.1807 -1.1034
  490MPD2    N1 7347   4.026   0.034  17.234 -0.1636  0.2918 -0.3078
  490MPD2    H7 7348   4.024   0.040  17.335 -0.0810  2.0078 -0.3962
  491TMC3    C1 7349   3.881   4.597  17.259  0.0327  0.4751  0.6115
  491TMC3    C2 7350   3.902   4.605  17.396  0.0487  0.0374  0.1003
  491TMC3    C3 7351   3.876   4.497  17.468 -0.7526 -0.1669 -0.2961
  491TMC3    C4 7352   3.824   4.489  17.199 -1.1242  0.9059  0.3449
  491TMC3    C5 7353   3.801   4.380  17.283 -0.3623 -1.0085  0.5624
  491TMC3    C6 7354   3.825   4.383  17.423  0.2697  0.3386 -0.6059
  491TMC3     C 7355   3.949   4.688  17.168 -0.1470 -0.3218 -0.2956
  491TMC3     O 7356   3.965   4.650  17.053 -0.3252 -0.3299 -0.2751
  491TMC3     H 7357   3.964   4.678  17.446 -1.1451  0.2860  1.2134
  491TMC3    H1 7358   3.801   4.475  17.094 -0.3259  1.0016  0.1510
  491TMC3    H2 7359   3.833   4.288  17.474  2.4551 -0.5032 -2.5502
  491TMC3    C7 7360   3.727   4.264  17.225  0.7291  0.4200  0.2881
  491TMC3    C8 7361   3.892   4.507  17.612  0.2033 -0.0666  0.8054
  491TMC3    O1 7362   3.705   4.270  17.104  0.5363  0.3220  0.5416
  491TMC3    O2 7363   3.878   4.619  17.661 -0.0054 -0.2663 -0.3280
  492MPD2     C 7364   3.538   0.223  11.732  0.0791  0.3378 -0.0991
  492MPD2    C1 7365   3.500   0.116  11.657  0.6764  0.0055  0.1640
  492MPD2    C2 7366   3.477   4.739  11.729  0.2144 -0.4696 -0.6309
  492MPD2    C3 7367   3.508   4.718  11.858  0.1265  0.3248 -1.0101
  492MPD2    C4 7368   3.548   0.092  11.923 -0.7470  0.5062 -0.1300
  492MPD2    C5 7369   3.552   0.215  11.866 -0.7284  0.2017 -0.5384
  492MPD2     H 7370   3.455   4.653  11.666  0.1261 -0.3280 -0.7946
  492MPD2    H1 7371   3.566   0.099  12.030  1.4045 -1.1537 -0.3807
  492MPD2    H2 7372   3.562   0.317  11.684  3.4183  0.9615  2.7646
  492MPD2    H3 7373   3.559   0.313  11.912 -0.3805  0.5539 -1.3425
  492MPD2     N 7374   3.491   4.596  11.924 -0.3803  0.5550 -0.5003
  492MPD2    H5 7375   3.516   4.593  12.023  0.3163 -0.4109 -0.7083
  492MPD2    N1 7376   3.484   0.130  11.515  0.0082 -0.3420  1.0875
  492MPD2    H7 7377   3.499   0.221  11.474 -0.3604  0.4568  2.7349
  493TMC3    C1 7378   3.420   0.070  11.293  0.4260  0.2715  0.0368
  493TMC3    C2 7379   3.384   0.201  11.273  1.0077 -0.0451  0.0022
  493TMC3    C3 7380   3.377   0.239  11.145 -0.2915  0.3403  0.5528
  493TMC3    C4 7381   3.438   4.720  11.190 -0.2124 -0.0285  0.0088
  493TMC3    C5 7382   3.416   0.017  11.062  0.0192 -0.3227 -0.0124
  493TMC3    C6 7383   3.400   0.152  11.040 -0.7378  0.0467 -0.0103
  493TMC3     C 7384   3.445   0.026  11.429 -0.9783  0.1015  0.0951
  493TMC3     O 7385   3.437   4.651  11.454 -0.0737 -0.3338 -0.1235
  493TMC3     H 7386   3.364   0.273  11.351 -0.0735  1.0628 -1.3000
  493TMC3    H1 7387   3.482   4.626  11.219  2.5648  1.3629  0.3866
  493TMC3    H2 7388   3.397   0.186  10.937  0.4213  1.1142  0.2980
  493TMC3    C7 7389   3.368   4.669  10.964  0.6615 -0.7100  0.6937
  493TMC3    C8 7390   3.371   0.375  11.118 -0.4926  0.1964 -0.3127
  493TMC3    O1 7391   3.367   4.713  10.852 -0.1644 -0.0362 -0.0025
  493TMC3    O2 7392   3.305   0.448  11.196 -0.5058  0.3639  0.3706
  494TMC3    C1 7393   4.473   1.878   0.190  0.4016 -0.0447  0.4199
  494TMC3    C2 7394   4.425   1.749   0.167 -0.9751 -0.2619 -0.4908
  494TMC3    C3 7395   4.495   1.675   0.080 -0.7902 -0.8376  0.5319
  494TMC3    C4 7396   4.590   1.923   0.135  0.2059 -0.7770 -1.1891
  494TMC3    C5 7397   4.667   1.830   0.071  0.5432 -0.1615  0.2577
  494TMC3    C6 7398   4.618   1.706   0.042 -0.5989  0.1081 -0.2807
  494TMC3     C 7399   4.453   1.921   0.331  0.1731 -0.5472  0.5284
  494TMC3     O 7400   4.550   1.970   0.388 -0.0137 -0.3917  0.6589
  494TMC3     H 7401   4.328   1.719   0.203 -0.4150 -0.3376  0.9639
  494TMC3    H1 7402   4.626   2.019   0.170  1.1642 -1.7286  0.4200
  494TMC3    H2 7403   4.671   1.636  17.745 -2.6891 -2.5819  0.9073
  494TMC3    C7 7404   0.053   1.875   0.013 -0.0340  0.5119  0.0254
  494TMC3    C8 7405   4.481   1.533   0.088 -0.3871  0.1261 -0.4482
  494TMC3    O1 7406   0.131   1.796  17.736  0.1041 -0.4737  0.6754
  494TMC3    O2 7407   4.374   1.480   0.058  0.3077  0.1436 -0.7300
  495TMC3    C1 7408   4.003   4.484  14.880  0.7050  0.1020 -0.8117
  495TMC3    C2 7409   3.886   4.480  14.801 -0.1208  0.0532 -0.2511
  495TMC3    C3 7410   3.771   4.460  14.869  0.5061  0.4391 -0.4506
  495TMC3    C4 7411   3.994   4.488  15.017  0.4900 -0.6301 -0.7593
  495TMC3    C5 7412   3.869   4.477  15.078 -0.7949 -0.0830  0.5332
  495TMC3    C6 7413   3.760   4.442  15.005  0.7392 -0.1974  0.0175
  495TMC3     C 7414   4.088   4.372  14.836  0.2238 -0.1375  0.1512
  495TMC3     O 7415   4.179   4.332  14.905  0.2611 -0.4253 -0.3909
  495TMC3     H 7416   3.901   4.504  14.696 -1.4877 -1.1419 -0.7160
  495TMC3    H1 7417   4.080   4.494  15.083 -0.6286  1.6400  0.4656
  495TMC3    H2 7418   3.667   4.410  15.051  1.4676 -3.2333 -0.5951
  495TMC3    C7 7419   3.869   4.432  15.218 -0.1320  0.4801 -0.0402
  495TMC3    C8 7420   3.654   4.426  14.793 -0.1058  0.4477  0.0263
  495TMC3    O1 7421   3.788   4.343  15.244 -0.5393 -0.5709 -0.4047
  495TMC3    O2 7422   3.578   4.343  14.847  0.4046  0.0891  0.2757
  496MPD2     C 7423   1.350   3.783  15.515 -0.2999 -0.6332  0.0453
  496MPD2    C1 7424   1.279   3.673  15.529 -0.1429  0.0975 -0.1222
  496MPD2    C2 7425   1.203   3.660  15.647  0.6744  0.1141 -0.0656
  496MPD2    C3 7426   1.208   3.753  15.745 -0.2404  0.0207 -0.4414
  496MPD2    C4 7427   1.301   3.858  15.732  0.6654  0.0945  0.0648
  496MPD2    C5 7428   1.363   3.875  15.614  0.6885  0.0058  0.2274
  496MPD2     H 7429   1.133   3.579  15.665 -0.2266  0.8603 -0.1738
  496MPD2    H1 7430   1.314   3.923  15.818  0.8804 -0.0646  0.1519
  496MPD2    H2 7431   1.410   3.789  15.425 -0.0172  0.9938  0.3303
  496MPD2    H3 7432   1.429   3.961  15.607  0.7985 -0.2459 -1.8843
  496MPD2     N 7433   1.112   3.754  15.847 -0.0823  0.3375  0.5641
  496MPD2    H5 7434   1.063   3.665  15.854  1.4622 -0.7856 -2.8213
  496MPD2    N1 7435   1.304   3.566  15.433 -0.0730 -0.4173  0.5741
  496MPD2    H7 7436   1.365   3.591  15.356 -0.9703 -1.4719 -0.4932
  497TMC3    C1 7437   0.948   3.821  15.997  0.9150  0.6625  0.1008
  497TMC3    C2 7438   0.842   3.909  15.997 -0.6737  0.0442  0.3751
  497TMC3    C3 7439   0.743   3.879  16.085  1.1182  0.3796 -0.3032
  497TMC3    C4 7440   0.962   3.720  16.087  0.1507 -0.3975  0.1354
  497TMC3    C5 7441   0.866   3.701  16.178  0.4900 -0.5072  0.1965
  497TMC3    C6 7442   0.756   3.783  16.180  0.0159  0.1870  0.1086
  497TMC3     C 7443   1.065   3.860  15.924  0.0163  0.9714  0.2113
  497TMC3     O 7444   1.111   3.970  15.940 -0.3369 -0.0841 -0.0501
  497TMC3     H 7445   0.853   4.002  15.942 -0.6745 -0.0013  0.2983
  497TMC3    H1 7446   1.050   3.658  16.096  0.2400 -0.1753  0.7956
  497TMC3    H2 7447   0.673   3.772  16.249 -0.2640  1.3720 -0.0431
  497TMC3    C7 7448   0.886   3.618  16.300 -0.1429 -0.4441 -0.2715
  497TMC3    C8 7449   0.614   3.936  16.069  0.3863 -0.8798 -0.0373
  497TMC3    O1 7450   0.789   3.552  16.336  0.0344  0.4037 -0.3519
  497TMC3    O2 7451   0.537   3.932  16.163 -0.0046 -0.4156  0.4787
  498MPD2     C 7452   1.031   4.392   9.510  0.5499  0.0909  0.1709
  498MPD2    C1 7453   1.015   4.491   9.604  0.3840  0.4223 -0.4327
  498MPD2    C2 7454   0.924   4.481   9.703  0.1713 -0.4452 -0.1698
  498MPD2    C3 7455   0.833   4.372   9.707  0.5107  0.1281 -0.3317
  498MPD2    C4 7456   0.856   4.269   9.619  0.2965 -0.7570 -0.2797
  498MPD2    C5 7457   0.946   4.288   9.517 -0.8291  0.0098 -0.1633
  498MPD2     H 7458   0.926   4.559   9.779  0.6081 -0.6838  0.0643
  498MPD2    H1 7459   0.801   4.175   9.618 -1.2411  0.1270 -0.0369
  498MPD2    H2 7460   1.091   4.396   9.420 -1.8477  1.8873 -1.3468
  498MPD2    H3 7461   0.966   4.213   9.442 -0.2847 -1.2655  1.2446
  498MPD2     N 7462   0.732   4.374   9.803  0.4415 -0.3735  0.2888
  498MPD2    H5 7463   0.736   4.447   9.873  0.2413 -0.1285  0.0461
  498MPD2    N1 7464   1.094   4.604   9.588  0.2245 -0.4601 -0.1312
  498MPD2    H7 7465   1.069   4.687   9.641  2.2890 -0.9412  1.6137
  499TMC3    C1 7466   1.252   0.011   9.496 -0.5916 -0.4391 -0.3206
  499TMC3    C2 7467   1.386   0.038   9.498  0.0603  0.1892  0.5139
  499TMC3    C3 7468   1.421   0.166   9.483  0.0075 -0.0413  0.4969
  499TMC3    C4 7469   1.159   0.110   9.481 -0.1014 -0.4613 -0.4478
  499TMC3    C5 7470   1.199   0.234   9.459  0.2985 -0.3938 -0.3767
  499TMC3    C6 7471   1.334   0.273   9.457 -0.0794 -0.1492  0.4258
  499TMC3     C 7472   1.206   4.618   9.513  0.1481 -0.7009  0.5939
  499TMC3     O 7473   1.289   4.532   9.491  0.2865  0.0186 -0.6522
  499TMC3     H 7474   1.453   4.696   9.506  1.2813  1.2065  0.9340
  499TMC3    H1 7475   1.055   0.081   9.481 -0.6910  1.6706  0.4530
  499TMC3    H2 7476   1.355   0.379   9.465  0.2980 -0.0579 -1.7235
  499TMC3    C7 7477   1.102   0.339   9.428  0.1803  0.1517 -0.9055
  499TMC3    C8 7478   1.555   0.204   9.502  0.9958  0.2629  0.0876
  499TMC3    O1 7479   1.140   0.452   9.449  0.3413  0.3193  0.4197
  499TMC3    O2 7480   1.594   0.308   9.455  0.2849 -0.3020  0.5452
  500MPD2     C 7481   2.374   0.734   9.786 -0.6962  0.3213 -0.1824
  500MPD2    C1 7482   2.340   0.744   9.920  0.2077 -0.1511  0.0791
  500MPD2    C2 7483   2.209   0.719   9.956 -0.3975 -0.5447 -0.0969
  500MPD2    C3 7484   2.114   0.693   9.853 -0.3263  0.2628  0.1182
  500MPD2    C4 7485   2.151   0.686   9.720 -0.6390 -0.1247  0.2831
  500MPD2    C5 7486   2.284   0.708   9.686 -0.4815 -0.2115  0.2046
  500MPD2     H 7487   2.182   0.724  10.061 -1.9127 -0.6075 -0.4720
  500MPD2    H1 7488   2.084   0.658   9.639 -0.8180 -0.3635  0.5139
  500MPD2    H2 7489   2.476   0.749   9.749 -1.3928  0.7933 -1.9453
  500MPD2    H3 7490   2.316   0.695   9.583  2.9070 -0.7209  1.2946
  500MPD2     N 7491   1.980   0.671   9.874  0.8583  0.3133  0.5545
  500MPD2    H5 7492   1.915   0.666   9.796  0.6554  4.0167  0.4852
  500MPD2    N1 7493   2.430   0.786  10.022 -0.3292 -0.3567 -0.4960
  500MPD2    H7 7494   2.395   0.811  10.113  0.7064 -1.8024  0.3125
  501TMC3    C1 7495   2.621   0.884  10.119  0.0186  0.1795  0.2403
  501TMC3    C2 7496   2.706   0.988  10.106  0.0901  0.6300 -0.4508
  501TMC3    C3 7497   2.753   1.041  10.219 -0.1270 -0.3371  0.7052
  501TMC3    C4 7498   2.580   0.837  10.239 -0.5337 -0.4024 -0.1224
  501TMC3    C5 7499   2.642   0.890  10.347  0.5615  0.0019  0.1211
  501TMC3    C6 7500   2.731   0.993  10.342 -0.5993 -0.1621  0.0806
  501TMC3     C 7501   2.556   0.845  10.002 -0.9318 -0.3636  0.1645
  501TMC3     O 7502   2.623   0.871   9.905  0.1777  0.4091  0.2032
  501TMC3     H 7503   2.755   1.017  10.014 -0.8410 -1.3990 -1.5753
  501TMC3    H1 7504   2.516   0.750  10.246 -0.4381 -0.3531  1.3778
  501TMC3    H2 7505   2.775   1.037  10.431  0.1000 -0.4035 -0.1421
  501TMC3    C7 7506   2.647   0.815  10.479  0.2700  0.0551  0.0318
  501TMC3    C8 7507   2.843   1.161  10.208 -0.1799  0.5725 -0.6306
  501TMC3    O1 7508   2.742   0.829  10.550  0.2543 -0.3316  0.0670
  501TMC3    O2 7509   2.920   1.163  10.304  0.0032 -0.3433  0.0453
  502TMC3    C1 7510   3.073   0.188  15.033 -0.3758 -0.9072 -0.7527
  502TMC3    C2 7511   3.001   0.304  15.042  0.3358 -0.1476 -0.3879
  502TMC3    C3 7512   2.879   0.310  14.983  0.6176 -0.0465 -0.8762
  502TMC3    C4 7513   3.022   0.077  14.976 -0.5213  0.0584  0.1880
  502TMC3    C5 7514   2.901   0.081  14.910  0.3601  0.0020  0.1739
  502TMC3    C6 7515   2.828   0.197  14.916 -0.6542 -0.0817  0.0780
  502TMC3     C 7516   3.175   0.179  15.137 -0.3499  0.5803 -0.6585
  502TMC3     O 7517   3.268   0.260  15.125  0.6769 -0.0006  0.4616
  502TMC3     H 7518   3.036   0.384  15.106 -2.1326 -0.1679  1.0061
  502TMC3    H1 7519   3.092   4.737  14.965 -1.3266 -0.5893 -0.0621
  502TMC3    H2 7520   2.753   0.211  14.839  0.4985  1.2115 -0.8169
  502TMC3    C7 7521   2.834   4.694  14.899 -0.2423 -0.1007  0.3315
  502TMC3    C8 7522   2.812   0.439  14.980  0.2386 -1.3769 -0.4312
  502TMC3    O1 7523   2.904   4.594  14.920  0.1391 -0.2003  0.0613
  502TMC3    O2 7524   2.889   0.526  15.023 -0.0773  0.1617 -1.0270
  503MPD2     C 7525   0.451   0.912  16.740 -0.0594 -0.4413 -0.1111
  503MPD2    C1 7526   0.394   0.884  16.866  0.2739 -0.3483 -0.1392
  503MPD2    C2 7527   0.448   0.789  16.949 -0.2593  0.4174  0.0638
  503MPD2    C3 7528   0.559   0.712  16.908 -0.5182 -0.1658 -0.3943
  503MPD2    C4 7529   0.615   0.738  16.778  0.2184  0.0858 -0.4259
  503MPD2    C5 7530   0.558   0.838  16.700 -0.5093  0.0306  0.3370
  503MPD2     H 7531   0.397   0.765  17.042  0.2148 -1.8895 -0.2712
  503MPD2    H1 7532   0.696   0.688  16.728 -1.0970 -1.5168 -0.9438
  503MPD2    H2 7533   0.410   0.974  16.661  1.0648  2.3651  1.5259
  503MPD2    H3 7534   0.607   0.862  16.607  1.0135  0.4128  1.2329
  503MPD2     N 7535   0.612   0.620  17.000 -0.0683 -0.6579  0.3243
  503MPD2    H5 7536   0.569   0.609  17.091 -0.1864 -0.3890  0.3016
  503MPD2    N1 7537   0.278   0.945  16.914  0.2648 -0.6668 -0.0734
  503MPD2    H7 7538   0.250   0.912  17.006  0.5092 -0.2944  0.1366
  504TMC3    C1 7539   0.733   0.437  17.072 -0.5683 -0.1245  0.1743
  504TMC3    C2 7540   0.724   0.474  17.203 -0.3037  0.1033 -1.3571
  504TMC3    C3 7541   0.756   0.371  17.293 -0.5994 -0.0660  0.2315
  504TMC3    C4 7542   0.819   0.339  17.037  0.5166 -0.2192  0.4997
  504TMC3    C5 7543   0.853   0.246  17.128  0.1636 -0.7755 -0.2752
  504TMC3    C6 7544   0.811   0.258  17.255  0.2399  0.1322  0.5255
  504TMC3     C 7545   0.720   0.538  16.974 -0.8218  0.2241 -0.3442
  504TMC3     O 7546   0.789   0.523  16.872  0.1651 -0.0301 -0.0673
  504TMC3     H 7547   0.690   0.572  17.232 -0.8165 -0.1698 -1.0370
  504TMC3    H1 7548   0.847   0.319  16.934  1.8780  2.1882  0.3789
  504TMC3    H2 7549   0.818   0.177  17.327 -0.8944  0.8959  1.4887
  504TMC3    C7 7550   0.972   0.167  17.100 -0.0991 -0.4620 -0.3096
  504TMC3    C8 7551   0.763   0.393  17.432  0.3594  0.0458  0.3168
  504TMC3    O1 7552   0.992   0.141  16.984  0.9073  0.2022 -1.0087
  504TMC3    O2 7553   0.850   0.329  17.490 -0.4006 -0.0838 -0.4153
  505MPD2     C 7554   0.075   4.327  11.198 -0.1188  0.2904 -0.5186
  505MPD2    C1 7555   0.130   4.217  11.148 -0.1989  0.5270  0.2110
  505MPD2    C2 7556   0.265   4.194  11.148 -0.3978  0.7911  0.7459
  505MPD2    C3 7557   0.352   4.293  11.194 -0.3797  0.2429 -0.9034
  505MPD2    C4 7558   0.299   4.409  11.252  0.2271 -0.4513 -0.0298
  505MPD2    C5 7559   0.164   4.425  11.247  0.2763 -0.1449  0.0654
  505MPD2     H 7560   0.302   4.102  11.104 -0.0832  0.2348  2.1794
  505MPD2    H1 7561   0.356   4.489  11.297 -1.0249  0.1483  0.4676
  505MPD2    H2 7562   4.711   4.345  11.193  0.1066  1.4768 -0.9110
  505MPD2    H3 7563   0.114   4.505  11.301 -0.6759 -0.9164  0.3308
  505MPD2     N 7564   0.497   4.272  11.187  0.0655 -0.1884  1.0705
  505MPD2    H5 7565   0.533   4.181  11.160 -1.2084 -0.1929 -0.6106
  505MPD2    N1 7566   0.048   4.113  11.093 -0.3515 -0.1825  0.1335
  505MPD2    H7 7567   0.102   4.032  11.062  2.4165  1.5304  0.4799
  506TMC3    C1 7568   4.626   3.966  11.040 -0.5137  0.2278 -0.7348
  506TMC3    C2 7569   4.596   3.994  10.912  0.1798  0.3484  0.2381
  506TMC3    C3 7570   4.653   3.925  10.807 -0.6362  0.1234 -0.1966
  506TMC3    C4 7571   4.717   3.864  11.063 -0.2007  0.1656 -0.7977
  506TMC3    C5 7572   0.036   3.793  10.961  0.0508  0.7752 -0.4626
  506TMC3    C6 7573   0.014   3.838  10.834 -0.1640  0.0372 -0.0223
  506TMC3     C 7574   4.658   4.093  11.096  0.7310 -1.0924  0.3233
  506TMC3     O 7575   4.568   4.171  11.109 -0.1219 -0.5950 -0.0356
  506TMC3     H 7576   4.542   4.083  10.880 -1.3068 -1.0135 -1.0018
  506TMC3    H1 7577   4.741   3.843  11.167 -2.1034  0.0048 -0.3904
  506TMC3    H2 7578   0.058   3.788  10.749 -0.7279 -1.2492  0.4408
  506TMC3    C7 7579   0.175   3.795  10.990 -0.4363 -0.6528  0.2212
  506TMC3    C8 7580   4.628   3.977  10.673 -0.2308 -0.0913 -0.4485
  506TMC3    O1 7581   0.205   3.882  11.068  0.1092  0.6582  0.7469
  506TMC3    O2 7582   4.525   4.033  10.649  1.0471 -0.1542  0.4142
  507TMC3    C1 7583   1.602   0.378  15.189 -0.0387 -0.0232 -0.1993
  507TMC3    C2 7584   1.561   0.287  15.090 -0.5745 -0.4452  0.0207
  507TMC3    C3 7585   1.575   0.328  14.961  0.3143  0.1847  1.0508
  507TMC3    C4 7586   1.635   0.509  15.158 -0.3678 -0.0449 -1.1569
  507TMC3    C5 7587   1.647   0.547  15.026 -0.2553  0.0738  0.1947
  507TMC3    C6 7588   1.617   0.456  14.929 -0.7682 -0.0079 -0.0705
  507TMC3     C 7589   1.671   0.332  15.314  0.2648 -0.4455 -0.0938
  507TMC3     O 7590   1.692   0.405  15.407  1.0911  0.1959  0.2309
  507TMC3     H 7591   1.540   0.183  15.112  0.6530 -0.4238  1.2666
  507TMC3    H1 7592   1.673   0.577  15.234 -0.8819 -3.1862  1.9040
  507TMC3    H2 7593   1.640   0.485  14.827 -0.6421 -0.8540 -0.2862
  507TMC3    C7 7594   1.577   0.667  14.985 -0.0514 -0.6502  0.2554
  507TMC3    C8 7595   1.464   0.283  14.884 -0.3134 -0.3267  0.4298
  507TMC3    O1 7596   1.516   0.661  14.879  0.5197 -0.1441 -0.5899
  507TMC3    O2 7597   1.397   0.193  14.934 -0.1869 -0.2551 -0.6415
  508MPD2     C 7598   2.107   2.444  16.054  0.2338  0.4774  0.6097
  508MPD2    C1 7599   2.231   2.503  16.054 -0.3551  0.1864  0.1782
  508MPD2    C2 7600   2.281   2.556  15.933  0.3298  0.0874  0.0614
  508MPD2    C3 7601   2.202   2.552  15.815  0.4446 -0.5574 -0.4894
  508MPD2    C4 7602   2.087   2.476  15.810 -0.5901  0.0207 -0.0101
  508MPD2    C5 7603   2.040   2.431  15.934  0.1909 -0.2694 -0.0671
  508MPD2     H 7604   2.375   2.610  15.927  0.7009 -0.3209  2.0520
  508MPD2    H1 7605   2.024   2.470  15.721  2.1227 -1.6988 -1.8087
  508MPD2    H2 7606   2.050   2.414  16.141 -0.3934 -1.6795 -0.5352
  508MPD2    H3 7607   1.942   2.385  15.942  0.3020 -0.4701  0.1558
  508MPD2     N 7608   2.247   2.618  15.702 -0.3047  0.3658  0.2278
  508MPD2    H5 7609   2.337   2.664  15.711 -2.1708  3.9107  0.6846
  508MPD2    N1 7610   2.308   2.523  16.168  0.7151  0.0256  0.1374
  508MPD2    H7 7611   2.389   2.582  16.156  0.3931  0.4671  0.1343
  509TMC3    C1 7612   2.257   2.808  15.278  0.3898  0.5475 -0.0720
  509TMC3    C2 7613   2.388   2.835  15.300 -0.1222 -0.7279  0.3311
  509TMC3    C3 7614   2.455   2.773  15.405  0.1036 -0.7837 -0.4670
  509TMC3    C4 7615   2.199   2.708  15.356  1.1055 -0.0145 -0.4265
  509TMC3    C5 7616   2.268   2.663  15.464 -0.4548  0.2587 -0.5125
  509TMC3    C6 7617   2.398   2.683  15.485  1.0144  0.5210 -0.2585
  509TMC3     C 7618   2.200   2.839  15.147  0.3248  0.1460  0.2347
  509TMC3     O 7619   2.103   2.770  15.112 -0.5672 -0.1001 -0.4170
  509TMC3     H 7620   2.449   2.882  15.223  0.4951 -2.2275 -0.0899
  509TMC3    H1 7621   2.092   2.697  15.345  0.8974 -0.5131  2.1841
  509TMC3    H2 7622   2.460   2.644  15.565  1.4909 -2.2755 -1.9824
  509TMC3    C7 7623   2.187   2.627  15.578 -1.2914 -0.0138  0.3662
  509TMC3    C8 7624   2.594   2.745  15.381  0.5085  0.1620  0.5907
  509TMC3    O1 7625   2.069   2.597  15.553 -0.4386  0.2370 -0.6179
  509TMC3    O2 7626   2.640   2.631  15.396  0.0161 -0.9331 -0.7740
  510MPD2     C 7627   0.200   4.400  14.596 -1.3290  0.1236 -0.5088
  510MPD2    C1 7628   0.274   4.297  14.650  0.2308 -0.1886 -0.3538
  510MPD2    C2 7629   0.397   4.278  14.603  0.1917 -0.3688 -0.0868
  510MPD2    C3 7630   0.445   4.346  14.494  0.3230  0.0743  0.5486
  510MPD2    C4 7631   0.366   4.438  14.430 -0.2747  0.0403  0.1829
  510MPD2    C5 7632   0.244   4.469  14.487 -0.2970 -0.2575 -0.2855
  510MPD2     H 7633   0.458   4.206  14.656 -0.1035 -1.2139 -0.8994
  510MPD2    H1 7634   0.396   4.493  14.341 -2.8484 -0.0871 -0.7531
  510MPD2    H2 7635   0.098   4.417  14.629  0.1615  1.1618  3.5432
  510MPD2    H3 7636   0.172   4.535  14.439 -0.0016 -0.0910 -0.4950
  510MPD2     N 7637   0.577   4.306  14.455  0.0833 -0.1697  0.0084
  510MPD2    H5 7638   0.631   4.255  14.524  1.6695  2.1392  0.4624
  510MPD2    N1 7639   0.207   4.209  14.746 -0.1183 -0.5977  0.2522
  510MPD2    H7 7640   0.114   4.232  14.779  0.7420 -0.1650  2.4025
  511TMC3    C1 7641   0.170   4.014  14.864  0.5981 -0.1242 -0.5929
  511TMC3    C2 7642   0.093   4.089  14.948 -0.2603 -0.3448 -0.3638
  511TMC3    C3 7643   0.006   4.019  15.031  0.3062 -0.5697 -0.3548
  511TMC3    C4 7644   0.163   3.876  14.847  0.3429  0.3779  0.1541
  511TMC3    C5 7645   0.061   3.822  14.911  0.5621 -0.1429 -0.3443
  511TMC3    C6 7646   4.721   3.890  14.996  0.2124  0.1916  0.4184
  511TMC3     C 7647   0.258   4.084  14.778  0.9969  0.5820 -0.1127
  511TMC3     O 7648   0.360   4.028  14.738 -0.4458  0.4968 -0.1079
  511TMC3     H 7649   0.132   4.188  14.968 -1.0627  0.6271 -3.6538
  511TMC3    H1 7650   0.215   3.824  14.767  1.9376 -1.1135  2.1935
  511TMC3    H2 7651   4.639   3.836  15.041 -0.6778  1.3806  0.2283
  511TMC3    C7 7652   4.737   3.707  14.831  0.7134 -0.0149 -0.7409
  511TMC3    C8 7653   4.706   4.080  15.152  0.5190 -0.0303 -0.0213
  511TMC3    O1 7654   0.034   3.708  14.719  0.6871  0.6123  0.8355
  511TMC3    O2 7655   4.717   4.201  15.159 -0.0612 -0.3234 -0.1154
  512TMC3    C1 7656   3.836   3.518  13.678  0.1667 -0.3310  0.2907
  512TMC3    C2 7657   3.951   3.451  13.719  0.8559 -0.8996  0.1617
  512TMC3    C3 7658   3.991   3.334  13.656  0.0002  0.1499  0.2229
  512TMC3    C4 7659   3.750   3.463  13.586 -0.4748 -0.0885 -0.0920
  512TMC3    C5 7660   3.797   3.350  13.523 -0.7905  0.2570  0.1080
  512TMC3    C6 7661   3.909   3.283  13.558 -0.6526 -0.4647 -0.2731
  512TMC3     C 7662   3.873   3.653  13.635  0.0137 -0.3646  0.5621
  512TMC3     O 7663   3.970   3.686  13.698 -0.9552  0.3475 -0.3099
  512TMC3     H 7664   4.000   3.477  13.812  1.2308  1.2182 -0.6266
  512TMC3    H1 7665   3.650   3.501  13.571 -0.7029 -0.7087 -0.1269
  512TMC3    H2 7666   3.944   3.208  13.487  1.3715 -0.2975  0.5476
  512TMC3    C7 7667   3.767   3.348  13.379  0.0858 -0.6732 -0.2013
  512TMC3    C8 7668   4.118   3.362  13.594  0.3759 -0.4514 -0.3306
  512TMC3    O1 7669   3.701   3.446  13.336 -0.3728 -0.4976  0.0748
  512TMC3    O2 7670   4.150   3.288  13.505  0.2436 -0.0583  0.2169
  513MPD2     C 7671   1.280   3.302  13.712 -0.2012 -0.3421  0.0425
  513MPD2    C1 7672   1.318   3.194  13.629  0.1503  0.0399  0.3991
  513MPD2    C2 7673   1.453   3.177  13.605 -0.9830 -0.1968  0.0727
  513MPD2    C3 7674   1.548   3.257  13.665  1.0307  0.3851  0.4477
  513MPD2    C4 7675   1.506   3.361  13.749 -0.4268 -0.7166  0.3617
  513MPD2    C5 7676   1.373   3.378  13.768 -0.0349  0.5144  0.4428
  513MPD2     H 7677   1.488   3.109  13.528  0.7942 -0.3473  0.9948
  513MPD2    H1 7678   1.582   3.426  13.792 -0.3973  0.8323 -2.0282
  513MPD2    H2 7679   1.175   3.323  13.728 -0.3769 -2.2179  1.4185
  513MPD2    H3 7680   1.340   3.460  13.830  0.9317  0.5467  0.9038
  513MPD2     N 7681   1.681   3.233  13.620 -0.7250 -0.1950  0.3846
  513MPD2    H5 7682   1.693   3.160  13.550 -2.1291  0.0470 -0.1014
  513MPD2    N1 7683   1.230   3.109  13.560 -0.0883 -0.0032 -0.0245
  513MPD2    H7 7684   1.280   3.034  13.514  0.8882 -0.7331  2.2212
  514TMC3    C1 7685   1.044   3.034  13.445 -0.1515 -0.0052  0.1728
  514TMC3    C2 7686   1.001   3.094  13.332  0.6506  0.2921 -0.3491
  514TMC3    C3 7687   1.034   3.041  13.209  0.2831  0.7250  0.1698
  514TMC3    C4 7688   1.120   2.917  13.435  0.2642  0.4166 -0.3074
  514TMC3    C5 7689   1.148   2.866  13.311 -0.3686  0.5441 -0.2541
  514TMC3    C6 7690   1.103   2.925  13.192  0.4510  1.3793 -0.2835
  514TMC3     C 7691   1.100   3.129  13.539 -0.1881  0.8389 -0.5908
  514TMC3     O 7692   1.024   3.216  13.578  0.5219 -0.1596  0.1521
  514TMC3     H 7693   0.933   3.177  13.342  0.1215 -0.1919  0.0932
  514TMC3    H1 7694   1.141   2.864  13.527  2.1672  3.5797  1.0790
  514TMC3    H2 7695   1.147   2.890  13.100 -0.9114  2.6344 -1.4258
  514TMC3    C7 7696   1.288   2.851  13.319  1.0630 -0.0289 -0.6244
  514TMC3    C8 7697   0.954   3.087  13.101  0.2664  0.3330 -0.2026
  514TMC3    O1 7698   1.344   2.892  13.421  0.3165  0.3232 -0.1979
  514TMC3    O2 7699   0.843   3.123  13.129 -0.4173  0.0732 -0.6437
  515MPD2     C 7700   3.606   0.899  14.660  0.2503  0.6214  0.0269
  515MPD2    C1 7701   3.672   0.778  14.655 -0.6176 -0.4712 -0.3273
  515MPD2    C2 7702   3.802   0.766  14.691 -0.2970 -0.6563 -0.1431
  515MPD2    C3 7703   3.863   0.872  14.753 -0.5026 -0.3952  0.7867
  515MPD2    C4 7704   3.790   0.987  14.781  0.3191 -0.4928  0.2843
  515MPD2    C5 7705   3.668   1.007  14.722 -0.1002  0.1158  0.4440
  515MPD2     H 7706   3.845   0.668  14.678 -1.8143 -1.2381 -0.7301
  515MPD2    H1 7707   3.839   1.071  14.830 -2.3026  0.4970  1.2664
  515MPD2    H2 7708   3.512   0.918  14.609  0.7925  3.5099  0.1062
  515MPD2    H3 7709   3.616   1.102  14.720 -2.3605 -1.1487 -1.4072
  515MPD2     N 7710   3.999   0.875  14.786 -0.2532  0.1538  0.0770
  515MPD2    H5 7711   4.029   0.955  14.842 -0.0438  1.1470 -1.4668
  515MPD2    N1 7712   3.594   0.677  14.594  0.2027  0.2790 -0.4525
  515MPD2    H7 7713   3.495   0.701  14.593  0.6224  2.1121  0.7509
  516TMC3    C1 7714   3.515   0.453  14.559 -0.5866  0.6612 -0.1236
  516TMC3    C2 7715   3.397   0.498  14.499  0.5936 -0.0159  1.1400
  516TMC3    C3 7716   3.288   0.408  14.499  0.0692 -0.5351  0.4223
  516TMC3    C4 7717   3.524   0.325  14.609  0.0467  0.7246  0.0926
  516TMC3    C5 7718   3.414   0.246  14.602 -0.2434  0.1095 -0.3654
  516TMC3    C6 7719   3.295   0.287  14.550  0.2097 -0.1105 -0.3862
  516TMC3     C 7720   3.630   0.545  14.577 -0.5357 -0.0817  0.2801
  516TMC3     O 7721   3.735   0.486  14.588  0.0830 -0.4571  0.2563
  516TMC3     H 7722   3.393   0.596  14.453 -1.0516 -0.5112  0.1982
  516TMC3    H1 7723   3.617   0.294  14.655  1.6923  0.5032 -3.3708
  516TMC3    H2 7724   3.217   0.216  14.528  1.7741 -1.6766 -0.9169
  516TMC3    C7 7725   3.431   0.127  14.689 -0.2485  0.6060 -0.7694
  516TMC3    C8 7726   3.165   0.451  14.430  0.6242 -0.0875  0.0573
  516TMC3    O1 7727   3.526   0.114  14.764 -0.2477 -0.2148  0.4359
  516TMC3    O2 7728   3.078   0.365  14.414 -0.2918  0.7265  0.1983
  517MPD2     C 7729   3.498   1.607   0.420  0.0911  0.1169  0.4415
  517MPD2    C1 7730   3.588   1.687   0.354 -0.2862  0.6419  0.3284
  517MPD2    C2 7731   3.635   1.801   0.418 -0.0705  0.1414 -0.2506
  517MPD2    C3 7732   3.605   1.843   0.543  0.5717  0.0910 -0.0421
  517MPD2    C4 7733   3.501   1.767   0.597  0.1611 -0.3835  0.2565
  517MPD2    C5 7734   3.453   1.650   0.544  0.4878  0.5722  0.3232
  517MPD2     H 7735   3.709   1.853   0.358 -0.1156  0.7413  0.2192
  517MPD2    H1 7736   3.462   1.799   0.693 -1.9827 -0.4530 -0.5830
  517MPD2    H2 7737   3.444   1.524   0.378 -0.4747  0.0609  1.2742
  517MPD2    H3 7738   3.373   1.597   0.594 -0.1267 -0.8807 -2.2539
  517MPD2     N 7739   3.639   1.965   0.613  0.5072  0.5912  0.3645
  517MPD2    H5 7740   3.615   1.962   0.711  1.7856  1.5692  0.7146
  517MPD2    N1 7741   3.625   1.657   0.227  0.1664 -0.3419 -0.0434
  517MPD2    H7 7742   3.676   1.727   0.174 -0.1787 -0.1488 -0.1191
  518TMC3    C1 7743   3.648   1.510   0.040 -0.4571  0.8873 -0.2096
  518TMC3    C2 7744   3.651   1.379   0.014  0.3562 -0.1466 -0.5627
  518TMC3    C3 7745   3.611   1.335  17.654 -0.9619 -0.2648 -0.3537
  518TMC3    C4 7746   3.616   1.604  17.712 -0.2954 -0.5846  0.4411
  518TMC3    C5 7747   3.599   1.563  17.583 -0.3754 -0.8639 -0.1806
  518TMC3    C6 7748   3.599   1.426  17.554 -0.0765 -0.3209 -0.1779
  518TMC3     C 7749   3.624   1.528   0.178  0.2728 -0.5922  0.4066
  518TMC3     O 7750   3.600   1.421   0.239  0.3513 -0.0735 -0.3295
  518TMC3     H 7751   3.694   1.307   0.082  1.0821  1.3833  0.6185
  518TMC3    H1 7752   3.631   1.705  17.748  0.3500 -1.4400  2.5834
  518TMC3    H2 7753   3.557   1.395  17.459  0.0197 -2.5798  0.5158
  518TMC3    C7 7754   3.669   1.646  17.485 -0.9191  0.6845  0.1773
  518TMC3    C8 7755   3.627   1.192  17.609  0.8026 -0.6705  0.0520
  518TMC3    O1 7756   3.696   1.761  17.518 -0.0693 -0.3898  0.1360
  518TMC3    O2 7757   3.655   1.182  17.494  0.0533  0.1236  0.0736
  519MPD2     C 7758   0.433   0.359  14.280 -0.3028 -0.1385  0.2397
  519MPD2    C1 7759   0.407   0.395  14.150  0.0905 -0.1623 -0.1124
  519MPD2    C2 7760   0.504   0.338  14.062 -0.1782  0.7918 -0.8653
  519MPD2    C3 7761   0.615   0.266  14.090  0.1784 -0.3314 -0.4040
  519MPD2    C4 7762   0.639   0.249  14.222 -0.9440 -0.0419 -0.1959
  519MPD2    C5 7763   0.539   0.281  14.313  0.0984 -0.8221  0.9081
  519MPD2     H 7764   0.491   0.371  13.960 -1.3974  0.8941 -0.6752
  519MPD2    H1 7765   0.721   0.187  14.255  1.2361  1.2396 -3.2237
  519MPD2    H2 7766   0.361   0.394  14.353 -0.1510  1.1274 -0.2097
  519MPD2    H3 7767   0.543   0.242  14.414  2.5312  0.2930  1.2268
  519MPD2     N 7768   0.704   0.205  13.989 -0.3192 -0.2608  0.4011
  519MPD2    H5 7769   0.792   0.161  14.014  0.6694  1.3245 -0.3399
  519MPD2    N1 7770   0.300   0.473  14.117 -0.5309 -0.4848 -0.1019
  519MPD2    H7 7771   0.244   0.509  14.194  0.3571  1.2793 -0.2572
  520TMC3    C1 7772   0.761   0.115  13.769  0.0875  0.5465  0.4199
  520TMC3    C2 7773   0.722   0.121  13.635  0.1845 -0.9452 -0.5966
  520TMC3    C3 7774   0.781   0.037  13.542 -0.0871 -0.3869 -0.0591
  520TMC3    C4 7775   0.864   0.038  13.816  0.3428 -0.3763 -0.8188
  520TMC3    C5 7776   0.931   4.710  13.716 -0.4787  0.0005  1.3116
  520TMC3    C6 7777   0.897   4.711  13.583 -0.2205  0.3559 -0.3275
  520TMC3     C 7778   0.672   0.199  13.851 -0.3583 -0.7030  0.4337
  520TMC3     O 7779   0.564   0.216  13.798  0.1637 -0.1234 -0.4088
  520TMC3     H 7780   0.633   0.176  13.607  0.5875  0.5929  1.1475
  520TMC3    H1 7781   0.894   0.040  13.920 -1.6940 -1.4550 -0.2103
  520TMC3    H2 7782   0.963   4.668  13.509 -0.3019 -1.0987  0.4492
  520TMC3    C7 7783   1.021   4.602  13.753  0.2044  0.5894  0.6430
  520TMC3    C8 7784   0.725   0.032  13.407  0.3537 -1.0204 -0.2482
  520TMC3    O1 7785   1.102   4.631  13.843 -0.7046 -0.0900  0.2676
  520TMC3    O2 7786   0.788   0.062  13.308 -0.2776  0.0330 -0.6111
  521MPD2     C 7787   1.586   2.639  17.629  0.5614 -0.4559 -1.0892
  521MPD2    C1 7788   1.527   2.590  17.513  0.8529 -0.2110  0.4710
  521MPD2    C2 7789   1.596   2.496  17.437 -0.6578 -0.1398 -0.1583
  521MPD2    C3 7790   1.713   2.439  17.487 -0.4562  0.4618 -0.0810
  521MPD2    C4 7791   1.760   2.482  17.608  0.8214  0.4191 -0.8815
  521MPD2    C5 7792   1.697   2.580  17.679 -0.1423 -0.3730  0.8664
  521MPD2     H 7793   1.563   2.458  17.341 -0.3671  0.3174 -0.4372
  521MPD2    H1 7794   1.857   2.454  17.649  0.9452  0.4119 -1.1737
  521MPD2    H2 7795   1.547   2.725  17.681 -1.2580 -1.1532 -1.3214
  521MPD2    H3 7796   1.745   2.629  17.764 -1.0112  0.8489  0.6580
  521MPD2     N 7797   1.793   2.349  17.408  0.2616 -1.0352  0.3049
  521MPD2    H5 7798   1.758   2.329  17.314  3.3444 -1.3537 -0.7720
  521MPD2    N1 7799   1.410   2.657  17.468 -0.2994 -0.2653  0.2978
  521MPD2    H7 7800   1.360   2.719  17.530  1.4721  1.8517 -0.3991
  522TMC3    C1 7801   1.973   2.200  17.351 -0.8013 -0.3476 -0.2653
  522TMC3    C2 7802   2.096   2.140  17.389  0.4432  0.1501 -0.3071
  522TMC3    C3 7803   2.162   2.068  17.291 -0.2975  0.5096  1.0302
  522TMC3    C4 7804   1.927   2.193  17.224  0.1242  0.6629  0.2805
  522TMC3    C5 7805   1.997   2.131  17.129 -0.0268  0.2906 -0.1446
  522TMC3    C6 7806   2.104   2.062  17.171 -0.3409 -0.4902 -0.5428
  522TMC3     C 7807   1.903   2.280  17.446  0.2160  0.0245 -0.4251
  522TMC3     O 7808   1.950   2.266  17.559 -0.2882  0.3108 -0.2091
  522TMC3     H 7809   2.135   2.145  17.490 -0.4142  0.0417  0.0290
  522TMC3    H1 7810   1.828   2.231  17.202  0.0649 -0.2198 -0.9982
  522TMC3    H2 7811   2.162   2.014  17.094  2.1795 -0.2451  1.1884
  522TMC3    C7 7812   2.006   2.176  16.992  0.2585 -0.3351  0.1865
  522TMC3    C8 7813   2.311   2.097  17.281  0.3677 -0.5048  1.3278
  522TMC3    O1 7814   2.121   2.177  16.949  0.4819  0.2406 -0.8357
  522TMC3    O2 7815   2.377   2.066  17.379  0.7073  0.0252  0.0756
  523MPD2     C 7816   3.379   2.586   9.963 -0.1401 -0.0519  0.5871
  523MPD2    C1 7817   3.273   2.545   9.884 -0.0004 -0.0511 -0.4131
  523MPD2    C2 7818   3.214   2.640   9.806 -0.7051  0.0760  0.6016
  523MPD2    C3 7819   3.270   2.765   9.789 -0.2228 -0.0347 -0.5205
  523MPD2    C4 7820   3.390   2.788   9.848  0.1951 -0.0610 -0.3985
  523MPD2    C5 7821   3.446   2.696   9.934 -0.0343 -0.6274  0.5288
  523MPD2     H 7822   3.117   2.619   9.762 -0.4223  0.0682 -0.0144
  523MPD2    H1 7823   3.448   2.879   9.842 -0.6140  0.4634 -0.1728
  523MPD2    H2 7824   3.428   2.506  10.018  0.8578 -1.1229 -1.8538
  523MPD2    H3 7825   3.541   2.723   9.980  0.1682 -0.2872 -0.0778
  523MPD2     N 7826   3.217   2.873   9.719  0.1198  0.1749  0.3611
  523MPD2    H5 7827   3.259   2.965   9.726  0.5405  0.1762 -2.0888
  523MPD2    N1 7828   3.216   2.415   9.910  0.5168 -0.7589 -0.0523
  523MPD2    H7 7829   3.267   2.359   9.977  1.4418  0.8829  0.6285
  524TMC3    C1 7830   3.045   3.004   9.648 -0.3261 -0.0440 -1.2069
  524TMC3    C2 7831   2.971   3.037   9.535  0.8451  0.2314  0.1578
  524TMC3    C3 7832   2.895   3.150   9.542  0.3218  0.1926  0.0130
  524TMC3    C4 7833   3.042   3.076   9.765 -0.2911  0.6366  0.0639
  524TMC3    C5 7834   2.980   3.195   9.763 -0.2920 -0.0770  0.1015
  524TMC3    C6 7835   2.897   3.225   9.659  0.7141  0.2265 -0.0923
  524TMC3     C 7836   3.103   2.876   9.651  0.4472  0.0001 -0.2975
  524TMC3     O 7837   3.047   2.780   9.601  0.6075 -0.6387  0.4106
  524TMC3     H 7838   2.950   2.964   9.457  1.1876 -0.0637  0.3449
  524TMC3    H1 7839   3.109   3.045   9.844  0.2043 -0.0181 -0.6092
  524TMC3    H2 7840   2.826   3.307   9.663 -0.5360 -0.8321 -0.8203
  524TMC3    C7 7841   2.962   3.249   9.893 -0.4350 -0.3376 -0.1461
  524TMC3    C8 7842   2.825   3.198   9.422 -0.2066 -0.4718  0.3059
  524TMC3    O1 7843   2.995   3.178   9.987  0.1318  0.3666 -0.7634
  524TMC3    O2 7844   2.819   3.113   9.336 -0.2199 -0.1907 -0.0853
  525MPD2     C 7845   1.735   4.591  14.290 -0.2476 -0.1977  0.2912
  525MPD2    C1 7846   1.855   4.598  14.355  0.7195 -0.5729  0.1479
  525MPD2    C2 7847   1.932   4.712  14.337 -0.0379  0.5804  0.3253
  525MPD2    C3 7848   1.880   0.082  14.270 -0.6454 -0.1147 -0.6978
  525MPD2    C4 7849   1.760   0.073  14.206  0.0331  0.1825 -0.3781
  525MPD2    C5 7850   1.696   4.701  14.210 -0.7900  0.5296  0.3699
  525MPD2     H 7851   2.026   4.709  14.391  1.2331 -0.9017 -1.9423
  525MPD2    H1 7852   1.726   0.147  14.134  0.9758  0.8215 -0.1774
  525MPD2    H2 7853   1.686   4.495  14.289 -0.8688  0.1237  0.0443
  525MPD2    H3 7854   1.606   4.697  14.149 -2.2218 -1.3573  2.6289
  525MPD2     N 7855   1.938   0.212  14.286 -0.2686  0.3676  0.3482
  525MPD2    H5 7856   1.884   0.285  14.241 -1.3379  0.0574  1.1355
  525MPD2    N1 7857   1.905   4.501  14.437 -0.3515  0.7900 -0.6004
  525MPD2    H7 7858   1.991   4.518  14.487 -0.0012  0.0424 -0.9509
  526TMC3    C1 7859   1.932   4.299  14.555 -0.1800  0.9168 -0.1984
  526TMC3    C2 7860   1.880   4.221  14.654 -0.9466  0.7039 -0.0081
  526TMC3    C3 7861   1.961   4.144  14.734 -0.0037 -0.3621 -0.7181
  526TMC3    C4 7862   2.067   4.314  14.546  0.4932  0.1438  0.2175
  526TMC3    C5 7863   2.140   4.256  14.643  0.0084  0.2660 -0.9712
  526TMC3    C6 7864   2.093   4.174  14.739 -0.2426  0.6384 -0.0327
  526TMC3     C 7865   1.845   4.376  14.459 -0.1515  0.2717  0.4104
  526TMC3     O 7866   1.725   4.351  14.455 -0.0710 -0.1199 -0.4243
  526TMC3     H 7867   1.772   4.219  14.660 -0.9294  0.5094  0.2236
  526TMC3    H1 7868   2.120   4.363  14.465  1.4144 -0.6613  0.3321
  526TMC3    H2 7869   2.167   4.119  14.795  1.0963  1.2012 -1.2490
  526TMC3    C7 7870   2.281   4.255  14.635  0.5688  0.3521 -0.0140
  526TMC3    C8 7871   1.910   4.090  14.858  0.3289  0.3622 -0.2915
  526TMC3    O1 7872   2.338   4.152  14.656  0.5196  0.3525 -0.2391
  526TMC3    O2 7873   1.990   4.038  14.936  0.7665 -0.7035  0.3671
  527MPD2     C 7874   0.038   2.805   1.444  0.1619 -0.1904 -0.1930
  527MPD2    C1 7875   4.729   2.727   1.345 -0.0714 -0.2493 -0.2768
  527MPD2    C2 7876   0.076   2.636   1.286 -0.2606 -0.1217  0.2247
  527MPD2    C3 7877   0.205   2.623   1.328  0.1826 -0.0100 -0.4064
  527MPD2    C4 7878   0.256   2.700   1.428 -1.1148  0.0936 -0.1406
  527MPD2    C5 7879   0.172   2.792   1.482  0.6803 -0.3333  0.4165
  527MPD2     H 7880   0.037   2.573   1.207  0.2641  0.9228 -0.8712
  527MPD2    H1 7881   0.361   2.721   1.443 -1.1691  0.6261 -0.4924
  527MPD2    H2 7882   4.738   2.887   1.502  1.4463  1.4980 -1.6412
  527MPD2    H3 7883   0.221   2.863   1.548  0.4113 -0.6926  0.9974
  527MPD2     N 7884   0.293   2.543   1.247  0.4845  0.1177 -0.1299
  527MPD2    H5 7885   0.249   2.487   1.175  1.5615 -1.2156  0.2573
  527MPD2    N1 7886   4.600   2.741   1.286 -0.1449 -0.1716  0.4729
  527MPD2    H7 7887   4.577   2.676   1.212 -1.4726 -1.2570  1.8426
  528TMC3    C1 7888   4.387   2.823   1.238 -0.7408  0.0247  0.5761
  528TMC3    C2 7889   4.430   2.820   1.106  0.4232  0.0129 -0.3551
  528TMC3    C3 7890   4.336   2.788   1.013  0.3563  0.1790 -0.0248
  528TMC3    C4 7891   4.253   2.797   1.282 -0.1697 -0.3305 -0.1732
  528TMC3    C5 7892   4.164   2.771   1.177 -0.1120  0.6909 -0.2653
  528TMC3    C6 7893   4.209   2.776   1.047  0.2910  0.5137  0.0436
  528TMC3     C 7894   4.492   2.812   1.335  0.0478  0.2431  0.8962
  528TMC3     O 7895   4.479   2.874   1.437  0.4998  0.0734  0.2809
  528TMC3     H 7896   4.532   2.847   1.078  0.3749  1.3700  0.7820
  528TMC3    H1 7897   4.238   2.780   1.388  1.1353 -2.2175 -0.2855
  528TMC3    H2 7898   4.136   2.759   0.968 -0.2621 -1.8059  1.0538
  528TMC3    C7 7899   4.022   2.755   1.202  0.1537 -0.3007  0.4203
  528TMC3    C8 7900   4.390   2.755   0.878 -0.4714  0.5448  0.5624
  528TMC3    O1 7901   3.961   2.693   1.117  0.0602 -0.6985  0.0508
  528TMC3    O2 7902   4.490   2.813   0.836  0.2653  0.2068  0.0611
  529MPD2     C 7903   2.404   0.751   1.032  0.2314 -0.5127 -0.1326
  529MPD2    C1 7904   2.495   0.708   0.945  0.5506  0.3036 -0.4423
  529MPD2    C2 7905   2.492   0.770   0.818  0.3495  0.2619  0.1716
  529MPD2    C3 7906   2.414   0.886   0.800 -0.1152  0.0694  0.6721
  529MPD2    C4 7907   2.331   0.929   0.898  0.1008 -0.1039 -0.2833
  529MPD2    C5 7908   2.317   0.854   1.003  0.2913 -0.6828  0.2914
  529MPD2     H 7909   2.561   0.734   0.741 -1.3167  0.0325 -1.2185
  529MPD2    H1 7910   2.271   1.019   0.893  0.0426 -0.0206  1.7159
  529MPD2    H2 7911   2.397   0.702   1.129  2.7093 -0.1032  0.2410
  529MPD2    H3 7912   2.249   0.886   1.081  0.0150 -2.2352  0.6889
  529MPD2     N 7913   2.414   0.956   0.675 -0.3621 -0.1286 -0.1762
  529MPD2    H5 7914   2.344   1.029   0.676 -0.7456 -0.4803 -1.6343
  529MPD2    N1 7915   2.576   0.595   0.969 -0.3480 -0.1814  0.0301
  529MPD2    H7 7916   2.638   0.566   0.894  0.4325  0.1804  0.5358
  530TMC3    C1 7917   2.711   0.445   1.100  0.3339  0.4723  0.5952
  530TMC3    C2 7918   2.803   0.490   1.192 -0.1148 -0.2607 -0.6749
  530TMC3    C3 7919   2.903   0.402   1.221 -0.4695 -0.3522 -0.0892
  530TMC3    C4 7920   2.714   0.326   1.040 -0.1326  0.0433  0.1617
  530TMC3    C5 7921   2.806   0.235   1.088  0.4666 -0.3168 -0.0319
  530TMC3    C6 7922   2.900   0.270   1.180 -0.3801  0.0303 -0.3338
  530TMC3     C 7923   2.602   0.540   1.093 -0.0584 -0.6147  0.9638
  530TMC3     O 7924   2.568   0.573   1.208 -0.2128  0.2281  0.8502
  530TMC3     H 7925   2.809   0.594   1.221  1.3878 -0.7522  0.8188
  530TMC3    H1 7926   2.632   0.303   0.973  0.3317  2.2895 -1.1759
  530TMC3    H2 7927   2.968   0.187   1.201 -3.1736 -2.3960 -0.9737
  530TMC3    C7 7928   2.790   0.094   1.073 -0.2146  0.1107  0.2524
  530TMC3    C8 7929   2.946   0.416   1.355  0.1876  0.1483  0.0718
  530TMC3    O1 7930   2.895   0.026   1.058  1.0067 -0.2375 -1.3163
  530TMC3    O2 7931   2.878   0.464   1.442 -0.0351 -0.0923  0.5797
  531MPD2     C 7932   1.756   2.710  13.131 -0.3006  0.4425 -0.1207
  531MPD2    C1 7933   1.714   2.805  13.221 -0.0849 -0.3736 -0.3415
  531MPD2    C2 7934   1.581   2.830  13.251 -0.1031 -0.5182  0.2477
  531MPD2    C3 7935   1.485   2.749  13.193  0.3503  0.5884 -0.2170
  531MPD2    C4 7936   1.523   2.654  13.105  0.1273 -0.5823 -0.6083
  531MPD2    C5 7937   1.657   2.641  13.072 -0.4484  0.2289  0.0970
  531MPD2     H 7938   1.543   2.908  13.315 -0.4782 -0.7359  0.2931
  531MPD2    H1 7939   1.451   2.589  13.057  0.5850 -0.2668 -1.7191
  531MPD2    H2 7940   1.862   2.698  13.110 -0.7137  1.5313 -2.9300
  531MPD2    H3 7941   1.689   2.561  13.007 -0.7286  2.1478 -2.3819
  531MPD2     N 7942   1.347   2.771  13.216  0.7184  0.2348  0.0111
  531MPD2    H5 7943   1.278   2.732  13.152 -2.6316  1.3621  2.9179
  531MPD2    N1 7944   1.820   2.887  13.282 -0.4759 -0.0932 -0.1011
  531MPD2    H7 7945   1.915   2.870  13.250  1.2391  3.8807  2.8188
  532TMC3    C1 7946   1.894   3.065  13.425 -0.1113 -0.1437  0.0314
  532TMC3    C2 7947   1.871   3.193  13.474 -0.5163 -0.6622 -0.0662
  532TMC3    C3 7948   1.906   3.222  13.603 -0.4759 -0.0029 -0.6484
  532TMC3    C4 7949   1.967   2.969  13.492 -0.3403 -0.0307 -0.3419
  532TMC3    C5 7950   2.016   3.015  13.613  0.1090 -0.0506  0.3910
  532TMC3    C6 7951   1.982   3.131  13.672 -0.0782 -0.2705 -0.7345
  532TMC3     C 7952   1.793   3.009  13.342 -0.1769 -0.7241  0.1176
  532TMC3     O 7953   1.688   3.070  13.356 -0.1265  0.1631 -0.2551
  532TMC3     H 7954   1.809   3.265  13.423  2.1912  1.6908 -0.0226
  532TMC3    H1 7955   1.992   2.876  13.443  1.1293  0.4256 -0.4717
  532TMC3    H2 7956   2.020   3.149  13.772 -0.5861  2.4073 -1.0330
  532TMC3    C7 7957   2.074   2.915  13.701 -0.0536  0.8394 -0.4429
  532TMC3    C8 7958   1.793   3.277  13.675  0.2386 -0.2330 -0.1640
  532TMC3    O1 7959   2.159   2.949  13.782  0.2606  0.3152 -0.7880
  532TMC3    O2 7960   1.815   3.311  13.790 -0.2472 -0.4732 -0.5011
  533TMC3    C1 7961   2.053   0.383  14.395 -0.0412  0.0269 -0.0443
  533TMC3    C2 7962   2.171   0.433  14.424 -0.3305 -0.5749 -0.8889
  533TMC3    C3 7963   2.177   0.566  14.468  0.2939 -0.2634 -0.1303
  533TMC3    C4 7964   1.936   0.437  14.444 -0.0092  0.2702 -0.1072
  533TMC3    C5 7965   1.941   0.555  14.505 -0.0191  0.3346 -0.1726
  533TMC3    C6 7966   2.061   0.628  14.504 -0.0363  0.1240 -0.2963
  533TMC3     C 7967   2.047   0.243  14.364  0.3957 -0.5272  0.4630
  533TMC3     O 7968   2.149   0.173  14.372  0.5533  0.1932  0.0201
  533TMC3     H 7969   2.261   0.380  14.395  0.9977  1.2263 -0.0055
  533TMC3    H1 7970   1.845   0.378  14.449  0.6743 -0.9723 -2.1819
  533TMC3    H2 7971   2.062   0.734  14.530 -2.2633  0.6674 -2.3480
  533TMC3    C7 7972   1.882   0.538  14.641  0.0870 -0.1927  0.0659
  533TMC3    C8 7973   2.306   0.636  14.447  0.7354  0.4032  0.1765
  533TMC3    O1 7974   1.816   0.439  14.654  0.6672 -0.3415 -0.1655
  533TMC3    O2 7975   2.308   0.759  14.457 -0.2731  0.1504  0.2658
  534MPD2     C 7976   0.337   1.047   0.718  0.1711  0.3387  0.1911
  534MPD2    C1 7977   0.297   1.119   0.828  0.3964  0.2464 -0.0887
  534MPD2    C2 7978   0.164   1.132   0.873 -0.2440 -0.6611 -0.1486
  534MPD2    C3 7979   0.064   1.075   0.796  0.3656 -0.1973 -0.5216
  534MPD2    C4 7980   0.104   0.992   0.690  0.5703 -0.0913  0.1412
  534MPD2    C5 7981   0.242   0.971   0.660  0.1427 -0.3531 -0.2667
  534MPD2     H 7982   0.141   1.180   0.967  1.4147 -0.6538  0.2512
  534MPD2    H1 7983   0.023   0.944   0.637  1.4620  0.6870 -1.9002
  534MPD2    H2 7984   0.440   1.040   0.687 -0.2930 -1.2718 -0.9678
  534MPD2    H3 7985   0.262   0.901   0.579  0.5261 -1.2073  0.5766
  534MPD2     N 7986   4.666   1.102   0.821  0.5201  0.3109 -0.1236
  534MPD2    H5 7987   4.598   1.064   0.756  2.0610 -1.5678 -0.6552
  534MPD2    N1 7988   0.391   1.195   0.898 -0.8856 -0.1955  0.1263
  534MPD2    H7 7989   0.349   1.246   0.975 -0.6363 -2.6635  1.8749
  535TMC3    C1 7990   4.476   1.189   0.950 -0.3182  0.5376 -0.3875
  535TMC3    C2 7991   4.428   1.212   1.077  0.1383  0.1737 -0.2378
  535TMC3    C3 7992   4.290   1.232   1.085 -0.3793 -0.5846 -1.0239
  535TMC3    C4 7993   4.401   1.198   0.835  0.4431  0.0290 -1.1128
  535TMC3    C5 7994   4.265   1.226   0.848  0.0215  0.8588  0.0739
  535TMC3    C6 7995   4.208   1.234   0.974  0.2552  0.0787  0.1146
  535TMC3     C 7996   4.618   1.158   0.936  0.5772 -0.0520 -0.6995
  535TMC3     O 7997   4.682   1.165   1.038 -0.2680 -0.1417 -0.3743
  535TMC3     H 7998   4.493   1.194   1.162  0.9035 -0.6656 -1.0071
  535TMC3    H1 7999   4.441   1.202   0.735  1.3183 -0.2549 -0.7830
  535TMC3    H2 8000   4.100   1.234   0.989  0.5819  0.8142  2.3612
  535TMC3    C7 8001   4.199   1.257   0.722  0.3295 -0.7528  0.2130
  535TMC3    C8 8002   4.224   1.163   1.190 -0.5950  0.2346 -0.7294
  535TMC3    O1 8003   4.248   1.211   0.619 -0.6093  0.3454 -0.2824
  535TMC3    O2 8004   4.119   1.106   1.168  0.0995  0.3842 -0.6630
  536MPD2     C 8005   3.217   4.505  16.439  0.0905  0.5116 -0.0930
  536MPD2    C1 8006   3.176   4.377  16.409 -0.0799  1.3486  0.0236
  536MPD2    C2 8007   3.156   4.325  16.280  0.2478  0.0902  0.7972
  536MPD2    C3 8008   3.168   4.406  16.172 -0.6287  0.1983 -0.3247
  536MPD2    C4 8009   3.211   4.531  16.200 -1.0075  0.3769  0.0570
  536MPD2    C5 8010   3.237   4.581  16.327 -0.2426 -0.2142 -0.3602
  536MPD2     H 8011   3.137   4.219  16.269  2.8492 -0.4907  1.9797
  536MPD2    H1 8012   3.235   4.602  16.121  0.4521 -1.9790 -1.5900
  536MPD2    H2 8013   3.237   4.537  16.541 -0.7720  2.2515 -0.4702
  536MPD2    H3 8014   3.285   4.678  16.333  1.1854 -0.9867  0.6502
  536MPD2     N 8015   3.139   4.368  16.039 -0.6543 -0.4773  0.6605
  536MPD2    H5 8016   3.154   4.435  15.964 -0.2970  0.7331  1.8110
  536MPD2    N1 8017   3.157   4.295  16.525 -0.2371  0.4588 -0.4778
  536MPD2    H7 8018   3.156   4.341  16.615 -0.4563 -0.8634  0.2017
  537TMC3    C1 8019   3.129   4.093  16.650 -0.2353 -1.1156 -1.2394
  537TMC3    C2 8020   3.216   4.113  16.743 -0.2673 -0.7410  0.2112
  537TMC3    C3 8021   3.229   4.020  16.838  0.5849  0.2808  0.0054
  537TMC3    C4 8022   3.054   3.980  16.641  0.2008  0.0910 -0.0513
  537TMC3    C5 8023   3.062   3.890  16.738  0.6338  0.3611 -0.6756
  537TMC3    C6 8024   3.154   3.907  16.838 -0.7330  0.0824 -0.9219
  537TMC3     C 8025   3.155   4.155  16.528  0.0911  0.2151 -0.7380
  537TMC3     O 8026   3.191   4.078  16.437  0.1612  0.2855 -0.4707
  537TMC3     H 8027   3.263   4.210  16.753 -1.1246 -0.2557 -0.4955
  537TMC3    H1 8028   2.989   3.967  16.555  0.3223 -2.8980  0.3262
  537TMC3    H2 8029   3.177   3.825  16.906 -1.9540  1.5540  1.2580
  537TMC3    C7 8030   2.965   3.783  16.726  0.1921  0.9276  0.1058
  537TMC3    C8 8031   3.330   4.043  16.937 -0.0157 -0.7835 -0.1997
  537TMC3    O1 8032   2.858   3.808  16.671  0.5334 -0.4644 -0.1311
  537TMC3    O2 8033   3.399   4.140  16.913  0.4251 -0.4978  0.1024
  538TMC3    C1 8034   4.097   2.282  11.077 -0.4830  0.4348 -0.4779
  538TMC3    C2 8035   4.221   2.256  11.037 -0.3476 -0.2480  0.6413
  538TMC3    C3 8036   4.254   2.307  10.913 -0.4098  0.0003  0.4649
  538TMC3    C4 8037   4.008   2.359  11.006  0.2572  0.6005  0.1235
  538TMC3    C5 8038   4.056   2.422  10.890 -0.3570 -0.0550  0.0807
  538TMC3    C6 8039   4.177   2.397  10.836  0.5669  0.3193 -0.1753
  538TMC3     C 8040   4.069   2.253  11.217  0.0770  0.1934 -0.5094
  538TMC3     O 8041   3.953   2.242  11.244 -0.1300  0.9326  0.0075
  538TMC3     H 8042   4.287   2.183  11.083 -0.6129 -0.3841  0.8098
  538TMC3    H1 8043   3.914   2.391  11.049 -0.4203 -0.3693 -0.6368
  538TMC3    H2 8044   4.205   2.410  10.732 -2.3892  2.7172 -0.6682
  538TMC3    C7 8045   3.976   2.519  10.821  0.9011  0.2228  0.6323
  538TMC3    C8 8046   4.378   2.269  10.857 -0.0114  0.0260 -0.1170
  538TMC3    O1 8047   3.856   2.502  10.813 -0.1016  0.0404 -0.3216
  538TMC3    O2 8048   4.436   2.166  10.892 -0.6129  0.2051  0.0566
  539MPD2     C 8049   3.667   1.656  11.740 -0.3238  0.3692 -0.8607
  539MPD2    C1 8050   3.685   1.659  11.604 -0.0528 -0.6088  0.5137
  539MPD2    C2 8051   3.702   1.775  11.539  0.0369 -0.1776  1.0518
  539MPD2    C3 8052   3.689   1.899  11.606  0.1084  0.4768  0.3472
  539MPD2    C4 8053   3.673   1.897  11.738  0.1068  0.0228 -0.7031
  539MPD2    C5 8054   3.660   1.776  11.808  0.7909  0.1744  0.1574
  539MPD2     H 8055   3.730   1.769  11.434  0.3521  1.1161  1.0628
  539MPD2    H1 8056   3.665   1.985  11.802  2.9721 -0.2148 -0.0036
  539MPD2    H2 8057   3.663   1.564  11.797  1.0047 -0.1627 -1.6397
  539MPD2    H3 8058   3.654   1.778  11.916 -1.9428  3.3313 -0.0507
  539MPD2     N 8059   3.693   2.022  11.536 -0.2214  0.3862  0.0241
  539MPD2    H5 8060   3.677   2.104  11.593  0.1063  0.7412 -0.3913
  539MPD2    N1 8061   3.679   1.544  11.521  0.3579 -0.4704  1.1350
  539MPD2    H7 8062   3.726   1.554  11.432 -1.8880 -0.7117 -0.0900
  540TMC3    C1 8063   3.665   2.178  11.362  0.3308  0.0238 -0.4402
  540TMC3    C2 8064   3.653   2.209  11.232 -0.9355 -0.2947 -0.1579
  540TMC3    C3 8065   3.635   2.340  11.192  0.1442  0.1210 -0.1300
  540TMC3    C4 8066   3.664   2.275  11.462 -0.2489  0.1234 -0.2313
  540TMC3    C5 8067   3.641   2.406  11.421 -0.1804 -0.0710  0.2620
  540TMC3    C6 8068   3.628   2.441  11.282 -0.0936  0.0897  0.3073
  540TMC3     C 8069   3.710   2.043  11.405 -0.7175  0.1673  0.5271
  540TMC3     O 8070   3.712   1.964  11.310 -0.0659  0.1620 -0.4833
  540TMC3     H 8071   3.659   2.130  11.157  0.4465  0.9433 -1.3539
  540TMC3    H1 8072   3.708   2.254  11.559 -0.7317 -2.3039 -0.5348
  540TMC3    H2 8073   3.599   2.540  11.248  1.0297  1.0935  2.2417
  540TMC3    C7 8074   3.620   2.501  11.529  0.3510 -0.1462 -0.3711
  540TMC3    C8 8075   3.581   2.367  11.063 -0.0531  0.8958  0.4978
  540TMC3    O1 8076   3.616   2.452  11.637 -0.4586  0.8331 -0.0113
  540TMC3    O2 8077   3.612   2.474  11.011 -0.5236  0.0812 -0.1774
  541MPD2     C 8078   3.043   3.198  13.487 -0.0057 -0.2725 -0.2394
  541MPD2    C1 8079   2.924   3.125  13.502  0.7035  0.3823  0.2933
  541MPD2    C2 8080   2.822   3.140  13.404  0.3732 -0.9735 -0.4016
  541MPD2    C3 8081   2.844   3.221  13.290 -0.9177 -0.0581 -0.1410
  541MPD2    C4 8082   2.968   3.277  13.271  0.2371 -0.0779 -0.8555
  541MPD2    C5 8083   3.058   3.269  13.371 -0.7739  0.1128 -0.2857
  541MPD2     H 8084   2.724   3.097  13.415 -0.1094  0.5800  1.3791
  541MPD2    H1 8085   2.983   3.346  13.189  1.2820  0.4104 -0.2556
  541MPD2    H2 8086   3.126   3.207  13.556 -0.7650  3.3580  0.1718
  541MPD2    H3 8087   3.152   3.322  13.358 -1.3346  0.9922 -0.8056
  541MPD2     N 8088   2.751   3.234  13.185  0.0331  0.6260  0.8787
  541MPD2    H5 8089   2.788   3.274  13.100  2.5877  1.9378  2.5962
  541MPD2    N1 8090   2.910   3.042  13.614  0.1198 -0.2860 -0.1959
  541MPD2    H7 8091   2.999   3.016  13.656  0.4157  1.6059  0.3137
  542TMC3    C1 8092   2.556   3.208  13.071 -0.2340  0.1220  0.2306
  542TMC3    C2 8093   2.613   3.147  12.966 -0.3848  0.6902  0.1879
  542TMC3    C3 8094   2.558   3.177  12.843 -0.0585 -0.1405  0.7453
  542TMC3    C4 8095   2.442   3.286  13.073 -0.8880  0.1396 -0.6895
  542TMC3    C5 8096   2.386   3.307  12.949  0.9067 -0.5695  0.7594
  542TMC3    C6 8097   2.439   3.246  12.838  0.3962 -0.1835  0.0213
  542TMC3     C 8098   2.620   3.192  13.192  0.1195  0.2020  0.5284
  542TMC3     O 8099   2.552   3.145  13.284  0.6038 -0.0228  0.6740
  542TMC3     H 8100   2.708   3.095  12.978 -0.2329  0.8092 -0.4510
  542TMC3    H1 8101   2.403   3.320  13.169 -0.3810 -1.6798  0.1715
  542TMC3    H2 8102   2.397   3.274  12.742  0.1340 -3.6143 -0.8481
  542TMC3    C7 8103   2.291   3.415  12.943 -0.8995  0.0048  0.5842
  542TMC3    C8 8104   2.617   3.132  12.719  0.1752 -0.6047  0.0356
  542TMC3    O1 8105   2.298   3.499  13.032 -0.5591  0.1651 -0.2223
  542TMC3    O2 8106   2.541   3.127  12.621 -0.0626 -0.4540 -0.6676
  543TMC3    C1 8107   1.939   0.020  17.248 -0.2170 -0.3415  0.3987
  543TMC3    C2 8108   1.937   4.642  17.317 -0.1146 -0.1936  0.2657
  543TMC3    C3 8109   1.986   4.632  17.450 -0.4140  0.4265 -0.3664
  543TMC3    C4 8110   1.999   0.131  17.305  0.5906  0.0257  0.4248
  543TMC3    C5 8111   2.047   0.124  17.438  0.4411  0.3079 -0.0270
  543TMC3    C6 8112   2.061   4.738  17.503 -0.6466  0.3090 -0.0877
  543TMC3     C 8113   1.960   0.000  17.106 -0.9730 -0.2976  0.3256
  543TMC3     O 8114   2.008   4.634  17.068  0.4402  0.4969  0.2293
  543TMC3     H 8115   1.883   4.557  17.277  1.1914 -0.4241 -0.9718
  543TMC3    H1 8116   2.011   0.221  17.246  1.0198 -0.0643  0.3738
  543TMC3    H2 8117   2.101   4.741  17.604  0.4848  1.8144 -0.5865
  543TMC3    C7 8118   2.115   0.234  17.506  0.0903 -0.2413 -0.0829
  543TMC3    C8 8119   2.018   4.499  17.483  0.7911 -0.3558  0.5338
  543TMC3    O1 8120   2.162   0.218  17.619  0.3449 -0.2658 -0.1931
  543TMC3    O2 8121   2.029   4.423  17.389  0.2029 -0.4363  0.1418
  544MPD2     C 8122   2.299   4.176   0.001 -0.4553 -0.1536  0.2797
  544MPD2    C1 8123   2.250   4.170  17.639 -0.3395 -0.1170  0.1621
  544MPD2    C2 8124   2.170   4.270  17.588  0.2725 -0.6432  0.1315
  544MPD2    C3 8125   2.135   4.376  17.665 -0.3759  0.5602 -0.3465
  544MPD2    C4 8126   2.169   4.382   0.031 -0.1041  0.0165  0.2613
  544MPD2    C5 8127   2.248   4.284   0.081 -0.1300  0.2031 -0.4654
  544MPD2     H 8128   2.146   4.276  17.483  0.3961  0.4356  0.1595
  544MPD2    H1 8129   2.135   4.457   0.101  0.7735  0.3732  0.2995
  544MPD2    H2 8130   2.372   4.107   0.043 -1.0607 -1.3437 -0.6152
  544MPD2    H3 8131   2.263   4.291   0.189  0.5004 -1.7345 -0.4255
  544MPD2     N 8132   2.057   4.491  17.617  0.2301 -0.2596  0.7475
  544MPD2    H5 8133   2.030   4.573  17.670 -0.5130  1.3188 -2.0330
  544MPD2    N1 8134   2.291   4.055  17.563 -0.0681  0.5834 -0.1736
  544MPD2    H7 8135   2.347   3.987  17.611  0.2778  1.8973  1.2957
  545TMC3    C1 8136   2.300   3.898  17.391  0.2263  0.0084 -1.0548
  545TMC3    C2 8137   2.424   3.860  17.434 -0.0942  0.4643  0.8190
  545TMC3    C3 8138   2.471   3.742  17.383  0.3973  0.2215  0.3661
  545TMC3    C4 8139   2.206   3.825  17.320 -0.5443 -0.0013  0.3390
  545TMC3    C5 8140   2.252   3.695  17.298  0.2293 -0.1070  0.1555
  545TMC3    C6 8141   2.382   3.663  17.320  0.1540 -0.3780  0.8489
  545TMC3     C 8142   2.246   4.023  17.438  0.3133  1.7067 -0.0598
  545TMC3     O 8143   2.149   4.076  17.382  0.6734 -0.1765 -0.3374
  545TMC3     H 8144   2.495   3.934  17.470 -0.4627  0.5336  1.3931
  545TMC3    H1 8145   2.105   3.863  17.311 -1.0576 -1.0056  1.7658
  545TMC3    H2 8146   2.423   3.569  17.283  0.4844 -0.3165  1.0550
  545TMC3    C7 8147   2.158   3.592  17.347 -0.1199  0.4079 -0.6029
  545TMC3    C8 8148   2.597   3.696  17.439 -0.7729 -0.0504 -0.4606
  545TMC3    O1 8149   2.046   3.593  17.297 -0.0345  0.1959 -0.1270
  545TMC3    O2 8150   2.621   3.737  17.552 -0.1987  0.1658  0.2675
  546MPD2     C 8151   3.659   4.660  16.749 -0.1698 -0.0480 -0.1788
  546MPD2    C1 8152   3.622   4.661  16.883  0.0336  1.2913  0.8065
  546MPD2    C2 8153   3.662   0.023  16.963  0.1094 -0.0347 -0.1928
  546MPD2    C3 8154   3.728   0.132  16.916  0.4159  1.1918 -0.0297
  546MPD2    C4 8155   3.752   0.136  16.777  0.0079 -0.6040  0.3160
  546MPD2    C5 8156   3.718   0.030  16.697  0.9368 -0.2828  0.3474
  546MPD2     H 8157   3.623   0.023  17.064  0.3146 -0.5308 -0.1114
  546MPD2    H1 8158   3.807   0.222  16.739  0.2642 -0.8828  0.0552
  546MPD2    H2 8159   3.630   4.571  16.694  0.3212 -0.3988  0.1292
  546MPD2    H3 8160   3.747   0.039  16.592 -0.4921 -2.0024 -0.1892
  546MPD2     N 8161   3.774   0.234  16.996  0.3008 -0.2921 -0.3648
  546MPD2    H5 8162   3.821   0.308  16.944  0.2370  0.3448  0.4976
  546MPD2    N1 8163   3.545   4.547  16.933 -0.3567 -0.4258 -1.0705
  546MPD2    H7 8164   3.530   4.474  16.864  0.0830 -0.2808 -1.3135
  547TMC3    C1 8165   3.388   4.444  17.058  0.0197 -0.5626 -0.1540
  547TMC3    C2 8166   3.305   4.423  16.954 -0.1389 -0.0238 -0.0225
  547TMC3    C3 8167   3.196   4.356  16.982 -0.3740 -0.1616  0.8411
  547TMC3    C4 8168   3.378   4.390  17.183  0.1180 -0.6406  0.2897
  547TMC3    C5 8169   3.263   4.311  17.202  0.7469  0.3163 -0.4156
  547TMC3    C6 8170   3.173   4.297  17.103 -0.3147 -0.2523 -0.7213
  547TMC3     C 8171   3.485   4.541  17.055 -0.2777 -0.1197 -0.1629
  547TMC3     O 8172   3.517   4.602  17.162 -0.1192  0.3273  0.5860
  547TMC3     H 8173   3.320   4.468  16.857 -2.3049  0.5563 -0.0903
  547TMC3    H1 8174   3.458   4.387  17.256 -0.6279  0.1958  1.1469
  547TMC3    H2 8175   3.097   4.222  17.118  0.7274 -0.8060  1.7578
  547TMC3    C7 8176   3.208   4.296  17.338  0.1474  0.3618  0.2864
  547TMC3    C8 8177   3.081   4.386  16.902  0.4447 -0.4864  0.1735
  547TMC3    O1 8178   3.247   4.373  17.429  0.1537 -0.6331  0.3058
  547TMC3    O2 8179   3.087   4.433  16.791  0.1518  0.4735  0.1133
  548MPD2     C 8180   2.974   0.434  12.832  0.0740  0.0234  0.4383
  548MPD2    C1 8181   2.931   0.301  12.822  0.0586 -0.8396 -0.8206
  548MPD2    C2 8182   3.017   0.200  12.789 -0.1475  0.3369  0.0490
  548MPD2    C3 8183   3.156   0.223  12.769 -0.5941  0.3884 -0.3530
  548MPD2    C4 8184   3.199   0.348  12.801  0.6821  0.7558  0.8838
  548MPD2    C5 8185   3.112   0.448  12.840  0.4085  0.2731 -0.5030
  548MPD2     H 8186   2.970   0.103  12.772 -1.2975  0.9837 -0.4509
  548MPD2    H1 8187   3.300   0.385  12.793 -0.2930  3.6174  1.7213
  548MPD2    H2 8188   2.909   0.516  12.859 -1.5764 -0.8012 -1.0690
  548MPD2    H3 8189   3.163   0.537  12.874 -0.3407  0.3984  0.2691
  548MPD2     N 8190   3.233   0.108  12.727 -0.1708  0.2187  0.4334
  548MPD2    H5 8191   3.182   0.025  12.698  1.2191 -0.7617  0.8092
  548MPD2    N1 8192   2.795   0.284  12.832  0.5325  0.0009  0.4068
  548MPD2    H7 8193   2.735   0.366  12.826  0.8642  0.3292  1.6258
  549TMC3    C1 8194   2.589   0.176  12.841  0.4481 -0.5491 -0.1170
  549TMC3    C2 8195   2.539   0.246  12.735  0.1667 -0.1309  0.5067
  549TMC3    C3 8196   2.411   0.222  12.703 -0.3261 -0.8168  0.3146
  549TMC3    C4 8197   2.515   0.078  12.906 -0.0316 -0.4601 -0.0704
  549TMC3    C5 8198   2.383   0.063  12.869  1.0497  0.7696  0.4066
  549TMC3    C6 8199   2.323   0.136  12.773  0.5447 -0.3475 -0.6767
  549TMC3     C 8200   2.731   0.165  12.845 -0.1500 -1.1052  0.5559
  549TMC3     O 8201   2.778   0.059  12.883  0.1511 -0.2721  0.0280
  549TMC3     H 8202   2.608   0.291  12.664 -0.0663  0.4639  0.6523
  549TMC3    H1 8203   2.553   0.019  12.989  0.2637 -1.0129 -0.5920
  549TMC3    H2 8204   2.221   0.129  12.739 -0.3777 -0.3491  2.0961
  549TMC3    C7 8205   2.295   4.704  12.942 -0.3937 -0.1704 -0.2184
  549TMC3    C8 8206   2.350   0.302  12.592  0.5130  1.0991 -0.5392
  549TMC3    O1 8207   2.176   4.700  12.921  0.7122 -0.4142 -0.0210
  549TMC3    O2 8208   2.249   0.249  12.547 -0.4155 -0.1668 -0.4278
  550TMC3    C1 8209   1.755   2.923  12.871  0.1052 -0.1706 -0.1493
  550TMC3    C2 8210   1.713   3.027  12.940  0.5543 -0.8062  0.1644
  550TMC3    C3 8211   1.795   3.130  12.945  0.5242  0.0543 -0.0209
  550TMC3    C4 8212   1.865   2.931  12.793  0.2535 -0.7894 -0.1762
  550TMC3    C5 8213   1.942   3.045  12.794  0.0412 -0.4210 -1.2153
  550TMC3    C6 8214   1.917   3.145  12.879  0.7598 -0.5506  0.2271
  550TMC3     C 8215   1.641   2.852  12.807 -1.0494 -0.0402 -0.4042
  550TMC3     O 8216   1.527   2.880  12.838  0.4037 -0.0280 -0.0283
  550TMC3     H 8217   1.619   3.018  12.993 -1.9493  1.8065 -3.8717
  550TMC3    H1 8218   1.908   2.847  12.739  0.7163 -0.5313 -0.2035
  550TMC3    H2 8219   1.986   3.226  12.898 -1.4841  1.4441 -0.1728
  550TMC3    C7 8220   2.075   3.059  12.735  0.6112  0.1321 -0.0684
  550TMC3    C8 8221   1.724   3.258  12.941  0.5554 -0.0689  0.0417
  550TMC3    O1 8222   2.157   3.120  12.794  0.4941  0.1381  0.0816
  550TMC3    O2 8223   1.771   3.339  13.025 -0.2337 -0.0643 -0.2386
  551TMC3    C1 8224   4.272   1.257  13.189 -0.2965  0.8050  0.1533
  551TMC3    C2 8225   4.373   1.255  13.096 -0.1593 -0.0386  0.4186
  551TMC3    C3 8226   4.499   1.235  13.141 -0.5693 -0.1011  0.5365
  551TMC3    C4 8227   4.292   1.247  13.319 -0.4944 -0.3502  0.0744
  551TMC3    C5 8228   4.425   1.250  13.365 -0.3084  0.2142  0.4774
  551TMC3    C6 8229   4.524   1.242  13.273 -0.6127  0.0125 -0.3076
  551TMC3     C 8230   4.141   1.244  13.133  0.1755 -0.3508  0.4562
  551TMC3     O 8231   4.133   1.181  13.029  0.2468  0.0418 -0.6966
  551TMC3     H 8232   4.346   1.254  12.991 -2.0388  1.1591  0.8770
  551TMC3    H1 8233   4.218   1.251  13.398  0.1750 -1.7148  0.7812
  551TMC3    H2 8234   4.626   1.258  13.306 -0.2400 -1.8608 -0.5891
  551TMC3    C7 8235   4.448   1.296  13.498  0.1593 -0.7650 -0.5058
  551TMC3    C8 8236   4.600   1.278  13.052 -0.1646  0.0309 -0.7580
  551TMC3    O1 8237   4.370   1.282  13.592 -0.8355 -0.4942 -0.5560
  551TMC3    O2 8238   4.567   1.346  12.956  0.2377 -0.0431 -0.6872
  552MPD2     C 8239   1.858   2.983  14.002  0.0327  0.6644  0.5586
  552MPD2    C1 8240   1.907   2.869  14.068 -0.0190  0.1193  0.0184
  552MPD2    C2 8241   1.992   2.885  14.172 -0.2178  0.2943  0.5059
  552MPD2    C3 8242   2.024   3.005  14.212  0.5172 -0.2461  0.7462
  552MPD2    C4 8243   1.975   3.117  14.155 -0.1092  0.5160  0.1676
  552MPD2    C5 8244   1.897   3.102  14.045  0.0816 -0.1260  0.4466
  552MPD2     H 8245   2.039   2.805  14.228 -0.3704  1.0534  1.7063
  552MPD2    H1 8246   2.007   3.216  14.186 -0.0842  0.2607  0.9487
  552MPD2    H2 8247   1.795   2.975  13.914 -1.4914  1.6704  1.5721
  552MPD2    H3 8248   1.871   3.194  13.994 -1.8279 -1.2583 -0.6260
  552MPD2     N 8249   2.138   3.004  14.306  0.8634 -0.3532  0.0623
  552MPD2    H5 8250   2.152   2.915  14.354  0.4328 -0.3103  0.2687
  552MPD2    N1 8251   1.885   2.737  14.027  0.3717 -0.1922  0.0542
  552MPD2    H7 8252   1.928   2.659  14.075  0.9968 -1.2725 -2.2241
  553TMC3    C1 8253   1.799   2.564  13.892  0.2457 -0.3878  0.2126
  553TMC3    C2 8254   1.705   2.526  13.788  0.0145  0.7441 -0.5824
  553TMC3    C3 8255   1.697   2.386  13.774  0.8608  0.0874 -0.0712
  553TMC3    C4 8256   1.886   2.476  13.951  0.3941  0.1180 -0.0771
  553TMC3    C5 8257   1.882   2.348  13.911 -0.2616  0.0534 -0.5901
  553TMC3    C6 8258   1.794   2.296  13.820  0.6483  0.0162  1.4906
  553TMC3     C 8259   1.793   2.704  13.926 -0.8767  0.1844  0.5977
  553TMC3     O 8260   1.713   2.779  13.875 -0.3857 -0.7335 -0.2018
  553TMC3     H 8261   1.629   2.593  13.750  0.1636  1.1659 -0.1463
  553TMC3    H1 8262   1.950   2.513  14.030  1.2790 -0.9542 -0.3038
  553TMC3    H2 8263   1.770   2.191  13.808  2.5629 -0.3391  0.8442
  553TMC3    C7 8264   1.972   2.262  13.980 -0.1235 -0.3688  0.1757
  553TMC3    C8 8265   1.685   2.355  13.638  0.2514  0.1361 -0.4954
  553TMC3    O1 8266   2.034   2.300  14.081 -0.1726  0.1078 -0.0266
  553TMC3    O2 8267   1.777   2.293  13.591 -0.0475 -0.0760  0.2245
  554TMC3    C1 8268   3.205   2.413  11.301 -0.0627 -1.0337  0.0871
  554TMC3    C2 8269   3.136   2.335  11.215 -1.1122 -0.5816 -0.1806
  554TMC3    C3 8270   3.137   2.364  11.079  0.1411 -0.7497  0.0605
  554TMC3    C4 8271   3.274   2.520  11.264 -0.2201 -0.2874  0.2407
  554TMC3    C5 8272   3.281   2.555  11.129  0.2827  0.2319  0.3791
  554TMC3    C6 8273   3.200   2.485  11.044 -0.3833 -0.6604 -0.2238
  554TMC3     C 8274   3.206   2.388  11.446 -0.2740  0.5962 -0.0112
  554TMC3     O 8275   3.210   2.488  11.518 -0.0188  0.4101  0.8020
  554TMC3     H 8276   3.068   2.261  11.256  0.9406 -3.0288 -1.2928
  554TMC3    H1 8277   3.328   2.576  11.340  1.6586  0.0490 -1.3211
  554TMC3    H2 8278   3.206   2.510  10.938 -1.1620 -2.0446 -0.6039
  554TMC3    C7 8279   3.334   2.690  11.097  0.7472  0.0615  0.4978
  554TMC3    C8 8280   3.032   2.319  10.994 -0.0769 -0.3523  0.3944
  554TMC3    O1 8281   3.402   2.746  11.185  0.0239  0.1374  0.4179
  554TMC3    O2 8282   2.997   2.401  10.915 -0.7211 -0.5315 -0.1492
  555TMC3    C1 8283   2.425   1.750  14.848 -0.0023 -0.4472  0.3680
  555TMC3    C2 8284   2.391   1.832  14.955 -0.5632  0.4967 -0.7524
  555TMC3    C3 8285   2.423   1.779  15.077 -0.4328  0.8272 -0.2802
  555TMC3    C4 8286   2.469   1.625  14.859  0.5855  0.4246 -0.3671
  555TMC3    C5 8287   2.485   1.575  14.987 -0.5075  0.5265 -0.0493
  555TMC3    C6 8288   2.473   1.656  15.096 -0.4167  0.4392  0.4657
  555TMC3     C 8289   2.377   1.785  14.720 -0.3497 -1.1543  0.7238
  555TMC3     O 8290   2.458   1.751  14.633  0.2063 -0.6572 -0.1831
  555TMC3     H 8291   2.330   1.922  14.950  1.2437  1.8295  1.3562
  555TMC3    H1 8292   2.494   1.560  14.776 -0.1809 -0.9385  0.4769
  555TMC3    H2 8293   2.468   1.605  15.192  2.4149 -0.4996  0.1077
  555TMC3    C7 8294   2.502   1.438  15.010  0.0367 -0.2165  0.3393
  555TMC3    C8 8295   2.411   1.866  15.197  0.1381  0.5291 -0.6914
  555TMC3    O1 8296   2.426   1.365  14.950 -0.2293  0.5974  0.0855
  555TMC3    O2 8297   2.325   1.950  15.208  0.2671  0.1842 -0.7140
  556MPD2     C 8298   0.076   3.424  10.519  0.7541 -0.2022  1.3444
  556MPD2    C1 8299   0.037   3.313  10.588 -0.0696 -0.0935  0.6548
  556MPD2    C2 8300   4.727   3.200  10.519 -0.1110 -0.4859 -0.1054
  556MPD2    C3 8301   4.721   3.215  10.381 -0.4617  0.5848  0.4451
  556MPD2    C4 8302   0.031   3.322  10.304  0.3228 -0.4330  0.4644
  556MPD2    C5 8303   0.075   3.428  10.385  0.0720  0.3242 -0.4100
  556MPD2     H 8304   4.669   3.127  10.574 -0.2477 -1.2642 -1.2872
  556MPD2    H1 8305   0.033   3.322  10.196  0.5829 -0.1575  0.4700
  556MPD2    H2 8306   0.109   3.519  10.562  1.7707  1.6646 -3.6118
  556MPD2    H3 8307   0.110   3.522  10.343  0.6922 -0.0753 -0.8005
  556MPD2     N 8308   4.674   3.096  10.312  0.1012  0.0436  0.3706
  556MPD2    H5 8309   4.642   3.034  10.385  0.9387  1.1114  1.6383
  556MPD2    N1 8310   0.054   3.301  10.724  0.6248  0.6534 -0.0844
  556MPD2    H7 8311   0.025   3.209  10.757  1.6529  0.2815 -0.2356
  557TMC3    C1 8312   4.605   2.931  10.154  0.5803 -0.1495 -0.2228
  557TMC3    C2 8313   4.636   2.876  10.029  0.1110 -0.1595  0.2707
  557TMC3    C3 8314   4.663   2.739  10.028 -0.2637 -0.1498 -0.1283
  557TMC3    C4 8315   4.596   2.855  10.260  0.8068 -0.2950 -0.4456
  557TMC3    C5 8316   4.614   2.721  10.253 -0.7477 -0.0160 -0.0954
  557TMC3    C6 8317   4.657   2.662  10.141 -0.4981 -0.1759  0.4154
  557TMC3     C 8318   4.653   3.069  10.179 -0.0900  0.0174 -0.4655
  557TMC3     O 8319   4.689   3.127  10.079 -0.3501 -0.2016 -0.1051
  557TMC3     H 8320   4.644   2.922   9.931 -1.5528 -0.5323 -0.0421
  557TMC3    H1 8321   4.555   2.893  10.353  0.4817 -0.2940 -0.5891
  557TMC3    H2 8322   4.673   2.555  10.143 -1.9013 -0.3964  0.0871
  557TMC3    C7 8323   4.560   2.642  10.357  0.0194 -0.0288 -0.2155
  557TMC3    C8 8324   4.738   2.687   9.916  0.2192  0.0651  0.5548
  557TMC3    O1 8325   4.450   2.675  10.398  0.0945  0.5159 -0.2437
  557TMC3    O2 8326   0.048   2.765   9.838  0.2320 -0.8142 -0.1599
  558TMC3    C1 8327   1.763   0.669   9.992  1.2073  0.5602 -0.3648
  558TMC3    C2 8328   1.702   0.649  10.113  0.1087  0.3009 -1.1927
  558TMC3    C3 8329   1.570   0.692  10.118  0.5043 -0.1030 -0.5373
  558TMC3    C4 8330   1.703   0.711   9.877 -0.6963 -0.1610 -0.7449
  558TMC3    C5 8331   1.571   0.756   9.891  0.0562  0.0729  0.1529
  558TMC3    C6 8332   1.509   0.738  10.008 -0.4537  0.0380 -0.7770
  558TMC3     C 8333   1.913   0.677  10.000 -0.2677  0.1755 -0.0468
  558TMC3     O 8334   1.957   0.681  10.111 -0.4944 -0.0201  0.8362
  558TMC3     H 8335   1.759   0.613  10.199  0.7909  0.6989 -1.4855
  558TMC3    H1 8336   1.756   0.729   9.784  1.4506 -0.0503  0.5067
  558TMC3    H2 8337   1.411   0.783  10.025 -0.6329 -0.4274 -0.5857
  558TMC3    C7 8338   1.530   0.869   9.809  0.1789 -0.2537 -0.2478
  558TMC3    C8 8339   1.499   0.691  10.249  0.1341 -0.7161 -0.5503
  558TMC3    O1 8340   1.622   0.918   9.743 -0.0898  0.5111 -0.3200
  558TMC3    O2 8341   1.373   0.686  10.235 -0.2971  0.4336  0.2191
  559MPD2     C 8342   2.211   1.805  10.791  0.3829  0.0349  0.0222
  559MPD2    C1 8343   2.144   1.688  10.795 -0.2633 -0.1183  0.3199
  559MPD2    C2 8344   2.211   1.574  10.845  0.1185 -0.0175  0.2512
  559MPD2    C3 8345   2.344   1.581  10.875  0.8967 -0.2684  1.3144
  559MPD2    C4 8346   2.407   1.699  10.868 -0.0640 -0.3227 -0.0246
  559MPD2    C5 8347   2.343   1.808  10.824 -0.9115 -0.4624  0.4708
  559MPD2     H 8348   2.169   1.476  10.858  0.2756 -0.1775 -0.4307
  559MPD2    H1 8349   2.515   1.710  10.882 -0.2824 -0.7602  2.1107
  559MPD2    H2 8350   2.161   1.893  10.751 -1.4785 -1.5599 -1.1820
  559MPD2    H3 8351   2.397   1.898  10.795 -1.1293  0.1342  1.9113
  559MPD2     N 8352   2.415   1.464  10.915 -0.1863 -0.4279 -0.2212
  559MPD2    H5 8353   2.370   1.372  10.916 -0.2296 -0.4093 -0.7653
  559MPD2    N1 8354   2.004   1.699  10.782  0.3895  0.1131  0.6536
  559MPD2    H7 8355   1.971   1.794  10.775  3.2664  1.1886  1.5982
  560TMC3    C1 8356   2.591   1.337  11.011 -0.3132  0.5825  0.0498
  560TMC3    C2 8357   2.502   1.237  11.046 -0.0820  0.1876 -0.1160
  560TMC3    C3 8358   2.560   1.123  11.104  0.1549  0.1321 -0.3722
  560TMC3    C4 8359   2.723   1.340  11.049 -0.2935  0.1186  0.7699
  560TMC3    C5 8360   2.770   1.218  11.097 -0.1980 -0.1187  0.2635
  560TMC3    C6 8361   2.693   1.113  11.135  0.4540 -0.1965  0.4441
  560TMC3     C 8362   2.545   1.460  10.946 -0.2980  0.0452 -1.0024
  560TMC3     O 8363   2.638   1.537  10.919  0.4305  0.5650 -0.0264
  560TMC3     H 8364   2.394   1.242  11.034 -0.0011 -0.3469 -0.9957
  560TMC3    H1 8365   2.784   1.430  11.055  0.3234 -0.1734 -1.3858
  560TMC3    H2 8366   2.737   1.020  11.170 -1.8625 -1.0606  1.0660
  560TMC3    C7 8367   2.899   1.225  11.169  0.4655  0.7606  0.6719
  560TMC3    C8 8368   2.479   1.008  11.134 -0.2796  0.9807  0.0271
  560TMC3    O1 8369   2.911   1.150  11.268 -0.6457  0.0624  0.2854
  560TMC3    O2 8370   2.376   0.990  11.067  0.7296  0.5701 -0.1004
  561TMC3    C1 8371   0.627   0.839  11.223  0.5242  0.4710  0.0470
  561TMC3    C2 8372   0.592   0.775  11.339  0.4886 -0.0234 -0.0288
  561TMC3    C3 8373   0.523   0.840  11.436  0.0607  0.0458  0.1289
  561TMC3    C4 8374   0.573   0.962  11.199 -0.5087 -0.4123  0.4363
  561TMC3    C5 8375   0.495   1.023  11.291  0.4863 -0.0399  0.5064
  561TMC3    C6 8376   0.473   0.968  11.414 -0.9840 -0.5206 -0.0398
  561TMC3     C 8377   0.692   0.763  11.120 -0.1259  0.5602  0.5368
  561TMC3     O 8378   0.675   0.642  11.129  0.6860  0.4278 -0.2425
  561TMC3     H 8379   0.616   0.672  11.362 -0.9941 -1.0539 -3.1681
  561TMC3    H1 8380   0.595   1.002  11.100  0.6381  0.6204  1.1061
  561TMC3    H2 8381   0.424   1.025  11.492 -2.7845 -1.5148 -0.4338
  561TMC3    C7 8382   0.450   1.156  11.271 -0.2389 -0.5584 -0.3508
  561TMC3    C8 8383   0.501   0.768  11.561 -0.3754 -0.4090 -0.3152
  561TMC3    O1 8384   0.383   1.202  11.361 -0.6349  0.1396  0.2971
  561TMC3    O2 8385   0.584   0.689  11.600 -0.0608 -0.1599 -0.0251
  562TMC3    C1 8386   2.367   2.051  16.368  0.3689 -0.2170  0.0475
  562TMC3    C2 8387   2.426   2.127  16.275  0.5053 -0.4836 -0.2762
  562TMC3    C3 8388   2.363   2.141  16.157 -0.6826  0.0725 -0.0137
  562TMC3    C4 8389   2.249   1.991  16.355  0.2905 -0.6043 -0.4161
  562TMC3    C5 8390   2.182   2.012  16.238  0.0412 -0.3872  0.4716
  562TMC3    C6 8391   2.234   2.093  16.139  0.0099 -0.0329 -0.0134
  562TMC3     C 8392   2.423   2.040  16.501 -0.4925 -1.1326  0.1552
  562TMC3     O 8393   2.345   2.036  16.595 -0.4348 -0.0761  0.8667
  562TMC3     H 8394   2.522   2.173  16.297  0.0091  0.2702  0.3152
  562TMC3    H1 8395   2.205   1.925  16.429  0.6667 -1.4884 -0.9771
  562TMC3    H2 8396   2.177   2.107  16.048  0.3717  0.5368 -0.1515
  562TMC3    C7 8397   2.088   1.906  16.204  0.6472 -0.1121  0.8780
  562TMC3    C8 8398   2.420   2.221  16.051 -0.2261  0.0610  0.5398
  562TMC3    O1 8399   1.972   1.943  16.175  0.1700  0.0404 -0.3432
  562TMC3    O2 8400   2.522   2.290  16.075 -1.0309 -0.4450 -0.0108
  563MPD2     C 8401   0.359   3.743  15.934 -0.0822  0.1054  0.9427
  563MPD2    C1 8402   0.348   3.700  16.063 -0.2157 -0.5538  0.3100
  563MPD2    C2 8403   0.433   3.606  16.120 -0.2541 -0.6051 -0.5237
  563MPD2    C3 8404   0.527   3.544  16.045  0.6014 -0.1048 -0.2937
  563MPD2    C4 8405   0.536   3.574  15.910 -0.2052 -1.2040 -0.0537
  563MPD2    C5 8406   0.456   3.670  15.857  0.4305 -1.1243 -0.1269
  563MPD2     H 8407   0.411   3.578  16.222 -4.6850 -1.2918 -1.6928
  563MPD2    H1 8408   0.618   3.545  15.845 -0.0286  0.5439 -0.6034
  563MPD2    H2 8409   0.285   3.808  15.889  0.3050 -0.9102 -1.1723
  563MPD2    H3 8410   0.464   3.697  15.753  3.3026  1.8187  0.8617
  563MPD2     N 8411   0.615   3.466  16.117 -0.4519 -0.2338  0.5526
  563MPD2    H5 8412   0.584   3.469  16.214 -2.2739 -1.8869  0.0060
  563MPD2    N1 8413   0.243   3.741  16.149  0.0038 -0.3976  0.1349
  563MPD2    H7 8414   0.238   3.708  16.245  2.1858  1.3058  0.8377
  564TMC3    C1 8415   0.043   3.810  16.229  0.4510  0.5340 -0.1768
  564TMC3    C2 8416   4.654   3.833  16.200  0.6984 -0.3399 -0.7646
  564TMC3    C3 8417   4.559   3.795  16.289  0.1996 -0.0906 -0.2851
  564TMC3    C4 8418   0.077   3.765  16.356  0.1705 -0.2628 -0.1955
  564TMC3    C5 8419   4.723   3.736  16.451 -0.0411 -0.0247  0.1213
  564TMC3    C6 8420   4.593   3.752  16.417 -0.2291  0.4657 -0.5807
  564TMC3     C 8421   0.136   3.815  16.116 -0.3562 -0.2163 -0.4816
  564TMC3     O 8422   0.106   3.867  16.012 -0.6291 -0.3590  0.5689
  564TMC3     H 8423   4.630   3.849  16.096  0.3298  0.0933 -0.6107
  564TMC3    H1 8424   0.181   3.759  16.387 -0.0415 -1.5192  0.2877
  564TMC3    H2 8425   4.520   3.726  16.493  0.6714  0.5378  0.3173
  564TMC3    C7 8426   0.013   3.617  16.521 -0.1346 -0.0409  1.3384
  564TMC3    C8 8427   4.441   3.719  16.244 -1.2224  0.0156 -0.2899
  564TMC3    O1 8428   0.127   3.601  16.556 -0.4539 -0.2460 -0.1176
  564TMC3    O2 8429   4.412   3.635  16.325  0.2111  0.3799 -0.2196
  565TMC3    C1 8430   4.630   4.683  10.197 -0.0766 -1.1014  0.6853
  565TMC3    C2 8431   4.605   4.663  10.331 -0.2113 -0.2759  0.1920
  565TMC3    C3 8432   4.477   4.623  10.369 -0.2271  0.3637  1.3652
  565TMC3    C4 8433   4.537   4.660  10.102 -0.5874 -0.2174  0.4060
  565TMC3    C5 8434   4.407   4.620  10.148  0.0509  0.0255 -0.4507
  565TMC3    C6 8435   4.382   4.602  10.281  0.0603 -0.0302 -0.4785
  565TMC3     C 8436   0.018   4.727  10.157  0.1289  0.4278  0.3610
  565TMC3     O 8437   0.054   4.701  10.040 -0.5662 -0.8055  0.1892
  565TMC3     H 8438   4.685   4.647  10.402 -1.1150 -0.3278  1.1939
  565TMC3    H1 8439   4.555   4.686   9.999 -0.9151  2.4354  1.0113
  565TMC3    H2 8440   4.279   4.600  10.317  0.5830 -1.2797  0.9397
  565TMC3    C7 8441   4.306   4.639  10.052 -0.1591 -0.1383  0.2664
  565TMC3    C8 8442   4.448   4.603  10.508 -0.2337  0.0523 -0.0892
  565TMC3    O1 8443   4.346   4.682   9.943 -0.3232  0.7180  0.4175
  565TMC3    O2 8444   4.335   4.555  10.529 -0.4268  0.0348 -0.6460
  566MPD2     C 8445   1.713   1.329  14.180  0.3262 -0.2779 -0.4441
  566MPD2    C1 8446   1.736   1.415  14.075  0.3905 -0.3184  0.1699
  566MPD2    C2 8447   1.626   1.478  14.014  0.1920 -0.7165 -0.6945
  566MPD2    C3 8448   1.498   1.440  14.049 -0.1652  0.1109  0.1194
  566MPD2    C4 8449   1.481   1.360  14.162 -0.2023 -0.6494  0.2434
  566MPD2    C5 8450   1.589   1.311  14.229  0.4784 -0.0382 -0.2315
  566MPD2     H 8451   1.641   1.547  13.933  0.1288 -1.6380 -1.4924
  566MPD2    H1 8452   1.385   1.329  14.200 -0.8028 -0.7119 -1.3336
  566MPD2    H2 8453   1.794   1.272  14.223  1.2116  0.4381 -1.1725
  566MPD2    H3 8454   1.570   1.251  14.317 -2.2248  2.9947  1.2612
  566MPD2     N 8455   1.378   1.485  13.990 -0.3458 -0.7031 -0.3252
  566MPD2    H5 8456   1.298   1.487  14.053  0.3646 -1.0238  0.5843
  566MPD2    N1 8457   1.871   1.440  14.039  0.0611  0.0335 -0.1283
  566MPD2    H7 8458   1.947   1.396  14.089  0.5294  1.1870  0.1860
  567TMC3    C1 8459   2.045   1.513  13.902 -0.4761 -0.0363 -0.1095
  567TMC3    C2 8460   2.075   1.477  13.769 -0.2875  0.6651  0.8296
  567TMC3    C3 8461   2.208   1.467  13.743 -0.2466 -0.2775 -0.3069
  567TMC3    C4 8462   2.140   1.520  14.006 -0.7009 -0.6653  0.3991
  567TMC3    C5 8463   2.272   1.494  13.969 -0.5277 -0.2220  0.2516
  567TMC3    C6 8464   2.306   1.457  13.844  0.2650  0.7382 -0.6019
  567TMC3     C 8465   1.904   1.515  13.933 -0.4574 -0.0500  0.0801
  567TMC3     O 8466   1.830   1.559  13.848  0.3464 -0.3817 -0.0804
  567TMC3     H 8467   1.990   1.469  13.703 -0.2800 -0.6116  0.9723
  567TMC3    H1 8468   2.113   1.543  14.108 -1.3805 -1.1724  0.3289
  567TMC3    H2 8469   2.412   1.448  13.823  0.0729 -3.5439  0.2559
  567TMC3    C7 8470   2.368   1.462  14.070  1.0546  0.9048  0.2562
  567TMC3    C8 8471   2.250   1.493  13.607  0.0319  0.0991  0.2028
  567TMC3    O1 8472   2.487   1.472  14.044  0.3173 -0.2323  0.5415
  567TMC3    O2 8473   2.160   1.532  13.534 -0.2179  0.1772 -0.0282
  568MPD2     C 8474   4.312   2.245  16.237 -0.1329  0.3473  0.4911
  568MPD2    C1 8475   4.270   2.307  16.352 -0.1001  0.3303 -0.5401
  568MPD2    C2 8476   4.231   2.441  16.343 -0.1122 -0.7537  0.1370
  568MPD2    C3 8477   4.241   2.510  16.216 -0.6625  0.7971  0.3243
  568MPD2    C4 8478   4.278   2.443  16.101  0.2944  0.4807  0.7848
  568MPD2    C5 8479   4.309   2.310  16.115  0.2264  0.5468  0.1847
  568MPD2     H 8480   4.189   2.491  16.430 -0.7951  2.9251 -2.3228
  568MPD2    H1 8481   4.293   2.490  16.005 -0.3327  1.0386  0.9647
  568MPD2    H2 8482   4.348   2.143  16.246  1.0983  0.6629 -0.9059
  568MPD2    H3 8483   4.332   2.251  16.027 -0.1489 -1.2151  1.2500
  568MPD2     N 8484   4.212   2.654  16.213  0.2760  0.8376 -0.1666
  568MPD2    H5 8485   4.188   2.692  16.303  1.2454  0.3556  0.3019
  568MPD2    N1 8486   4.270   2.237  16.477  0.7430  0.1260 -0.3399
  568MPD2    H7 8487   4.297   2.139  16.472 -3.1096 -1.0232  1.0812
  569TMC3    C1 8488   4.181   2.881  16.116  0.3671 -0.1461  0.0342
  569TMC3    C2 8489   4.103   2.912  16.223  0.0540 -0.3837 -0.5912
  569TMC3    C3 8490   4.037   3.036  16.223  0.2736  0.2263  0.1509
  569TMC3    C4 8491   4.204   2.977  16.020 -0.1262 -0.1933  0.4605
  569TMC3    C5 8492   4.135   3.092  16.019  0.5596  0.1087  0.2642
  569TMC3    C6 8493   4.040   3.129  16.120 -0.5843 -0.1080  0.0720
  569TMC3     C 8494   4.234   2.742  16.099  0.2030 -0.0951  0.1354
  569TMC3     O 8495   4.289   2.709  15.996 -0.1937 -0.0317 -0.2953
  569TMC3     H 8496   4.084   2.840  16.302 -2.1629 -0.5885 -1.3139
  569TMC3    H1 8497   4.274   2.959  15.939 -3.1834  0.5966 -2.3382
  569TMC3    H2 8498   3.976   3.216  16.109 -2.4921 -1.5593 -0.2777
  569TMC3    C7 8499   4.191   3.206  15.942  0.7145 -0.3797  0.3028
  569TMC3    C8 8500   3.984   3.093  16.342  1.2156  0.0628 -0.1738
  569TMC3    O1 8501   4.238   3.181  15.828 -0.0720 -0.4561 -0.1286
  569TMC3    O2 8502   3.902   3.188  16.331  0.3867  0.0709 -0.7079
  570TMC3    C1 8503   3.302   0.794  16.069 -0.5783 -0.5733 -0.1974
  570TMC3    C2 8504   3.372   0.843  15.959  0.3790  0.4419 -0.0468
  570TMC3    C3 8505   3.452   0.954  15.981 -0.0813 -0.4356  0.0406
  570TMC3    C4 8506   3.306   0.856  16.191  0.8331 -0.2629  0.6571
  570TMC3    C5 8507   3.382   0.969  16.209  0.4628 -0.0715  0.1332
  570TMC3    C6 8508   3.451   1.017  16.101 -0.3027  0.2954 -0.2346
  570TMC3     C 8509   3.237   0.666  16.060 -0.0208  0.4625 -0.4215
  570TMC3     O 8510   3.189   0.637  15.950  0.3942  0.2213 -0.3088
  570TMC3     H 8511   3.362   0.795  15.862  2.3010 -0.7469  0.3303
  570TMC3    H1 8512   3.246   0.818  16.272 -1.0907  1.6806  0.1531
  570TMC3    H2 8513   3.509   1.108  16.114  0.7813 -0.6090  1.2559
  570TMC3    C7 8514   3.385   1.041  16.338 -0.4376 -0.1337  0.0827
  570TMC3    C8 8515   3.529   1.018  15.882  0.1053  0.2288 -0.0248
  570TMC3    O1 8516   3.338   0.986  16.440  0.0074 -0.3357 -0.8042
  570TMC3    O2 8517   3.565   1.134  15.894  0.2473 -0.5432 -0.6809
  571MPD2     C 8518   2.067   2.843  17.700 -0.1181  1.0245 -0.0721
  571MPD2    C1 8519   2.078   2.737   0.025 -0.4506  0.2977 -0.1895
  571MPD2    C2 8520   2.029   2.766   0.152 -0.2175  0.0481  0.2732
  571MPD2    C3 8521   1.971   2.888   0.185  0.1166  0.4957  0.3176
  571MPD2    C4 8522   1.959   2.984   0.081  1.0878  0.1844  0.6455
  571MPD2    C5 8523   2.010   2.957  17.728  0.2931 -0.2289  0.4069
  571MPD2     H 8524   2.054   2.705   0.238  0.3498  0.8509  0.6818
  571MPD2    H1 8525   1.908   3.077   0.106 -0.0205 -0.4114  0.5991
  571MPD2    H2 8526   2.104   2.826  17.599 -1.0204 -3.2536  0.3115
  571MPD2    H3 8527   2.009   3.040  17.658 -0.1860 -0.7970 -0.2652
  571MPD2     N 8528   1.938   2.932   0.317  0.6359  0.1099  0.1845
  571MPD2    H5 8529   1.893   3.023   0.319  0.3762 -0.0102 -0.1349
  571MPD2    N1 8530   2.160   2.632  17.758 -0.0737  0.1319 -0.4088
  571MPD2    H7 8531   2.199   2.645  17.665 -0.6837  2.8701 -0.2956
  572TMC3    C1 8532   1.889   2.937   0.536 -0.0830  0.2721  0.7329
  572TMC3    C2 8533   1.801   2.869   0.617  0.0556 -0.0107 -0.1917
  572TMC3    C3 8534   1.688   2.932   0.667  0.1782 -0.4520 -0.5883
  572TMC3    C4 8535   1.880   3.072   0.524 -0.3569  0.3530  0.3472
  572TMC3    C5 8536   1.771   3.137   0.570  0.4127 -0.0996 -0.2375
  572TMC3    C6 8537   1.670   3.063   0.635 -0.5636  0.1055  0.5870
  572TMC3     C 8538   1.933   2.858   0.432  0.5401 -0.1193  0.0982
  572TMC3     O 8539   1.951   2.736   0.443 -0.3575  0.4903 -0.0327
  572TMC3     H 8540   1.797   2.762   0.601 -2.5294 -0.0408  0.7454
  572TMC3    H1 8541   1.966   3.130   0.491 -0.4935  0.0037 -0.6226
  572TMC3    H2 8542   1.572   3.110   0.642 -1.9569 -2.2662 -2.8039
  572TMC3    C7 8543   1.763   3.282   0.555  0.1488  0.1145  0.5191
  572TMC3    C8 8544   1.600   2.853   0.748  0.0694 -0.3521  0.7694
  572TMC3    O1 8545   1.863   3.339   0.510 -0.2540  0.0588 -0.4593
  572TMC3    O2 8546   1.606   2.730   0.741  0.1693 -0.1248  0.4040
  573MPD2     C 8547   2.782   3.089   0.953  0.7128 -0.6220  0.4384
  573MPD2    C1 8548   2.772   3.200   0.874 -0.2410 -0.6399 -0.2390
  573MPD2    C2 8549   2.687   3.190   0.767 -0.2485 -0.1681 -0.3220
  573MPD2    C3 8550   2.608   3.077   0.741  0.7659  0.3243 -0.5419
  573MPD2    C4 8551   2.622   2.967   0.825  0.3925 -0.2707 -0.2988
  573MPD2    C5 8552   2.710   2.977   0.932  0.2287 -0.3619  0.3453
  573MPD2     H 8553   2.676   3.277   0.703 -2.2078 -0.0686  0.1713
  573MPD2    H1 8554   2.560   2.878   0.818  0.1382 -0.2762  2.1495
  573MPD2    H2 8555   2.855   3.092   1.034  1.3306 -1.6175 -0.0735
  573MPD2    H3 8556   2.724   2.892   0.998 -0.1326 -1.0869 -0.5204
  573MPD2     N 8557   2.519   3.058   0.633  0.0117  0.2253 -0.2448
  573MPD2    H5 8558   2.477   2.966   0.627  0.2751  0.0398  0.6468
  573MPD2    N1 8559   2.848   3.311   0.909 -0.1847 -0.7338 -0.0460
  573MPD2    H7 8560   2.899   3.293   0.995 -1.6503 -3.6001  0.2199
  574TMC3    C1 8561   2.390   3.094   0.445 -0.1300  0.3136  0.2533
  574TMC3    C2 8562   2.306   3.185   0.390  0.7435 -0.2246 -0.0903
  574TMC3    C3 8563   2.275   3.152   0.261 -0.5259  0.4159  0.0779
  574TMC3    C4 8564   2.443   2.986   0.382  0.6081 -0.2088  0.3866
  574TMC3    C5 8565   2.395   2.961   0.257 -1.1720 -0.4318 -0.7615
  574TMC3    C6 8566   2.310   3.041   0.191  1.1429  0.2598 -0.6010
  574TMC3     C 8567   2.468   3.154   0.551  0.5141 -0.5464  0.5384
  574TMC3     O 8568   2.482   3.274   0.557 -0.3747  0.1158 -0.0658
  574TMC3     H 8569   2.262   3.270   0.440  2.6468 -0.5454  2.1436
  574TMC3    H1 8570   2.515   2.923   0.431  0.0982 -0.6694  0.5475
  574TMC3    H2 8571   2.273   3.018   0.092 -1.5210 -2.4695  0.9726
  574TMC3    C7 8572   2.459   2.850   0.184  0.5198 -0.1410  0.2425
  574TMC3    C8 8573   2.172   3.227   0.198 -0.4455  0.5355  0.1644
  574TMC3    O1 8574   2.463   2.855   0.061 -0.3423 -0.4391 -0.2032
  574TMC3    O2 8575   2.067   3.249   0.264 -0.1340 -0.5737  0.5512
  575TMC3    C1 8576   4.230   4.039  11.162 -0.3596 -0.0700  0.0672
  575TMC3    C2 8577   4.229   3.910  11.108 -0.3507 -0.7191 -0.1964
  575TMC3    C3 8578   4.251   3.904  10.965  0.4756  0.2583 -0.4224
  575TMC3    C4 8579   4.252   4.149  11.087 -0.3953  0.1449  0.2051
  575TMC3    C5 8580   4.271   4.137  10.955  0.1409 -0.4294  0.0657
  575TMC3    C6 8581   4.254   4.019  10.891 -0.8422 -0.6080 -0.3637
  575TMC3     C 8582   4.254   4.051  11.303 -0.1217 -0.4983  0.0369
  575TMC3     O 8583   4.313   3.966  11.362 -0.3058  0.1661  0.6009
  575TMC3     H 8584   4.256   3.831  11.177  1.9981  1.2694  1.1530
  575TMC3    H1 8585   4.250   4.243  11.141  0.9691 -0.5748  1.5168
  575TMC3    H2 8586   4.262   4.027  10.783 -1.0994 -3.5592 -0.6026
  575TMC3    C7 8587   4.307   4.255  10.874  0.0618 -0.4235 -0.1958
  575TMC3    C8 8588   4.297   3.785  10.912  0.4474  0.1783  0.1459
  575TMC3    O1 8589   4.285   4.258  10.753 -0.2613 -0.1930  0.2830
  575TMC3    O2 8590   4.346   3.703  10.987  0.4867  0.5291 -0.6160
  576MPD2     C 8591   4.117   1.077  12.309 -1.0219  0.0093  0.2440
  576MPD2    C1 8592   4.253   1.086  12.290 -0.8685 -0.0527 -0.0306
  576MPD2    C2 8593   4.334   1.163  12.371 -0.0551  0.3558 -0.2324
  576MPD2    C3 8594   4.271   1.264  12.453 -0.2346 -0.0568  0.4226
  576MPD2    C4 8595   4.134   1.263  12.459  0.0526  0.1627 -0.1757
  576MPD2    C5 8596   4.058   1.175  12.385 -0.4240  0.3147  0.3482
  576MPD2     H 8597   4.442   1.150  12.365  0.0519  1.9233 -1.5738
  576MPD2    H1 8598   4.089   1.345  12.513 -0.5533 -0.3810  0.1458
  576MPD2    H2 8599   4.057   0.999  12.265 -2.3899  1.9494 -1.3392
  576MPD2    H3 8600   3.950   1.179  12.393 -0.5257 -1.3540 -0.0365
  576MPD2     N 8601   4.339   1.361  12.520 -0.4705 -0.3659  0.2279
  576MPD2    H5 8602   4.437   1.378  12.497 -0.7092  0.3918 -0.2254
  576MPD2    N1 8603   4.328   0.999  12.205  0.5076 -0.1697  0.1606
  576MPD2    H7 8604   4.428   0.994  12.216  0.5195 -2.4584 -1.0494
  577TMC3    C1 8605   4.346   0.838  12.020 -0.2638  0.1205 -0.3961
  577TMC3    C2 8606   4.465   0.789  12.063 -0.0742 -0.0693  0.4688
  577TMC3    C3 8607   4.538   0.699  11.987 -0.5286 -0.7475  0.4076
  577TMC3    C4 8608   4.293   0.785  11.907  0.2284  0.3594  1.1047
  577TMC3    C5 8609   4.367   0.701  11.827 -0.0339 -0.1440 -0.3264
  577TMC3    C6 8610   4.494   0.663  11.859 -0.6904  0.0446 -0.7392
  577TMC3     C 8611   4.266   0.923  12.106  0.3273  0.1084 -0.4818
  577TMC3     O 8612   4.154   0.924  12.058  0.2935 -0.0809 -0.2016
  577TMC3     H 8613   4.508   0.821  12.157  0.0394 -0.6591  0.6178
  577TMC3    H1 8614   4.190   0.814  11.890 -0.1937 -1.1643  1.0594
  577TMC3    H2 8615   4.544   0.595  11.791 -2.1309 -2.3189  0.5514
  577TMC3    C7 8616   4.308   0.649  11.703  0.3532  0.0104  0.8412
  577TMC3    C8 8617   4.675   0.680  12.018  0.2159  0.2652 -0.3354
  577TMC3    O1 8618   4.385   0.582  11.634  0.3672  0.9663 -1.0712
  577TMC3    O2 8619   4.705   0.666  12.133 -0.2263 -0.5774 -0.1462
  578MPD2     C 8620   3.031   0.734   2.047  0.1566  0.3561  0.5597
  578MPD2    C1 8621   3.046   0.717   1.911  0.4193 -0.2837  0.1878
  578MPD2    C2 8622   3.178   0.700   1.859  0.0355  0.7664  0.3596
  578MPD2    C3 8623   3.284   0.688   1.940  0.4614  0.2425  0.1279
  578MPD2    C4 8624   3.269   0.714   2.079  0.5976  0.0102 -0.6832
  578MPD2    C5 8625   3.139   0.732   2.134  0.6923 -0.0589  0.6517
  578MPD2     H 8626   3.187   0.690   1.751 -0.6492 -2.2771  0.5817
  578MPD2    H1 8627   3.357   0.705   2.141 -0.7209 -0.3005  1.1274
  578MPD2    H2 8628   2.942   0.751   2.107  0.3998  0.4132  0.9029
  578MPD2    H3 8629   3.111   0.737   2.238 -3.0404  1.0844 -0.3868
  578MPD2     N 8630   3.414   0.676   1.879  0.0162  0.2264 -0.0251
  578MPD2    H5 8631   3.414   0.666   1.778  1.8988  0.6710 -0.0745
  578MPD2    N1 8632   2.930   0.735   1.831  0.1776  0.0680 -0.1761
  578MPD2    H7 8633   2.847   0.762   1.883 -1.4427 -0.9739 -2.2503
  579TMC3    C1 8634   3.631   0.691   1.826  0.3930 -0.3594  0.0824
  579TMC3    C2 8635   3.726   0.792   1.821 -0.1431  0.9320 -0.3028
  579TMC3    C3 8636   3.808   0.804   1.716  0.6333 -0.0206  0.3552
  579TMC3    C4 8637   3.601   0.610   1.717 -0.3641 -0.6876 -0.2835
  579TMC3    C5 8638   3.686   0.631   1.610  0.6924 -0.0346 -0.9160
  579TMC3    C6 8639   3.787   0.727   1.605 -0.1572 -0.0566  0.3972
  579TMC3     C 8640   3.533   0.698   1.932  0.4701 -0.2600 -0.5667
  579TMC3     O 8641   3.564   0.740   2.044  0.1161 -0.4219  0.0789
  579TMC3     H 8642   3.739   0.852   1.910 -1.1151  1.3384 -0.4314
  579TMC3    H1 8643   3.540   0.521   1.720  0.7674 -1.4362  0.6623
  579TMC3    H2 8644   3.861   0.735   1.525 -1.8775 -0.2491 -1.2055
  579TMC3    C7 8645   3.718   0.519   1.532 -0.0056 -0.1766 -0.2672
  579TMC3    C8 8646   3.919   0.907   1.727 -0.1690 -0.4443 -1.1498
  579TMC3    O1 8647   3.836   0.520   1.500 -0.2768 -0.0587  0.4134
  579TMC3    O2 8648   3.909   0.978   1.826 -0.7006  0.0694  0.4647
  580TMC3    C1 8649   2.164   4.320  12.405  0.6512 -0.0965  0.3796
  580TMC3    C2 8650   2.158   4.288  12.269  0.4675 -0.4767 -0.5505
  580TMC3    C3 8651   2.170   4.156  12.234  0.3421  0.2709  0.0878
  580TMC3    C4 8652   2.185   4.230  12.502 -0.2128  0.2058  0.4711
  580TMC3    C5 8653   2.185   4.097  12.460  0.2410 -0.0403 -0.6554
  580TMC3    C6 8654   2.182   4.060  12.328 -0.3883  0.2054  0.1691
  580TMC3     C 8655   2.221   4.450  12.424  0.7427  0.3489  0.3236
  580TMC3     O 8656   2.179   4.542  12.355  0.0367 -0.1577  0.4348
  580TMC3     H 8657   2.117   4.369  12.209  0.5435  0.2970  0.4322
  580TMC3    H1 8658   2.199   4.265  12.604 -1.0358  0.2580  0.5667
  580TMC3    H2 8659   2.200   3.958  12.296 -1.1625  0.1716 -0.1836
  580TMC3    C7 8660   2.290   4.029  12.526 -0.2759 -0.0821 -0.4708
  580TMC3    C8 8661   2.183   4.124  12.097  0.4181  0.4544  0.5988
  580TMC3    O1 8662   2.380   4.110  12.551 -0.4598 -0.1569 -0.2094
  580TMC3    O2 8663   2.177   4.006  12.071 -0.2645  0.0216 -0.1924
  581MPD2     C 8664   0.841   4.435  14.779 -0.0998  0.6189  0.0911
  581MPD2    C1 8665   0.724   4.401  14.834  0.0041  0.3264  0.5964
  581MPD2    C2 8666   0.609   4.481  14.800 -0.3021 -0.5015  0.9694
  581MPD2    C3 8667   0.613   4.587  14.722  0.0005 -0.1868 -0.4137
  581MPD2    C4 8668   0.736   4.622  14.674  0.0293 -0.0458  0.1332
  581MPD2    C5 8669   0.849   4.545  14.697 -0.1191 -0.2757 -0.4457
  581MPD2     H 8670   0.511   4.445  14.828 -1.1788  0.9904 -0.1783
  581MPD2    H1 8671   0.764   4.696  14.599 -3.2734  0.2011 -0.8951
  581MPD2    H2 8672   0.926   4.375  14.808 -0.2495 -0.7263 -2.2171
  581MPD2    H3 8673   0.939   4.568  14.642 -1.0146  0.9873 -1.3844
  581MPD2     N 8674   0.487   4.656  14.706 -0.0415  0.4241  0.0879
  581MPD2    H5 8675   0.408   4.607  14.746 -1.6469  1.0544 -2.3533
  581MPD2    N1 8676   0.712   4.279  14.901  0.1711 -0.2204  0.3965
  581MPD2    H7 8677   0.793   4.219  14.912 -0.2321 -1.0447 -1.1687
  582TMC3    C1 8678   0.614   4.112  15.021  0.3096 -0.3023  0.4458
  582TMC3    C2 8679   0.727   4.102  15.100 -0.1412 -0.5516  0.6412
  582TMC3    C3 8680   0.709   4.050  15.220  0.8880  0.1208  0.6242
  582TMC3    C4 8681   0.496   4.065  15.064  0.2771  0.5563 -0.0348
  582TMC3    C5 8682   0.486   4.017  15.195  0.4423  0.3539  0.3980
  582TMC3    C6 8683   0.594   4.011  15.275 -0.2108 -0.0201 -0.4337
  582TMC3     C 8684   0.595   4.239  14.964 -0.3510 -0.8826 -0.3028
  582TMC3     O 8685   0.480   4.279  14.983  0.0189  0.8474 -0.1471
  582TMC3     H 8686   0.817   4.160  15.081 -0.5986 -0.8632 -2.5650
  582TMC3    H1 8687   0.402   4.074  15.010 -0.1821  1.2232  0.8725
  582TMC3    H2 8688   0.585   3.981  15.379 -0.2776  0.6624 -0.2387
  582TMC3    C7 8689   0.368   4.060  15.260  0.1078 -0.7730 -0.2015
  582TMC3    C8 8690   0.818   4.072  15.314 -0.6912 -0.2367 -0.2238
  582TMC3    O1 8691   0.317   3.986  15.340 -0.8556  0.3191 -0.0929
  582TMC3    O2 8692   0.930   4.062  15.266  0.1819  0.0238  0.2156
  583MPD2     C 8693   0.543   1.262  16.702 -0.0565 -0.0101 -0.2638
  583MPD2    C1 8694   0.628   1.364  16.668  0.0762  0.1566 -0.0270
  583MPD2    C2 8695   0.624   1.484  16.742  0.0336  0.1275 -0.7481
  583MPD2    C3 8696   0.550   1.492  16.861  0.5348 -0.4368  0.0672
  583MPD2    C4 8697   0.469   1.389  16.899  0.1049 -0.0046 -0.3417
  583MPD2    C5 8698   0.470   1.278  16.819  0.7400 -0.5772 -0.1108
  583MPD2     H 8699   0.687   1.566  16.710  1.0282  0.5761  2.3888
  583MPD2    H1 8700   0.409   1.382  16.989  0.3245 -0.9599 -0.2621
  583MPD2    H2 8701   0.527   1.168  16.650  2.2601 -1.0492  0.8933
  583MPD2    H3 8702   0.410   1.192  16.846  0.3556 -0.3178 -0.1516
  583MPD2     N 8703   0.566   1.614  16.934 -0.1742 -0.4326  0.3282
  583MPD2    H5 8704   0.628   1.686  16.897  0.2664 -0.6557  0.6204
  583MPD2    N1 8705   0.704   1.370  16.554  0.5531  0.0175 -0.3200
  583MPD2    H7 8706   0.742   1.463  16.538 -0.7680  0.6372  0.1302
  584TMC3    C1 8707   0.518   1.774  17.101 -0.5891  1.3382 -0.3200
  584TMC3    C2 8708   0.569   1.865  17.026 -0.1414  0.6620 -0.2507
  584TMC3    C3 8709   0.583   1.985  17.083 -0.2780 -0.0978 -0.5359
  584TMC3    C4 8710   0.484   1.795  17.233  0.2340 -0.0554 -0.1771
  584TMC3    C5 8711   0.490   1.918  17.280 -0.3612  0.0629  0.4053
  584TMC3    C6 8712   0.553   2.018  17.211 -0.0251  0.2597  0.1390
  584TMC3     C 8713   0.498   1.644  17.054 -0.1413  0.7901  0.2933
  584TMC3     O 8714   0.425   1.568  17.116 -0.7330  0.1650 -0.2558
  584TMC3     H 8715   0.574   1.849  16.919 -0.2298 -1.0382 -0.0029
  584TMC3    H1 8716   0.439   1.717  17.294 -0.1288  0.1592 -0.1759
  584TMC3    H2 8717   0.572   2.111  17.263  2.1395  0.6789 -1.4289
  584TMC3    C7 8718   0.431   1.936  17.412  0.1297 -0.3510  0.3207
  584TMC3    C8 8719   0.606   2.102  16.994 -0.0888  0.1161 -0.5264
  584TMC3    O1 8720   0.392   1.835  17.469  0.5880  1.0635  0.5921
  584TMC3    O2 8721   0.554   2.084  16.883 -0.1588 -0.2257 -0.2837
  585MPD2     C 8722   4.258   0.979   0.190 -0.3979 -0.6489  0.1590
  585MPD2    C1 8723   4.263   1.004   0.057  0.4559 -0.0732 -0.6043
  585MPD2    C2 8724   4.361   0.934  17.746  0.0747 -0.4765  0.0435
  585MPD2    C3 8725   4.424   0.822   0.032 -0.5263  0.9309  0.0490
  585MPD2    C4 8726   4.405   0.794   0.167 -0.0953 -0.4165 -0.6340
  585MPD2    C5 8727   4.325   0.876   0.246  0.1675  0.0768 -0.0077
  585MPD2     H 8728   4.372   0.948  17.639 -0.5643  0.4566  0.0977
  585MPD2    H1 8729   4.446   0.709   0.221 -1.7494 -0.3222  0.7653
  585MPD2    H2 8730   4.205   1.048   0.254 -3.9438 -1.2415 -2.1643
  585MPD2    H3 8731   4.326   0.862   0.353 -0.7089 -0.0446 -0.0143
  585MPD2     N 8732   4.501   0.733  17.715 -0.0518  0.4821 -0.4695
  585MPD2    H5 8733   4.495   0.636  17.745 -2.3788  0.7454 -0.0183
  585MPD2    N1 8734   4.191   1.119   0.011  0.7746 -0.0660 -0.0176
  585MPD2    H7 8735   4.163   1.183   0.084  0.0532 -2.1033  1.5147
  586TMC3    C1 8736   4.583   0.650  17.515 -0.0423  0.2481  0.0605
  586TMC3    C2 8737   4.684   0.666  17.429  0.7200 -0.0421 -0.3449
  586TMC3    C3 8738   4.711   0.567  17.339  0.2372  0.2106  0.5551
  586TMC3    C4 8739   4.503   0.539  17.515 -0.0832  0.2163  0.0006
  586TMC3    C5 8740   4.528   0.446  17.423  0.3158 -0.3067  0.5980
  586TMC3    C6 8741   4.633   0.450  17.339 -0.8592 -1.0634 -0.3705
  586TMC3     C 8742   4.553   0.771  17.591  0.1734  0.0705 -0.4780
  586TMC3     O 8743   4.579   0.885  17.550  0.4488  0.5691 -0.2526
  586TMC3     H 8744   4.732   0.763  17.425  0.9709 -0.2272 -1.8390
  586TMC3    H1 8745   4.410   0.530  17.569 -0.5898 -1.6055 -1.1743
  586TMC3    H2 8746   4.654   0.377  17.261 -0.5898 -0.2868 -1.0279
  586TMC3    C7 8747   4.423   0.348  17.384  0.0623  0.0168  0.0211
  586TMC3    C8 8748   0.110   0.559  17.292  0.2729 -0.4172 -0.0389
  586TMC3    O1 8749   4.366   0.287  17.470  0.4519 -1.2149 -0.2149
  586TMC3    O2 8750   0.201   0.511  17.364  0.0141  0.9465 -0.6280
  587TMC3    C1 8751   2.589   3.783  16.962 -0.0944 -0.0803  0.0292
  587TMC3    C2 8752   2.510   3.842  16.867 -0.4305  0.2298 -0.0668
  587TMC3    C3 8753   2.459   3.969  16.890 -0.0618  0.3475  0.2720
  587TMC3    C4 8754   2.611   3.847  17.077  0.2984  0.0293 -0.3472
  587TMC3    C5 8755   2.557   3.973  17.098  0.2514 -0.2161 -0.6277
  587TMC3    C6 8756   2.493   4.046  17.004  0.3832 -0.7656 -0.5006
  587TMC3     C 8757   2.547   3.644  16.997 -0.1161  0.0410  0.2001
  587TMC3     O 8758   2.618   3.590  17.080 -0.3832  0.1026 -0.1317
  587TMC3     H 8759   2.494   3.800  16.768 -0.9401 -1.3304  0.6785
  587TMC3    H1 8760   2.664   3.798  17.157  2.3222  1.6823 -0.6985
  587TMC3    H2 8761   2.479   4.152  17.020  0.1625 -0.7266 -0.9447
  587TMC3    C7 8762   2.607   4.040  17.215  0.3901 -0.3899  0.0322
  587TMC3    C8 8763   2.410   4.047  16.777 -0.7997 -0.4165 -0.2624
  587TMC3    O1 8764   2.706   3.989  17.262  0.3861  0.5167  0.8154
  587TMC3    O2 8765   2.429   4.004  16.664  0.5290 -0.2734 -0.4082
  588TMC3    C1 8766   3.825   1.768   9.837 -0.0354 -0.4991 -0.2220
  588TMC3    C2 8767   3.754   1.652   9.839  0.3883  0.4773 -0.2859
  588TMC3    C3 8768   3.804   1.550   9.908 -0.0268 -0.2145  0.3414
  588TMC3    C4 8769   3.944   1.794   9.903  0.1299  0.5009 -0.0253
  588TMC3    C5 8770   3.987   1.688   9.982  0.6412  0.6024 -0.3626
  588TMC3    C6 8771   3.922   1.571   9.992  0.6150  0.1338  0.1404
  588TMC3     C 8772   3.753   1.890   9.799  0.5148  0.2962  0.4095
  588TMC3     O 8773   3.670   1.894   9.707  0.6212 -0.3738 -0.2303
  588TMC3     H 8774   3.664   1.652   9.778 -0.4438 -1.0632  0.9198
  588TMC3    H1 8775   3.994   1.889   9.887 -1.1807  0.9018 -1.6393
  588TMC3    H2 8776   3.982   1.494  10.038  1.0079  0.1162 -0.4098
  588TMC3    C7 8777   4.086   1.716  10.086 -0.2461 -0.1646 -0.4419
  588TMC3    C8 8778   3.716   1.430   9.919  0.6528 -0.1463  0.1606
  588TMC3    O1 8779   4.128   1.624  10.155  0.0884 -0.0783  0.3025
  588TMC3    O2 8780   3.636   1.410   9.829 -0.2574 -0.0583  0.0791
  589TMC3    C1 8781   3.649   4.262   1.330 -0.6242  0.1822 -0.5681
  589TMC3    C2 8782   3.771   4.212   1.367 -0.3109  0.0424  0.0564
  589TMC3    C3 8783   3.840   4.130   1.282  0.2818 -0.3426 -0.1995
  589TMC3    C4 8784   3.586   4.220   1.209 -0.0045 -0.4128  0.0453
  589TMC3    C5 8785   3.665   4.149   1.115 -0.3925 -0.1986 -0.8128
  589TMC3    C6 8786   3.789   4.102   1.158  0.0682 -0.9781 -0.1757
  589TMC3     C 8787   3.582   4.355   1.414 -0.2367  0.5668  0.0344
  589TMC3     O 8788   3.480   4.410   1.373  0.6916 -0.0131  0.3420
  589TMC3     H 8789   3.819   4.250   1.457  1.7454  1.3178 -1.5818
  589TMC3    H1 8790   3.490   4.260   1.181 -0.7644 -2.1672  0.1760
  589TMC3    H2 8791   3.851   4.048   1.088 -0.6309 -0.4908 -1.1568
  589TMC3    C7 8792   3.633   4.121   0.979  0.4532  0.1373 -0.4686
  589TMC3    C8 8793   3.965   4.073   1.335  0.1443 -0.4767  0.4107
  589TMC3    O1 8794   3.697   4.040   0.915  0.3293 -0.4424 -0.0017
  589TMC3    O2 8795   3.969   4.067   1.457 -0.4947  0.2535  0.1560
  590MPD2     C 8796   2.736   2.943  16.207  0.1698  0.5566  0.2720
  590MPD2    C1 8797   2.795   2.849  16.288 -0.9012 -0.0753 -0.4964
  590MPD2    C2 8798   2.928   2.863  16.331  0.7183  0.2309  0.0655
  590MPD2    C3 8799   2.993   2.975  16.295  0.2499  0.1438  0.1088
  590MPD2    C4 8800   2.932   3.065  16.208 -0.2833  0.3330  0.4263
  590MPD2    C5 8801   2.805   3.041  16.160  0.6379 -0.0555  0.4523
  590MPD2     H 8802   2.984   2.796  16.394 -0.8736 -1.8668 -0.7262
  590MPD2    H1 8803   2.983   3.153  16.170 -0.3260  0.4520  0.6491
  590MPD2    H2 8804   2.636   2.928  16.169  1.0833  1.2954 -2.3948
  590MPD2    H3 8805   2.759   3.110  16.090 -1.9794  0.1048  2.3465
  590MPD2     N 8806   3.133   2.989  16.341 -0.2547  0.1768  0.5060
  590MPD2    H5 8807   3.172   2.903  16.379 -0.3772  0.3579  1.0308
  590MPD2    N1 8808   2.700   2.746  16.327 -0.0556 -0.1718 -0.3043
  590MPD2    H7 8809   2.617   2.735  16.270  1.0496 -2.3915 -1.5323
  591TMC3    C1 8810   3.336   3.089  16.359 -0.0788  0.1371 -0.7842
  591TMC3    C2 8811   3.391   3.004  16.271  0.3648 -0.2915  0.2214
  591TMC3    C3 8812   3.517   3.035  16.214  0.2121 -0.3492  0.9694
  591TMC3    C4 8813   3.400   3.211  16.385 -0.3231  0.3379  0.5581
  591TMC3    C5 8814   3.528   3.235  16.330  0.6519 -0.5329  0.8712
  591TMC3    C6 8815   3.592   3.147  16.244 -0.2835  0.4899 -0.4271
  591TMC3     C 8816   3.196   3.104  16.352  0.3573 -0.1541  0.0416
  591TMC3     O 8817   3.151   3.216  16.333  0.3230 -0.3019 -0.1175
  591TMC3     H 8818   3.342   2.920  16.223  0.0521 -0.3043  0.5583
  591TMC3    H1 8819   3.348   3.290  16.437  0.1273  0.7982  0.3101
  591TMC3    H2 8820   3.697   3.164  16.222 -0.4288  0.5450 -1.0856
  591TMC3    C7 8821   3.604   3.350  16.371  0.0060 -0.2392  0.5465
  591TMC3    C8 8822   3.585   2.931  16.137  0.1810  0.3053  0.3882
  591TMC3    O1 8823   3.585   3.396  16.484 -0.3694  0.4478  0.0052
  591TMC3    O2 8824   3.546   2.813  16.142  0.2024 -0.1434  0.2021
  592MPD2     C 8825   2.930   4.033  11.791  0.2276  0.1112 -0.4148
  592MPD2    C1 8826   2.967   4.104  11.904 -0.0244 -0.6818 -0.1581
  592MPD2    C2 8827   2.965   4.037  12.022 -0.4353 -0.2131  0.0381
  592MPD2    C3 8828   2.942   3.905  12.027  0.2023  0.2184 -0.3679
  592MPD2    C4 8829   2.898   3.841  11.913  0.2947 -0.3515  0.0116
  592MPD2    C5 8830   2.888   3.910  11.796 -0.2675 -0.0064  0.3166
  592MPD2     H 8831   2.977   4.087  12.117 -0.7342 -0.1155  0.0233
  592MPD2    H1 8832   2.876   3.735  11.910  0.3695 -0.4140  1.9965
  592MPD2    H2 8833   2.922   4.087  11.697 -1.1370  0.3085 -0.1847
  592MPD2    H3 8834   2.850   3.877  11.700  0.5285  2.0810 -0.6993
  592MPD2     N 8835   2.942   3.848  12.156  0.0105 -0.2723 -0.3632
  592MPD2    H5 8836   2.969   3.910  12.231 -0.7967 -1.1886  0.6678
  592MPD2    N1 8837   2.998   4.239  11.885 -0.1544 -0.0547 -0.6594
  592MPD2    H7 8838   2.997   4.281  11.792 -1.5596  1.7814  0.1959
  593TMC3    C1 8839   3.067   4.461  11.959  0.1351 -0.1221  0.5053
  593TMC3    C2 8840   3.106   4.541  12.062  0.0478  0.1303  0.2457
  593TMC3    C3 8841   3.137   4.672  12.039  0.4860 -0.8999 -0.1725
  593TMC3    C4 8842   3.055   4.520  11.833 -0.4588 -0.1877 -0.3227
  593TMC3    C5 8843   3.087   4.653  11.815  0.1160  0.0114 -0.0129
  593TMC3    C6 8844   3.132   4.729  11.916 -0.5437  0.5233  0.1784
  593TMC3     C 8845   3.039   4.319  11.992  0.0366  0.2507  0.5324
  593TMC3     O 8846   3.064   4.288  12.109  0.2891 -0.4134  0.2975
  593TMC3     H 8847   3.104   4.497  12.161 -0.5498  0.6551  0.4626
  593TMC3    H1 8848   3.023   4.466  11.744 -0.1139 -1.1684  0.1489
  593TMC3    H2 8849   3.157   0.092  11.905  1.6184 -0.0235 -0.2479
  593TMC3    C7 8850   3.083   4.720  11.683  0.0048  0.7717  0.5410
  593TMC3    C8 8851   3.160   0.017  12.154 -0.6709  0.3127  0.0557
  593TMC3    O1 8852   3.108   0.094  11.673  0.1848  0.9505 -0.1717
  593TMC3    O2 8853   3.130   4.711  12.266 -0.0959 -0.0724 -0.2363
  594MPD2     C 8854   2.864   3.230  14.819 -0.2069 -0.4639  0.3235
  594MPD2    C1 8855   2.779   3.291  14.731  0.5356  0.2589  0.3440
  594MPD2    C2 8856   2.798   3.424  14.690  0.3926 -0.0753  0.6305
  594MPD2    C3 8857   2.912   3.493  14.718  0.1901  0.2093 -0.2518
  594MPD2    C4 8858   3.005   3.430  14.800  0.0729  0.3049  0.1595
  594MPD2    C5 8859   2.978   3.301  14.843  0.4035  0.3533  0.2116
  594MPD2     H 8860   2.727   3.480  14.630  0.8574  0.5440  0.6574
  594MPD2    H1 8861   3.107   3.459  14.824  0.6776 -1.5475 -0.1073
  594MPD2    H2 8862   2.866   3.124  14.842  0.3531 -0.6707 -0.6419
  594MPD2    H3 8863   3.066   3.256  14.887  2.5636  3.4669 -0.9736
  594MPD2     N 8864   2.932   3.626  14.681  0.4618  0.1285 -0.2779
  594MPD2    H5 8865   2.875   3.668  14.608 -0.0359  1.8061  1.0751
  594MPD2    N1 8866   2.679   3.211  14.675  0.5232  0.1576 -0.4081
  594MPD2    H7 8867   2.680   3.114  14.705  0.8868 -0.7389 -3.2496
  595TMC3    C1 8868   3.152   4.021  14.599 -0.5709 -0.1831  0.0331
  595TMC3    C2 8869   3.143   3.921  14.689 -0.2785 -0.7297 -0.3433
  595TMC3    C3 8870   3.020   3.848  14.692 -0.1793 -0.3687 -0.5302
  595TMC3    C4 8871   3.031   4.079  14.551 -0.4500 -0.1597 -0.2084
  595TMC3    C5 8872   2.912   4.015  14.569  0.2418  0.5637 -0.7021
  595TMC3    C6 8873   2.902   3.894  14.636  0.3498  0.3578 -0.8445
  595TMC3     C 8874   3.276   4.096  14.588  1.0827 -0.0253 -0.0053
  595TMC3     O 8875   3.369   4.069  14.666 -0.5655  0.1374  0.2685
  595TMC3     H 8876   3.234   3.887  14.739 -0.7175 -0.5754  0.5636
  595TMC3    H1 8877   3.033   4.176  14.502  2.4214 -0.2198 -0.2218
  595TMC3    H2 8878   2.807   3.843  14.643  0.2978  0.5746  0.1321
  595TMC3    C7 8879   2.782   4.086  14.558 -0.1768  0.7055 -0.1019
  595TMC3    C8 8880   3.024   3.706  14.740 -0.6011 -0.0844 -0.6118
  595TMC3    O1 8881   2.683   4.018  14.545 -0.3196 -0.7248  0.1798
  595TMC3    O2 8882   3.115   3.693  14.823  0.1566 -0.4862 -0.1367
  596MPD2     C 8883   1.329   1.260  16.820  0.8681  0.4289 -0.4334
  596MPD2    C1 8884   1.384   1.371  16.751  0.0338  0.1753 -0.0297
  596MPD2    C2 8885   1.452   1.350  16.634  0.9490  0.1360  0.3335
  596MPD2    C3 8886   1.468   1.222  16.577 -0.2616  0.1905 -0.7127
  596MPD2    C4 8887   1.431   1.118  16.655  0.0059 -0.3704 -0.3964
  596MPD2    C5 8888   1.357   1.135  16.769  0.7651 -0.1346  0.4613
  596MPD2     H 8889   1.494   1.438  16.586  1.7430 -1.1819 -1.4012
  596MPD2    H1 8890   1.434   1.022  16.605  1.4921  0.9683 -2.8928
  596MPD2    H2 8891   1.262   1.272  16.904  2.3964  1.0894  0.7025
  596MPD2    H3 8892   1.325   1.042  16.816 -0.9226 -0.0280 -0.4666
  596MPD2     N 8893   1.527   1.192  16.454  0.1822 -0.0977  0.2201
  596MPD2    H5 8894   1.518   1.097  16.420  0.7883  0.8794 -2.6807
  596MPD2    N1 8895   1.361   1.503  16.797 -0.1399 -0.3181 -0.0418
  596MPD2    H7 8896   1.415   1.573  16.747 -1.0380  0.6855  0.4140
  597TMC3    C1 8897   1.324   1.682  16.946  0.1184  0.4918  0.0455
  597TMC3    C2 8898   1.399   1.763  16.871 -0.8388 -0.3734 -0.4798
  597TMC3    C3 8899   1.419   1.886  16.909  0.4242 -0.0512  0.9291
  597TMC3    C4 8900   1.263   1.728  17.058 -0.3005  0.0884 -0.4036
  597TMC3    C5 8901   1.292   1.854  17.098  0.0170  0.0144 -0.7235
  597TMC3    C6 8902   1.374   1.933  17.027  0.0025 -0.1529  0.0623
  597TMC3     C 8903   1.313   1.540  16.914  0.2998 -0.0515 -0.5245
  597TMC3     O 8904   1.279   1.469  17.008 -0.0004 -0.3722  0.0313
  597TMC3     H 8905   1.431   1.735  16.771  1.4163 -0.5588  0.2905
  597TMC3    H1 8906   1.219   1.667  17.136 -1.8446  1.3927 -0.2405
  597TMC3    H2 8907   1.398   2.036  17.052 -1.2674  0.1340  0.0830
  597TMC3    C7 8908   1.228   1.899  17.217  0.0684 -0.4280 -0.4670
  597TMC3    C8 8909   1.493   1.991  16.835  0.1237  0.3905 -0.1936
  597TMC3    O1 8910   1.132   1.835  17.253  0.1276  0.3019 -0.2261
  597TMC3    O2 8911   1.476   2.110  16.857 -0.2452 -0.4477  0.9046
  598TMC3    C1 8912   4.304   2.990  15.272  0.1667  0.2298  0.0206
  598TMC3    C2 8913   4.174   2.943  15.311  0.1899  0.1920  0.5173
  598TMC3    C3 8914   4.066   2.983  15.231  0.4817  0.8827 -0.2034
  598TMC3    C4 8915   4.320   3.070  15.164 -0.0381 -0.1747  0.0899
  598TMC3    C5 8916   4.205   3.101  15.091 -0.6943 -0.1766  0.1078
  598TMC3    C6 8917   4.082   3.055  15.113 -0.6797  0.3072  0.6241
  598TMC3     C 8918   4.426   2.949  15.350  0.1739  0.6491 -0.2486
  598TMC3     O 8919   4.533   2.982  15.295  0.4300 -0.0572  0.1238
  598TMC3     H 8920   4.160   2.877  15.396  1.2479 -1.6409 -0.7324
  598TMC3    H1 8921   4.425   3.087  15.141 -0.1916  0.5197 -0.1121
  598TMC3    H2 8922   3.994   3.068  15.052  0.6077 -0.6401 -1.4288
  598TMC3    C7 8923   4.229   3.193  14.979  0.7416 -0.6431 -0.0113
  598TMC3    C8 8924   3.934   2.919  15.241 -0.1999  0.2346  0.1244
  598TMC3    O1 8925   4.134   3.205  14.905 -0.0885  0.0798 -0.5264
  598TMC3    O2 8926   3.862   2.936  15.146  0.6469  0.1660  0.1477
  599MPD2     C 8927   4.740   0.576  15.733  0.2131  0.0824 -0.2236
  599MPD2    C1 8928   4.692   0.449  15.740 -0.5415 -0.3931  0.4276
  599MPD2    C2 8929   4.561   0.427  15.787  0.5454  0.2031  0.1780
  599MPD2    C3 8930   4.481   0.537  15.815 -0.1098 -0.6958  0.4768
  599MPD2    C4 8931   4.529   0.667  15.804 -0.2437  0.0669  0.3221
  599MPD2    C5 8932   4.662   0.685  15.768 -0.4836 -0.3040 -0.0560
  599MPD2     H 8933   4.510   0.331  15.786  1.4228 -0.2624 -0.1283
  599MPD2    H1 8934   4.462   0.750  15.823 -0.1059  0.4672 -0.9595
  599MPD2    H2 8935   0.097   0.598  15.696  0.5246 -1.8892 -0.5624
  599MPD2    H3 8936   4.700   0.786  15.758  2.0550 -1.4008 -1.4894
  599MPD2     N 8937   4.348   0.536  15.868  0.7514  0.5194 -0.7287
  599MPD2    H5 8938   4.314   0.626  15.902 -1.2164 -0.1778 -0.8521
  599MPD2    N1 8939   0.044   0.350  15.716 -0.4192  0.7101  0.2921
  599MPD2    H7 8940   0.139   0.386  15.708  0.3458 -0.7074  2.5478
  600TMC3    C1 8941   4.159   0.446  15.966 -0.2965  0.9060 -0.5805
  600TMC3    C2 8942   4.050   0.364  15.951  0.1503  0.0599 -0.3945
  600TMC3    C3 8943   3.951   0.386  16.039 -0.1617  0.2201  0.7334
  600TMC3    C4 8944   4.182   0.525  16.075  0.4087 -0.5072 -0.0742
  600TMC3    C5 8945   4.078   0.539  16.163 -0.0809 -0.0999  0.8738
  600TMC3    C6 8946   3.961   0.477  16.142  0.1305  0.0829 -0.4533
  600TMC3     C 8947   4.275   0.423  15.892  0.3176  0.7160 -0.0822
  600TMC3     O 8948   4.293   0.314  15.837 -0.9414  0.2332  0.3277
  600TMC3     H 8949   4.040   0.293  15.870 -1.0837 -0.6609  0.3912
  600TMC3    H1 8950   4.272   0.586  16.083 -1.1996  1.9187 -0.6909
  600TMC3    H2 8951   3.879   0.501  16.209 -0.3964 -1.7391 -0.4491
  600TMC3    C7 8952   4.086   0.635  16.280  0.5476  0.5401 -0.0067
  600TMC3    C8 8953   3.822   0.331  16.010  0.0219  0.6702 -0.2972
  600TMC3    O1 8954   4.002   0.620  16.367 -0.1805 -0.0524  0.3921
  600TMC3    O2 8955   3.790   0.310  15.895  0.0548  0.5538 -0.1088
  601MPD2     C 8956   1.580   3.763   0.607  0.0460  1.1526 -0.4493
  601MPD2    C1 8957   1.679   3.712   0.526  0.2956 -0.0272  0.1557
  601MPD2    C2 8958   1.701   3.573   0.533  0.1533 -0.5525 -0.3949
  601MPD2    C3 8959   1.633   3.484   0.621  0.2660  0.7747  0.0563
  601MPD2    C4 8960   1.537   3.539   0.700 -0.3509 -0.0988 -0.2993
  601MPD2    C5 8961   1.512   3.676   0.692  0.0067  0.3749 -0.1339
  601MPD2     H 8962   1.757   3.534   0.448 -2.0374  0.9326 -2.5128
  601MPD2    H1 8963   1.482   3.473   0.765  0.0178  1.4443  1.5769
  601MPD2    H2 8964   1.561   3.870   0.614 -0.1473  0.9044  2.5640
  601MPD2    H3 8965   1.443   3.718   0.764 -1.0241 -1.2180 -0.1996
  601MPD2     N 8966   1.662   3.342   0.625  0.3931  0.8400  0.1715
  601MPD2    H5 8967   1.595   3.290   0.681 -0.8447  0.4199 -1.7360
  601MPD2    N1 8968   1.737   3.788   0.423 -0.4608 -0.4498 -1.1538
  601MPD2    H7 8969   1.783   3.735   0.350  0.0784 -1.6009  0.0182
  602TMC3    C1 8970   1.743   3.962   0.266 -0.6047  0.5047  0.0030
  602TMC3    C2 8971   1.778   4.093   0.241  0.3803 -0.6003 -0.4042
  602TMC3    C3 8972   1.833   4.135   0.126  0.2245  0.4482  1.2359
  602TMC3    C4 8973   1.763   3.871   0.172 -0.1914  0.0736  0.3793
  602TMC3    C5 8974   1.818   3.920   0.050  0.5278  0.6863  0.4304
  602TMC3    C6 8975   1.852   4.047   0.026 -0.2343 -0.5020 -0.3603
  602TMC3     C 8976   1.720   3.926   0.402 -0.7388 -0.6724  0.1762
  602TMC3     O 8977   1.687   4.009   0.486  0.2321  0.4028 -0.1268
  602TMC3     H 8978   1.754   4.166   0.317  1.2176  1.5533 -2.2098
  602TMC3    H1 8979   1.740   3.767   0.191 -2.3660  0.3957 -0.4664
  602TMC3    H2 8980   1.897   4.084  17.702 -0.9746  1.9117  0.2602
  602TMC3    C7 8981   1.764   3.839  17.706  0.2812 -0.2775 -0.5528
  602TMC3    C8 8982   1.816   4.277   0.083  0.6168  0.6149  0.2856
  602TMC3    O1 8983   1.724   3.724  17.720  0.3045  0.1568 -0.4973
  602TMC3    O2 8984   1.795   4.357   0.173  0.3280 -0.5124  0.0080
  603TMC3    C1 8985   3.829   3.825  10.968 -0.1211 -0.4070 -0.6171
  603TMC3    C2 8986   3.860   3.802  11.097 -0.1709 -0.0272  0.9646
  603TMC3    C3 8987   3.852   3.909  11.182 -0.0823  0.4849  0.4597
  603TMC3    C4 8988   3.801   3.952  10.922  0.4912 -0.2736 -0.8400
  603TMC3    C5 8989   3.789   4.057  11.020 -0.0685 -0.4041 -0.5170
  603TMC3    C6 8990   3.805   4.026  11.149 -0.4085 -0.1544 -0.1896
  603TMC3     C 8991   3.850   3.721  10.868 -0.3771  0.3961 -1.2016
  603TMC3     O 8992   3.800   3.746  10.757 -0.3320  0.3836 -0.3278
  603TMC3     H 8993   3.861   3.697  11.127 -1.4080 -0.1584  0.5337
  603TMC3    H1 8994   3.773   3.970  10.819 -0.7990 -3.5944 -1.0736
  603TMC3    H2 8995   3.801   4.116  11.210  0.8602  1.5651 -2.6390
  603TMC3    C7 8996   3.759   4.197  10.972 -0.5443 -0.3558 -0.6162
  603TMC3    C8 8997   3.899   3.883  11.310  0.0560  0.1623 -0.4978
  603TMC3    O1 8998   3.790   4.282  11.056 -0.5462 -0.1537  0.3083
  603TMC3    O2 8999   3.985   3.795  11.307  0.2520  0.0853  0.3318
  604MPD2     C 9000   0.939   2.739  16.659 -0.4983 -0.5724  0.7647
  604MPD2    C1 9001   0.817   2.764  16.612 -0.3961 -0.0940  0.2317
  604MPD2    C2 9002   0.792   2.745  16.473  0.3819  0.5025  0.0601
  604MPD2    C3 9003   0.895   2.708  16.386  0.5743 -0.5238  0.0811
  604MPD2    C4 9004   1.016   2.681  16.442 -0.1027 -0.6328 -0.4011
  604MPD2    C5 9005   1.035   2.697  16.577  0.9145 -1.2932 -0.3353
  604MPD2     H 9006   0.692   2.767  16.439 -0.0221 -1.6346 -0.1127
  604MPD2    H1 9007   1.095   2.643  16.378  2.1352  2.7738  0.3978
  604MPD2    H2 9008   0.957   2.745  16.765  2.1952  1.7547  0.2023
  604MPD2    H3 9009   1.136   2.699  16.616  0.3879 -2.3637  1.0833
  604MPD2     N 9010   0.863   2.695  16.255 -0.1039 -0.0471 -0.1521
  604MPD2    H5 9011   0.778   2.745  16.233 -0.3648  1.2803  3.9006
  604MPD2    N1 9012   0.726   2.832  16.694 -0.2063 -0.6570 -0.0789
  604MPD2    H7 9013   0.756   2.881  16.778 -2.5534 -2.5791  1.8594
  605TMC3    C1 9014   0.545   2.937  16.779 -0.3650  0.9746 -0.4262
  605TMC3    C2 9015   0.621   2.976  16.892 -0.1067 -0.4981  0.3084
  605TMC3    C3 9016   0.582   3.084  16.971 -0.1373  0.3408 -0.4943
  605TMC3    C4 9017   0.443   3.013  16.739  0.0260 -0.6644 -0.3337
  605TMC3    C5 9018   0.404   3.120  16.817  0.1142  0.1712  0.0803
  605TMC3    C6 9019   0.472   3.154  16.931  0.4293 -0.0128 -0.3883
  605TMC3     C 9020   0.595   2.859  16.667 -0.0175  0.0301  0.1537
  605TMC3     O 9021   0.514   2.818  16.580 -0.3274  0.1411 -0.1317
  605TMC3     H 9022   0.677   2.891  16.931  0.2389 -1.1188 -1.5203
  605TMC3    H1 9023   0.396   3.006  16.642  1.1824  2.1678 -1.1112
  605TMC3    H2 9024   0.443   3.240  16.991  0.3105 -0.1958 -0.1832
  605TMC3    C7 9025   0.288   3.195  16.783  0.1961  0.7986 -0.7373
  605TMC3    C8 9026   0.685   3.149  17.042  0.1874  0.0188  0.3987
  605TMC3    O1 9027   0.277   3.303  16.839 -0.9375  0.0185 -0.2836
  605TMC3    O2 9028   0.645   3.253  17.094 -0.5860  0.4335  0.1266
  606TMC3    C1 9029   1.553   1.732  17.716  0.5021  0.4135 -0.6902
  606TMC3    C2 9030   1.645   1.678   0.035  0.4433 -0.0860  0.2488
  606TMC3    C3 9031   1.720   1.567  17.764 -0.4536 -0.1602  0.0079
  606TMC3    C4 9032   1.532   1.681  17.590  0.0352 -0.4454  0.5214
  606TMC3    C5 9033   1.604   1.566  17.559 -0.0511  0.2457 -0.0743
  606TMC3    C6 9034   1.707   1.514  17.639 -0.2302  0.5034 -0.3776
  606TMC3     C 9035   1.460   1.833  17.763  0.0920  0.1295 -0.2468
  606TMC3     O 9036   1.385   1.892  17.681  0.4867 -0.4464  0.2492
  606TMC3     H 9037   1.671   1.728   0.127  1.5772 -1.6230  0.7662
  606TMC3    H1 9038   1.459   1.720  17.519  0.4525  1.9100  1.3890
  606TMC3    H2 9039   1.767   1.429  17.610 -1.1379 -0.3386  0.2134
  606TMC3    C7 9040   1.588   1.509  17.431  0.1475  0.9333 -0.5093
  606TMC3    C8 9041   1.806   1.498   0.094 -0.2652 -0.3650  1.1100
  606TMC3    O1 9042   1.566   1.585  17.335  0.3971 -0.4177  0.9216
  606TMC3    O2 9043   1.893   1.424   0.047 -0.3867 -0.4463  0.1604
  607MPD2     C 9044   3.284   3.719  11.912  0.2019 -1.1310  0.0645
  607MPD2    C1 9045   3.277   3.793  12.026  0.2731 -0.0745 -0.7524
  607MPD2    C2 9046   3.252   3.732  12.148  0.5124 -0.4556 -0.2718
  607MPD2    C3 9047   3.239   3.595  12.163  0.3113 -0.3324  0.5327
  607MPD2    C4 9048   3.237   3.522  12.051 -0.5200  0.0669  0.5233
  607MPD2    C5 9049   3.261   3.583  11.932 -0.0971  0.1524 -0.2933
  607MPD2     H 9050   3.246   3.791  12.238  0.2445  0.0342 -0.6104
  607MPD2    H1 9051   3.209   3.417  12.050  0.1844 -0.0932 -2.3813
  607MPD2    H2 9052   3.307   3.751  11.811  2.2447 -1.5107  0.4007
  607MPD2    H3 9053   3.258   3.522  11.842  2.0079 -0.1402 -0.1497
  607MPD2     N 9054   3.242   3.546  12.300 -0.3800  0.5000 -0.0350
  607MPD2    H5 9055   3.267   3.621  12.364  2.0902  0.7666 -1.3331
  607MPD2    N1 9056   3.308   3.934  12.028  0.9818 -0.3968 -0.1591
  607MPD2    H7 9057   3.311   3.967  12.124  0.6090  0.5534 -0.4779
  608TMC3    C1 9058   3.400   4.141  11.982 -0.6896 -0.2389 -0.2957
  608TMC3    C2 9059   3.484   4.133  12.091  0.2960  0.1706 -0.1562
  608TMC3    C3 9060   3.521   4.254  12.147  0.0272  0.5041  0.0032
  608TMC3    C4 9061   3.373   4.255  11.911  0.2827  0.0513  0.8197
  608TMC3    C5 9062   3.425   4.372  11.967 -0.0484  0.0051 -1.2039
  608TMC3    C6 9063   3.493   4.375  12.086 -0.2391 -0.2088 -0.4004
  608TMC3     C 9064   3.351   4.012  11.925 -0.2983 -0.3990 -0.0936
  608TMC3     O 9065   3.366   3.997  11.805  0.4627 -0.0440 -0.6451
  608TMC3     H 9066   3.519   4.039  12.130 -1.6663 -0.7189 -0.5202
  608TMC3    H1 9067   3.319   4.262  11.817 -0.0607  0.8182  1.0751
  608TMC3    H2 9068   3.517   4.463  12.143 -3.2456  0.1223  0.3712
  608TMC3    C7 9069   3.429   4.485  11.876  0.3020 -0.8303 -1.2301
  608TMC3    C8 9070   3.561   4.247  12.291  0.4150 -0.8452 -0.1576
  608TMC3    O1 9071   3.376   4.472  11.767 -0.2581 -0.4578  0.1873
  608TMC3    O2 9072   3.595   4.352  12.341  0.6965  0.2952  0.1174
  609TMC3    C1 9073   1.428   3.388   9.220  0.3014  0.3068 -0.2284
  609TMC3    C2 9074   1.316   3.319   9.264 -0.1315  0.5740 -0.5371
  609TMC3    C3 9075   1.291   3.200   9.199 -0.2503 -0.3918 -0.3733
  609TMC3    C4 9076   1.514   3.346   9.125 -0.3989 -0.2505  0.1029
  609TMC3    C5 9077   1.491   3.221   9.077  0.9287  0.0446  0.2378
  609TMC3    C6 9078   1.382   3.151   9.111 -0.1487 -0.8340 -0.1415
  609TMC3     C 9079   1.478   3.480   9.320 -0.3355 -0.5591 -0.2939
  609TMC3     O 9080   1.394   3.544   9.391 -0.4395  0.4283  0.0066
  609TMC3     H 9081   1.252   3.368   9.336 -0.0077  1.7299 -1.2289
  609TMC3    H1 9082   1.593   3.410   9.087 -1.2692 -0.3596 -1.8883
  609TMC3    H2 9083   1.363   3.056   9.062  0.5225 -1.4597  0.8074
  609TMC3    C7 9084   1.622   3.160   9.085  0.6379  0.6668 -0.4607
  609TMC3    C8 9085   1.199   3.107   9.265  0.1970 -0.1759 -1.1502
  609TMC3    O1 9086   1.709   3.221   9.145  0.2820 -0.2438  0.1645
  609TMC3    O2 9087   1.217   2.991   9.244 -0.3912 -0.1136  0.2135
  610TMC3    C1 9088   3.965   4.134  12.651  0.5002 -0.2290  0.0887
  610TMC3    C2 9089   3.956   4.131  12.514 -0.0575 -0.1885  0.2927
  610TMC3    C3 9090   3.964   4.011  12.451 -0.0243 -0.2480 -0.6454
  610TMC3    C4 9091   4.011   4.019  12.723  0.0453 -0.0575 -0.1879
  610TMC3    C5 9092   4.018   3.903  12.658 -0.2179 -0.6928  0.2221
  610TMC3    C6 9093   3.996   3.898  12.520 -0.4882  0.0076 -0.0220
  610TMC3     C 9094   3.930   4.260  12.716 -0.2057 -0.4772 -0.0931
  610TMC3     O 9095   3.912   4.354  12.640  0.4255 -0.4561 -0.2339
  610TMC3     H 9096   3.938   4.211  12.443 -1.7628 -0.8781 -0.0735
  610TMC3    H1 9097   4.036   4.032  12.828 -0.5765  0.8510 -0.1531
  610TMC3    H2 9098   4.014   3.803  12.471 -0.5414 -0.1912  0.3463
  610TMC3    C7 9099   4.078   3.787  12.729  0.1238 -0.1938 -0.0670
  610TMC3    C8 9100   3.911   3.998  12.311  0.1236 -0.4392  0.3709
  610TMC3    O1 9101   4.138   3.802  12.836 -0.1933  0.6130 -0.1002
  610TMC3    O2 9102   3.920   4.098  12.242  0.0596  0.2414 -0.4989
  611MPD2     C 9103   2.493   4.366  10.284 -0.5966 -0.4684 -0.4546
  611MPD2    C1 9104   2.585   4.267  10.315 -1.2928 -0.1500  0.5829
  611MPD2    C2 9105   2.724   4.289  10.283  0.2751 -0.3074 -0.7107
  611MPD2    C3 9106   2.759   4.406  10.223  0.1757  0.5118  0.4427
  611MPD2    C4 9107   2.662   4.491  10.179  0.2405  0.5286 -0.3576
  611MPD2    C5 9108   2.532   4.480  10.225  0.0693 -0.2824  0.1549
  611MPD2     H 9109   2.801   4.215  10.300 -0.3221 -0.8143 -0.2232
  611MPD2    H1 9110   2.695   4.585  10.135  2.2718 -0.3629 -0.6976
  611MPD2    H2 9111   2.393   4.350  10.324 -1.0155  1.0023 -0.9152
  611MPD2    H3 9112   2.460   4.558  10.200 -0.5308 -2.1440 -3.8201
  611MPD2     N 9113   2.898   4.445  10.199 -0.3529  0.5471  0.3652
  611MPD2    H5 9114   2.905   4.535  10.153 -1.7173 -0.6734 -2.2539
  611MPD2    N1 9115   2.534   4.150  10.381 -0.8755  0.3420 -0.4010
  611MPD2    H7 9116   2.435   4.137  10.399 -0.6504 -3.9001 -2.3439
  612TMC3    C1 9117   3.136   4.450  10.238 -0.2141  0.8674  0.5481
  612TMC3    C2 9118   3.238   4.437  10.328  0.6288 -0.0053  0.8379
  612TMC3    C3 9119   3.352   4.512  10.306  0.9099 -0.2243  0.0838
  612TMC3    C4 9120   3.151   4.538  10.126  0.2603  0.7975 -0.3388
  612TMC3    C5 9121   3.264   4.610  10.114 -0.6968 -1.1151  0.7330
  612TMC3    C6 9122   3.368   4.590  10.191 -0.4376  1.0365 -0.1970
  612TMC3     C 9123   3.007   4.391  10.264  0.6413  0.3707  0.3332
  612TMC3     O 9124   3.022   4.306  10.353 -0.4840 -0.3293  0.6554
  612TMC3     H 9125   3.232   4.395  10.427  0.1781  0.1801  0.8919
  612TMC3    H1 9126   3.082   4.542  10.042  0.9972  1.3241 -0.9257
  612TMC3    H2 9127   3.458   4.647  10.173 -0.1164  0.5122 -0.2366
  612TMC3    C7 9128   3.301   4.672   9.981  0.7104 -0.0833 -0.2805
  612TMC3    C8 9129   3.442   4.547  10.413 -0.6517 -0.1085 -0.1376
  612TMC3    O1 9130   3.419   4.674   9.963 -0.2898 -0.7323 -0.0122
  612TMC3    O2 9131   3.505   4.650  10.414 -0.3801  0.5656  0.8359
  613MPD2     C 9132   2.813   1.600  16.407 -0.0376  0.1192  0.1164
  613MPD2    C1 9133   2.838   1.524  16.292 -0.4383 -0.1375  0.2356
  613MPD2    C2 9134   2.771   1.404  16.276  0.0810  0.1028  0.1763
  613MPD2    C3 9135   2.681   1.366  16.374 -0.4272  0.4504 -0.3316
  613MPD2    C4 9136   2.655   1.441  16.488  0.1399  0.0581  0.0346
  613MPD2    C5 9137   2.722   1.558  16.502  0.3498 -0.3347 -0.3313
  613MPD2     H 9138   2.776   1.347  16.184  3.0753 -0.6280  0.8092
  613MPD2    H1 9139   2.581   1.418  16.563  0.2163  2.5323  0.8608
  613MPD2    H2 9140   2.853   1.698  16.431  3.2034 -1.0223 -0.7248
  613MPD2    H3 9141   2.701   1.617  16.590 -0.0392 -0.3824 -0.3925
  613MPD2     N 9142   2.598   1.247  16.358  0.2059 -0.5365 -0.4055
  613MPD2    H5 9143   2.526   1.234  16.429  0.0440 -0.5125 -0.5635
  613MPD2    N1 9144   2.930   1.566  16.195 -0.0044 -0.4982  0.0336
  613MPD2    H7 9145   2.963   1.661  16.211 -0.9048 -0.4100  1.3854
  614TMC3    C1 9146   3.026   1.576  15.981 -0.0318  0.3248 -0.3917
  614TMC3    C2 9147   3.067   1.494  15.876  0.0946  0.3401  0.8698
  614TMC3    C3 9148   3.038   1.530  15.751 -0.1013  0.5351 -0.0589
  614TMC3    C4 9149   2.967   1.697  15.944  0.7891  0.1020 -0.2661
  614TMC3    C5 9150   2.943   1.731  15.818  0.2557 -0.0643 -0.5641
  614TMC3    C6 9151   2.981   1.645  15.719 -0.2410 -0.6630 -0.7216
  614TMC3     C 9152   2.957   1.496  16.077 -0.2053  0.0853 -0.4372
  614TMC3     O 9153   2.905   1.394  16.026  0.1054  0.5095 -0.3270
  614TMC3     H 9154   3.104   1.396  15.902 -1.5636 -0.0101  1.9421
  614TMC3    H1 9155   2.933   1.765  16.022 -0.0396 -0.8320  0.1786
  614TMC3    H2 9156   2.977   1.675  15.615 -0.3092  0.3818 -0.4215
  614TMC3    C7 9157   2.823   1.811  15.792 -0.5195  0.2330 -0.2488
  614TMC3    C8 9158   2.983   1.414  15.674  0.3188 -0.2293  0.1680
  614TMC3    O1 9159   2.754   1.834  15.890 -0.6945 -0.1856 -0.7083
  614TMC3    O2 9160   2.956   1.436  15.553  0.1996 -0.0258  0.2778
  615MPD2     C 9161   2.305   2.800  16.520  0.1561  0.2856 -0.1816
  615MPD2    C1 9162   2.367   2.887  16.426  0.7167  0.4634  0.3439
  615MPD2    C2 9163   2.312   2.888  16.297  0.2380 -0.2351 -0.1563
  615MPD2    C3 9164   2.195   2.824  16.262 -0.2390  0.6242 -1.2858
  615MPD2    C4 9165   2.133   2.739  16.364  0.5380  0.0085 -0.0422
  615MPD2    C5 9166   2.193   2.726  16.485  0.4696 -0.2369  0.1122
  615MPD2     H 9167   2.364   2.949  16.224  0.4532 -0.0272  0.1703
  615MPD2    H1 9168   2.040   2.685  16.348  0.8203 -0.2728 -0.7439
  615MPD2    H2 9169   2.335   2.795  16.624  1.6147  2.1567 -0.5009
  615MPD2    H3 9170   2.141   2.661  16.554  0.3804  1.1180  1.3358
  615MPD2     N 9171   2.142   2.837  16.130 -0.0539  0.5703  0.4195
  615MPD2    H5 9172   2.049   2.798  16.122  0.4321 -0.2115 -1.4156
  615MPD2    N1 9173   2.488   2.953  16.453  0.2592  0.2034  0.5052
  615MPD2    H7 9174   2.539   3.008  16.384 -2.8906 -0.4456 -2.3480
  616TMC3    C1 9175   2.668   3.026  16.578  0.0250 -0.2721  0.0755
  616TMC3    C2 9176   2.687   3.126  16.485  0.2470 -0.2058 -0.3653
  616TMC3    C3 9177   2.806   3.197  16.496  0.1157  0.0480  0.5349
  616TMC3    C4 9178   2.762   2.985  16.673  0.6781 -0.2879  0.2461
  616TMC3    C5 9179   2.875   3.069  16.676 -0.3216  0.1013  0.3234
  616TMC3    C6 9180   2.891   3.181  16.600  0.6434  0.3561  0.1833
  616TMC3     C 9181   2.546   2.956  16.583 -0.5296 -0.2811 -0.9259
  616TMC3     O 9182   2.511   2.911  16.692  0.0886 -0.0730 -0.0882
  616TMC3     H 9183   2.600   3.163  16.432 -0.5293 -3.0419 -1.0542
  616TMC3    H1 9184   2.753   2.891  16.726  0.1337  0.7183  1.9191
  616TMC3    H2 9185   2.992   3.221  16.600  0.3581  1.0703 -1.8962
  616TMC3    C7 9186   2.998   3.003  16.730 -1.3939  0.3625  0.7068
  616TMC3    C8 9187   2.814   3.326  16.422  0.7241 -0.1152 -0.1477
  616TMC3    O1 9188   3.104   3.044  16.687 -0.2854  0.0724  0.2974
  616TMC3    O2 9189   2.721   3.353  16.345 -0.2337 -0.2884 -0.4393
  617MPD2     C 9190   0.086   1.042  13.394 -0.4571 -0.1497  0.0739
  617MPD2    C1 9191   0.136   1.081  13.516  0.8041 -0.0725 -0.0319
  617MPD2    C2 9192   0.048   1.070  13.627 -0.1136 -0.4025 -1.2009
  617MPD2    C3 9193   4.662   1.026  13.614 -0.5258 -0.4484 -0.2093
  617MPD2    C4 9194   4.615   0.996  13.491  0.0676 -0.0515  0.6458
  617MPD2    C5 9195   4.699   1.000  13.386  0.6287 -0.6372  0.2594
  617MPD2     H 9196   0.082   1.091  13.728  0.2236 -1.7804 -1.0259
  617MPD2    H1 9197   4.516   0.956  13.476 -0.7073  2.7532 -1.7180
  617MPD2    H2 9198   0.143   1.035  13.302 -1.8385 -0.9046 -0.7189
  617MPD2    H3 9199   4.657   0.984  13.287 -1.2209  2.9111  0.4984
  617MPD2     N 9200   4.570   1.012  13.725  0.0161  0.0749 -0.1190
  617MPD2    H5 9201   4.488   0.960  13.696 -0.1996  0.6729 -0.6087
  617MPD2    N1 9202   0.273   1.114  13.526  0.4841 -0.2926  0.3527
  617MPD2    H7 9203   0.317   1.114  13.434  0.8205 -1.2452  0.5070
  618TMC3    C1 9204   0.473   1.152  13.633 -0.1487  0.7652 -0.4448
  618TMC3    C2 9205   0.548   1.222  13.723 -0.5559  0.1833  0.1847
  618TMC3    C3 9206   0.673   1.165  13.759 -0.1259 -0.9614 -0.5305
  618TMC3    C4 9207   0.526   1.041  13.566  0.3936 -0.3070 -0.7864
  618TMC3    C5 9208   0.650   0.994  13.597 -0.4315 -0.7033 -0.4430
  618TMC3    C6 9209   0.724   1.049  13.699 -0.4387 -0.0823 -0.4133
  618TMC3     C 9210   0.333   1.169  13.634 -0.5651 -0.6459  0.1070
  618TMC3     O 9211   0.293   1.209  13.742  0.9607 -0.0740  0.4721
  618TMC3     H 9212   0.510   1.316  13.763 -0.6496  0.2812 -0.1276
  618TMC3    H1 9213   0.472   0.988  13.488 -1.4894  2.6714 -1.4865
  618TMC3    H2 9214   0.816   0.996  13.721  0.3443  1.1762 -0.6252
  618TMC3    C7 9215   0.698   0.876  13.527  0.5716  0.4603  0.4132
  618TMC3    C8 9216   0.741   1.239  13.866 -0.0431  0.0229 -0.2512
  618TMC3    O1 9217   0.619   0.820  13.451 -0.3276  0.1114 -0.4188
  618TMC3    O2 9218   0.684   1.317  13.946 -0.0444  0.1629  0.4270
  619MPD2     C 9219   1.551   1.956  13.743  0.1112 -0.5418  0.0114
  619MPD2    C1 9220   1.548   1.992  13.610 -0.2900 -0.8838  0.2565
  619MPD2    C2 9221   1.426   2.031  13.557 -0.7762  0.2446 -0.1778
  619MPD2    C3 9222   1.319   2.033  13.638 -0.1772  0.6032  0.3077
  619MPD2    C4 9223   1.322   2.005  13.771  0.1303 -0.2877 -0.0563
  619MPD2    C5 9224   1.441   1.961  13.822  0.6575  0.5537  0.2218
  619MPD2     H 9225   1.422   2.070  13.455  0.9950 -1.6421 -0.9630
  619MPD2    H1 9226   1.232   2.012  13.831  0.8702  0.9224  0.9047
  619MPD2    H2 9227   1.642   1.931  13.796 -1.4017 -1.0418  2.3505
  619MPD2    H3 9228   1.444   1.936  13.928 -2.4326 -0.7315  0.0057
  619MPD2     N 9229   1.202   2.075  13.561 -0.3323  0.4145 -0.8705
  619MPD2    H5 9230   1.194   2.056  13.462  3.1260 -0.9531 -0.8954
  619MPD2    N1 9231   1.661   2.000  13.527  0.2047 -0.3127 -0.0446
  619MPD2    H7 9232   1.637   2.006  13.429 -0.3262 -0.4529  0.0788
  620TMC3    C1 9233   1.874   2.028  13.460 -0.3104 -0.8560  0.3430
  620TMC3    C2 9234   1.815   2.057  13.337  0.1300  0.7137 -0.0844
  620TMC3    C3 9235   1.866   2.151  13.256  0.0374  0.2194 -0.0836
  620TMC3    C4 9236   1.989   2.104  13.495  0.2587  0.0952 -0.5634
  620TMC3    C5 9237   2.036   2.200  13.408  0.5653  0.0694  0.0980
  620TMC3    C6 9238   1.985   2.219  13.279 -0.7753 -0.0151 -0.3651
  620TMC3     C 9239   1.790   1.991  13.569 -0.0019  0.3572  0.4195
  620TMC3     O 9240   1.843   1.982  13.678 -0.2394  0.1084  0.4933
  620TMC3     H 9241   1.726   2.010  13.297 -0.0156  0.2736  0.7679
  620TMC3    H1 9242   2.030   2.100  13.596 -0.5405 -2.7790 -0.3412
  620TMC3    H2 9243   2.015   2.292  13.204  0.8106  2.5057  2.7241
  620TMC3    C7 9244   2.068   2.328  13.455 -0.6021 -0.2268 -0.8589
  620TMC3    C8 9245   1.805   2.198  13.129  0.6720  0.5735 -0.5862
  620TMC3    O1 9246   2.039   2.430  13.394  0.2225 -0.2492  0.5219
  620TMC3    O2 9247   1.872   2.210  13.029  0.2630 -0.3157 -0.0239
  621MPD2     C 9248   1.437   3.034   9.911  0.1119 -0.1509 -0.0919
  621MPD2    C1 9249   1.545   2.972   9.849  0.9986 -0.6671 -0.0227
  621MPD2    C2 9250   1.655   3.045   9.827  0.0528 -0.2002  0.1177
  621MPD2    C3 9251   1.658   3.176   9.860  0.8058 -0.2090  0.3787
  621MPD2    C4 9252   1.543   3.241   9.905 -0.7171 -0.1225  0.5309
  621MPD2    C5 9253   1.436   3.164   9.937  0.0182 -0.3021  0.2408
  621MPD2     H 9254   1.734   3.008   9.763 -0.5891 -0.3471 -0.5838
  621MPD2    H1 9255   1.527   3.345   9.933  0.6526  0.2009  0.0937
  621MPD2    H2 9256   1.343   2.983   9.929  0.1509  0.3683  1.5854
  621MPD2    H3 9257   1.349   3.213   9.979 -0.1848 -0.2495 -0.2369
  621MPD2     N 9258   1.777   3.250   9.825  0.1949 -0.2305 -0.1224
  621MPD2    H5 9259   1.863   3.200   9.809  0.9039  1.4302 -1.5175
  621MPD2    N1 9260   1.534   2.835   9.814 -0.8663  0.1041 -0.5259
  621MPD2    H7 9261   1.450   2.793   9.853 -0.0912 -0.5638  0.4254
  622TMC3    C1 9262   1.592   2.616   9.766 -1.1744  0.4347 -0.0983
  622TMC3    C2 9263   1.508   2.575   9.870  0.2990 -0.0510 -0.2081
  622TMC3    C3 9264   1.422   2.474   9.851 -0.0578  0.7750  0.2864
  622TMC3    C4 9265   1.591   2.544   9.652  0.3898  1.0713 -0.2312
  622TMC3    C5 9266   1.501   2.441   9.634  0.8104  0.1540  0.4801
  622TMC3    C6 9267   1.413   2.414   9.727 -0.7492  0.2270 -0.6213
  622TMC3     C 9268   1.629   2.757   9.749  0.0819  0.1468  0.4446
  622TMC3     O 9269   1.714   2.795   9.671  0.1984 -0.3699  0.0422
  622TMC3     H 9270   1.517   2.616   9.970  0.2913 -0.9504  0.1664
  622TMC3    H1 9271   1.648   2.579   9.566  2.2006  1.9722  1.3462
  622TMC3    H2 9272   1.333   2.342   9.715  1.6390 -2.6812  0.8833
  622TMC3    C7 9273   1.460   2.408   9.502  0.1671  1.0032  0.0576
  622TMC3    C8 9274   1.301   2.458   9.928 -0.0155 -0.0298  0.1723
  622TMC3    O1 9275   1.543   2.358   9.420  0.6899 -0.0290 -0.5772
  622TMC3    O2 9276   1.246   2.348   9.918  0.2357 -0.2496  0.1170
  623MPD2     C 9277   1.316   3.306  16.206 -0.7267  0.5802  0.4152
  623MPD2    C1 9278   1.245   3.219  16.282  0.1917  0.3574  0.8945
  623MPD2    C2 9279   1.304   3.146  16.383 -0.3056 -0.7092 -0.7418
  623MPD2    C3 9280   1.439   3.166  16.416  0.2818  0.0673 -0.0130
  623MPD2    C4 9281   1.512   3.249  16.331  0.1873  0.5570  0.3139
  623MPD2    C5 9282   1.445   3.325  16.230 -0.2654 -0.7216  0.0235
  623MPD2     H 9283   1.248   3.087  16.455  0.8241 -0.9118 -0.0280
  623MPD2    H1 9284   1.619   3.252  16.349  0.1337 -0.2707  0.7668
  623MPD2    H2 9285   1.265   3.366  16.131 -0.0665  0.3871 -0.1827
  623MPD2    H3 9286   1.503   3.398  16.174 -0.1095  0.0458  1.1814
  623MPD2     N 9287   1.490   3.110  16.532  0.4166  0.3698  0.4151
  623MPD2    H5 9288   1.420   3.063  16.588 -1.0771  0.0574 -1.7579
  623MPD2    N1 9289   1.106   3.219  16.258 -0.5122  0.6143  0.6995
  623MPD2    H7 9290   1.084   3.292  16.191  1.9914  1.7173  1.0639
  624TMC3    C1 9291   1.626   2.854  16.827 -0.1897 -0.4007  0.4086
  624TMC3    C2 9292   1.512   2.878  16.903 -0.2730  0.1657 -0.1559
  624TMC3    C3 9293   1.452   2.993  16.867  0.3133 -1.0439  0.2266
  624TMC3    C4 9294   1.686   2.951  16.746 -0.5932 -0.1531  0.2957
  624TMC3    C5 9295   1.614   3.066  16.722 -0.1450 -1.6985 -0.8526
  624TMC3    C6 9296   1.495   3.080  16.778  0.4115 -0.1369 -0.6879
  624TMC3     C 9297   1.683   2.721  16.842  0.4499  0.1257 -0.6523
  624TMC3     O 9298   1.631   2.660  16.932  0.1732  0.0971 -0.5714
  624TMC3     H 9299   1.466   2.813  16.976 -0.6392 -1.5633 -1.9264
  624TMC3    H1 9300   1.772   2.924  16.685  1.1411  3.4228  1.1706
  624TMC3    H2 9301   1.439   3.170  16.754  0.8001  0.5107  0.8527
  624TMC3    C7 9302   1.613   3.120  16.586  0.7879 -0.4963 -0.8226
  624TMC3    C8 9303   1.324   3.012  16.935 -0.4082 -0.2510  0.1492
  624TMC3    O1 9304   1.721   3.163  16.543  0.0418  0.8354 -0.0470
  624TMC3    O2 9305   1.253   2.917  16.964 -0.5506  0.0185  0.7591
  625MPD2     C 9306   1.294   4.733   0.635  0.7584  0.6120  0.0082
  625MPD2    C1 9307   1.345   0.121   0.628 -0.0795  0.2225 -0.0542
  625MPD2    C2 9308   1.468   0.151   0.681 -0.7043  0.2865 -0.4701
  625MPD2    C3 9309   1.541   0.045   0.740  0.1443 -0.5894 -0.1110
  625MPD2    C4 9310   1.486   4.660   0.745  0.0414 -0.0224  0.9097
  625MPD2    C5 9311   1.366   4.635   0.688  0.1568  0.5933  0.8597
  625MPD2     H 9312   1.506   0.253   0.682  2.1897 -0.7996  0.6558
  625MPD2    H1 9313   1.552   4.577   0.770 -0.3152 -0.5499  0.1118
  625MPD2    H2 9314   1.195   4.710   0.595  1.6918  0.0406 -1.9837
  625MPD2    H3 9315   1.330   4.533   0.694  4.3723 -0.8329  1.9260
  625MPD2     N 9316   1.658   0.084   0.813 -0.2579 -0.4910  0.2317
  625MPD2    H5 9317   1.682   0.182   0.808  0.0869 -0.5983 -0.2259
  625MPD2    N1 9318   1.271   0.227   0.573 -0.5028 -0.0378 -1.1790
  625MPD2    H7 9319   1.300   0.322   0.591 -0.4083 -0.4343  0.7906
  626TMC3    C1 9320   1.097   0.347   0.454 -0.5667 -0.3665 -0.5270
  626TMC3    C2 9321   1.026   0.348   0.339  0.1175 -0.1845 -0.5370
  626TMC3    C3 9322   0.922   0.432   0.334  0.3879  0.1451  0.0370
  626TMC3    C4 9323   1.056   0.412   0.565 -0.1532 -0.1873 -0.0394
  626TMC3    C5 9324   0.935   0.472   0.551  0.1317  0.6831 -0.6147
  626TMC3    C6 9325   0.856   0.484   0.439  0.0655 -0.0010  0.0111
  626TMC3     C 9326   1.166   0.216   0.481  0.7754  0.6868 -0.0474
  626TMC3     O 9327   1.107   0.119   0.438 -0.3936 -0.6113  0.4628
  626TMC3     H 9328   1.066   0.300   0.251  0.5370  0.4694 -0.7017
  626TMC3    H1 9329   1.108   0.420   0.659  1.6021 -1.9485 -0.8657
  626TMC3    H2 9330   0.774   0.554   0.435 -0.2289 -0.2686  1.3480
  626TMC3    C7 9331   0.884   0.549   0.669  0.5250 -0.3444 -0.2884
  626TMC3    C8 9332   0.869   0.456   0.195 -0.4058  0.2921  0.3218
  626TMC3    O1 9333   0.963   0.608   0.741  0.1295  0.0358  0.7870
  626TMC3    O2 9334   0.951   0.439   0.105 -0.0151  0.4289 -0.3933
  627MPD2     C 9335   4.459   4.623  14.650 -0.2527 -0.1343  0.6095
  627MPD2    C1 9336   4.533   4.620  14.534  0.0239  0.0601 -0.4733
  627MPD2    C2 9337   4.498   4.541  14.425 -0.1314  0.2624  0.3519
  627MPD2    C3 9338   4.382   4.462  14.427 -0.1188 -0.2417 -0.1234
  627MPD2    C4 9339   4.302   4.473  14.542  0.7841 -0.2226 -0.3439
  627MPD2    C5 9340   4.342   4.544  14.652 -0.0489 -0.2468  0.6110
  627MPD2     H 9341   4.561   4.518  14.340 -2.1370 -1.8679 -0.5480
  627MPD2    H1 9342   4.213   4.414  14.559  0.3449  0.0890 -1.6265
  627MPD2    H2 9343   4.487   4.683  14.735 -0.0866 -2.3495  2.1256
  627MPD2    H3 9344   4.271   4.548  14.734 -2.1501 -0.4868 -1.1941
  627MPD2     N 9345   4.361   4.354  14.331 -0.1907  0.1341 -0.3610
  627MPD2    H5 9346   4.430   4.325  14.262 -0.3483 -1.0175 -0.0329
  627MPD2    N1 9347   4.655   4.691  14.533  1.0730  0.4538 -0.3326
  627MPD2    H7 9348   4.691   4.719  14.443 -0.2404 -1.4418 -1.4544
  628TMC3    C1 9349   0.107   0.047  14.599 -0.0206 -0.4185  0.0858
  628TMC3    C2 9350   0.228   0.007  14.647  0.2554 -0.2499 -0.0227
  628TMC3    C3 9351   0.335   0.088  14.637 -0.2559 -0.5388  0.4458
  628TMC3    C4 9352   0.080   0.165  14.548 -0.1307  0.7007 -0.3265
  628TMC3    C5 9353   0.190   0.248  14.532  0.6612 -0.5603 -0.4758
  628TMC3    C6 9354   0.314   0.207  14.565  0.0264 -0.4731  0.1251
  628TMC3     C 9355   4.739   4.706  14.636 -0.4881  0.1046  0.0702
  628TMC3     O 9356   0.005   4.647  14.743  0.2378 -0.0053 -0.4157
  628TMC3     H 9357   0.240   4.652  14.694 -1.2483 -0.6420 -0.4488
  628TMC3    H1 9358   4.722   0.201  14.527 -0.0716  1.4144  0.6079
  628TMC3    H2 9359   0.392   0.282  14.564 -0.0441 -0.4307 -2.5614
  628TMC3    C7 9360   0.170   0.391  14.544 -0.1262  0.4381 -0.1220
  628TMC3    C8 9361   0.476   0.039  14.648 -0.0038 -0.3090 -0.3568
  628TMC3    O1 9362   0.250   0.433  14.623  0.1947 -0.3907  0.4489
  628TMC3    O2 9363   0.568   0.109  14.606  0.1234 -0.1009 -0.1195
  629MPD2     C 9364   3.003   3.799  16.341 -0.5376 -0.0584  0.2821
  629MPD2    C1 9365   3.107   3.720  16.374  0.1192 -0.5914 -0.5017
  629MPD2    C2 9366   3.087   3.589  16.414 -0.3716  0.0298  0.3244
  629MPD2    C3 9367   2.954   3.530  16.398 -0.7420 -0.0549  0.0957
  629MPD2    C4 9368   2.850   3.617  16.358  0.3061  0.3087  0.9500
  629MPD2    C5 9369   2.876   3.748  16.333 -0.1340 -0.4833  0.3120
  629MPD2     H 9370   3.160   3.527  16.465  0.8664 -0.6595 -2.2565
  629MPD2    H1 9371   2.748   3.581  16.365 -0.0763  0.9596 -1.4896
  629MPD2    H2 9372   3.030   3.904  16.329 -2.5206  0.3205 -0.9190
  629MPD2    H3 9373   2.791   3.811  16.313  0.7588  0.9400  0.9952
  629MPD2     N 9374   2.923   3.397  16.444 -1.2078  0.2805 -0.3940
  629MPD2    H5 9375   2.997   3.348  16.493 -2.5791 -0.5398  0.8256
  629MPD2    N1 9376   3.238   3.781  16.388 -0.4519  0.4157 -0.5988
  629MPD2    H7 9377   3.243   3.882  16.397 -0.7357  0.3526  0.2618
  630TMC3    C1 9378   3.452   3.785  16.464 -0.4114 -0.1814 -0.2894
  630TMC3    C2 9379   3.452   3.921  16.454 -0.2764 -1.3428 -0.3940
  630TMC3    C3 9380   3.491   3.990  16.565  0.7364 -0.5526 -0.4268
  630TMC3    C4 9381   3.496   3.718  16.571  0.6383 -0.2481 -0.0932
  630TMC3    C5 9382   3.519   3.788  16.688  0.4280 -0.5679  0.1718
  630TMC3    C6 9383   3.533   3.923  16.679  0.1179 -0.2374  0.2751
  630TMC3     C 9384   3.351   3.708  16.398 -0.2774  0.0501 -0.0766
  630TMC3     O 9385   3.366   3.592  16.379  0.3585 -0.1281 -0.1448
  630TMC3     H 9386   3.417   3.969  16.363  0.2501  0.3285  0.2873
  630TMC3    H1 9387   3.470   3.613  16.577  0.5364 -0.1976  0.3571
  630TMC3    H2 9388   3.554   3.983  16.767 -2.9164 -0.0528  0.8606
  630TMC3    C7 9389   3.476   3.725  16.815  0.4228  0.3612  0.2936
  630TMC3    C8 9390   3.556   4.116  16.546 -0.6270  0.0671  0.0304
  630TMC3    O1 9391   3.366   3.674  16.812  0.2646  0.4971 -0.1659
  630TMC3    O2 9392   3.638   4.149  16.630  0.1541 -0.5909  0.7208
  631MPD2     C 9393   1.316   2.830  15.606 -0.0699 -0.0596 -1.1426
  631MPD2    C1 9394   1.402   2.898  15.519 -0.2725  0.2580  0.3434
  631MPD2    C2 9395   1.543   2.883  15.534  0.1286  0.1942 -0.5234
  631MPD2    C3 9396   1.592   2.817  15.642 -0.3888 -0.0934  0.7704
  631MPD2    C4 9397   1.508   2.763  15.732  0.2598 -0.1290 -0.4423
  631MPD2    C5 9398   1.377   2.760  15.703  0.4654  0.7182  0.3656
  631MPD2     H 9399   1.610   2.919  15.456 -1.7937  1.1910 -1.7161
  631MPD2    H1 9400   1.544   2.717  15.823 -1.9502 -0.0234  0.4746
  631MPD2    H2 9401   1.209   2.842  15.592 -0.3108 -3.6496 -2.4189
  631MPD2    H3 9402   1.312   2.708  15.772  0.5801  0.5691  0.3609
  631MPD2     N 9403   1.733   2.824  15.663  0.6055 -0.2641 -0.0912
  631MPD2    H5 9404   1.790   2.876  15.596 -1.6120  0.9788 -0.9898
  631MPD2    N1 9405   1.344   2.985  15.421  0.5051  0.0618 -0.8003
  631MPD2    H7 9406   1.245   3.007  15.428  0.9557  2.5713 -2.4220
  632TMC3    C1 9407   1.348   3.154  15.247  0.8200  0.1661 -0.3622
  632TMC3    C2 9408   1.300   3.236  15.346 -0.2040 -1.1647  0.5513
  632TMC3    C3 9409   1.291   3.369  15.318  0.6176  0.2803  0.0002
  632TMC3    C4 9410   1.400   3.208  15.129  1.1949 -0.3110 -0.2697
  632TMC3    C5 9411   1.398   3.342  15.115  0.6206 -0.9117 -0.1420
  632TMC3    C6 9412   1.333   3.425  15.203 -0.0414 -0.1213 -0.2014
  632TMC3     C 9413   1.408   3.029  15.303 -0.3132 -0.0309  0.0073
  632TMC3     O 9414   1.512   2.988  15.259 -0.2596 -0.6604 -0.0521
  632TMC3     H 9415   1.262   3.208  15.444 -0.1077 -1.1687  0.5872
  632TMC3    H1 9416   1.452   3.143  15.060  0.3718  0.0591 -1.2275
  632TMC3    H2 9417   1.308   3.527  15.175 -2.9582 -0.8620 -0.2537
  632TMC3    C7 9418   1.465   3.400  14.999  0.3111  0.4041  0.8407
  632TMC3    C8 9419   1.245   3.448  15.433 -0.2583 -0.2011 -0.7749
  632TMC3    O1 9420   1.486   3.329  14.902  0.7551  0.3775 -0.7117
  632TMC3    O2 9421   1.178   3.406  15.526 -0.4228 -0.0462  0.2294
  633MPD2     C 9422   0.701   0.941  17.287  0.3619 -0.1061  0.2615
  633MPD2    C1 9423   0.784   0.896  17.190  0.0333 -0.0829 -0.3055
  633MPD2    C2 9424   0.882   0.797  17.222  0.1479 -0.1874 -0.0867
  633MPD2    C3 9425   0.900   0.765  17.356 -0.3164 -0.2748  0.1618
  633MPD2    C4 9426   0.825   0.821  17.452  0.1624  0.1619  0.2749
  633MPD2    C5 9427   0.721   0.910  17.419 -0.1747 -0.3704 -0.2496
  633MPD2     H 9428   0.941   0.753  17.142  2.3445  1.6714  0.5068
  633MPD2    H1 9429   0.844   0.796  17.556  0.6172  0.8660  0.3611
  633MPD2    H2 9430   0.624   1.014  17.267  0.5326  0.2983  1.0718
  633MPD2    H3 9431   0.657   0.945  17.499  0.3732  0.0762 -0.0054
  633MPD2     N 9432   1.003   0.683  17.391  0.5726  0.0276 -0.1399
  633MPD2    H5 9433   1.026   0.677  17.490 -1.1495 -0.3703  0.2214
  633MPD2    N1 9434   0.784   0.949  17.060  0.2270 -0.1781  0.0411
  633MPD2    H7 9435   0.849   0.898  17.000 -1.6441 -2.3216 -0.1976
  634TMC3    C1 9436   0.803   1.114  16.891 -0.2584 -0.7419 -0.1646
  634TMC3    C2 9437   0.847   1.023  16.801 -0.0513 -0.4372  0.0759
  634TMC3    C3 9438   0.947   1.071  16.717 -0.0731 -0.6063 -0.2532
  634TMC3    C4 9439   0.856   1.238  16.908 -0.6256 -0.2590  0.1222
  634TMC3    C5 9440   0.951   1.288  16.815  0.1483  0.1548 -0.0873
  634TMC3    C6 9441   0.998   1.200  16.720 -0.5209 -0.4512  0.2640
  634TMC3     C 9442   0.731   1.066  17.011  0.3020 -0.6600 -0.7485
  634TMC3     O 9443   0.655   1.145  17.064 -0.2470  0.1215 -0.2461
  634TMC3     H 9444   0.810   0.921  16.797  0.2767 -0.6039  1.4285
  634TMC3    H1 9445   0.836   1.299  16.996  0.1476  0.1350  0.0200
  634TMC3    H2 9446   1.086   1.224  16.662  0.1693 -1.0645  1.0580
  634TMC3    C7 9447   0.988   1.430  16.795  0.7224 -0.5632 -0.1231
  634TMC3    C8 9448   1.010   0.981  16.624  0.2903  0.6197 -0.1606
  634TMC3    O1 9449   1.042   1.458  16.686 -0.2543 -0.7603  0.3985
  634TMC3    O2 9450   1.113   1.014  16.567 -0.3218  0.0133 -0.1532
  635TMC3    C1 9451   2.240   2.413  17.727 -0.3746  0.0107 -0.0460
  635TMC3    C2 9452   2.341   2.469  17.655 -0.2042 -0.2994  0.1918
  635TMC3    C3 9453   2.429   2.378  17.596 -0.2733  0.3432 -0.5838
  635TMC3    C4 9454   2.224   2.279  17.749  0.2575 -0.4452 -0.6047
  635TMC3    C5 9455   2.313   2.197  17.695  1.0271  0.3652  0.9532
  635TMC3    C6 9456   2.420   2.244  17.613 -0.3130  0.9327 -0.3121
  635TMC3     C 9457   2.166   2.506   0.045 -0.4302  0.1376  0.0751
  635TMC3     O 9458   2.091   2.453   0.132  0.4845  0.0126  0.3136
  635TMC3     H 9459   2.364   2.573  17.674  0.9668 -0.8345  1.7212
  635TMC3    H1 9460   2.146   2.246   0.050  0.9866 -1.9960 -0.5206
  635TMC3    H2 9461   2.491   2.178  17.566 -0.0555  0.8978  0.1308
  635TMC3    C7 9462   2.301   2.062  17.728  0.5343  0.9415 -0.3409
  635TMC3    C8 9463   2.561   2.422  17.557 -0.5420 -0.1170  1.3691
  635TMC3    O1 9464   2.256   2.033   0.073 -0.1835 -0.4032  0.0069
  635TMC3    O2 9465   2.649   2.341  17.569 -0.8519 -0.4377 -0.1734
  636MPD2     C 9466   1.937   1.641  16.180 -0.6599  0.2329 -0.2181
  636MPD2    C1 9467   2.073   1.654  16.195  0.5153 -0.1023 -0.3249
  636MPD2    C2 9468   2.147   1.547  16.185  0.0841 -0.0338  0.1872
  636MPD2    C3 9469   2.091   1.427  16.160  0.3446 -0.1008 -0.6665
  636MPD2    C4 9470   1.955   1.407  16.141 -0.4786 -0.5296 -0.4833
  636MPD2    C5 9471   1.880   1.517  16.164 -0.4148 -0.7591 -0.1268
  636MPD2     H 9472   2.256   1.552  16.188  0.0515  0.3467  0.8333
  636MPD2    H1 9473   1.908   1.311  16.120 -1.9411  0.4621 -1.8409
  636MPD2    H2 9474   1.868   1.724  16.190  0.3901  1.1585 -0.7447
  636MPD2    H3 9475   1.774   1.520  16.140 -0.4947 -2.3792  0.0409
  636MPD2     N 9476   2.181   1.317  16.165 -0.2273 -0.6053 -0.2573
  636MPD2    H5 9477   2.281   1.336  16.162 -0.7565  2.1794 -0.2922
  636MPD2    N1 9478   2.139   1.781  16.215 -0.5087  0.6401 -0.0202
  636MPD2    H7 9479   2.239   1.778  16.235 -0.8667  2.0083  1.9143
  637TMC3    C1 9480   2.267   1.102  16.154 -0.5167  0.3466 -0.6775
  637TMC3    C2 9481   2.365   1.142  16.249 -0.1854  0.7787 -1.2372
  637TMC3    C3 9482   2.484   1.065  16.253 -0.5344  0.0382 -1.0641
  637TMC3    C4 9483   2.281   0.994  16.063  0.0635 -0.0056 -0.4740
  637TMC3    C5 9484   2.409   0.946  16.055 -0.0918 -0.3138 -0.0349
  637TMC3    C6 9485   2.502   0.972  16.156 -0.1767  0.1031 -0.2340
  637TMC3     C 9486   2.150   1.184  16.142  0.5388 -0.6916 -0.6495
  637TMC3     O 9487   2.050   1.133  16.092  0.1135  0.0950 -0.2644
  637TMC3     H 9488   2.355   1.219  16.325 -3.6060 -2.1110  1.1992
  637TMC3    H1 9489   2.212   0.974  15.982 -0.2709 -0.3797 -0.1060
  637TMC3    H2 9490   2.603   0.933  16.149 -0.7039 -1.0864 -1.3786
  637TMC3    C7 9491   2.466   0.974  15.923 -0.3851 -0.1727 -0.6995
  637TMC3    C8 9492   2.602   1.150  16.256  0.4855  0.1029  0.4213
  637TMC3    O1 9493   2.388   0.955  15.833 -1.0255  0.1460  0.2569
  637TMC3    O2 9494   2.682   1.136  16.167  0.5698 -0.5547  0.0590
  638MPD2     C 9495   2.005   0.650  14.977 -0.1043  0.4880  0.9116
  638MPD2    C1 9496   1.961   0.565  14.879  0.0973  0.8553 -0.2103
  638MPD2    C2 9497   1.955   0.430  14.918  0.0147 -0.3338  0.6933
  638MPD2    C3 9498   1.975   0.388  15.053 -1.0543  0.2969 -0.3989
  638MPD2    C4 9499   2.023   0.483  15.141  0.4366 -0.1123 -0.0263
  638MPD2    C5 9500   2.048   0.613  15.104 -0.7806 -0.2680  0.9118
  638MPD2     H 9501   1.916   0.361  14.844 -0.9199 -0.6236  1.4544
  638MPD2    H1 9502   2.060   0.442  15.234  1.3705  0.4205 -0.1687
  638MPD2    H2 9503   2.021   0.753  14.948 -1.1607  0.5115  0.4240
  638MPD2    H3 9504   2.091   0.688  15.169 -2.6239  0.2448  1.5651
  638MPD2     N 9505   1.949   0.263  15.094  0.0021 -0.0901  0.0367
  638MPD2    H5 9506   1.987   0.228  15.181 -0.6400 -1.1701 -0.1096
  638MPD2    N1 9507   1.941   0.610  14.743 -0.1290  0.3186  0.2734
  638MPD2    H7 9508   1.957   0.708  14.719 -1.3706  0.4403 -0.0497
  639TMC3    C1 9509   1.873   0.038  15.094  0.0121 -0.5964  0.6374
  639TMC3    C2 9510   1.770   4.711  15.044  1.0154 -0.1726 -0.2899
  639TMC3    C3 9511   1.779   4.577  15.009  0.2183 -0.3517 -0.5010
  639TMC3    C4 9512   1.996   4.727  15.111  0.1836 -0.3824 -0.1984
  639TMC3    C5 9513   2.008   4.603  15.068 -0.1997  0.0854  0.1275
  639TMC3    C6 9514   1.906   4.524  15.021  0.1110 -0.7247  0.0484
  639TMC3     C 9515   1.873   0.166  15.033 -0.1369 -0.4964 -0.3774
  639TMC3     O 9516   1.823   0.161  14.921 -0.0899 -0.5046 -0.6842
  639TMC3     H 9517   1.673   0.015  15.037  0.9531 -0.3326 -0.4959
  639TMC3    H1 9518   2.079   0.041  15.151  0.8333 -1.1239 -0.5091
  639TMC3    H2 9519   1.938   4.427  14.985 -0.2687 -0.4266 -1.0734
  639TMC3    C7 9520   2.139   4.540  15.079 -0.0226  0.0387  0.4641
  639TMC3    C8 9521   1.722   4.543  14.878 -0.2143 -0.5005 -0.1971
  639TMC3    O1 9522   2.138   4.419  15.101  0.2814 -0.0832  0.5905
  639TMC3    O2 9523   1.787   4.466  14.809  0.2653 -0.2696 -0.0431
  640MPD2     C 9524   1.533   3.870   9.295  0.0756  0.2687 -0.3073
  640MPD2    C1 9525   1.592   3.970   9.372 -0.6020  0.8616  0.4551
  640MPD2    C2 9526   1.505   4.037   9.470 -0.1145 -0.0763 -0.8199
  640MPD2    C3 9527   1.369   4.015   9.464  0.2838  0.2954 -0.4388
  640MPD2    C4 9528   1.321   3.926   9.369  0.5135  0.5813  0.2193
  640MPD2    C5 9529   1.404   3.847   9.292  0.3951 -0.0190  0.6788
  640MPD2     H 9530   1.547   4.106   9.542 -0.6293  0.2820 -0.8686
  640MPD2    H1 9531   1.213   3.917   9.373  0.5233 -0.3084 -1.8279
  640MPD2    H2 9532   1.580   3.802   9.226  0.5089  0.3660 -0.1076
  640MPD2    H3 9533   1.355   3.768   9.236 -0.4754 -0.3560  1.8913
  640MPD2     N 9534   1.280   4.085   9.547 -0.5928  0.3087  0.1504
  640MPD2    H5 9535   1.182   4.059   9.539 -0.6804  0.2764  1.3739
  640MPD2    N1 9536   1.731   3.988   9.353  0.5200  0.0106  0.6877
  640MPD2    H7 9537   1.776   3.936   9.278  0.2293  1.1962 -0.3021
  641TMC3    C1 9538   1.941   4.067   9.413  0.4547  0.2509 -0.4832
  641TMC3    C2 9539   2.003   3.943   9.408 -0.1851 -0.6536  0.1631
  641TMC3    C3 9540   2.130   3.934   9.461 -0.4040  0.6635 -0.4860
  641TMC3    C4 9541   2.027   4.174   9.431  0.1481 -0.4923  0.4883
  641TMC3    C5 9542   2.157   4.157   9.471 -0.1031 -0.1722  0.3822
  641TMC3    C6 9543   2.212   4.035   9.493  0.4612 -0.1945 -0.4472
  641TMC3     C 9544   1.803   4.087   9.421 -0.1845 -0.6162 -0.7904
  641TMC3     O 9545   1.759   4.176   9.492  0.8588 -0.2038 -0.2729
  641TMC3     H 9546   1.952   3.849   9.393 -0.1987 -0.6899  0.4502
  641TMC3    H1 9547   1.978   4.267   9.457  0.4464  0.0228 -0.8030
  641TMC3    H2 9548   2.311   4.018   9.534  0.0647  0.8186  0.9253
  641TMC3    C7 9549   2.232   4.275   9.525 -0.0562 -0.0285  0.5914
  641TMC3    C8 9550   2.185   3.802   9.453 -0.2226 -0.4979  0.5204
  641TMC3    O1 9551   2.324   4.259   9.607 -0.2856 -0.0785  0.2164
  641TMC3    O2 9552   2.160   3.738   9.354  0.0926  0.3121  0.2775
  642TMC3    C1 9553   3.424   0.001  12.626 -0.6487  0.6954  0.0836
  642TMC3    C2 9554   3.494   0.045  12.520 -0.2990 -0.9398 -0.3491
  642TMC3    C3 9555   3.498   4.716  12.402 -0.5157 -0.1457 -0.2900
  642TMC3    C4 9556   3.341   4.642  12.606  0.3844  0.3185  0.1278
  642TMC3    C5 9557   3.339   4.570  12.491  0.2179  0.5273  0.5016
  642TMC3    C6 9558   3.409   4.613  12.385  0.3285  0.4574  0.2424
  642TMC3     C 9559   3.370   0.114  12.708  0.9817  0.9303  0.7633
  642TMC3     O 9560   3.439   0.210  12.734  0.2691 -0.3117  0.2294
  642TMC3     H 9561   3.546   0.139  12.539  0.9606 -1.3696 -1.6915
  642TMC3    H1 9562   3.280   4.617  12.692 -0.1008 -0.3286 -0.4015
  642TMC3    H2 9563   3.407   4.563  12.289  0.9729  0.0369  0.4485
  642TMC3    C7 9564   3.310   4.429  12.504  0.1367  0.2270  0.4124
  642TMC3    C8 9565   3.579   0.016  12.293  0.4247 -0.4094  0.8456
  642TMC3    O1 9566   3.257   4.378  12.404  0.2183  0.7238  0.2434
  642TMC3    O2 9567   3.589   4.680  12.198 -0.1004  0.0452 -0.1320
  643TMC3    C1 9568   3.024   4.557   0.379  0.0976  0.8558 -0.1345
  643TMC3    C2 9569   2.894   4.571   0.406  0.5059 -0.1168  0.1347
  643TMC3    C3 9570   2.802   4.500   0.331  0.1203 -0.5363 -0.1383
  643TMC3    C4 9571   3.073   4.464   0.293  0.7491  0.1040 -0.3015
  643TMC3    C5 9572   2.981   4.399   0.216  0.1071 -0.3417 -0.3345
  643TMC3    C6 9573   2.847   4.417   0.228  0.1862  0.2638 -1.0108
  643TMC3     C 9574   3.115   4.645   0.459 -0.3315 -0.6482  0.4092
  643TMC3     O 9575   3.075   0.001   0.528  0.3784 -0.4007  0.3674
  643TMC3     H 9576   2.860   4.642   0.481 -0.3458  0.5144 -0.8422
  643TMC3    H1 9577   3.178   4.436   0.284  1.0303  1.4910 -1.2539
  643TMC3    H2 9578   2.773   4.363   0.170  0.4734  1.2547 -2.3065
  643TMC3    C7 9579   3.027   4.352   0.091  0.0403  0.0765 -0.3227
  643TMC3    C8 9580   2.686   4.575   0.293 -0.1179 -0.5419  0.8091
  643TMC3    O1 9581   3.131   4.402   0.040  0.1918 -0.5392 -0.2221
  643TMC3    O2 9582   2.574   4.540   0.330  0.2743 -0.3300 -0.0717
  644MPD2     C 9583   2.055   4.228  10.283  0.0817  0.0781  0.5964
  644MPD2    C1 9584   2.119   4.272  10.165  0.0770 -0.1453  0.8269
  644MPD2    C2 9585   2.086   4.396  10.121  0.7216  0.5404  0.4544
  644MPD2    C3 9586   2.006   4.484  10.196 -0.3518  0.3675  0.1338
  644MPD2    C4 9587   1.942   4.434  10.311 -0.5638  0.0776 -0.0334
  644MPD2    C5 9588   1.961   4.303  10.345  0.1525 -0.3926 -0.6511
  644MPD2     H 9589   2.145   4.433  10.038  0.0247  0.7446  0.0502
  644MPD2    H1 9590   1.869   4.487  10.371  1.0317  0.5706  1.4651
  644MPD2    H2 9591   2.091   4.134  10.323  0.1407  0.1161  0.6326
  644MPD2    H3 9592   1.922   4.270  10.441  0.6311  0.7804 -0.0547
  644MPD2     N 9593   1.997   4.617  10.152  0.5370  0.3078  0.8140
  644MPD2    H5 9594   2.054   4.650  10.075 -0.1322  0.6229  0.4642
  644MPD2    N1 9595   2.233   4.201  10.114  0.2230 -0.4958 -0.1008
  644MPD2    H7 9596   2.243   4.104  10.143 -2.2200 -0.8843 -0.5525
  645TMC3    C1 9597   1.930   0.097  10.138  0.7278 -0.5600  0.5995
  645TMC3    C2 9598   1.819   0.159  10.080 -0.2477  0.0989 -0.4257
  645TMC3    C3 9599   1.838   0.274  10.000  0.4254  0.9192  0.7104
  645TMC3    C4 9600   2.057   0.136  10.110 -0.1888  0.0341 -0.0813
  645TMC3    C5 9601   2.070   0.240  10.016 -0.4014 -0.5858 -0.8540
  645TMC3    C6 9602   1.967   0.314   9.959  0.4658 -0.0883 -0.2528
  645TMC3     C 9603   1.918   4.716  10.209 -0.6216 -0.1211 -0.0055
  645TMC3     O 9604   1.824   4.706  10.283  0.4052 -0.0119  0.1031
  645TMC3     H 9605   1.726   0.112  10.112  1.4949 -0.8973  3.1994
  645TMC3    H1 9606   2.139   0.075  10.147 -0.3604 -0.3932 -0.4045
  645TMC3    H2 9607   1.983   0.390   9.884  1.9589 -1.6464 -1.5149
  645TMC3    C7 9608   2.203   0.294   9.982  0.6405 -0.4540  0.6322
  645TMC3    C8 9609   1.730   0.324   9.919  0.1422 -0.7263 -0.0711
  645TMC3    O1 9610   2.200   0.375   9.890 -0.3241 -0.4297  0.5341
  645TMC3    O2 9611   1.761   0.423   9.854  0.3567  0.5717  0.6791
  646MPD2     C 9612   2.230   4.064  14.367  0.5238  0.7295 -0.8947
  646MPD2    C1 9613   2.150   3.981  14.445 -0.4332  0.0307  0.1664
  646MPD2    C2 9614   2.018   3.990  14.434 -1.0592 -0.2226  0.2207
  646MPD2    C3 9615   1.960   4.066  14.333 -0.2344  0.4812  0.7964
  646MPD2    C4 9616   2.040   4.137  14.250  0.0875  0.1743 -0.3236
  646MPD2    C5 9617   2.173   4.139  14.266 -1.3268 -0.5118 -0.5289
  646MPD2     H 9618   1.954   3.930  14.498  0.1005  0.6626  2.2136
  646MPD2    H1 9619   2.004   4.199  14.169 -2.2196 -0.6948  0.0169
  646MPD2    H2 9620   2.336   4.074  14.384  0.5637 -0.7246 -0.2931
  646MPD2    H3 9621   2.236   4.197  14.200 -0.1185 -0.9509  0.2223
  646MPD2     N 9622   1.821   4.053  14.319 -0.4505  1.5304 -0.3841
  646MPD2    H5 9623   1.771   3.992  14.383  0.1242  1.0902 -0.3515
  646MPD2    N1 9624   2.222   3.905  14.533  0.4828  0.4272 -0.5912
  646MPD2    H7 9625   2.323   3.911  14.540  0.2618  1.5922  1.6787
  647TMC3    C1 9626   2.259   3.747  14.708 -1.4543 -0.2303 -0.5621
  647TMC3    C2 9627   2.230   3.622  14.758 -0.1612 -0.1331 -0.5977
  647TMC3    C3 9628   2.334   3.555  14.812 -0.4131 -0.1312 -0.1002
  647TMC3    C4 9629   2.383   3.807  14.732  0.0687 -0.0350 -0.6324
  647TMC3    C5 9630   2.476   3.741  14.809  1.1939 -0.2460 -0.1864
  647TMC3    C6 9631   2.459   3.610  14.841  0.4318 -0.3161  0.0689
  647TMC3     C 9632   2.169   3.804  14.609  0.2143  0.5463 -0.0530
  647TMC3     O 9633   2.052   3.761  14.607  0.0612  0.0953  0.0808
  647TMC3     H 9634   2.135   3.575  14.738  0.2293 -1.7862  1.4041
  647TMC3    H1 9635   2.403   3.909  14.700  2.1507 -0.4940 -0.7864
  647TMC3    H2 9636   2.544   3.556  14.882  0.1027 -1.9686 -1.3999
  647TMC3    C7 9637   2.601   3.798  14.845  0.2470 -0.3747 -0.4633
  647TMC3    C8 9638   2.328   3.409  14.836 -0.0296 -0.0639 -0.3920
  647TMC3    O1 9639   2.698   3.718  14.845  0.3640 -0.3625 -0.0243
  647TMC3    O2 9640   2.429   3.369  14.886 -0.0851  0.2408 -0.6054
  648TMC3    C1 9641   1.575   1.238  16.234 -0.1690  0.2201  0.6224
  648TMC3    C2 9642   1.633   1.120  16.198  0.4206 -0.6510 -0.1076
  648TMC3    C3 9643   1.651   1.100  16.063 -0.3883  0.5160 -0.0528
  648TMC3    C4 9644   1.521   1.324  16.142 -0.8801  0.7988  0.2684
  648TMC3    C5 9645   1.524   1.291  16.003  0.1267 -0.2605 -0.2209
  648TMC3    C6 9646   1.598   1.182  15.966  0.1645 -0.2180 -0.0220
  648TMC3     C 9647   1.574   1.290  16.368  0.5037 -0.4214 -0.1572
  648TMC3     O 9648   1.593   1.408  16.389 -0.0389  0.2346 -0.4561
  648TMC3     H 9649   1.684   1.054  16.267  2.1266  1.9054  1.0732
  648TMC3    H1 9650   1.480   1.419  16.176 -1.0820  1.3139 -1.4017
  648TMC3    H2 9651   1.597   1.158  15.860 -0.7507  0.2865 -0.1191
  648TMC3    C7 9652   1.469   1.375  15.905 -0.1648  0.0222  0.1750
  648TMC3    C8 9653   1.688   0.958  16.025 -0.6899 -0.0642 -0.3839
  648TMC3    O1 9654   1.527   1.377  15.798 -0.4856 -0.4332 -0.1198
  648TMC3    O2 9655   1.676   0.878  16.118 -0.1038 -0.0729 -0.1829
  649TMC3    C1 9656   0.337   2.674  12.704 -1.2412 -0.0116  0.0135
  649TMC3    C2 9657   0.469   2.705  12.681  0.8488 -0.5263  0.4362
  649TMC3    C3 9658   0.565   2.663  12.769  0.0331 -0.2301  0.2934
  649TMC3    C4 9659   0.295   2.598  12.807 -0.5403 -0.2992 -0.2178
  649TMC3    C5 9660   0.398   2.542  12.884  0.1286 -0.4541 -0.0143
  649TMC3    C6 9661   0.533   2.584  12.873  0.1902 -0.3186  0.2917
  649TMC3     C 9662   0.225   2.728  12.621 -0.3209 -0.1507  0.3446
  649TMC3     O 9663   0.109   2.719  12.658  0.1432 -0.0903 -0.8288
  649TMC3     H 9664   0.500   2.767  12.598  1.8875 -0.3474  0.9542
  649TMC3    H1 9665   0.194   2.558  12.803 -0.6467 -0.0836  0.2141
  649TMC3    H2 9666   0.599   2.562  12.956  0.6934  0.6939  0.1553
  649TMC3    C7 9667   0.351   2.450  12.981  0.7545  0.0458 -0.0757
  649TMC3    C8 9668   0.695   2.716  12.754  0.5511  0.3347 -0.3764
  649TMC3    O1 9669   0.234   2.441  13.001  0.0131  0.2330 -0.1639
  649TMC3    O2 9670   0.725   2.799  12.667 -0.2993  0.1948  0.0095
  650TMC3    C1 9671   2.942   4.027  13.125 -0.3447 -0.2260  0.3795
  650TMC3    C2 9672   2.862   4.120  13.176  0.3064  0.7914 -0.3712
  650TMC3    C3 9673   2.726   4.107  13.165  0.3585  0.0167 -0.1138
  650TMC3    C4 9674   2.894   3.918  13.058  0.0928  0.5252 -0.8334
  650TMC3    C5 9675   2.757   3.910  13.042 -0.8172 -0.2098  0.0612
  650TMC3    C6 9676   2.672   4.011  13.083 -0.0445 -0.4400  0.5092
  650TMC3     C 9677   3.068   4.019  13.190  0.2243 -1.0480 -0.1841
  650TMC3     O 9678   3.114   4.119  13.240 -0.9103 -1.0698 -0.3517
  650TMC3     H 9679   2.899   4.190  13.249 -1.0900 -0.4293  1.5087
  650TMC3    H1 9680   2.963   3.847  13.014 -0.3257  0.1737 -0.9350
  650TMC3    H2 9681   2.565   4.000  13.070 -0.0117  0.8970 -0.9776
  650TMC3    C7 9682   2.720   3.808  12.951  0.4357  0.3496 -0.0735
  650TMC3    C8 9683   2.641   4.216  13.199  0.0517  1.0694 -0.3761
  650TMC3    O1 9684   2.788   3.708  12.933 -0.5530 -0.1896 -0.3050
  650TMC3    O2 9685   2.689   4.323  13.233 -0.0052  0.3003  0.6364
  651MPD2     C 9686   1.040   1.303  10.436  0.7474  0.2668  0.3475
  651MPD2    C1 9687   1.014   1.423  10.498 -0.3249  0.1125  0.3102
  651MPD2    C2 9688   1.104   1.474  10.590 -0.2273 -0.5849  0.1033
  651MPD2    C3 9689   1.236   1.427  10.593 -0.3446 -0.1737  0.1913
  651MPD2    C4 9690   1.268   1.321  10.512  0.2482 -0.1510 -0.0893
  651MPD2    C5 9691   1.171   1.258  10.440 -0.0763 -0.4431 -0.4549
  651MPD2     H 9692   1.096   1.573  10.633 -4.3007 -1.9231  2.4476
  651MPD2    H1 9693   1.365   1.273  10.510 -0.5198 -1.7311 -0.2419
  651MPD2    H2 9694   0.971   1.247  10.375  1.1531  0.8764 -0.6798
  651MPD2    H3 9695   1.182   1.164  10.387 -1.7685  0.2379 -2.0057
  651MPD2     N 9696   1.329   1.505  10.670  0.5393 -0.1265 -0.3590
  651MPD2    H5 9697   1.297   1.596  10.704  3.5299  1.8893 -2.9802
  651MPD2    N1 9698   0.886   1.487  10.481 -0.0960 -0.0442 -0.3118
  651MPD2    H7 9699   0.866   1.563  10.546  1.3078  1.3940 -1.5878
  652TMC3    C1 9700   1.774   1.640  10.766  0.2195 -0.2493 -0.0369
  652TMC3    C2 9701   1.679   1.543  10.762 -0.2611 -0.1550  0.4269
  652TMC3    C3 9702   1.552   1.575  10.712  0.7567  0.3096  0.1153
  652TMC3    C4 9703   1.734   1.766  10.740  0.0770  0.5480  1.2158
  652TMC3    C5 9704   1.609   1.796  10.699  0.6043  0.4250 -0.5741
  652TMC3    C6 9705   1.514   1.698  10.694 -0.6142  0.4450 -0.4542
  652TMC3     C 9706   1.915   1.597  10.783 -0.8073 -0.1982 -0.2574
  652TMC3     O 9707   1.931   1.477  10.788  0.2837  0.6739 -0.0622
  652TMC3     H 9708   1.711   1.440  10.769  1.2086  0.2439 -0.4175
  652TMC3    H1 9709   1.810   1.843  10.734  0.3474  0.2251  0.4731
  652TMC3    H2 9710   1.421   1.735  10.653 -1.3410  0.3027  1.0494
  652TMC3    C7 9711   1.577   1.939  10.675  0.0021  0.5853 -0.2622
  652TMC3    C8 9712   1.456   1.468  10.680  0.0921  0.5007  0.1801
  652TMC3    O1 9713   1.458   1.962  10.660 -0.0434  0.1802 -0.2884
  652TMC3    O2 9714   1.501   1.358  10.672 -0.3144  0.6932 -0.1499
  653MPD2     C 9715   0.617   1.369  17.532 -0.2182 -1.1773 -0.6702
  653MPD2    C1 9716   0.527   1.476  17.516  0.4392 -0.0475 -0.5828
  653MPD2    C2 9717   0.428   1.455  17.425 -0.1157 -0.2375 -0.5080
  653MPD2    C3 9718   0.403   1.334  17.362  1.0273  0.5734 -0.5507
  653MPD2    C4 9719   0.489   1.228  17.381 -0.1409  0.0780 -0.0818
  653MPD2    C5 9720   0.597   1.253  17.456  0.0973 -0.0232  0.8737
  653MPD2     H 9721   0.357   1.536  17.409  2.2400  1.7315 -1.0103
  653MPD2    H1 9722   0.474   1.136  17.326 -1.1909  2.3007 -3.5333
  653MPD2    H2 9723   0.703   1.376  17.597 -2.1951  3.3112  1.4261
  653MPD2    H3 9724   0.671   1.176  17.476 -2.2434 -2.7078 -0.8524
  653MPD2     N 9725   0.290   1.320  17.284  0.5230 -0.2621 -0.1342
  653MPD2    H5 9726   0.220   1.393  17.280 -0.0137 -0.8152 -0.9493
  653MPD2    N1 9727   0.539   1.604  17.569  0.2189  0.2916  0.3623
  653MPD2    H7 9728   0.469   1.675  17.552 -0.1093 -0.0858  0.1287
  654TMC3    C1 9729   0.120   1.199  17.148  0.0263  0.3313 -0.5739
  654TMC3    C2 9730   0.090   1.325  17.101 -0.4057 -0.5501 -0.4724
  654TMC3    C3 9731   0.067   1.335  16.964  0.1074  0.0194 -0.8719
  654TMC3    C4 9732   0.133   1.092  17.065 -0.1937 -0.0178 -0.2948
  654TMC3    C5 9733   0.116   1.114  16.932  0.4599  0.3051  0.0886
  654TMC3    C6 9734   0.078   1.230  16.873  0.2974 -0.2221  0.0565
  654TMC3     C 9735   0.236   1.197  17.243  0.7047 -0.5536  0.1640
  654TMC3     O 9736   0.277   1.086  17.264 -0.1280  0.8026  0.2310
  654TMC3     H 9737   0.067   1.414  17.157  0.2591  0.6212 -2.0543
  654TMC3    H1 9738   0.150   0.992  17.104 -1.9319 -0.8950 -1.7922
  654TMC3    H2 9739   0.055   1.243  16.768  1.3092  0.6137 -0.0606
  654TMC3    C7 9740   0.195   1.031  16.843 -0.7057  0.1926  0.0265
  654TMC3    C8 9741   0.022   1.462  16.913 -0.4196  0.3321 -0.0738
  654TMC3    O1 9742   0.187   1.044  16.719 -0.4506 -0.5009 -0.2121
  654TMC3    O2 9743   4.711   1.536  16.992  0.5089 -0.0492 -0.2338
  655MPD2     C 9744   2.110   1.678  15.598  0.2067 -1.2142 -0.3513
  655MPD2    C1 9745   1.982   1.704  15.552 -0.0562  1.0627  0.5456
  655MPD2    C2 9746   1.954   1.685  15.421  0.2422  0.5243  0.3607
  655MPD2    C3 9747   2.047   1.634  15.331  0.0942 -0.6707  0.2741
  655MPD2    C4 9748   2.180   1.606  15.379 -0.3444  0.9767  0.1568
  655MPD2    C5 9749   2.208   1.631  15.509 -0.1477  0.0981 -0.8480
  655MPD2     H 9750   1.853   1.699  15.384  0.0026 -0.8730  0.4661
  655MPD2    H1 9751   2.260   1.569  15.315 -0.2116  2.7939 -0.7265
  655MPD2    H2 9752   2.132   1.709  15.700 -0.3236 -0.2772 -0.5237
  655MPD2    H3 9753   2.311   1.619  15.539 -0.4313  1.4736  0.6565
  655MPD2     N 9754   2.007   1.622  15.197 -0.8202 -0.0825  0.4025
  655MPD2    H5 9755   1.909   1.648  15.183 -0.2692  0.9796 -1.4447
  655MPD2    N1 9756   1.874   1.751  15.635  0.3647  0.4884 -0.2765
  655MPD2    H7 9757   1.782   1.766  15.597 -0.9343 -0.1231  2.6172
  656TMC3    C1 9758   1.735   1.804  15.822 -0.6335  0.2304  0.5217
  656TMC3    C2 9759   1.700   1.773  15.951 -0.4100 -0.2659  0.4974
  656TMC3    C3 9760   1.619   1.855  16.024  0.2295  0.4802  0.6520
  656TMC3    C4 9761   1.677   1.900  15.770 -0.0899 -0.0538 -0.5059
  656TMC3    C5 9762   1.588   1.980  15.834 -0.0198 -0.0490 -0.4063
  656TMC3    C6 9763   1.558   1.961  15.965 -0.0519 -0.2023  0.0406
  656TMC3     C 9764   1.870   1.764  15.773  0.1336 -0.2131 -0.3088
  656TMC3     O 9765   1.955   1.733  15.857 -0.3102 -0.4874  0.2169
  656TMC3     H 9766   1.746   1.687  15.999  3.2707  0.0680 -2.4407
  656TMC3    H1 9767   1.712   1.931  15.672 -1.5382  3.2486  0.0345
  656TMC3    H2 9768   1.491   2.029  16.016  0.5573  0.4950 -0.0920
  656TMC3    C7 9769   1.552   2.101  15.763  0.2281 -0.1144 -0.0449
  656TMC3    C8 9770   1.547   1.783  16.132 -0.3756 -0.2698  0.2615
  656TMC3    O1 9771   1.636   2.144  15.688 -0.5432  0.2473 -0.1887
  656TMC3    O2 9772   1.572   1.667  16.154  0.1607  0.4001 -0.2325
  657TMC3    C1 9773   0.733   1.176  14.992  0.4426 -0.5171 -0.3085
  657TMC3    C2 9774   0.752   1.192  15.130  0.4240  0.1046  0.2672
  657TMC3    C3 9775   0.686   1.301  15.195 -0.3989  0.3364  0.6947
  657TMC3    C4 9776   0.646   1.259  14.923 -0.9716  0.3141  0.0100
  657TMC3    C5 9777   0.583   1.362  14.996  0.0909  0.1710  0.3055
  657TMC3    C6 9778   0.610   1.391  15.122  0.6923  0.3805 -0.0118
  657TMC3     C 9779   0.751   1.045  14.935  0.0318 -0.2427  0.6606
  657TMC3     O 9780   0.709   1.023  14.823  0.1049 -0.6392  0.1176
  657TMC3     H 9781   0.831   1.141  15.183  0.1277 -0.2243  0.3894
  657TMC3    H1 9782   0.609   1.226  14.827  1.2087  0.7485 -0.9781
  657TMC3    H2 9783   0.573   1.483  15.166  2.6733  1.5058 -0.7226
  657TMC3    C7 9784   0.513   1.463  14.912 -0.3482  0.5828 -0.2821
  657TMC3    C8 9785   0.686   1.325  15.337  0.1661  0.0938 -0.3035
  657TMC3    O1 9786   0.446   1.548  14.966 -0.0925  0.1513  0.0680
  657TMC3    O2 9787   0.656   1.439  15.370 -0.4348 -0.0395  0.4606
  658MPD2     C 9788   2.478   1.383  14.570  0.6150 -0.0727  0.1268
  658MPD2    C1 9789   2.337   1.396  14.556  0.3581 -0.0049  0.0405
  658MPD2    C2 9790   2.303   1.405  14.426  0.0612  0.1483  0.2049
  658MPD2    C3 9791   2.389   1.430  14.321  0.8137  0.3294 -0.5531
  658MPD2    C4 9792   2.527   1.435  14.340 -0.6649 -0.3306 -0.6648
  658MPD2    C5 9793   2.567   1.398  14.465  0.1797 -0.3316 -0.0500
  658MPD2     H 9794   2.198   1.393  14.402 -0.4458  0.4414  2.2488
  658MPD2    H1 9795   2.599   1.447  14.260  0.5879 -0.3513  0.4675
  658MPD2    H2 9796   2.519   1.372  14.670  0.8283 -1.4068 -0.1023
  658MPD2    H3 9797   2.673   1.389  14.487  0.4074  0.7819 -0.7290
  658MPD2     N 9798   2.313   1.431  14.193 -0.4038  0.4346  1.0467
  658MPD2    H5 9799   2.215   1.403  14.199 -0.4023 -0.7197 -3.8166
  658MPD2    N1 9800   2.250   1.409  14.666  0.1080 -0.4783 -0.4267
  658MPD2    H7 9801   2.291   1.446  14.751 -1.3486 -0.4659  0.2677
  659TMC3    C1 9802   2.041   1.491  14.747  0.6221 -0.2467 -0.5272
  659TMC3    C2 9803   2.094   1.501  14.873 -0.3438  0.2936 -0.7309
  659TMC3    C3 9804   2.023   1.566  14.974  0.0640 -0.5755  0.4570
  659TMC3    C4 9805   1.907   1.523  14.722  0.4849  0.2616  0.1086
  659TMC3    C5 9806   1.847   1.601  14.825  0.3646 -0.5936 -0.4449
  659TMC3    C6 9807   1.905   1.632  14.946 -0.2875 -0.1131 -0.3825
  659TMC3     C 9808   2.115   1.414  14.647  0.7567 -0.3878 -0.5624
  659TMC3     O 9809   2.047   1.359  14.565  0.4586  0.1698  0.1317
  659TMC3     H 9810   2.178   1.438  14.901 -1.5804 -0.9371  0.2772
  659TMC3    H1 9811   1.872   1.511  14.620  0.4539  0.4729  0.0949
  659TMC3    H2 9812   1.852   1.684  15.025  1.7470  0.1809  0.8000
  659TMC3    C7 9813   1.704   1.630  14.824 -0.8617 -0.0345  0.2772
  659TMC3    C8 9814   2.084   1.569  15.104  0.0520 -0.1098  0.3758
  659TMC3    O1 9815   1.655   1.663  14.932 -0.3201  0.0854  0.4819
  659TMC3    O2 9816   2.190   1.508  15.122 -0.2941 -0.0656  0.2779
  660MPD2     C 9817   4.190   0.601  12.239 -0.8808 -0.0907  0.3725
  660MPD2    C1 9818   4.074   0.645  12.297  0.7581  0.1326 -0.4486
  660MPD2    C2 9819   4.060   0.613  12.432 -0.4642 -0.3578 -0.5453
  660MPD2    C3 9820   4.160   0.547  12.505  0.0497  0.0811  0.6709
  660MPD2    C4 9821   4.277   0.502  12.443 -0.2434 -0.1730 -0.3837
  660MPD2    C5 9822   4.290   0.528  12.308 -0.8127 -0.5526  0.5034
  660MPD2     H 9823   3.969   0.639  12.485 -1.4239  0.0323 -2.3871
  660MPD2    H1 9824   4.350   0.441  12.495  2.5926  2.0036 -1.8485
  660MPD2    H2 9825   4.211   0.613  12.133 -1.3292  1.5580  0.4814
  660MPD2    H3 9826   4.382   0.497  12.260 -1.4565 -1.6788 -0.0095
  660MPD2     N 9827   4.146   0.514  12.648  0.2975  0.1371 -0.0769
  660MPD2    H5 9828   4.229   0.475  12.692  1.8682  0.8720 -2.3291
  660MPD2    N1 9829   3.990   0.716  12.215 -0.1355  0.0675  0.5972
  660MPD2    H7 9830   4.011   0.731  12.116  1.0675  2.3924  1.1915
  661TMC3    C1 9831   3.779   0.793  12.152 -0.6259 -0.5834  0.0370
  661TMC3    C2 9832   3.838   0.810  12.028  0.7159 -0.4704  0.3685
  661TMC3    C3 9833   3.787   0.738  11.922 -0.2005 -0.2207 -0.0830
  661TMC3    C4 9834   3.662   0.728  12.163  0.2853 -0.0881 -0.0257
  661TMC3    C5 9835   3.603   0.664  12.051  0.0110  0.2318 -0.1124
  661TMC3    C6 9836   3.671   0.663  11.934  0.0839  0.3471 -0.2739
  661TMC3     C 9837   3.867   0.762  12.255  0.0194  0.8647  0.3981
  661TMC3     O 9838   3.826   0.760  12.368  0.0559 -0.1673  0.3102
  661TMC3     H 9839   3.928   0.869  12.012  0.9769 -0.8467  0.4481
  661TMC3    H1 9840   3.603   0.743  12.253 -3.0475 -0.8133 -2.0878
  661TMC3    H2 9841   3.631   0.599  11.857  0.9391  0.2063 -0.6078
  661TMC3    C7 9842   3.510   0.557  12.076 -0.5032 -0.3053 -0.0236
  661TMC3    C8 9843   3.892   0.659  11.862 -0.2594  0.2741 -0.1248
  661TMC3    O1 9844   3.447   0.520  11.978  0.3069 -0.0371 -0.3391
  661TMC3    O2 9845   3.998   0.674  11.918  0.3438 -0.0807 -0.1833
  662MPD2     C 9846   0.342   0.396  16.865 -0.0382  0.9062  0.7802
  662MPD2    C1 9847   0.356   0.346  16.994  0.0292  0.0643 -0.6378
  662MPD2    C2 9848   0.284   0.422  17.093  0.2383 -1.2965 -0.3051
  662MPD2    C3 9849   0.214   0.533  17.071 -0.1632  0.0061  0.1567
  662MPD2    C4 9850   0.206   0.577  16.944 -0.1398 -0.0643  0.5849
  662MPD2    C5 9851   0.272   0.511  16.838  0.6441  0.2374 -0.0845
  662MPD2     H 9852   0.302   0.386  17.194  1.0896 -0.7756 -0.2714
  662MPD2    H1 9853   0.150   0.666  16.919  1.0757  0.5118 -0.0599
  662MPD2    H2 9854   0.385   0.344  16.780 -2.6263  1.6723 -0.9611
  662MPD2    H3 9855   0.266   0.548  16.737 -2.3961 -1.4993 -0.5357
  662MPD2     N 9856   0.120   0.593  17.159  0.1806 -0.8391 -0.0348
  662MPD2    H5 9857   0.048   0.657  17.127  0.9811 -0.1575 -0.4661
  662MPD2    N1 9858   0.423   0.232  17.031 -0.2034 -0.5560 -0.5056
  662MPD2    H7 9859   0.416   0.211  17.130  0.3071 -1.7793 -0.7214
  663TMC3    C1 9860   0.511   0.019  17.012  1.0085  0.0761  0.1205
  663TMC3    C2 9861   0.545   0.037  17.143  0.0862 -0.2385  0.8904
  663TMC3    C3 9862   0.573   4.666  17.218 -0.1513 -0.1002 -0.4482
  663TMC3    C4 9863   0.466   4.645  16.969  0.1929 -0.2063 -0.1079
  663TMC3    C5 9864   0.490   4.538  17.049  0.3308 -0.3246 -0.5094
  663TMC3    C6 9865   0.528   4.544  17.178  0.5563 -0.2588 -0.1594
  663TMC3     C 9866   0.473   0.136  16.941  0.4469 -0.0796  0.0515
  663TMC3     O 9867   0.453   0.125  16.822 -0.0069  0.3415  0.0739
  663TMC3     H 9868   0.579   0.131  17.183 -0.9553  0.6645 -0.3488
  663TMC3    H1 9869   0.420   4.644  16.871  1.6876  1.4238 -0.8135
  663TMC3    H2 9870   0.572   4.455  17.221  0.0215 -0.0408  0.8473
  663TMC3    C7 9871   0.465   4.412  16.980  1.2257 -0.2240 -0.1184
  663TMC3    C8 9872   0.544   4.693  17.361  0.0549 -0.2361 -0.3322
  663TMC3    O1 9873   0.445   4.422  16.856 -0.0149  0.1586  0.0955
  663TMC3    O2 9874   0.603   0.047  17.412 -0.0744  0.1846 -0.4399
  664MPD2     C 9875   2.899   2.983  17.681 -0.2454 -0.2416 -0.4076
  664MPD2    C1 9876   2.976   3.098  17.704 -0.5031 -0.1064  0.1558
  664MPD2    C2 9877   2.985   3.136   0.070  0.2256  0.0076 -1.0259
  664MPD2    C3 9878   2.900   3.088   0.171 -0.3455  0.7337 -0.1314
  664MPD2    C4 9879   2.823   2.981   0.146  0.6219  0.0844 -0.2808
  664MPD2    C5 9880   2.816   2.936   0.014 -0.0493  0.2861  0.1173
  664MPD2     H 9881   3.061   3.211   0.087 -1.2361  1.9355 -3.1405
  664MPD2    H1 9882   2.773   2.940   0.234  0.6205  0.1328 -0.2593
  664MPD2    H2 9883   2.882   2.941  17.583  1.7284  1.6611 -1.5888
  664MPD2    H3 9884   2.747   2.855  17.761  1.1332 -1.0743  1.5369
  664MPD2     N 9885   2.914   3.145   0.300 -0.1140  0.7750 -0.2325
  664MPD2    H5 9886   2.981   3.219   0.319  1.7680 -0.9261 -0.3006
  664MPD2    N1 9887   3.058   3.156  17.609 -0.5835 -0.6226 -0.3659
  664MPD2    H7 9888   3.135   3.215  17.640 -0.4236 -1.3625  0.6304
  665TMC3    C1 9889   2.922   3.155   0.535  0.1930 -0.3195 -0.6350
  665TMC3    C2 9890   2.993   3.066   0.611  0.2560 -0.5929  1.0358
  665TMC3    C3 9891   3.095   3.122   0.684  0.3067 -0.4596 -0.0650
  665TMC3    C4 9892   2.945   3.288   0.522  0.1262 -0.0902 -0.1786
  665TMC3    C5 9893   3.063   3.330   0.579 -0.3775  0.5187 -0.0423
  665TMC3    C6 9894   3.140   3.252   0.667 -0.0129 -0.3637  0.2603
  665TMC3     C 9895   2.870   3.085   0.421  0.3751 -0.4265  0.3917
  665TMC3     O 9896   2.812   2.979   0.449  0.0947  0.0960 -0.0972
  665TMC3     H 9897   2.963   2.962   0.614 -1.6875 -0.0728 -0.2482
  665TMC3    H1 9898   2.882   3.357   0.469 -0.8070 -1.5551 -0.9655
  665TMC3    H2 9899   3.226   3.285   0.725  0.8568 -0.6626 -0.8599
  665TMC3    C7 9900   3.086   3.475   0.588 -0.4882  0.8107 -0.3417
  665TMC3    C8 9901   3.174   3.045   0.778  1.1602 -0.3154  0.0229
  665TMC3    O1 9902   2.991   3.541   0.556 -0.2887 -0.3105  0.0576
  665TMC3    O2 9903   3.293   3.066   0.792 -0.1990 -0.1092  0.3336
  666TMC3    C1 9904   1.913   3.430   9.812  0.1894  0.0039  0.1771
  666TMC3    C2 9905   2.015   3.344   9.781  0.2028  0.7435  0.0329
  666TMC3    C3 9906   2.135   3.374   9.833 -0.3956  0.5632 -0.0367
  666TMC3    C4 9907   1.925   3.539   9.888  0.2074  0.3764 -0.0711
  666TMC3    C5 9908   2.050   3.567   9.943  0.0324 -0.7560  0.9610
  666TMC3    C6 9909   2.156   3.488   9.909 -0.4179 -0.7245  0.2213
  666TMC3     C 9910   1.776   3.383   9.816 -0.4889 -1.1738 -0.1235
  666TMC3     O 9911   1.687   3.465   9.812 -0.0123  0.0591 -0.0851
  666TMC3     H 9912   1.994   3.259   9.716  0.4509  0.2164  0.6449
  666TMC3    H1 9913   1.844   3.603   9.921 -0.1431 -0.2506  0.2904
  666TMC3    H2 9914   2.253   3.505   9.954 -0.9263  2.3454  0.1653
  666TMC3    C7 9915   2.060   3.666  10.052 -0.5406 -0.0094  0.7318
  666TMC3    C8 9916   2.189   3.257   9.888 -0.3618  0.0873 -0.2890
  666TMC3    O1 9917   2.134   3.762  10.036 -0.0964 -0.0247 -0.1266
  666TMC3    O2 9918   2.105   3.176   9.925  0.1196 -0.0148  0.0409
  667MPD2     C 9919   3.892   3.431  14.517 -0.3936  1.1211  0.9370
  667MPD2    C1 9920   3.953   3.364  14.627 -0.2808 -0.5555  0.4371
  667MPD2    C2 9921   3.908   3.237  14.656  0.2461 -0.2815 -0.6058
  667MPD2    C3 9922   3.798   3.182  14.585 -0.9549  0.6431 -0.6553
  667MPD2    C4 9923   3.740   3.250  14.482 -0.4520 -0.4714  0.2112
  667MPD2    C5 9924   3.787   3.369  14.444  0.2092  0.4323 -0.3639
  667MPD2     H 9925   3.962   3.192  14.739  1.3792 -0.5170 -1.4674
  667MPD2    H1 9926   3.662   3.206  14.421  0.4342  1.7851 -2.5267
  667MPD2    H2 9927   3.925   3.530  14.488  0.0380  0.6036 -0.3270
  667MPD2    H3 9928   3.737   3.412  14.358  0.0836 -2.5483 -1.7894
  667MPD2     N 9929   3.745   3.059  14.616 -0.4863  0.7196 -0.5407
  667MPD2    H5 9930   3.669   3.038  14.552 -0.3776 -0.7076 -0.1966
  667MPD2    N1 9931   4.056   3.420  14.709 -0.8162 -0.7035 -0.0262
  667MPD2    H7 9932   4.083   3.363  14.789 -0.0771 -1.3613 -0.7390
  668TMC3    C1 9933   4.176   3.600  14.802 -0.0667  0.1991  0.2323
  668TMC3    C2 9934   4.261   3.705  14.774  0.0551 -0.0431  0.2422
  668TMC3    C3 9935   4.322   3.759  14.883  0.6655 -0.5605 -0.5526
  668TMC3    C4 9936   4.153   3.545  14.928 -0.1532 -0.1260  0.3101
  668TMC3    C5 9937   4.206   3.613  15.033  0.5368  0.6384 -0.3083
  668TMC3    C6 9938   4.297   3.720  15.014  0.8927 -0.8159 -0.8120
  668TMC3     C 9939   4.103   3.546  14.685 -0.4647  0.2854 -0.1576
  668TMC3     O 9940   4.092   3.613  14.584 -0.1909  0.0971  0.3431
  668TMC3     H 9941   4.281   3.746  14.675 -2.1580  1.5680  0.4471
  668TMC3    H1 9942   4.083   3.462  14.934 -2.0462  1.4524  0.0578
  668TMC3    H2 9943   4.352   3.755  15.100 -0.8609 -1.8348  0.7267
  668TMC3    C7 9944   4.188   3.542  15.163  0.0897 -0.2133  0.9223
  668TMC3    C8 9945   4.380   3.887  14.862  1.3186  0.6394 -0.0622
  668TMC3    O1 9946   4.276   3.556  15.247 -0.1195  0.2262 -0.4169
  668TMC3    O2 9947   4.355   3.973  14.945 -0.1856 -0.0898  0.3552
  669TMC3    C1 9948   2.366   2.949  14.639  0.4521  0.0372 -0.2506
  669TMC3    C2 9949   2.290   2.953  14.523 -0.1681 -0.1437 -0.1447
  669TMC3    C3 9950   2.319   3.057  14.431  0.3298  0.5821 -0.4126
  669TMC3    C4 9951   2.466   3.042  14.675 -1.1463  0.3528  0.4920
  669TMC3    C5 9952   2.484   3.138  14.576 -0.4894 -0.5402  0.0756
  669TMC3    C6 9953   2.421   3.145  14.457  0.1679  0.1868 -0.1685
  669TMC3     C 9954   2.341   2.842  14.736  0.1189 -0.3345  0.1675
  669TMC3     O 9955   2.245   2.769  14.712 -0.0689 -0.1461  0.0476
  669TMC3     H 9956   2.204   2.887  14.516  1.4876 -2.0631 -2.2046
  669TMC3    H1 9957   2.510   3.045  14.774  1.3023  1.3130 -0.6366
  669TMC3    H2 9958   2.448   3.223  14.386 -0.1141  0.1440 -0.3249
  669TMC3    C7 9959   2.579   3.248  14.589  0.3523 -0.1438  0.6287
  669TMC3    C8 9960   2.213   3.102  14.347  0.3251 -0.0049 -0.0788
  669TMC3    O1 9961   2.579   3.346  14.515  0.6542 -0.0491 -0.0302
  669TMC3    O2 9962   2.221   3.222  14.313 -0.0047 -0.0692  0.2806
  670MPD2     C 9963   0.064   0.549  13.211  0.4342  0.5908  0.1818
  670MPD2    C1 9964   0.173   0.521  13.288 -0.1860  0.7067  0.0003
  670MPD2    C2 9965   0.174   0.559  13.427 -0.0062 -0.1477 -0.8677
  670MPD2    C3 9966   0.064   0.631  13.480 -0.6018 -0.2512 -0.2783
  670MPD2    C4 9967   4.699   0.659  13.396  0.3071  0.0690  0.1068
  670MPD2    C5 9968   4.702   0.620  13.267 -0.0927 -0.0148  0.3849
  670MPD2     H 9969   0.255   0.526  13.492  0.1074  2.9577  0.5998
  670MPD2    H1 9970   4.613   0.712  13.437  1.7472  1.7852  0.8877
  670MPD2    H2 9971   0.060   0.527  13.105 -1.0735  3.1617 -0.2804
  670MPD2    H3 9972   4.623   0.649  13.198 -0.9124 -3.5022 -0.1363
  670MPD2     N 9973   0.059   0.635  13.624 -0.3150  0.6541 -0.4023
  670MPD2    H5 9974   0.146   0.619  13.673  0.7526  1.4520 -2.0504
  670MPD2    N1 9975   0.286   0.456  13.239  0.4390  0.1530 -0.2982
  670MPD2    H7 9976   0.369   0.440  13.295  1.2600  0.6110 -1.3866
  671TMC3    C1 9977   4.717   0.654  13.833 -0.6267 -0.2513 -0.1844
  671TMC3    C2 9978   0.109   0.635  13.860  0.1356  0.6203  0.7080
  671TMC3    C3 9979   0.140   0.555  13.963  0.2599 -0.7712 -0.2685
  671TMC3    C4 9980   4.616   0.577  13.892  0.1949  0.2591 -0.1571
  671TMC3    C5 9981   4.657   0.491  13.990  0.2979  0.4396  0.4331
  671TMC3    C6 9982   0.048   0.473  14.031 -0.0339  0.6560  0.9277
  671TMC3     C 9983   4.702   0.689  13.696 -0.8225 -0.2099  0.2744
  671TMC3     O 9984   4.589   0.711  13.659 -0.3450 -0.4285 -0.0851
  671TMC3     H 9985   0.186   0.700  13.820  1.8228 -1.5579  0.4542
  671TMC3    H1 9986   4.517   0.573  13.848  0.7166 -2.0529 -1.1153
  671TMC3    H2 9987   0.072   0.386  14.091 -0.9328  0.4443  0.9848
  671TMC3    C7 9988   4.592   0.364  13.982  0.1322  0.3752 -0.2056
  671TMC3    C8 9989   0.279   0.531  13.991  0.0647 -0.3220  0.6222
  671TMC3    O1 9990   4.656   0.266  13.950  0.0501  0.3910 -0.2283
  671TMC3    O2 9991   0.351   0.542  13.897  0.9536 -0.1915 -0.0837
  672MPD2     C 9992   0.642   1.593   0.728 -0.2798  0.3434 -0.5235
  672MPD2    C1 9993   0.729   1.495   0.681 -1.1079  0.5901 -0.1564
  672MPD2    C2 9994   0.863   1.512   0.704  1.0465  0.4896 -0.8215
  672MPD2    C3 9995   0.907   1.633   0.763  0.4374  0.4163 -0.6097
  672MPD2    C4 9996   0.821   1.734   0.800 -0.4272  0.1320  0.1233
  672MPD2    C5 9997   0.693   1.708   0.779  0.0849 -0.3092  0.1042
  672MPD2     H 9998   0.935   1.435   0.680  1.2103  0.7619 -1.2199
  672MPD2    H1 9999   0.846   1.824   0.853  1.5798 -0.2137 -0.1995
  672MPD2    H210000   0.535   1.579   0.718 -0.4431  0.4028  1.1381
  672MPD2    H310001   0.625   1.781   0.820  1.0870  2.1538 -2.6234
  672MPD2     N10002   1.039   1.664   0.776 -0.0565 -0.1808  0.2495
  672MPD2    H510003   1.054   1.761   0.801  0.6104  0.0202 -0.9526
  672MPD2    N110004   0.691   1.377   0.610  0.1573  0.4021 -0.7000
  672MPD2    H710005   0.769   1.322   0.577 -0.2003 -0.1800 -0.5772
  673TMC3    C110006   0.550   1.229   0.485 -0.2246  0.3882  0.2992
  673TMC3    C210007   0.647   1.134   0.501  0.5663  0.1883 -0.2150
  673TMC3    C310008   0.613   1.015   0.431 -1.3766 -0.7063 -0.1224
  673TMC3    C410009   0.430   1.220   0.411 -0.0285 -0.2288  0.5085
  673TMC3    C510010   0.408   1.102   0.348  0.4959 -0.3274  0.2268
  673TMC3    C610011   0.488   1.000   0.367  0.4293 -1.4735 -0.8351
  673TMC3     C10012   0.565   1.348   0.571 -0.3875 -0.1604  0.0342
  673TMC3     O10013   0.461   1.398   0.607 -0.1875  0.6324  0.3302
  673TMC3     H10014   0.733   1.143   0.566  1.8611  0.6609 -2.0130
  673TMC3    H110015   0.364   1.304   0.396 -0.8697 -1.1648 -1.0259
  673TMC3    H210016   0.455   0.903   0.330  1.1348 -1.9075 -0.3239
  673TMC3    C710017   0.276   1.080   0.286 -0.5843  0.2814 -1.0696
  673TMC3    C810018   0.720   0.932   0.377  0.5473  0.7515 -1.5221
  673TMC3    O110019   0.253   0.970   0.238  0.1096 -0.1646 -0.3401
  673TMC3    O210020   0.692   0.857   0.281 -0.5501 -0.0593 -0.1417
  674MPD2     C10021   0.010   1.639  17.493  0.3803  0.1818 -0.2059
  674MPD2    C110022   4.715   1.511  17.516 -0.1077  0.0452 -0.0512
  674MPD2    C210023   4.580   1.481  17.513  0.4404 -0.1309  0.3539
  674MPD2    C310024   4.484   1.579  17.508 -0.1643 -0.0495  0.4436
  674MPD2    C410025   4.525   1.709  17.496  0.3274 -0.1578  0.4232
  674MPD2    C510026   4.658   1.733  17.486  0.2415 -0.4741  0.7543
  674MPD2     H10027   4.540   1.381  17.525  2.4489 -0.9331  0.3705
  674MPD2    H110028   4.459   1.794  17.476  1.5463  0.8113  0.5457
  674MPD2    H210029   0.116   1.663  17.492  0.1018  1.5269  1.6257
  674MPD2    H310030   4.690   1.836  17.478  0.1208 -0.5000 -0.0660
  674MPD2     N10031   4.354   1.525  17.510 -0.1543 -0.0160 -0.0627
  674MPD2    H510032   4.353   1.424  17.518 -1.6323 -0.3033 -3.7709
  674MPD2    N110033   0.067   1.412  17.543  0.5526  0.2774 -0.2090
  674MPD2    H710034   0.157   1.442  17.581  1.1646 -1.5054 -0.2362
  675TMC3    C110035   0.157   1.199  17.591  0.0001  0.2240  0.1845
  675TMC3    C210036   0.154   1.063  17.580  0.6228  0.0057  0.1371
  675TMC3    C310037   0.248   0.986  17.636  0.1228  0.1875 -0.4928
  675TMC3    C410038   0.258   1.261  17.664 -0.8336 -0.3973 -0.9670
  675TMC3    C510039   0.352   1.178  17.722 -0.1037  0.0265 -0.3622
  675TMC3    C610040   0.347   1.038  17.714 -0.5491  0.5519  0.1548
  675TMC3     C10041   0.053   1.275  17.529 -0.0754  0.3553  0.4281
  675TMC3     O10042   4.708   1.206  17.480  0.9137  0.3672 -0.3515
  675TMC3     H10043   0.071   1.012  17.532 -1.0244  2.7052  0.0978
  675TMC3    H110044   0.271   1.368  17.661 -1.7034 -0.2937 -1.0307
  675TMC3    H210045   0.425   0.981  17.764 -0.5727  0.4376  0.0623
  675TMC3    C710046   0.472   1.222   0.027 -0.2810  0.2744  0.3477
  675TMC3    C810047   0.213   0.846  17.652  0.6388 -0.0946  0.1636
  675TMC3    O110048   0.550   1.137   0.058 -0.0264  0.9118  0.1402
  675TMC3    O210049   0.213   0.783  17.547 -0.4960 -0.3585  0.3774
  676MPD2     C10050   2.580   3.899  11.476  0.1559  0.2409  0.5172
  676MPD2    C110051   2.531   3.823  11.580  0.8073 -0.5948 -0.2624
  676MPD2    C210052   2.509   3.689  11.555 -0.0808  0.3036  0.1697
  676MPD2    C310053   2.546   3.632  11.433 -1.0157  0.4541  0.4615
  676MPD2    C410054   2.606   3.704  11.332  0.5877  0.0093 -0.2713
  676MPD2    C510055   2.620   3.836  11.361  0.0663 -0.3567  0.2379
  676MPD2     H10056   2.470   3.633  11.639 -1.7347  0.8597 -0.2316
  676MPD2    H110057   2.638   3.678  11.232  1.2379  0.6666 -0.2341
  676MPD2    H210058   2.600   4.005  11.489  1.2425  0.2983 -1.5758
  676MPD2    H310059   2.662   3.898  11.282 -1.8173 -0.2059 -0.6414
  676MPD2     N10060   2.532   3.496  11.410  0.0226 -0.2888 -0.0232
  676MPD2    H510061   2.577   3.460  11.327  0.1861  0.3990 -0.2277
  676MPD2    N110062   2.514   3.872  11.710  0.0924 -0.3302 -0.6544
  676MPD2    H710063   2.490   3.811  11.788 -2.4799  0.2069 -1.0415
  677TMC3    C110064   2.573   4.013  11.897  0.2876 -0.9472 -0.0897
  677TMC3    C210065   2.529   3.914  11.984  0.0031 -0.3642  0.1515
  677TMC3    C310066   2.546   3.936  12.123 -0.3153 -0.5306 -0.7032
  677TMC3    C410067   2.629   4.128  11.944  0.1815  0.0627 -0.0077
  677TMC3    C510068   2.633   4.146  12.081  0.0545 -0.5235  0.3436
  677TMC3    C610069   2.590   4.052  12.174  0.3176 -0.5170  0.2616
  677TMC3     C10070   2.569   3.997  11.753 -0.3688  0.3984 -0.3644
  677TMC3     O10071   2.612   4.096  11.694 -0.6586  0.1107 -0.2037
  677TMC3     H10072   2.494   3.818  11.950 -0.9433 -0.5372  1.6130
  677TMC3    H110073   2.681   4.197  11.878 -0.5052 -1.9264 -2.6685
  677TMC3    H210074   2.605   4.063  12.280  0.3365  0.2661  0.1810
  677TMC3    C710075   2.685   4.270  12.135 -0.0307  0.0958 -0.0971
  677TMC3    C810076   2.547   3.832  12.222  0.4548 -0.5523  0.5329
  677TMC3    O110077   2.686   4.272  12.257  0.1312  0.1897 -0.8232
  677TMC3    O210078   2.647   3.843  12.294  0.0806 -0.1198  0.5082
  678MPD2     C10079   4.386   3.786   1.322 -0.0418 -0.0710 -0.9139
  678MPD2    C110080   4.368   3.840   1.191  0.5039 -0.2267 -0.1253
  678MPD2    C210081   4.251   3.903   1.167 -0.6928 -0.1779  0.1072
  678MPD2    C310082   4.158   3.936   1.267 -0.1611 -0.5471 -0.0942
  678MPD2    C410083   4.178   3.875   1.390 -0.1248  0.1509 -0.2155
  678MPD2    C510084   4.288   3.792   1.412 -0.7626  0.1745  0.1513
  678MPD2     H10085   4.229   3.931   1.064 -1.4454 -0.9206  0.0662
  678MPD2    H110086   4.118   3.900   1.477  1.3654 -1.1010  1.1783
  678MPD2    H210087   4.468   3.722   1.351 -1.2221 -0.8082  0.7610
  678MPD2    H310088   4.301   3.746   1.510 -3.8930  1.4216  1.1880
  678MPD2     N10089   4.045   4.024   1.235  0.3764 -0.2071 -0.0369
  678MPD2    H510090   4.033   4.039   1.135 -0.2039 -0.7564 -0.0438
  678MPD2    N110091   4.471   3.841   1.094 -0.1965 -0.6949 -0.1093
  678MPD2    H710092   4.458   3.883   1.003 -0.9098 -0.3981  0.1252
  679TMC3    C110093   0.142   3.744   0.907  0.6648 -0.1213 -0.0590
  679TMC3    C210094   0.067   3.753   1.024  0.1736 -0.1726 -0.2637
  679TMC3    C310095   4.682   3.801   1.005 -0.4471  0.2255  0.0057
  679TMC3    C410096   0.105   3.759   0.782 -0.7100  0.7908  0.3735
  679TMC3    C510097   4.719   3.810   0.771 -0.5463 -0.1974 -0.4954
  679TMC3    C610098   4.634   3.829   0.877 -0.4671 -0.5880 -0.3401
  679TMC3     C10099   0.271   3.680   0.922 -0.0188  0.1362  0.0508
  679TMC3     O10100   0.309   3.611   0.827  0.1950  0.1087  0.3499
  679TMC3     H10101   0.102   3.708   1.116  2.1520 -2.6501 -2.2342
  679TMC3    H110102   0.176   3.741   0.702 -0.6513  0.6803  0.4499
  679TMC3    H210103   4.529   3.850   0.861 -0.5537  0.8104  2.1013
  679TMC3    C710104   4.668   3.847   0.643  0.1166  0.3412 -0.5807
  679TMC3    C810105   4.597   3.789   1.118 -0.0660  0.6217 -0.0552
  679TMC3    O110106   4.576   3.931   0.646  0.2891 -0.2179 -0.0996
  679TMC3    O210107   4.653   3.775   1.226  0.0198 -0.5915 -0.4952
  680MPD2     C10108   4.199   1.962  13.333  0.0707  0.2235 -0.6055
  680MPD2    C110109   4.266   2.022  13.433  0.3332 -0.0235 -0.2450
  680MPD2    C210110   4.212   2.118  13.514  0.8238  0.2040 -0.2213
  680MPD2    C310111   4.093   2.178  13.485  0.0430  0.9740  0.0175
  680MPD2    C410112   4.025   2.119  13.378  0.4050  0.1504 -0.7756
  680MPD2    C510113   4.078   2.020  13.303  0.1862 -0.3028 -0.0336
  680MPD2     H10114   4.272   2.163  13.593 -0.5937 -0.0253  0.9737
  680MPD2    H110115   3.921   2.144  13.360  1.3250  2.3282 -2.9530
  680MPD2    H210116   4.236   1.875  13.279  3.7043 -0.7789  3.5057
  680MPD2    H310117   4.016   1.969  13.230  0.4314 -1.5593  0.6455
  680MPD2     N10118   4.035   2.280  13.564  0.1900  0.2615 -0.1315
  680MPD2    H510119   3.940   2.301  13.535  0.8252  1.9262 -0.9978
  680MPD2    N110120   4.396   1.978  13.466 -0.2904 -0.3832 -0.0359
  680MPD2    H710121   4.436   2.015  13.551 -2.1552 -0.4097  0.8354
  681TMC3    C110122   4.596   1.877  13.471 -0.2517  0.3094  0.2684
  681TMC3    C210123   4.574   1.881  13.602 -0.2893 -1.0390 -0.3527
  681TMC3    C310124   4.666   1.941  13.686 -0.3449 -0.0710  0.2736
  681TMC3    C410125   4.693   1.956  13.419 -0.3706 -0.8432 -0.4290
  681TMC3    C510126   0.038   2.017  13.501  0.5558  0.2837 -0.6321
  681TMC3    C610127   0.035   2.010  13.642 -0.3578 -0.0754  0.2212
  681TMC3     C10128   4.469   1.885  13.403  0.3981  0.2274 -0.6094
  681TMC3     O10129   4.458   1.827  13.296 -0.1515 -0.6184 -0.4802
  681TMC3     H10130   4.497   1.815  13.639  0.9806 -0.4136  3.4335
  681TMC3    H110131   4.698   1.973  13.312  0.4525  1.4526 -0.0085
  681TMC3    H210132   0.119   2.039  13.705 -1.6979  1.1527  1.4534
  681TMC3    C710133   0.172   2.032  13.447  0.5832 -0.1258 -0.3571
  681TMC3    C810134   4.602   1.994  13.804 -0.2763 -0.6562  0.1475
  681TMC3    O110135   0.260   1.978  13.511  0.3591 -0.5179  0.3445
  681TMC3    O210136   4.501   1.933  13.840  0.5262 -0.0878 -0.3129
  682MPD2     C10137   1.125   3.964  11.094 -0.0969  0.0120  0.0637
  682MPD2    C110138   1.186   3.843  11.062  0.3046  0.0795 -0.1499
  682MPD2    C210139   1.198   3.746  11.159 -0.1772  0.8239 -0.5477
  682MPD2    C310140   1.141   3.760  11.280 -1.1966  0.4272  0.0535
  682MPD2    C410141   1.085   3.883  11.319 -0.1580  0.4164  0.0020
  682MPD2    C510142   1.081   3.984  11.223 -0.3660 -0.2992  0.1571
  682MPD2     H10143   1.265   3.664  11.135 -0.7648  0.5066 -1.0920
  682MPD2    H110144   1.037   3.885  11.416 -0.4149 -1.7584 -0.0813
  682MPD2    H210145   1.110   4.046  11.024 -2.9672  0.7325  1.5662
  682MPD2    H310146   1.030   4.079  11.233  0.9960  0.2989  1.4457
  682MPD2     N10147   1.157   3.661  11.380  0.3069 -0.5001  0.1683
  682MPD2    H510148   1.122   3.682  11.472  1.3639 -0.5737  0.5842
  682MPD2    N110149   1.226   3.812  10.931 -0.1778  0.1788 -0.5267
  682MPD2    H710150   1.268   3.720  10.922 -1.8058 -0.4399 -1.7956
  683TMC3    C110151   1.368   3.460  11.669 -0.7271 -0.2047  0.1631
  683TMC3    C210152   1.388   3.327  11.655 -0.9013 -0.0389 -0.1617
  683TMC3    C310153   1.312   3.261  11.565 -0.4834 -0.7151  0.8067
  683TMC3    C410154   1.284   3.527  11.579  0.1809 -0.2099  0.1561
  683TMC3    C510155   1.223   3.459  11.472 -0.5268 -0.0123 -0.6079
  683TMC3    C610156   1.240   3.325  11.466 -0.3625 -0.0234 -0.0061
  683TMC3     C10157   1.438   3.531  11.770 -0.3126  0.8902 -0.0607
  683TMC3     O10158   1.439   3.651  11.751 -0.1416 -0.8138  0.0127
  683TMC3     H10159   1.469   3.281  11.710 -1.4844  0.6236  1.2746
  683TMC3    H110160   1.266   3.632  11.598 -0.2279  0.1110 -2.0512
  683TMC3    H210161   1.184   3.264  11.395 -0.8432  0.6731 -0.2219
  683TMC3    C710162   1.184   3.532  11.351 -0.2375 -0.8830 -0.0855
  683TMC3    C810163   1.289   3.113  11.589  1.1554 -0.2353 -0.1319
  683TMC3    O110164   1.179   3.469  11.251 -0.0264  0.0288  0.3498
  683TMC3    O210165   1.183   3.071  11.550  0.1400 -0.1811 -0.9969
  684MPD2     C10166   0.695   3.371  16.716 -0.2178 -0.2833 -0.3469
  684MPD2    C110167   0.619   3.400  16.605 -0.3245 -0.3928 -0.0854
  684MPD2    C210168   0.593   3.528  16.570  0.5058 -0.0134  0.3787
  684MPD2    C310169   0.629   3.631  16.655 -0.5767  0.2103 -0.6933
  684MPD2    C410170   0.698   3.607  16.770  0.2601 -0.3878 -0.0456
  684MPD2    C510171   0.732   3.476  16.798  0.5799 -0.2756 -0.6409
  684MPD2     H10172   0.550   3.539  16.471 -1.6366 -0.5179  1.2471
  684MPD2    H110173   0.726   3.694  16.828  0.1883  0.1565 -0.8245
  684MPD2    H210174   0.707   3.273  16.760  1.1509 -0.8712 -2.0177
  684MPD2    H310175   0.789   3.461  16.889 -0.9396 -0.0238  0.3547
  684MPD2     N10176   0.607   3.764  16.617  0.6986  0.4145 -0.2171
  684MPD2    H510177   0.656   3.829  16.678 -0.0727 -0.7529  1.6449
  684MPD2    N110178   0.599   3.308  16.495  0.2334 -0.5152 -0.6667
  684MPD2    H710179   0.565   3.347  16.408 -0.5388 -0.9202 -0.5531
  685TMC3    C110180   0.675   3.137  16.355  0.2084 -0.4070 -0.2464
  685TMC3    C210181   0.645   3.234  16.262 -0.1359  0.7875 -0.7929
  685TMC3    C310182   0.738   3.279  16.170 -0.6097 -0.5361 -0.1115
  685TMC3    C410183   0.796   3.078  16.343  0.0164 -0.0372  0.1474
  685TMC3    C510184   0.889   3.130  16.264  0.4083 -0.1177  0.2962
  685TMC3    C610185   0.863   3.218  16.167 -0.1407 -0.7932 -0.2907
  685TMC3     C10186   0.662   3.187  16.491 -0.9386 -0.7562  0.2515
  685TMC3     O10187   0.726   3.124  16.575  0.1032 -0.1822 -0.2031
  685TMC3     H10188   0.543   3.271  16.255  0.0362  1.1834 -1.2120
  685TMC3    H110189   0.830   3.005  16.415  1.8528 -1.5807 -2.3051
  685TMC3    H210190   0.931   3.263  16.094  0.6996 -1.1300  0.2819
  685TMC3    C710191   1.024   3.119  16.307  1.1463  0.0893 -0.1882
  685TMC3    C810192   0.714   3.382  16.069  0.1522  0.4557 -0.5167
  685TMC3    O110193   1.048   3.019  16.377  0.0132  0.3092 -0.0531
  685TMC3    O210194   0.761   3.378  15.956 -0.4530  0.3249  0.0890
  686MPD2     C10195   1.642   3.250  15.508  0.2646  0.1703  0.3956
  686MPD2    C110196   1.699   3.210  15.629  1.1526  0.2978 -0.4287
  686MPD2    C210197   1.838   3.176  15.635 -0.0533  0.0935 -0.4046
  686MPD2    C310198   1.913   3.183  15.523  0.4003 -0.2874  0.4874
  686MPD2    C410199   1.850   3.232  15.405 -0.7602  0.8533  0.0881
  686MPD2    C510200   1.716   3.257  15.396 -0.6657 -0.1198  0.3211
  686MPD2     H10201   1.887   3.139  15.724  1.2539 -0.3243 -1.3016
  686MPD2    H110202   1.909   3.252  15.316 -1.7707  0.5711 -0.6426
  686MPD2    H210203   1.537   3.277  15.515  0.1047 -0.3670  0.0408
  686MPD2    H310204   1.663   3.287  15.306  0.1453  1.9923  0.5388
  686MPD2     N10205   2.051   3.158  15.515  0.4259 -0.0775  0.2095
  686MPD2    H510206   2.091   3.190  15.428 -2.4262 -2.1361 -1.8695
  686MPD2    N110207   1.614   3.195  15.745  0.3450 -0.2495 -0.2548
  686MPD2    H710208   1.518   3.225  15.731  0.8594  1.7682  0.4813
  687TMC3    C110209   2.083   2.990  15.702 -0.7287  0.7920 -0.0391
  687TMC3    C210210   1.976   2.912  15.679 -1.0123  0.1311 -0.2727
  687TMC3    C310211   1.935   2.829  15.777 -0.0261 -0.2837  0.0617
  687TMC3    C410212   2.168   2.974  15.811  0.2007 -0.3662  0.2135
  687TMC3    C510213   2.121   2.890  15.907 -0.0972  0.4886 -0.1163
  687TMC3    C610214   2.007   2.815  15.894  0.0614 -0.7933 -0.0494
  687TMC3     C10215   2.131   3.080  15.597 -0.3229 -0.4877  0.5777
  687TMC3     O10216   2.253   3.065  15.585 -0.2538 -0.0252  0.1175
  687TMC3     H10217   1.929   2.924  15.583 -1.5630  3.7455  0.4686
  687TMC3    H110218   2.265   3.023  15.820  1.1926 -2.1861 -0.6050
  687TMC3    H210219   1.954   2.748  15.960 -0.5102  0.3694  0.6846
  687TMC3    C710220   2.209   2.887  16.020 -0.3221  0.2013  0.0361
  687TMC3    C810221   1.803   2.765  15.764 -0.2415  0.4586  0.2224
  687TMC3    O110222   2.324   2.905  16.015 -0.2475 -0.0795 -0.9293
  687TMC3    O210223   1.771   2.675  15.841 -0.4559 -0.2638 -0.5416
  688MPD2     C10224   1.121   2.194  17.622 -0.4662  0.0418  0.2376
  688MPD2    C110225   1.074   2.072  17.586  0.3562  0.5142 -0.3843
  688MPD2    C210226   1.122   2.014  17.475  0.2475  0.3557  0.1138
  688MPD2    C310227   1.216   2.076  17.390 -0.0067  0.0851 -0.3373
  688MPD2    C410228   1.255   2.207  17.420  0.3006 -0.3575 -0.3189
  688MPD2    C510229   1.205   2.263  17.535 -0.4757 -0.3670 -0.3151
  688MPD2     H10230   1.103   1.908  17.462  1.3489  0.2468 -0.5548
  688MPD2    H110231   1.321   2.268  17.359  1.2595 -0.2706  0.8109
  688MPD2    H210232   1.079   2.245  17.708 -0.6176 -1.5273  1.0981
  688MPD2    H310233   1.226   2.365  17.564  2.6171 -1.0010 -0.2702
  688MPD2     N10234   1.266   2.022  17.265 -0.9348  0.5575 -0.3651
  688MPD2    H510235   1.341   2.068  17.213 -0.3128 -0.7649 -0.6475
  688MPD2    N110236   0.965   2.005  17.643 -0.5412 -0.3097  0.4323
  688MPD2    H710237   0.941   1.918  17.597 -1.7348  0.1770  0.1322
  689TMC3    C110238   0.763   1.967  17.761  0.4746  0.7241 -0.0682
  689TMC3    C210239   0.661   2.007   0.076  0.1257  0.1775  0.6039
  689TMC3    C310240   0.555   1.922   0.095  0.3105 -0.1912  0.6792
  689TMC3    C410241   0.749   1.851  17.678  0.5252 -0.7435 -0.0876
  689TMC3    C510242   0.632   1.783  17.690 -0.1445 -0.0483  0.5633
  689TMC3    C610243   0.535   1.811   0.013 -0.2492 -0.5231  0.6579
  689TMC3     C10244   0.889   2.052  17.749  0.2445 -0.2247  0.2901
  689TMC3     O10245   0.895   2.160   0.043 -0.4662  0.0697 -0.5082
  689TMC3     H10246   0.677   2.083   0.152  1.9864  0.3909 -0.0078
  689TMC3    H110247   0.831   1.817  17.616  1.6310 -1.9541  2.0261
  689TMC3    H210248   0.453   1.741   0.024  0.1128 -0.8993  0.9416
  689TMC3    C710249   0.644   1.650  17.644 -0.6969 -0.3653 -0.3157
  689TMC3    C810250   0.449   1.946   0.197  0.0609 -0.4625 -0.7400
  689TMC3    O110251   0.754   1.600  17.668 -0.3902  0.2714  0.2670
  689TMC3    O210252   0.343   1.879   0.190  0.2709  1.1458 -0.2445
  690MPD2     C10253   3.254   3.966  15.874  0.1162 -0.6837  0.1812
  690MPD2    C110254   3.250   3.953  15.739  0.4022  0.0121 -0.3947
  690MPD2    C210255   3.307   4.040  15.657 -0.2944 -0.1611 -0.2146
  690MPD2    C310256   3.393   4.137  15.704 -0.5200 -0.5354  0.7330
  690MPD2    C410257   3.404   4.149  15.843  0.4920 -0.1568  0.0001
  690MPD2    C510258   3.337   4.062  15.923 -0.6339  0.9382  0.6722
  690MPD2     H10259   3.295   4.037  15.550  0.8808 -2.0449 -0.2910
  690MPD2    H110260   3.465   4.225  15.890  0.2673 -1.0647  1.7806
  690MPD2    H210261   3.201   3.903  15.945  0.2279 -2.1016 -0.9734
  690MPD2    H310262   3.326   4.077  16.030 -1.2769 -0.5508  0.8068
  690MPD2     N10263   3.457   4.220  15.608  0.1165 -0.3380 -0.4151
  690MPD2    H510264   3.429   4.197  15.513 -1.6529 -1.4504  0.3839
  690MPD2    N110265   3.186   3.844  15.678 -0.4407  0.5944  0.2204
  690MPD2    H710266   3.169   3.849  15.578  0.9813 -4.0028 -0.2321
  691TMC3    C110267   3.055   3.644  15.651  0.3928  0.5280 -0.6833
  691TMC3    C210268   3.000   3.697  15.538 -0.1522  0.2216 -0.1859
  691TMC3    C310269   2.950   3.616  15.440  0.3576  0.3216 -0.3885
  691TMC3    C410270   3.072   3.506  15.659 -0.2987 -0.1392  0.7138
  691TMC3    C510271   3.040   3.431  15.544  1.0528 -0.0886 -0.1062
  691TMC3    C610272   2.982   3.482  15.437 -0.0918  0.4842 -0.6298
  691TMC3     C10273   3.139   3.730  15.741 -0.0402 -0.0731 -0.0595
  691TMC3     O10274   3.181   3.683  15.845 -0.1708 -0.4850 -0.0611
  691TMC3     H10275   2.975   3.802  15.532 -1.4309 -0.0637  0.1769
  691TMC3    H110276   3.115   3.464  15.749 -0.4138 -0.7094  0.4980
  691TMC3    H210277   2.955   3.423  15.351  0.5504 -0.6460 -0.0579
  691TMC3    C710278   3.040   3.284  15.564  0.0471  0.1665  0.3015
  691TMC3    C810279   2.840   3.663  15.357 -0.3114 -0.1861 -0.6294
  691TMC3    O110280   3.099   3.243  15.664 -0.7651 -0.3640 -0.0709
  691TMC3    O210281   2.791   3.578  15.286  0.0700 -0.8328  0.5691
  692TMC3    C110282   0.111   0.119  15.718  0.5124 -0.1867 -0.1138
  692TMC3    C210283   0.237   0.160  15.747  0.8723  0.1949  0.2894
  692TMC3    C310284   0.320   0.094  15.836 -0.4114 -0.3264  0.5988
  692TMC3    C410285   0.074   4.733  15.751 -0.1886 -0.3579 -0.2281
  692TMC3    C510286   0.165   4.653  15.818 -0.3286 -0.0723  0.7537
  692TMC3    C610287   0.286   4.708  15.871  0.1843 -0.1720  0.2588
  692TMC3     C10288   0.009   0.214  15.698  0.0899 -0.5082  0.1485
  692TMC3     O10289   4.640   0.166  15.689 -0.7724 -0.3144 -0.2189
  692TMC3     H10290   0.281   0.254  15.716  0.8198  0.0405 -0.2570
  692TMC3    H110291   4.716   4.700  15.728 -1.0150  3.1377 -1.6804
  692TMC3    H210292   0.360   4.638  15.908 -0.8250 -1.5837 -0.4105
  692TMC3    C710293   0.101   4.536  15.874 -0.3482  0.4000  0.0083
  692TMC3    C810294   0.375   0.166  15.954 -0.2754 -0.6889  0.7421
  692TMC3    O110295   0.015   4.480  15.811  0.7243  0.3213 -0.2321
  692TMC3    O210296   0.418   0.101  16.046  0.1500 -0.0304  0.2506
  693MPD2     C10297   3.964   2.960  10.557 -0.4084 -0.0947  0.5680
  693MPD2    C110298   3.884   2.848  10.547  0.3467 -0.2136 -0.2617
  693MPD2    C210299   3.899   2.735  10.621 -0.4325  0.0472  0.3285
  693MPD2    C310300   4.010   2.733  10.704  0.2328 -0.2096  0.1535
  693MPD2    C410301   4.098   2.835  10.707 -0.1781 -0.2294  0.4436
  693MPD2    C510302   4.073   2.951  10.631 -0.1002  0.6202 -0.9908
  693MPD2     H10303   3.829   2.653  10.615 -0.5510  0.0559  1.7615
  693MPD2    H110304   4.187   2.832  10.769  0.1710 -0.2063 -0.0539
  693MPD2    H210305   3.953   3.032  10.478  2.1592 -1.0193 -0.6262
  693MPD2    H310306   4.152   3.024  10.643  0.5657 -0.3416  0.5004
  693MPD2     N10307   4.051   2.623  10.777  0.6687  0.2040  0.2353
  693MPD2    H510308   4.145   2.621  10.817  0.5017 -1.3733  0.5401
  693MPD2    N110309   3.785   2.863  10.446  0.7522 -0.7983  0.1774
  693MPD2    H710310   3.788   2.953  10.398  0.9599 -1.1877 -0.5415
  694TMC3    C110311   3.588   2.843  10.331 -0.6798  0.1724  0.3024
  694TMC3    C210312   3.490   2.765  10.276  0.0193 -0.7779 -0.2817
  694TMC3    C310313   3.367   2.817  10.269 -0.0327  0.4510  0.0603
  694TMC3    C410314   3.555   2.972  10.369  0.4480 -0.6524  0.5512
  694TMC3    C510315   3.429   3.024  10.370 -0.1140 -0.1742 -0.1848
  694TMC3    C610316   3.334   2.939  10.314 -0.0015  0.7134  0.3109
  694TMC3     C10317   3.685   2.774  10.414  0.2899  0.1652 -0.3050
  694TMC3     O10318   3.662   2.656  10.447  0.0941 -0.7057 -0.4499
  694TMC3     H10319   3.508   2.661  10.253  1.6805 -0.8957  1.5733
  694TMC3    H110320   3.628   3.040  10.410  1.1293 -0.5908 -0.7681
  694TMC3    H210321   3.233   2.977  10.314 -1.1588 -2.4418 -0.9752
  694TMC3    C710322   3.398   3.086  10.491  0.1459  0.7688  0.0902
  694TMC3    C810323   3.253   2.733  10.232 -0.5288 -0.4578 -0.2355
  694TMC3    O110324   3.440   3.196  10.516  0.0080  0.2227 -0.2819
  694TMC3    O210325   3.262   2.616  10.257 -0.0066 -0.0455  0.2942
  695MPD2     C10326   0.539   4.729  13.175 -0.1443 -0.3606 -0.3179
  695MPD2    C110327   0.497   0.005  13.305  0.0048 -0.2144  0.1046
  695MPD2    C210328   0.360   0.018  13.335 -0.2228  0.1917  0.0405
  695MPD2    C310329   0.267   0.023  13.232  0.8326  0.0200  0.0880
  695MPD2    C410330   0.312   4.741  13.101 -0.4551 -0.0020 -0.0478
  695MPD2    C510331   0.446   4.731  13.074  0.1697 -0.3159 -0.3644
  695MPD2     H10332   0.329   0.047  13.435  0.6555  2.7720 -0.4316
  695MPD2    H110333   0.256   4.739  13.008 -0.1638  2.6704 -0.2703
  695MPD2    H210334   0.641   4.716  13.144  0.1018 -1.0967  0.7783
  695MPD2    H310335   0.477   4.720  12.971  1.5358  0.4359 -0.0353
  695MPD2     N10336   0.136   0.059  13.256 -0.7448  0.0817  0.1483
  695MPD2    H510337   0.118   0.073  13.355  2.7077 -1.4421  0.9801
  695MPD2    N110338   0.590   0.006  13.406 -0.1864  0.4718 -0.7847
  695MPD2    H710339   0.546   4.733  13.496  2.4473  0.6830  0.5195
  696TMC3    C110340   4.662   0.124  13.240 -0.0749 -0.1576 -0.2513
  696TMC3    C210341   4.633   0.052  13.353 -0.5543  0.6956  0.2615
  696TMC3    C310342   4.513   0.090  13.416 -0.7010 -0.1324 -0.7760
  696TMC3    C410343   4.599   0.235  13.192 -0.0491  0.0982 -0.3633
  696TMC3    C510344   4.490   0.271  13.260  0.0520 -0.3440  0.3120
  696TMC3    C610345   4.433   0.193  13.363 -0.2129 -0.0539 -0.3936
  696TMC3     C10346   0.041   0.091  13.168  0.5275 -0.5061 -0.4469
  696TMC3     O10347   0.052   0.117  13.049 -0.2837  0.6767  0.8537
  696TMC3     H10348   4.696   4.722  13.403 -0.2925  0.3501 -0.5575
  696TMC3    H110349   4.624   0.299  13.108  0.2211  1.6285  0.8730
  696TMC3    H210350   4.340   0.226  13.408 -1.1180 -1.6323 -1.1172
  696TMC3    C710351   4.426   0.399  13.231 -0.0898 -0.3858 -0.4650
  696TMC3    C810352   4.497   0.070  13.563 -0.6230  0.2567 -0.3396
  696TMC3    O110353   4.442   0.454  13.124 -0.1334  0.2122  0.3298
  696TMC3    O210354   4.595   0.044  13.634 -0.0304 -0.0715 -0.6586
  697MPD2     C10355   4.389   1.829  15.850 -0.2874  0.4045 -0.0411
  697MPD2    C110356   4.361   1.827  15.713 -0.9114 -0.0352 -1.2850
  697MPD2    C210357   4.381   1.950  15.645 -0.2536  0.3599 -0.8544
  697MPD2    C310358   4.452   2.056  15.695 -0.0068 -0.6938 -0.5692
  697MPD2    C410359   4.479   2.045  15.827  0.8017  0.0762 -0.2130
  697MPD2    C510360   4.443   1.940  15.900  0.8811 -0.0475  0.4407
  697MPD2     H10361   4.346   1.965  15.543  2.4556 -0.4069 -1.9031
  697MPD2    H110362   4.527   2.127  15.878 -1.7490  1.4247  0.0224
  697MPD2    H210363   4.371   1.749  15.921 -1.7059  1.0031  0.2731
  697MPD2    H310364   4.466   1.938  16.006  0.1983  0.5147  0.5968
  697MPD2     N10365   4.486   2.169  15.619 -0.2775  0.9024  0.4100
  697MPD2    H510366   4.452   2.168  15.523 -0.7653  2.1689  0.5727
  697MPD2    N110367   4.313   1.721  15.641 -0.4613 -0.7905 -0.5280
  697MPD2    H710368   4.302   1.728  15.540  2.5420  1.3981 -0.7136
  698TMC3    C110369   4.598   2.362  15.558 -0.7425 -0.0698 -0.2715
  698TMC3    C210370   4.484   2.409  15.492 -0.0354  0.2723 -0.1982
  698TMC3    C310371   4.506   2.476  15.374 -0.2405 -0.1098  0.2808
  698TMC3    C410372   4.725   2.397  15.524  0.0292 -0.2333  0.5465
  698TMC3    C510373   0.004   2.472  15.409  0.0569 -0.6713 -0.0697
  698TMC3    C610374   4.632   2.508  15.333 -0.6544  0.3573  0.1031
  698TMC3     C10375   4.577   2.264  15.661  0.1823  0.5762  0.3083
  698TMC3     O10376   4.661   2.263  15.755  0.0851 -0.5220 -0.2896
  698TMC3     H10377   4.384   2.392  15.530 -0.3476  1.3442 -0.5464
  698TMC3    H110378   0.063   2.341  15.570  1.0820  0.8864  0.0551
  698TMC3    H210379   4.641   2.563  15.240 -1.5770  0.6717  0.1910
  698TMC3    C710380   0.124   2.430  15.331 -0.2358 -0.1712 -0.6702
  698TMC3    C810381   4.386   2.527  15.310 -0.1598  0.3364  0.0155
  698TMC3    O110382   0.210   2.368  15.391 -0.2089 -0.0477 -0.0951
  698TMC3    O210383   4.273   2.506  15.357 -0.3511  0.0839 -0.1950
  699TMC3    C110384   4.075   0.508  12.868 -0.1920 -0.4153 -0.7823
  699TMC3    C210385   4.128   0.381  12.889 -0.0609 -0.6115 -0.8667
  699TMC3    C310386   4.123   0.335  13.017 -0.4511 -0.0100 -0.3592
  699TMC3    C410387   4.016   0.578  12.964  0.1414 -0.2264  0.0724
  699TMC3    C510388   4.006   0.525  13.094  0.1108  0.3376 -0.4040
  699TMC3    C610389   4.070   0.406  13.122  0.0909 -0.1163 -0.3676
  699TMC3     C10390   4.050   0.557  12.735 -0.2555 -0.0954 -0.1236
  699TMC3     O10391   3.931   0.586  12.712 -0.5795  0.6060  0.1327
  699TMC3     H10392   4.150   0.311  12.810 -1.8125 -0.4442 -1.5111
  699TMC3    H110393   3.957   0.665  12.935  0.4783  0.0664  0.2646
  699TMC3    H210394   4.078   0.359  13.220  0.4684  1.4206  0.3472
  699TMC3    C710395   3.918   0.564  13.200  0.1790 -0.3568 -0.2965
  699TMC3    C810396   4.181   0.200  13.042 -0.4430  0.1916  0.6502
  699TMC3    O110397   3.886   0.487  13.293 -0.1248  0.1775  0.1489
  699TMC3    O210398   4.151   0.148  13.149 -0.5401  0.0905  0.1654
  700TMC3    C110399   3.694   2.870  17.483 -0.2471 -0.1681 -0.1315
  700TMC3    C210400   3.719   2.743  17.446  0.7690  0.3210 -0.7858
  700TMC3    C310401   3.839   2.691  17.467  0.4267 -0.1012 -0.2807
  700TMC3    C410402   3.784   2.948  17.553  0.6835 -0.2565 -0.6692
  700TMC3    C510403   3.913   2.896  17.570 -0.3068  0.1202  0.0640
  700TMC3    C610404   3.940   2.766  17.525 -0.1781  0.0849 -0.1130
  700TMC3     C10405   3.645   2.944  17.363 -0.2003 -0.6619  0.2229
  700TMC3     O10406   3.584   2.888  17.274 -0.0951 -0.4775  0.7686
  700TMC3     H10407   3.647   2.694  17.382 -1.1447  1.7999  0.2544
  700TMC3    H110408   3.753   3.037  17.607 -0.4509 -0.4324 -1.0421
  700TMC3    H210409   4.038   2.721  17.535 -0.1094 -0.2257 -2.2265
  700TMC3    C710410   4.029   2.992  17.596 -0.0523  0.5043 -0.0893
  700TMC3    C810411   3.886   2.570  17.395  0.4201  0.4110  0.2840
  700TMC3    O110412   4.011   3.109  17.576 -0.5167  0.3178 -0.2019
  700TMC3    O210413   4.003   2.570  17.369  0.0748 -0.9284  0.0396
  701TMC3    C110414   3.419   1.335  15.590  0.0047  0.3518  0.3213
  701TMC3    C210415   3.451   1.236  15.508  0.1963 -0.5040 -0.2692
  701TMC3    C310416   3.558   1.251  15.424 -0.1818 -0.3532 -1.3516
  701TMC3    C410417   3.500   1.444  15.602 -0.5137 -0.2127 -0.0496
  701TMC3    C510418   3.617   1.444  15.533  0.1091 -0.3492 -0.1709
  701TMC3    C610419   3.648   1.350  15.438  0.4797  0.4365 -0.0241
  701TMC3     C10420   3.342   1.302  15.703 -0.0871 -0.0605  0.0882
  701TMC3     O10421   3.350   1.377  15.797  0.3718  0.1692 -0.0151
  701TMC3     H10422   3.389   1.148  15.492  0.2015 -0.7776  1.1462
  701TMC3    H110423   3.480   1.515  15.682 -1.5371 -1.2256  0.5919
  701TMC3    H210424   3.740   1.337  15.382  0.6584 -0.9846  0.5978
  701TMC3    C710425   3.709   1.547  15.570  0.1035 -0.5792 -0.1019
  701TMC3    C810426   3.569   1.174  15.301 -0.4990  0.3455 -0.1012
  701TMC3    O110427   3.697   1.601  15.676  0.0182  0.3147  0.1029
  701TMC3    O210428   3.680   1.169  15.251 -0.2824 -0.1796 -0.3083
  702MPD2     C10429   2.692   3.177  10.839 -0.0787  0.6172  0.1624
  702MPD2    C110430   2.620   3.262  10.927 -0.1955  0.3260  0.0856
  702MPD2    C210431   2.582   3.388  10.879  0.0034  0.3084 -0.5004
  702MPD2    C310432   2.620   3.426  10.751  0.2387 -0.5992 -0.1080
  702MPD2    C410433   2.692   3.335  10.669  1.4849 -0.2819 -0.1372
  702MPD2    C510434   2.729   3.211  10.719 -0.7575 -0.4806 -0.2814
  702MPD2     H10435   2.530   3.464  10.936 -1.0074 -1.5407  1.0477
  702MPD2    H110436   2.698   3.353  10.562 -2.2461 -0.1041 -0.2909
  702MPD2    H210437   2.714   3.075  10.870 -0.6955  0.2513 -0.5895
  702MPD2    H310438   2.768   3.139  10.649  0.8698 -1.0395  1.2057
  702MPD2     N10439   2.570   3.543  10.702 -0.2780 -0.5872  0.0048
  702MPD2    H510440   2.496   3.586  10.757 -0.0601  1.9122 -1.6593
  702MPD2    N110441   2.590   3.231  11.060  0.3541 -0.0487 -0.1994
  702MPD2    H710442   2.543   3.303  11.114  1.9942  0.1218  1.0055
  703TMC3    C110443   2.541   3.730  10.573 -1.2171  0.7923  0.4738
  703TMC3    C210444   2.404   3.739  10.594  0.5382  0.5505 -0.9432
  703TMC3    C310445   2.352   3.859  10.568 -0.0162 -0.0971  0.1244
  703TMC3    C410446   2.612   3.837  10.525 -0.3016  0.1201 -0.4999
  703TMC3    C510447   2.550   3.948  10.488 -0.1467 -0.0528  0.7882
  703TMC3    C610448   2.416   3.964  10.507 -0.2116  0.6449  0.1343
  703TMC3     C10449   2.612   3.605  10.587 -0.9102  0.8611 -0.2179
  703TMC3     O10450   2.710   3.583  10.514 -0.3519 -0.0586 -1.0290
  703TMC3     H10451   2.347   3.650  10.618 -0.4365  1.4637  0.1121
  703TMC3    H110452   2.717   3.816  10.509  0.0689  0.0807  1.8693
  703TMC3    H210453   2.359   4.056  10.514 -1.2946 -0.0992  1.0945
  703TMC3    C710454   2.618   4.056  10.433  0.6861 -0.8003 -0.8538
  703TMC3    C810455   2.210   3.874  10.589 -0.2979  0.2621  0.7550
  703TMC3    O110456   2.737   4.045  10.433 -0.1909  0.0783  0.2999
  703TMC3    O210457   2.143   3.939  10.508 -0.1196 -0.1815 -0.4801
  704TMC3    C110458   0.620   1.680  12.293 -0.2590 -0.1754  0.7512
  704TMC3    C210459   0.536   1.591  12.356 -0.4074 -0.0306  0.3683
  704TMC3    C310460   0.552   1.459  12.318 -0.1810 -0.5999 -0.0811
  704TMC3    C410461   0.717   1.641  12.207 -0.9071  0.2580  0.5300
  704TMC3    C510462   0.734   1.505  12.187 -0.0295 -0.1155 -0.5483
  704TMC3    C610463   0.648   1.410  12.234  0.3328  0.0277 -0.3733
  704TMC3     C10464   0.566   1.808  12.276 -0.3060 -0.2304  0.4609
  704TMC3     O10465   0.502   1.839  12.374  0.2785 -0.0468  0.1939
  704TMC3     H10466   0.465   1.621  12.432 -2.5517 -2.2465 -0.7446
  704TMC3    H110467   0.781   1.705  12.147  0.1229 -0.9980  0.2738
  704TMC3    H210468   0.650   1.311  12.191 -1.2655 -0.7221  1.2341
  704TMC3    C710469   0.872   1.464  12.199  0.1602 -0.3232 -0.0903
  704TMC3    C810470   0.436   1.374  12.351  0.1019  0.0797  0.2692
  704TMC3    O110471   0.962   1.542  12.179  0.2068 -0.0819 -0.2447
  704TMC3    O210472   0.374   1.411  12.454  0.1474 -0.7400 -0.1858
  705MPD2     C10473   0.417   4.597  16.520  0.8420 -0.2814 -0.4292
  705MPD2    C110474   0.416   4.691  16.410  0.3562  0.3952 -0.8200
  705MPD2    C210475   0.301   0.021  16.376  0.5982  0.0208  0.3187
  705MPD2    C310476   0.188   4.738  16.449  0.1283  0.0584 -0.8648
  705MPD2    C410477   0.190   4.649  16.558  0.0099 -0.0634 -1.0726
  705MPD2    C510478   0.301   4.584  16.599  0.1228 -0.0226  0.1569
  705MPD2     H10479   0.308   0.089  16.292  2.0372 -2.5692 -1.6608
  705MPD2    H110480   0.101   4.622  16.615  0.3412 -1.7440 -1.3722
  705MPD2    H210481   0.510   4.544  16.537  0.6751 -0.0063  1.3174
  705MPD2    H310482   0.289   4.508  16.676  1.7786  1.0838  1.4981
  705MPD2     N10483   0.079   0.069  16.407  0.0761  0.3415 -0.4508
  705MPD2    H510484   0.085   0.149  16.345 -1.9519 -0.2902 -1.4845
  705MPD2    N110485   0.530   4.717  16.326 -0.6784 -0.0384 -0.5421
  705MPD2    H710486   0.525   0.029  16.241 -1.2653  0.0472 -0.4545
  706TMC3    C110487   0.797   4.549  16.024  0.2722  0.0233  0.1249
  706TMC3    C210488   0.790   4.656  15.942  0.0329 -0.7335 -0.7104
  706TMC3    C310489   0.751   0.024  16.007  0.3821  0.6450  0.1106
  706TMC3    C410490   0.785   4.545  16.158  0.4120  0.6608 -0.3576
  706TMC3    C510491   0.742   4.659  16.218  0.1796 -0.2717 -0.1067
  706TMC3    C610492   0.725   0.029  16.136  0.3210  0.2041  0.3531
  706TMC3     C10493   0.871   4.436  15.963  0.1824  0.1785  0.0127
  706TMC3     O10494   0.941   4.370  16.035 -0.5067  0.1920 -0.0857
  706TMC3     H10495   0.819   4.653  15.838 -2.7326 -1.3412 -1.4642
  706TMC3    H110496   0.788   4.446  16.202 -0.8386  0.8785  0.2274
  706TMC3    H210497   0.695   0.122  16.182  3.4720  1.6079 -0.4537
  706TMC3    C710498   0.655   4.644  16.336 -0.5408  1.1319 -0.5145
  706TMC3    C810499   0.738   0.140  15.922 -0.3508 -0.7621 -0.0372
  706TMC3    O110500   0.695   4.570  16.424  0.4261  0.2086 -0.2298
  706TMC3    O210501   0.725   0.122  15.803  0.1306 -0.4369 -0.6863
  707TMC3    C110502   2.891   4.005   1.769  0.2000 -0.5374 -0.2420
  707TMC3    C210503   2.986   3.917   1.816  0.0456 -0.4085 -0.2680
  707TMC3    C310504   2.995   3.893   1.950  0.1918  0.8444  0.5835
  707TMC3    C410505   2.794   4.058   1.853  0.2324  0.0057 -0.2002
  707TMC3    C510506   2.809   4.028   1.985 -0.4652  0.1718 -0.3678
  707TMC3    C610507   2.908   3.950   2.038  0.1767  0.2495  0.7611
  707TMC3     C10508   2.883   4.022   1.626 -0.2194 -0.4577  0.1457
  707TMC3     O10509   2.981   3.978   1.560 -0.4777  0.5387  0.1871
  707TMC3     H10510   3.048   3.868   1.742 -0.5647  2.1125 -2.4386
  707TMC3    H110511   2.737   4.148   1.835  1.0397  0.5921  0.1493
  707TMC3    H210512   2.909   3.937   2.145 -0.8749 -2.5200  0.4325
  707TMC3    C710513   2.715   4.086   2.074  0.0687 -0.0762  0.1375
  707TMC3    C810514   3.121   3.837   2.002 -0.1588  0.7978  0.6360
  707TMC3    O110515   2.745   4.124   2.188  0.0635  1.0019 -0.2220
  707TMC3    O210516   3.144   3.879   2.112 -0.4559 -0.3172 -0.0535
  708MPD2     C10517   3.253   3.112  14.685  0.4563 -0.3440  0.2201
  708MPD2    C110518   3.186   3.216  14.611 -0.0509 -0.2314 -0.5968
  708MPD2    C210519   3.246   3.341  14.601  0.1511  0.1912 -0.2952
  708MPD2    C310520   3.368   3.365  14.666 -0.4559 -0.0239  0.2553
  708MPD2    C410521   3.414   3.270  14.756 -0.5310 -0.5923 -0.0988
  708MPD2    C510522   3.360   3.143  14.764  0.0750  0.0650  0.2771
  708MPD2     H10523   3.204   3.418  14.537  1.1950  1.6498  0.7731
  708MPD2    H110524   3.487   3.308  14.827 -0.6869 -0.6407  0.0875
  708MPD2    H210525   3.207   3.015  14.698  1.3515 -0.5244  2.0715
  708MPD2    H310526   3.375   3.070  14.842 -0.9085  1.4698  1.7613
  708MPD2     N10527   3.421   3.491  14.654 -0.2150  0.0962  0.1224
  708MPD2    H510528   3.366   3.558  14.601 -0.2320 -0.3913 -0.4803
  708MPD2    N110529   3.059   3.202  14.542 -0.0828 -0.1082 -0.0646
  708MPD2    H710530   3.023   3.288  14.501 -1.4116 -0.0711  1.1618
  709TMC3    C110531   2.890   3.110  14.407  0.0041  0.4679  0.9872
  709TMC3    C210532   2.916   3.035  14.299  0.0847 -0.4046 -0.8485
  709TMC3    C310533   2.917   3.082  14.167 -0.9452  0.0228  0.0816
  709TMC3    C410534   2.859   3.245  14.384 -0.2169  0.6526 -0.4665
  709TMC3    C510535   2.875   3.295  14.253  0.5907  0.1749  0.6721
  709TMC3    C610536   2.907   3.216  14.145  0.5958 -0.0094 -0.0879
  709TMC3     C10537   2.992   3.085  14.510  0.0225 -0.0701 -0.6243
  709TMC3     O10538   3.030   2.970  14.530 -0.2700  0.6048 -0.0319
  709TMC3     H10539   2.928   2.928  14.314 -0.2996 -0.3347 -0.0533
  709TMC3    H110540   2.820   3.304  14.466  1.7851  2.4664 -0.8083
  709TMC3    H210541   2.915   3.252  14.043  3.2516 -1.6295 -0.4475
  709TMC3    C710542   2.956   3.416  14.260 -0.3701 -0.3741  0.5722
  709TMC3    C810543   2.960   2.985  14.067  0.2753 -0.3116 -0.1568
  709TMC3    O110544   2.969   3.460  14.372 -0.7041 -0.1861  0.4465
  709TMC3    O210545   2.902   2.881  14.066  0.1813 -0.3694  0.5302
  710TMC3    C110546   4.435   4.452   0.037 -0.1884  0.3676 -0.8040
  710TMC3    C210547   4.538   4.469  17.717 -0.0743 -0.3926 -1.1970
  710TMC3    C310548   4.638   4.374  17.702 -0.4371  0.5153  0.2305
  710TMC3    C410549   4.430   4.339   0.119  0.9102 -0.1540 -0.5133
  710TMC3    C510550   4.538   4.256   0.101  0.3200  0.2931 -0.4523
  710TMC3    C610551   4.637   4.264   0.007  0.1007  0.1853  0.0145
  710TMC3     C10552   4.343   4.565   0.047  0.4785 -0.0438  0.1236
  710TMC3     O10553   4.324   4.632  17.715  0.1137 -0.0236  0.1613
  710TMC3     H10554   4.545   4.565  17.668  2.8649  1.1024  2.1484
  710TMC3    H110555   4.358   4.321   0.198 -2.9444  0.3640 -3.8933
  710TMC3    H210556   4.724   4.199   0.008  0.1151  0.2043  0.0181
  710TMC3    C710557   4.562   4.159   0.202  0.8718  0.5455 -0.2077
  710TMC3    C810558   0.020   4.415  17.653 -0.5315  0.3516 -0.0701
  710TMC3    O110559   4.529   4.185   0.318 -0.5302 -0.0063 -0.0015
  710TMC3    O210560   0.091   4.333  17.598  0.3770 -0.4023  0.0925
  711TMC3    C110561   4.223   0.803  14.805 -0.1665 -0.3362  0.1977
  711TMC3    C210562   4.246   0.883  14.915 -0.8754 -0.0812 -0.1520
  711TMC3    C310563   4.371   0.935  14.935  0.3693  0.0536 -0.0598
  711TMC3    C410564   4.337   0.760  14.741  0.8319  0.0707 -0.1613
  711TMC3    C510565   4.463   0.803  14.766  0.5546 -0.6887  0.3285
  711TMC3    C610566   4.479   0.906  14.857  0.1975  0.9407  1.1202
  711TMC3     C10567   4.089   0.778  14.754  0.2213 -0.3941 -0.2690
  711TMC3     O10568   4.078   0.690  14.667 -0.1986 -0.3040 -0.0454
  711TMC3     H10569   4.168   0.905  14.988  0.6142  1.7289  0.8844
  711TMC3    H110570   4.324   0.688  14.661 -0.8152  1.9662 -1.5827
  711TMC3    H210571   4.578   0.947  14.874  1.4273 -0.7917 -1.9553
  711TMC3    C710572   4.557   0.693  14.789 -0.5911  0.0014  0.0970
  711TMC3    C810573   4.402   0.940  15.075 -0.7954 -0.2676  0.2160
  711TMC3    O110574   4.653   0.724  14.859 -0.3084  0.6651 -0.3196
  711TMC3    O210575   4.318   0.958  15.159 -0.1316 -0.2123  0.9232
  712MPD2     C10576   1.065   1.582  13.035 -0.1230 -0.7324 -0.5890
  712MPD2    C110577   0.996   1.544  13.150 -0.6418 -0.6854 -0.2270
  712MPD2    C210578   0.936   1.645  13.224 -0.3563 -0.0943  0.3282
  712MPD2    C310579   0.942   1.779  13.187 -0.0917 -0.2008 -0.2240
  712MPD2    C410580   0.988   1.804  13.062  0.2951 -0.0295  0.6333
  712MPD2    C510581   1.056   1.713  12.992  0.6122  0.5006 -0.3149
  712MPD2     H10582   0.896   1.619  13.322 -1.2400 -1.0360 -0.2916
  712MPD2    H110583   0.997   1.903  13.018  0.7403  0.2682  1.3867
  712MPD2    H210584   1.124   1.507  12.983  1.0011 -0.3936  0.1956
  712MPD2    H310585   1.106   1.745  12.901  0.1307 -0.4660 -0.9252
  712MPD2     N10586   0.891   1.873  13.272  0.0614  0.7412 -0.2393
  712MPD2    H510587   0.864   1.844  13.365 -0.0420  1.0090 -0.1855
  712MPD2    N110588   0.989   1.405  13.182 -0.2127 -0.7655 -0.1434
  712MPD2    H710589   1.028   1.343  13.111  3.0677  1.5955 -0.4236
  713TMC3    C110590   0.858   2.074  13.363 -0.1155  0.1991 -0.6705
  713TMC3    C210591   0.963   2.057  13.455 -0.8528  0.9225  0.5166
  713TMC3    C310592   0.998   2.169  13.519  0.4195  0.0103 -0.1856
  713TMC3    C410593   0.811   2.201  13.331  0.0878  0.4128  0.2845
  713TMC3    C510594   0.845   2.311  13.406  0.2781 -0.0389 -0.3504
  713TMC3    C610595   0.933   2.291  13.510 -0.2048  0.0852  0.4562
  713TMC3     C10596   0.872   2.005  13.240 -0.2932  0.1745 -0.2256
  713TMC3     O10597   0.884   2.062  13.132  0.7252 -0.9225 -0.6074
  713TMC3     H10598   1.006   1.961  13.478 -3.1213 -0.1535  0.2628
  713TMC3    H110599   0.755   2.226  13.241  1.3239  1.8603 -0.0752
  713TMC3    H210600   0.981   2.381  13.547  0.9026 -0.4665  0.3429
  713TMC3    C710601   0.831   2.447  13.346  0.8224 -0.1560 -0.8702
  713TMC3    C810602   1.105   2.150  13.611 -0.4467 -0.8550  0.4867
  713TMC3    O110603   0.933   2.521  13.342 -0.3656  0.0152 -0.1149
  713TMC3    O210604   1.093   2.197  13.725  0.2703  0.9398  0.1758
  714MPD2     C10605   3.245   0.296   1.754  0.2622 -0.1060  0.3639
  714MPD2    C110606   3.303   0.230   1.646  0.0109 -0.6538 -0.1506
  714MPD2    C210607   3.231   0.236   1.524 -0.1055 -0.1394 -0.6209
  714MPD2    C310608   3.117   0.318   1.508  0.8087  0.3987 -0.6793
  714MPD2    C410609   3.069   0.386   1.621 -0.0596 -0.0182  0.2217
  714MPD2    C510610   3.137   0.376   1.740 -0.4556 -0.4165 -0.3944
  714MPD2     H10611   3.276   0.200   1.432 -0.7234 -0.6916 -0.7073
  714MPD2    H110612   2.985   0.453   1.634  0.5731  0.8836 -0.3028
  714MPD2    H210613   3.294   0.286   1.850 -0.7446 -0.9783  0.7773
  714MPD2    H310614   3.095   0.430   1.824 -0.1440 -0.9252  0.0885
  714MPD2     N10615   3.062   0.342   1.375 -0.5507  0.0091 -0.3422
  714MPD2    H510616   3.108   0.304   1.292 -0.5569  3.1545 -1.7912
  714MPD2    N110617   3.430   0.165   1.656 -0.3461 -0.1296  0.9349
  714MPD2    H710618   3.484   0.168   1.742 -0.0797  2.4578  0.6869
  715TMC3    C110619   3.618   0.053   1.587 -0.6522 -0.3163 -0.4188
  715TMC3    C210620   3.662   4.703   1.500 -0.5453 -0.5215  0.1044
  715TMC3    C310621   3.798   4.680   1.484 -1.0389 -0.3359 -0.1588
  715TMC3    C410622   3.703   0.135   1.658 -0.3769  0.0613  0.0055
  715TMC3    C510623   3.835   0.121   1.624  0.0348 -0.1468 -0.4468
  715TMC3    C610624   3.886   0.023   1.541  0.0251 -0.0109  0.4628
  715TMC3     C10625   3.487   0.094   1.555 -0.4520  0.5916 -0.3562
  715TMC3     O10626   3.434   0.046   1.453 -0.1124  0.0942  0.0135
  715TMC3     H10627   3.591   4.640   1.449  0.3213 -0.5742 -1.0360
  715TMC3    H110628   3.664   0.223   1.709  0.1379 -0.1981  0.8497
  715TMC3    H210629   3.992   0.021   1.520 -0.0497  1.1470 -0.0222
  715TMC3    C710630   3.930   0.227   1.658 -0.3622 -0.0639  0.6947
  715TMC3    C810631   3.843   4.595   1.372 -0.5846  1.1281 -0.1851
  715TMC3    O110632   4.034   0.250   1.592 -0.0164 -0.5343  0.3648
  715TMC3    O210633   3.761   4.554   1.293 -0.2574 -0.0693 -0.2184
  716MPD2     C10634   2.370   3.635   9.720  0.0829 -0.5575 -0.6598
  716MPD2    C110635   2.315   3.652   9.596 -0.1405 -0.1689  1.0580
  716MPD2    C210636   2.319   3.546   9.513  0.1357 -0.5251 -0.5845
  716MPD2    C310637   2.378   3.425   9.544  0.4363  0.2772 -0.6137
  716MPD2    C410638   2.440   3.415   9.667  0.1363  0.2134 -0.5768
  716MPD2    C510639   2.447   3.525   9.753  0.4189 -0.0380  0.0814
  716MPD2     H10640   2.260   3.540   9.422  0.6534  0.2073 -0.9677
  716MPD2    H110641   2.498   3.330   9.703 -0.7829  0.2167  0.8978
  716MPD2    H210642   2.357   3.712   9.795  0.1433 -0.9645 -0.2367
  716MPD2    H310643   2.510   3.514   9.840 -3.3432 -0.9065  2.7098
  716MPD2     N10644   2.378   3.325   9.449 -0.5108 -0.0050  0.1643
  716MPD2    H510645   2.333   3.342   9.360 -1.2994  0.2999  0.6251
  716MPD2    N110646   2.242   3.770   9.571  0.4849 -0.0014  0.0186
  716MPD2    H710647   2.236   3.839   9.646  0.8703  0.8047 -0.7014
  717TMC3    C110648   2.421   3.105   9.364  0.4051  0.0776  0.3147
  717TMC3    C210649   2.293   3.099   9.305 -0.6570  0.2185  0.7876
  717TMC3    C310650   2.245   2.981   9.259  0.2098 -0.5730 -1.4335
  717TMC3    C410651   2.494   2.995   9.375  0.4895  0.6287 -0.8378
  717TMC3    C510652   2.437   2.877   9.332 -0.2491 -1.5635  0.0784
  717TMC3    C610653   2.315   2.862   9.277  0.4461 -0.3869 -0.3812
  717TMC3     C10654   2.443   3.202   9.467  0.0671 -0.1040  0.0155
  717TMC3     O10655   2.507   3.167   9.565 -0.0842  0.0757 -0.5996
  717TMC3     H10656   2.229   3.186   9.291  0.8869  0.9339 -1.8220
  717TMC3    H110657   2.587   3.005   9.429 -0.5276  0.4702  0.9722
  717TMC3    H210658   2.277   2.770   9.233 -1.8619  0.9653 -1.1957
  717TMC3    C710659   2.503   2.755   9.375 -0.7696  0.2117  0.4948
  717TMC3    C810660   2.121   2.991   9.184 -0.3595 -0.2711 -0.7668
  717TMC3    O110661   2.573   2.767   9.474 -0.4966 -0.1402 -0.4591
  717TMC3    O210662   2.096   3.104   9.138 -0.1935 -0.3127  0.0615
  718MPD2     C10663   2.764   1.715  12.840  0.9404 -0.2363  0.2102
  718MPD2    C110664   2.671   1.785  12.771 -0.4230  0.6124 -0.8308
  718MPD2    C210665   2.638   1.742  12.644 -0.1796 -0.1284 -0.4080
  718MPD2    C310666   2.703   1.644  12.574 -0.4633 -0.5971 -0.2554
  718MPD2    C410667   2.794   1.573  12.648  0.0826 -0.5549  0.1360
  718MPD2    C510668   2.818   1.603  12.777 -0.1613 -0.5771 -0.5982
  718MPD2     H10669   2.567   1.802  12.588  0.9093  1.3506 -0.1813
  718MPD2    H110670   2.850   1.494  12.599 -0.4148 -0.3757 -0.7414
  718MPD2    H210671   2.792   1.740  12.942  2.2504 -0.4590 -0.1072
  718MPD2    H310672   2.892   1.541  12.826 -1.1536 -2.0722 -0.9874
  718MPD2     N10673   2.663   1.619  12.441 -0.2078  0.7891 -0.5035
  718MPD2    H510674   2.593   1.685  12.407 -0.9866  0.1736 -0.0879
  718MPD2    N110675   2.610   1.905  12.819 -0.2236  0.6463 -0.0907
  718MPD2    H710676   2.545   1.940  12.749 -1.7520  1.2918  1.6686
  719TMC3    C110677   2.582   2.115  12.905 -0.1847  0.5094  0.0694
  719TMC3    C210678   2.457   2.098  12.862 -0.5872 -0.3996  0.0690
  719TMC3    C310679   2.402   2.185  12.777 -0.0783  0.5712  0.5829
  719TMC3    C410680   2.669   2.212  12.852  0.7245 -0.0989  1.5212
  719TMC3    C510681   2.609   2.301  12.767 -0.0172  0.1942 -0.1699
  719TMC3    C610682   2.479   2.285  12.728  0.8084 -0.6875 -0.3313
  719TMC3     C10683   2.644   1.983  12.925 -0.4613  0.2732 -0.3343
  719TMC3     O10684   2.749   1.983  12.989  0.4014 -0.2681  0.4518
  719TMC3     H10685   2.398   2.018  12.907  1.3793 -1.2969  1.0224
  719TMC3    H110686   2.772   2.224  12.882  0.7837 -0.4711  1.4676
  719TMC3    H210687   2.435   2.362  12.666  2.0039 -0.6680 -1.1354
  719TMC3    C710688   2.692   2.392  12.690  0.2754  0.0901 -0.2086
  719TMC3    C810689   2.347   2.102  12.670  0.5466  0.0018 -0.3182
  719TMC3    O110690   2.646   2.501  12.649 -0.0872 -0.1223 -0.1839
  719TMC3    O210691   2.370   1.985  12.682 -0.1329 -0.4340 -0.4668
  720MPD2     C10692   0.999   3.200  13.937 -0.4787 -0.5367  0.2846
  720MPD2    C110693   0.965   3.326  13.899 -0.5301  0.1383 -0.5428
  720MPD2    C210694   1.035   3.436  13.949 -0.2791  0.7544  0.1352
  720MPD2    C310695   1.150   3.420  14.026 -0.4632 -0.0697  0.3168
  720MPD2    C410696   1.180   3.289  14.064  0.4244 -0.0257  0.0963
  720MPD2    C510697   1.099   3.185  14.028  0.3551  0.1411  0.2216
  720MPD2     H10698   1.026   3.539  13.915 -2.3191  1.1392  1.8128
  720MPD2    H110699   1.270   3.267  14.121 -0.1001 -3.5174 -0.3927
  720MPD2    H210700   0.953   3.112  13.894  0.3508 -1.5431  1.4524
  720MPD2    H310701   1.123   3.085  14.063 -0.2904  0.0653  0.4399
  720MPD2     N10702   1.233   3.531  14.068  1.2436 -0.1270 -0.6995
  720MPD2    H510703   1.227   3.620  14.021 -0.3303  0.9471  1.5383
  720MPD2    N110704   0.853   3.343  13.815 -0.0115 -0.1177  0.2707
  720MPD2    H710705   0.836   3.270  13.746 -0.9574  0.5251 -0.1772
  721TMC3    C110706   1.423   3.629  14.184 -0.0866 -0.2198 -0.3993
  721TMC3    C210707   1.467   3.640  14.317  0.0638  0.2126  0.0488
  721TMC3    C310708   1.592   3.690  14.330  0.0187  0.0312 -0.3898
  721TMC3    C410709   1.506   3.644  14.077  0.7472  0.2115  0.3084
  721TMC3    C510710   1.640   3.682  14.104 -0.1034  0.5616  0.6861
  721TMC3    C610711   1.684   3.711  14.231 -0.3999  0.3397  0.0131
  721TMC3     C10712   1.317   3.528  14.176  0.0985 -0.7142  0.3305
  721TMC3     O10713   1.316   3.445  14.266  0.5030  0.2302  0.1267
  721TMC3     H10714   1.409   3.626  14.407  0.4261  2.5784  0.6513
  721TMC3    H110715   1.473   3.622  13.977  1.4033 -1.0119  0.3548
  721TMC3    H210716   1.787   3.727  14.263  0.1523 -1.6466 -0.7738
  721TMC3    C710717   1.740   3.701  13.999  0.3020 -0.1385  0.3590
  721TMC3    C810718   1.635   3.736  14.465  0.3376 -0.6752  0.1651
  721TMC3    O110719   1.835   3.774  14.024  0.3740 -0.2272 -0.4312
  721TMC3    O210720   1.706   3.839  14.468  0.0454 -0.6169 -0.0484
  722MPD2     C10721   4.366   2.538  13.303  0.3737 -0.0529  1.1336
  722MPD2    C110722   4.360   2.597  13.179  0.1034 -0.0126 -0.1707
  722MPD2    C210723   4.240   2.596  13.106 -0.3392  0.4977 -0.5657
  722MPD2    C310724   4.132   2.527  13.153  0.0008  0.1261  0.1978
  722MPD2    C410725   4.140   2.456  13.266  0.0280  0.3342 -0.7214
  722MPD2    C510726   4.261   2.467  13.344  0.1382  0.1633 -0.4322
  722MPD2     H10727   4.227   2.650  13.013  2.2694  1.9785 -0.0709
  722MPD2    H110728   4.058   2.398  13.308 -0.2268  1.8257  0.8399
  722MPD2    H210729   4.450   2.546  13.371  0.8603 -0.5153  0.5966
  722MPD2    H310730   4.271   2.417  13.440  0.8075  0.3301 -0.4177
  722MPD2     N10731   4.014   2.529  13.074 -0.2445 -0.3928  0.1075
  722MPD2    H510732   4.023   2.574  12.983  0.9393 -0.0008  0.4203
  722MPD2    N110733   4.473   2.669  13.121  0.2541  0.5434  0.6482
  722MPD2    H710734   4.459   2.716  13.032  0.6206 -0.6337 -0.0309
  723TMC3    C110735   3.809   2.504  12.980  0.4278  0.7793 -0.1978
  723TMC3    C210736   3.724   2.417  12.920  0.4077  0.3651  0.1235
  723TMC3    C310737   3.638   2.471  12.822  0.4370  0.0759  0.6273
  723TMC3    C410738   3.806   2.637  12.949 -0.0978 -0.0942  0.2991
  723TMC3    C510739   3.719   2.688  12.858 -0.0686 -0.4454  0.5308
  723TMC3    C610740   3.640   2.601  12.789 -0.2422  0.0768 -0.0385
  723TMC3     C10741   3.897   2.461  13.088 -0.0264 -0.1481 -0.1043
  723TMC3     O10742   3.873   2.362  13.154  0.4998  0.0710 -0.0353
  723TMC3     H10743   3.719   2.313  12.948 -0.7514  0.7317  1.2884
  723TMC3    H110744   3.865   2.709  13.004  1.6679 -0.8600 -0.5757
  723TMC3    H210745   3.575   2.632  12.708 -0.0827 -1.0467 -0.6008
  723TMC3    C710746   3.680   2.823  12.867  0.9951  0.6181 -0.4425
  723TMC3    C810747   3.573   2.387  12.725  0.4777 -0.4347 -0.2209
  723TMC3    O110748   3.604   2.866  12.782 -0.1979 -0.7727 -0.3154
  723TMC3    O210749   3.498   2.443  12.650 -0.1943 -0.0156 -0.3197
  724TMC3    C110750   4.727   0.750  10.552  0.6025  0.6881 -0.2251
  724TMC3    C210751   4.591   0.779  10.544  0.6298 -0.8353 -0.8137
  724TMC3    C310752   4.559   0.911  10.554 -0.1038  0.0398 -0.3717
  724TMC3    C410753   0.079   0.844  10.583  0.2798  0.6396  0.2694
  724TMC3    C510754   0.042   0.970  10.612  0.9504  0.1773  0.0152
  724TMC3    C610755   4.650   1.008  10.585 -0.2090  1.0795 -0.0633
  724TMC3     C10756   0.031   0.669  10.440  0.4157 -0.3789  0.4821
  724TMC3     O10757   4.701   0.579  10.402  0.1278  0.1110 -0.1845
  724TMC3     H10758   4.531   0.704  10.493 -1.2368  0.3375 -0.3328
  724TMC3    H110759   0.181   0.808  10.592 -0.0372 -0.0077  1.3347
  724TMC3    H210760   4.636   1.115  10.579  0.4189  1.2036  0.6930
  724TMC3    C710761   0.152   1.062  10.581  0.3691  0.6458 -0.1212
  724TMC3    C810762   4.440   0.950  10.478  0.7334  0.1324  0.3186
  724TMC3    O110763   0.252   1.008  10.530 -0.2672  0.6136  0.4473
  724TMC3    O210764   4.353   0.865  10.464  0.1364 -0.0686 -0.4406
  725TMC3    C110765   1.578   4.076  13.102 -0.2662 -0.3624  0.6162
  725TMC3    C210766   1.502   4.165  13.035 -0.7169  0.5538 -1.1857
  725TMC3    C310767   1.428   4.106  12.933  0.0514  0.1899 -1.3950
  725TMC3    C410768   1.586   3.945  13.079 -1.0574  0.2629 -0.3995
  725TMC3    C510769   1.521   3.896  12.970  0.5543 -0.2399 -0.0121
  725TMC3    C610770   1.441   3.976  12.892  0.2334  0.7087 -0.0556
  725TMC3     C10771   1.666   4.139  13.201 -0.0342  0.0108 -0.5379
  725TMC3     O10772   1.650   4.255  13.223  0.2189 -0.2272  0.6367
  725TMC3     H10773   1.502   4.269  13.064 -0.2681  0.3560 -0.4817
  725TMC3    H110774   1.645   3.877  13.139  0.4414  1.0401 -1.0051
  725TMC3    H210775   1.388   3.941  12.804 -0.1580  0.4315  0.2897
  725TMC3    C710776   1.535   3.755  12.940 -0.8490 -1.2789 -0.3193
  725TMC3    C810777   1.321   4.188  12.884 -0.0269  0.3082 -0.8869
  725TMC3    O110778   1.633   3.708  12.990 -0.2035  0.0063  0.4203
  725TMC3    O210779   1.301   4.288  12.947 -0.1588  0.4313  0.5303
  726MPD2     C10780   3.336   0.684  10.495  0.3141 -0.0391  0.0460
  726MPD2    C110781   3.229   0.724  10.419 -0.1125 -0.0897 -0.0593
  726MPD2    C210782   3.114   0.648  10.420 -0.6681 -0.4216 -0.2011
  726MPD2    C310783   3.113   0.523  10.477 -0.0750 -0.4167 -0.1582
  726MPD2    C410784   3.226   0.481  10.551 -0.1437  0.1267 -0.1481
  726MPD2    C510785   3.336   0.559  10.556 -0.1975  0.1893  0.0359
  726MPD2     H10786   3.027   0.679  10.363 -0.5913  0.0991 -0.0368
  726MPD2    H110787   3.225   0.385  10.601 -0.0429  0.9833  1.5051
  726MPD2    H210788   3.428   0.742  10.495 -0.9096  1.8948  0.0775
  726MPD2    H310789   3.427   0.521  10.601  0.6480  2.8094  0.5290
  726MPD2     N10790   2.988   0.449  10.480  0.7726  0.0630  0.2429
  726MPD2    H510791   2.977   0.369  10.542  1.8245  0.1448  0.5283
  726MPD2    N110792   3.222   0.838  10.343 -0.3661 -0.5984  0.2743
  726MPD2    H710793   3.146   0.845  10.276 -0.2693 -0.9514  0.1236
  727TMC3    C110794   3.291   1.036  10.240  0.6511  0.2347 -0.2159
  727TMC3    C210795   3.315   1.171  10.281 -0.7334 -0.4886 -0.1880
  727TMC3    C310796   3.275   1.269  10.200 -0.7367  0.0308  1.2927
  727TMC3    C410797   3.234   1.002  10.121  0.2824 -0.0996 -0.2827
  727TMC3    C510798   3.198   1.115  10.041 -0.3126  0.1045 -0.1564
  727TMC3    C610799   3.216   1.246  10.081  0.4114 -0.6353 -0.1268
  727TMC3     C10800   3.316   0.941  10.344 -0.4852  0.4357  0.1849
  727TMC3     O10801   3.397   0.963  10.431 -0.0224 -0.4756  0.0092
  727TMC3     H10802   3.367   1.195  10.373  1.8305 -1.0883 -1.4975
  727TMC3    H110803   3.237   0.902  10.080 -0.4955 -2.2047  4.7985
  727TMC3    H210804   3.168   1.325  10.024  0.9332  0.3174  0.7477
  727TMC3    C710805   3.120   1.078   9.928  0.5561  0.3734  0.0743
  727TMC3    C810806   3.354   1.392  10.216 -0.6368 -0.0516  0.1957
  727TMC3    O110807   3.071   0.964   9.928  0.1815  0.0274  0.0123
  727TMC3    O210808   3.402   1.417  10.326  1.1426 -0.1960  0.1743
  728TMC3    C110809   3.572   4.407  15.521 -0.1226  0.3704 -0.6596
  728TMC3    C210810   3.632   4.527  15.549  0.1098  0.0919  0.8331
  728TMC3    C310811   3.645   4.612  15.441 -0.3353  0.3954  0.4158
  728TMC3    C410812   3.504   4.380  15.400  0.1782  0.0625  0.4854
  728TMC3    C510813   3.501   4.480  15.304  0.7439  0.2975  0.1778
  728TMC3    C610814   3.571   4.599  15.321 -0.6703 -0.2282  0.0959
  728TMC3     C10815   3.544   4.323  15.635  0.3694  0.3346  0.1845
  728TMC3     O10816   3.582   4.367  15.741  0.6246 -0.0694  0.4377
  728TMC3     H10817   3.698   4.535  15.635  0.3403 -1.4033  0.7977
  728TMC3    H110818   3.492   4.276  15.374 -2.1750  0.8528 -1.5643
  728TMC3    H210819   3.549   4.673  15.246 -2.6231 -1.2019 -0.3083
  728TMC3    C710820   3.421   4.460  15.183  0.2775 -0.4714 -0.3833
  728TMC3    C810821   3.676   0.012  15.478  0.2638  0.6405  0.5835
  728TMC3    O110822   3.349   4.366  15.193 -0.2391 -0.1741 -0.3233
  728TMC3    O210823   3.688   0.032  15.598  0.6587 -0.1518  0.3547
  729MPD2     C10824   1.128   0.375  16.614  0.3284  0.4218  0.4802
  729MPD2    C110825   1.264   0.362  16.647  0.5488  0.9221  0.1960
  729MPD2    C210826   1.306   0.382  16.774  0.6791 -0.0903 -0.3376
  729MPD2    C310827   1.218   0.415  16.879 -0.5244 -0.0174 -0.3530
  729MPD2    C410828   1.088   0.439  16.843 -0.3821 -0.4005 -0.2519
  729MPD2    C510829   1.044   0.421  16.714  0.4195  0.2984 -0.2839
  729MPD2     H10830   1.408   0.356  16.803  0.5538  2.1246  2.1580
  729MPD2    H110831   1.010   0.482  16.906  1.0645 -0.6865  1.6973
  729MPD2    H210832   1.088   0.384  16.514  0.2212 -3.8706  0.1137
  729MPD2    H310833   0.939   0.441  16.696  0.9871  0.2643 -3.6103
  729MPD2     N10834   1.244   0.431  17.019  0.4350  0.0742 -0.2819
  729MPD2    H510835   1.171   0.465  17.080  0.1379  0.6708 -0.9563
  729MPD2    N110836   1.356   0.336  16.540 -0.9426  0.2365  0.0249
  729MPD2    H710837   1.319   0.328  16.445 -0.4233  0.6660 -0.2164
  730TMC3    C110838   1.362   0.489  17.207 -0.3118 -0.1922 -0.2548
  730TMC3    C210839   1.443   0.597  17.205  0.2459 -0.5077  0.0097
  730TMC3    C310840   1.395   0.702  17.275  0.2112 -0.1821  0.1559
  730TMC3    C410841   1.254   0.478  17.289 -0.1548  0.5667 -0.3004
  730TMC3    C510842   1.202   0.584  17.362  0.0469  0.7443 -0.2279
  730TMC3    C610843   1.280   0.703  17.351 -0.4995 -1.1921 -0.0772
  730TMC3     C10844   1.369   0.428  17.078 -0.2240  0.4364 -0.2596
  730TMC3     O10845   1.472   0.391  17.023  0.7413 -0.2781  0.0261
  730TMC3     H10846   1.511   0.614  17.123 -0.0708  0.2989 -0.0841
  730TMC3    H110847   1.212   0.378  17.286 -3.3910  1.8747  2.2223
  730TMC3    H210848   1.242   0.791  17.401 -0.0348 -1.1276  0.1562
  730TMC3    C710849   1.070   0.598  17.309 -0.4888 -0.7643  0.5073
  730TMC3    C810850   1.417   0.827  17.204 -0.0212  0.4534  0.0311
  730TMC3    O110851   1.053   0.551  17.198 -0.4552 -0.0275  0.0788
  730TMC3    O210852   1.427   0.822  17.082  0.3277 -0.4196 -0.2837
  731MPD2     C10853   0.901   3.182  12.610  0.0521 -0.1035  0.1506
  731MPD2    C110854   1.028   3.137  12.623 -0.1737  0.1350 -0.2125
  731MPD2    C210855   1.066   3.098  12.749  0.2190  0.1926 -0.4804
  731MPD2    C310856   0.978   3.114  12.856 -0.0318 -0.0452 -0.5800
  731MPD2    C410857   0.850   3.160  12.839 -0.2947 -0.1889  0.9496
  731MPD2    C510858   0.813   3.197  12.712  0.0140  0.0551  0.1744
  731MPD2     H10859   1.173   3.084  12.761  0.4900  2.2161 -0.5871
  731MPD2    H110860   0.778   3.161  12.919 -2.1741  1.6665 -0.7711
  731MPD2    H210861   0.861   3.201  12.511  1.2896  0.6545 -0.1956
  731MPD2    H310862   0.717   3.242  12.693  0.4550  0.8438 -0.1895
  731MPD2     N10863   1.035   3.089  12.989  0.8947  0.1307  0.1012
  731MPD2    H510864   1.133   3.065  12.994  0.4968 -1.4700  0.3930
  731MPD2    N110865   1.114   3.124  12.505  0.4032  0.3823 -0.1175
  731MPD2    H710866   1.083   3.169  12.420 -0.9080  0.0334  0.1740
  732TMC3    C110867   1.318   3.097  12.390 -0.1922  0.2989 -0.3321
  732TMC3    C210868   1.252   3.143  12.279 -0.9891  0.0758 -0.2790
  732TMC3    C310869   1.320   3.137  12.162 -0.0478  0.3597 -0.2592
  732TMC3    C410870   1.431   3.030  12.383 -0.0679 -0.4083 -0.0948
  732TMC3    C510871   1.489   3.013  12.258  0.3106 -0.2173  0.3757
  732TMC3    C610872   1.446   3.082  12.154 -0.1638  0.1623  0.5261
  732TMC3     C10873   1.244   3.074  12.514  0.0010 -0.5047 -1.1703
  732TMC3     O10874   1.310   3.025  12.605  0.4906  0.3904  0.4407
  732TMC3     H10875   1.153   3.186  12.271 -0.6328  0.7848 -0.8631
  732TMC3    H110876   1.476   2.985  12.471 -0.8272 -2.1421 -0.5981
  732TMC3    H210877   1.494   3.058  12.060  1.4341 -2.3929  2.0084
  732TMC3    C710878   1.627   2.958  12.249  0.0124 -0.6192  0.7483
  732TMC3    C810879   1.271   3.220  12.047  0.1240  1.0965 -1.1703
  732TMC3    O110880   1.662   2.913  12.142  0.3721 -0.2655 -0.0616
  732TMC3    O210881   1.336   3.216  11.943  0.0744  0.4800 -0.9132
  733TMC3    C110882   2.363   1.441  12.215  0.2203  0.3681  0.0859
  733TMC3    C210883   2.487   1.417  12.273 -0.3477 -0.5323  0.0036
  733TMC3    C310884   2.588   1.511  12.256  0.1994  0.1067 -0.2534
  733TMC3    C410885   2.339   1.551  12.127 -0.7141  0.1680 -0.2662
  733TMC3    C510886   2.438   1.645  12.127  0.4805 -0.7723 -0.1131
  733TMC3    C610887   2.556   1.633  12.199 -0.2904 -0.4689  1.0296
  733TMC3     C10888   2.254   1.402  12.295 -0.5659  0.9743 -0.7551
  733TMC3     O10889   2.138   1.415  12.253  0.2629 -0.2572 -0.3186
  733TMC3     H10890   2.500   1.328  12.333  0.0275  0.3331  1.2306
  733TMC3    H110891   2.240   1.574  12.089 -0.0692  1.0221 -1.4412
  733TMC3    H210892   2.629   1.713  12.203 -1.3669  0.6897 -2.1344
  733TMC3    C710893   2.376   1.775  12.116 -0.1832 -0.7287  0.3136
  733TMC3    C810894   2.677   1.505  12.370  0.0963 -0.2320  0.1880
  733TMC3    O110895   2.325   1.805  12.003 -0.1725 -0.0185 -0.2577
  733TMC3    O210896   2.716   1.396  12.408  0.2434 -0.2644  0.0866
  734MPD2     C10897   3.590   3.959  12.719 -0.5316 -0.2179  0.6785
  734MPD2    C110898   3.503   3.900  12.631  0.3980  0.4108  0.8125
  734MPD2    C210899   3.480   3.956  12.503  0.2199  1.0609  0.0959
  734MPD2    C310900   3.537   4.080  12.474  0.5993 -0.2533  0.1190
  734MPD2    C410901   3.611   4.152  12.567  0.0143 -0.2664  0.4125
  734MPD2    C510902   3.633   4.087  12.684  0.5645 -0.6611 -0.1284
  734MPD2     H10903   3.432   3.905  12.421  0.2186  0.0820  0.7141
  734MPD2    H110904   3.660   4.247  12.548 -0.1245 -0.2782 -0.0090
  734MPD2    H210905   3.608   3.919  12.818  0.0690 -0.1866  0.5801
  734MPD2    H310906   3.682   4.160  12.749  0.8635  0.1400 -1.2589
  734MPD2     N10907   3.524   4.123  12.346  0.0889 -0.8011  0.2497
  734MPD2    H510908   3.478   4.059  12.282  0.2844  0.4051 -1.0942
  734MPD2    N110909   3.439   3.774  12.668  0.2265 -0.7013  0.2213
  734MPD2    H710910   3.475   3.732  12.753  2.5847 -2.7932 -1.8050
  735TMC3    C110911   3.320   3.564  12.627  0.2258 -0.1448 -0.2312
  735TMC3    C210912   3.226   3.508  12.545  0.2629  0.4764 -0.0123
  735TMC3    C310913   3.260   3.399  12.475 -0.3288  0.2938  0.3048
  735TMC3    C410914   3.441   3.496  12.660  0.3452 -0.5925  0.4998
  735TMC3    C510915   3.458   3.369  12.603  0.4541  0.4929  0.0031
  735TMC3    C610916   3.372   3.322  12.500 -0.1998 -0.1924 -0.1901
  735TMC3     C10917   3.348   3.706  12.589 -0.5946 -0.8400  0.1007
  735TMC3     O10918   3.280   3.750  12.498  0.1510 -1.2257 -0.3555
  735TMC3     H10919   3.139   3.570  12.524 -0.5671  0.1022  2.2192
  735TMC3    H110920   3.526   3.544  12.707 -0.1594 -1.1403  1.9735
  735TMC3    H210921   3.388   3.231  12.442  0.1073 -1.3786  1.7542
  735TMC3    C710922   3.593   3.331  12.580  0.2256 -0.1552 -0.1611
  735TMC3    C810923   3.233   3.412  12.336 -0.5470 -0.3413  0.3500
  735TMC3    O110924   3.671   3.422  12.567  0.2661  0.4785 -0.3044
  735TMC3    O210925   3.235   3.307  12.276 -0.3648 -0.4897 -0.0811
  736MPD2     C10926   3.737   3.010  12.497 -0.2325  0.3973  0.0324
  736MPD2    C110927   3.714   3.144  12.482 -0.5193  0.9970  0.1882
  736MPD2    C210928   3.780   3.223  12.392  0.8318 -0.2303 -0.3710
  736MPD2    C310929   3.862   3.158  12.302 -0.5247  0.3923  0.4797
  736MPD2    C410930   3.875   3.021  12.308 -0.0011 -0.0168 -0.2836
  736MPD2    C510931   3.819   2.942  12.407 -0.0163  0.3513  0.2347
  736MPD2     H10932   3.756   3.328  12.381 -3.3631 -0.7909  3.0997
  736MPD2    H110933   3.942   2.979  12.234 -0.3256 -0.3960 -0.3624
  736MPD2    H210934   3.683   2.962  12.578 -0.2030 -0.1782 -0.2879
  736MPD2    H310935   3.831   2.835  12.404  1.6612  0.5663 -0.7972
  736MPD2     N10936   3.929   3.222  12.198 -0.2658 -0.2706  0.1404
  736MPD2    H510937   3.968   3.170  12.120  0.0012 -2.0199  1.4228
  736MPD2    N110938   3.605   3.197  12.553 -0.2097 -0.1689  0.0453
  736MPD2    H710939   3.534   3.130  12.582  0.3720  0.0986  2.1001
  737TMC3    C110940   4.031   3.409  12.092 -0.5371 -0.5774  0.3589
  737TMC3    C210941   4.004   3.534  12.046 -0.5687 -0.0132 -0.1698
  737TMC3    C310942   4.065   3.571  11.931  0.5451  0.7836 -0.1883
  737TMC3    C410943   4.112   3.321  12.023 -0.0033 -0.2989 -0.0283
  737TMC3    C510944   4.184   3.368  11.916  0.3228 -0.0422 -0.1140
  737TMC3    C610945   4.160   3.495  11.862 -0.2679  0.1125  0.1357
  737TMC3     C10946   3.946   3.363  12.196  0.8544  0.1250  0.7150
  737TMC3     O10947   3.909   3.450  12.273 -0.0558 -0.5094  0.9055
  737TMC3     H10948   3.936   3.603  12.095  1.3891  1.2195  0.7719
  737TMC3    H110949   4.133   3.222  12.063  0.1370 -0.4321 -0.4334
  737TMC3    H210950   4.203   3.536  11.772 -0.1441  0.2381  0.2514
  737TMC3    C710951   4.254   3.262  11.841  0.0599  0.5899  0.4871
  737TMC3    C810952   4.072   3.705  11.902 -0.2022 -0.0538 -0.4436
  737TMC3    O110953   4.249   3.152  11.889  0.0769  0.0314  0.1332
  737TMC3    O210954   4.126   3.773  11.987 -0.0726  0.3519 -0.0425
  738MPD2     C10955   4.193   2.669  15.126 -0.5442  0.1141  0.0004
  738MPD2    C110956   4.329   2.659  15.116 -0.3555  0.3196 -0.6291
  738MPD2    C210957   4.397   2.727  15.017  0.0748  0.1510  0.0041
  738MPD2    C310958   4.327   2.792  14.912 -0.7593 -1.0672 -0.8533
  738MPD2    C410959   4.189   2.800  14.928  0.0308 -0.0106 -0.2340
  738MPD2    C510960   4.124   2.744  15.031  0.2716 -0.0295  0.1993
  738MPD2     H10961   4.505   2.729  15.023  0.0630 -2.4755  0.8239
  738MPD2    H110962   4.135   2.836  14.840  0.0022  1.7729  0.5044
  738MPD2    H210963   4.135   2.611  15.197 -1.1266  0.7267  0.0180
  738MPD2    H310964   4.018   2.762  15.032  0.0688 -1.2606  1.9668
  738MPD2     N10965   4.379   2.872  14.807  0.3899  0.1750  0.4070
  738MPD2    H510966   4.308   2.915  14.748  2.3424  2.6325 -0.1341
  738MPD2    N110967   4.416   2.602  15.202  0.2042 -0.1633 -0.3363
  738MPD2    H710968   4.513   2.615  15.177  0.0974 -0.2487 -0.8073
  739TMC3    C110969   4.519   3.000  14.680  0.3021  0.1883  0.1983
  739TMC3    C210970   4.461   2.968  14.562  1.0462 -0.1598  0.1846
  739TMC3    C310971   4.513   3.024  14.446 -0.1275 -0.2810  0.3654
  739TMC3    C410972   4.619   3.092  14.688  0.3296  0.4233 -0.2743
  739TMC3    C510973   4.660   3.160  14.575 -0.0925  0.3195  0.2325
  739TMC3    C610974   4.614   3.116  14.448 -0.0454  0.6669 -0.2897
  739TMC3     C10975   4.499   2.924  14.802  0.0249  0.5480  0.4251
  739TMC3     O10976   4.587   2.914  14.888 -0.0925 -0.3202  0.0587
  739TMC3     H10977   4.402   2.877  14.555 -0.9517  1.0429  1.5316
  739TMC3    H110978   4.655   3.124  14.785  1.4789  0.4214 -0.7087
  739TMC3    H210979   4.628   3.185  14.365  0.3179  1.6319  0.5711
  739TMC3    C710980   0.024   3.251  14.582  0.3362 -0.6056  0.1931
  739TMC3    C810981   4.456   2.993  14.317 -0.2552 -0.0840 -0.0788
  739TMC3    O110982   0.059   3.296  14.473  0.0113  0.2259  0.2095
  739TMC3    O210983   4.338   2.971  14.319 -1.0415 -0.6916 -0.2270
  740TMC3    C110984   0.759   4.286  14.303  0.1318 -0.3655  0.2783
  740TMC3    C210985   0.846   4.264  14.410  0.9437 -0.0719 -0.3025
  740TMC3    C310986   0.958   4.199  14.384 -0.2313  0.2740 -0.0655
  740TMC3    C410987   0.786   4.241  14.178 -0.5910  0.1223 -0.7191
  740TMC3    C510988   0.896   4.161  14.162  0.1880  0.5009  0.1052
  740TMC3    C610989   0.983   4.139  14.262  0.0628 -0.4421 -0.1988
  740TMC3     C10990   0.620   4.330  14.327  0.7588  0.0831  0.1142
  740TMC3     O10991   0.553   4.368  14.235 -0.1037  0.5896  1.0271
  740TMC3     H10992   0.839   4.319  14.503  0.9114 -0.7721  0.1132
  740TMC3    H110993   0.699   4.240  14.113 -1.0154 -1.3491 -0.1137
  740TMC3    H210994   1.071   4.080  14.239 -0.0722 -0.0883 -1.6234
  740TMC3    C710995   0.913   4.071  14.050  0.0617  0.5237  0.0379
  740TMC3    C810996   1.033   4.169  14.502  0.0729  0.7443  0.1212
  740TMC3    O110997   0.998   3.983  14.061 -0.5541  0.1772  0.2784
  740TMC3    O210998   1.003   4.222  14.609  0.4416  0.3677 -0.2825
  741TMC3    C110999   0.237   3.486  13.399  0.0813 -0.4457 -0.2856
  741TMC3    C211000   0.134   3.522  13.482  0.5693 -0.4015 -0.8476
  741TMC3    C311001   0.080   3.427  13.561 -0.0405  0.4401  0.0830
  741TMC3    C411002   0.307   3.370  13.413  0.0771 -0.3858  0.1021
  741TMC3    C511003   0.253   3.276  13.506  0.8060  0.0005 -0.2365
  741TMC3    C611004   0.138   3.303  13.578 -0.3724 -0.5565  0.1975
  741TMC3     C11005   0.235   3.558  13.271 -0.4351 -0.3534  0.1079
  741TMC3     O11006   0.161   3.657  13.254 -0.1300 -0.5144  0.0346
  741TMC3     H11007   0.062   3.601  13.465  1.5069  0.9209  1.3373
  741TMC3    H111008   0.392   3.345  13.351  1.5302  0.6472  1.6600
  741TMC3    H211009   0.107   3.226  13.648  0.8801 -3.7544 -2.7459
  741TMC3    C711010   0.344   3.191  13.583  0.3403  0.9233 -0.3689
  741TMC3    C811011   0.003   3.487  13.668 -0.1079  0.5537 -0.2758
  741TMC3    O111012   0.329   3.180  13.704  0.0137  0.4695 -0.0351
  741TMC3    O211013   0.040   3.597  13.712 -0.4588  0.9337  0.0509
  742TMC3    C111014   4.729   1.569  15.519  0.3465  0.3626  0.2141
  742TMC3    C211015   4.694   1.573  15.383 -0.3105 -0.0069 -0.2628
  742TMC3    C311016   0.035   1.645  15.302 -0.3448  0.1439  0.0988
  742TMC3    C411017   0.089   1.648  15.570  0.5354  0.9098  0.6930
  742TMC3    C511018   0.160   1.727  15.485  0.0538 -0.3030  1.2968
  742TMC3    C611019   0.128   1.730  15.351  0.5964 -0.4954  0.6262
  742TMC3     C11020   4.662   1.484  15.620  0.4253 -0.2165  0.6676
  742TMC3     O11021   4.682   1.507  15.743 -0.2360  0.2732  0.3533
  742TMC3     H11022   4.627   1.498  15.344  0.3854 -0.8337  0.1135
  742TMC3    H111023   0.129   1.638  15.671 -0.7721  1.3596  1.2654
  742TMC3    H211024   0.188   1.783  15.278 -0.7132  0.7088  0.4194
  742TMC3    C711025   0.297   1.750  15.514 -0.4217 -0.0326  0.0539
  742TMC3    C811026   0.002   1.650  15.162 -0.1634  0.1207 -0.7219
  742TMC3    O111027   0.342   1.663  15.586  0.6137  0.5842 -0.2690
  742TMC3    O211028   0.088   1.674  15.076 -0.2382  0.1868  0.0936
  743MPD2     C11029   4.101   3.096   1.464  0.0701 -0.0275 -0.4344
  743MPD2    C111030   4.013   3.111   1.366  0.2438 -0.2521 -0.3872
  743MPD2    C211031   4.065   3.137   1.235  0.2473  0.8959  0.0977
  743MPD2    C311032   4.197   3.133   1.207  0.1096  0.3876  0.3825
  743MPD2    C411033   4.284   3.107   1.307  0.2631  0.3713  0.2813
  743MPD2    C511034   4.236   3.088   1.436 -0.0109  0.0155  0.3757
  743MPD2     H11035   3.995   3.138   1.152  0.7030  0.1115 -0.2996
  743MPD2    H111036   4.390   3.087   1.303  0.4605  1.3887  0.6250
  743MPD2    H211037   4.094   3.084   1.572  0.6602  2.3819 -0.1098
  743MPD2    H311038   4.302   3.062   1.518  0.9149  1.3158  0.0452
  743MPD2     N11039   4.244   3.145   1.068  0.5851  0.0331 -0.0201
  743MPD2    H511040   4.171   3.161   1.000  0.3165 -1.3041 -0.0442
  743MPD2    N111041   3.874   3.113   1.385  0.1564  0.0621  0.5825
  743MPD2    H711042   3.816   3.136   1.305  1.1320 -0.8825 -0.3997
  744TMC3    C111043   3.674   3.139   1.504  0.0137  0.6417  1.0875
  744TMC3    C211044   3.614   3.206   1.610  0.2408  0.2767  0.8042
  744TMC3    C311045   3.481   3.226   1.597  0.5626  0.0219 -0.3877
  744TMC3    C411046   3.608   3.085   1.402  0.3275  0.1263  0.3643
  744TMC3    C511047   3.476   3.101   1.398  0.4044 -0.5382  0.3223
  744TMC3    C611048   3.410   3.174   1.487  0.2243 -0.0602  0.6230
  744TMC3     C11049   3.821   3.143   1.506 -0.0797 -0.2571 -0.7118
  744TMC3     O11050   3.872   3.177   1.608 -0.2206  0.2710  0.0852
  744TMC3     H11051   3.668   3.248   1.694 -0.0502  0.4173  0.9248
  744TMC3    H111052   3.652   3.020   1.327  2.3185  1.1639  0.6480
  744TMC3    H211053   3.302   3.177   1.486  0.1743 -2.7103 -2.0402
  744TMC3    C711054   3.404   3.040   1.286  0.2560  0.1842  0.3768
  744TMC3    C811055   3.408   3.328   1.676  0.1564  0.3091  0.4563
  744TMC3    O111056   3.468   3.050   1.181 -0.2453  0.6087  0.1147
  744TMC3    O211057   3.285   3.341   1.665 -0.4971  0.1485 -0.1582
  745TMC3    C111058   0.888   1.208  13.274  0.0515 -0.1651 -0.3100
  745TMC3    C211059   0.767   1.191  13.327 -0.1348  0.5021  0.1913
  745TMC3    C311060   0.662   1.143  13.259  1.2344 -0.1125 -0.2562
  745TMC3    C411061   0.904   1.172  13.139 -0.2682  0.5290 -0.3620
  745TMC3    C511062   0.799   1.121  13.070  0.0266 -0.0895 -0.3116
  745TMC3    C611063   0.672   1.107  13.125 -0.0826 -0.0501  0.1723
  745TMC3     C11064   0.920   1.346  13.295 -0.0655  0.2360 -0.2266
  745TMC3     O11065   0.881   1.398  13.399  0.6556 -0.7973 -0.3349
  745TMC3     H11066   0.771   1.182  13.435 -0.9982  0.4911  0.2215
  745TMC3    H111067   1.001   1.176  13.090  1.1355  1.0888  2.4621
  745TMC3    H211068   0.584   1.078  13.069 -0.8994  0.7376  1.0397
  745TMC3    C711069   0.794   1.186  12.945  0.4676 -0.4412 -0.2278
  745TMC3    C811070   0.549   1.223  13.294 -0.1708  0.0480 -0.5923
  745TMC3    O111071   0.683   1.239  12.935 -0.2131 -0.0583  0.2422
  745TMC3    O211072   0.440   1.167  13.303  0.0943 -0.3194 -0.2007
  746TMC3    C111073   2.471   3.269  11.423  0.2841 -0.6536  0.5377
  746TMC3    C211074   2.558   3.238  11.319 -0.8709  0.4165  0.3516
  746TMC3    C311075   2.552   3.116  11.260 -0.2173  0.3628  0.1557
  746TMC3    C411076   2.363   3.190  11.450  0.4351 -0.0391  0.5757
  746TMC3    C511077   2.355   3.074  11.385  0.0263  0.0734 -0.1368
  746TMC3    C611078   2.454   3.027  11.295 -0.3896 -0.0423 -0.2423
  746TMC3     C11079   2.466   3.404  11.486  0.0796 -0.4813  0.1928
  746TMC3     O11080   2.398   3.413  11.587 -0.0344  0.4644  0.4157
  746TMC3     H11081   2.644   3.297  11.290 -1.5867  1.6385  0.7268
  746TMC3    H111082   2.280   3.233  11.505 -0.7723 -0.6352 -0.8031
  746TMC3    H211083   2.433   2.946  11.227  1.5262  0.0249 -0.9287
  746TMC3    C711084   2.220   3.052  11.331 -0.0774  0.4668 -0.6174
  746TMC3    C811085   2.605   3.113  11.123 -0.1795 -0.2021 -0.4052
  746TMC3    O111086   2.150   3.142  11.276  0.1525  0.6854  0.0674
  746TMC3    O211087   2.637   3.011  11.071 -0.0008  0.2499  0.0684
  747TMC3    C111088   0.094   3.361  10.949  0.0772 -0.2209 -0.2284
  747TMC3    C211089   4.721   3.315  11.001 -0.0634  0.2182  0.0396
  747TMC3    C311090   4.699   3.337  11.139 -0.1128 -0.1023 -0.1267
  747TMC3    C411091   0.195   3.418  11.024 -0.2767  0.0499 -0.5129
  747TMC3    C511092   0.178   3.432  11.158 -0.0187  0.9538  0.4511
  747TMC3    C611093   0.058   3.393  11.214 -0.6807 -0.2506 -0.2103
  747TMC3     C11094   0.097   3.400  10.809 -0.0309 -0.5996 -0.5102
  747TMC3     O11095   0.128   3.520  10.784 -0.0929  0.2122  0.2320
  747TMC3     H11096   4.648   3.276  10.931 -0.2804  1.7129 -0.5746
  747TMC3    H111097   0.280   3.446  10.964  2.7142 -1.0423  3.2568
  747TMC3    H211098   0.056   3.376  11.321  0.0228 -0.8433 -0.2947
  747TMC3    C711099   0.281   3.487  11.243  0.4413 -0.5312 -0.0278
  747TMC3    C811100   4.601   3.246  11.196 -0.7219  0.4588 -0.1575
  747TMC3    O111101   0.253   3.533  11.355 -0.6728 -0.6799  0.3028
  747TMC3    O211102   4.566   3.154  11.130 -0.5661 -0.5262 -0.2026
  748MPD2     C11103   2.641   4.560   2.248 -0.0879  0.0008 -0.2719
  748MPD2    C111104   2.617   4.538   2.114  0.0971 -0.0004 -0.4319
  748MPD2    C211105   2.710   4.473   2.038  0.6585  0.0977  0.2424
  748MPD2    C311106   2.835   4.447   2.085 -0.2152 -0.5528  0.1428
  748MPD2    C411107   2.857   4.470   2.223 -0.6374 -0.6204  0.3312
  748MPD2    C511108   2.759   4.521   2.303 -0.0554  0.5296 -0.4195
  748MPD2     H11109   2.688   4.453   1.934 -1.3634 -0.4944  0.7851
  748MPD2    H111110   2.958   4.470   2.261 -0.6192 -2.2477  0.2965
  748MPD2    H211111   2.571   4.607   2.317 -0.6210  1.3376 -1.7245
  748MPD2    H311112   2.782   4.543   2.407 -1.3489 -1.2424  0.2595
  748MPD2     N11113   2.940   4.400   1.999  0.2221 -0.2607 -0.3524
  748MPD2    H511114   2.919   4.397   1.900  1.4589  1.0000 -0.6586
  748MPD2    N111115   2.484   4.566   2.070 -0.4576  0.5106  0.0508
  748MPD2    H711116   2.421   4.614   2.135 -3.2330 -0.8865 -1.6296
  749TMC3    C111117   3.155   4.316   1.926 -0.8043  0.3232  1.1385
  749TMC3    C211118   3.219   4.198   1.952  0.4207 -0.9703  0.0060
  749TMC3    C311119   3.272   4.124   1.846 -0.2135 -0.2589  0.3530
  749TMC3    C411120   3.131   4.357   1.796  0.3235  0.1215  1.5196
  749TMC3    C511121   3.178   4.281   1.694  0.4989 -0.5048  0.1595
  749TMC3    C611122   3.248   4.166   1.711 -0.5509  0.2350 -0.0303
  749TMC3     C11123   3.066   4.351   2.035 -0.5317  0.3475 -0.1112
  749TMC3     O11124   3.108   4.329   2.148  0.1136  0.5913  0.0535
  749TMC3     H11125   3.230   4.172   2.057  1.2007  1.9255  0.6544
  749TMC3    H111126   3.086   4.453   1.776  0.8120  0.2962  1.2530
  749TMC3    H211127   3.307   4.131   1.628 -0.2849 -2.6131  1.3653
  749TMC3    C711128   3.152   4.324   1.558  0.8637  0.0484  0.0624
  749TMC3    C811129   3.389   4.051   1.887 -0.6576  0.3612 -0.4731
  749TMC3    O111130   3.161   4.445   1.545  0.4718  0.1377  0.3450
  749TMC3    O211131   3.425   4.054   2.005 -0.1117 -0.2944  0.0047
  750MPD2     C11132   2.393   0.328  11.552  0.3276  0.5949  0.1123
  750MPD2    C111133   2.337   0.277  11.669 -0.1418  0.3312 -0.5023
  750MPD2    C211134   2.233   0.187  11.656 -1.0170  0.0364  0.6500
  750MPD2    C311135   2.196   0.144  11.527  0.4113  0.1350  0.0214
  750MPD2    C411136   2.254   0.195  11.411  0.3333 -0.1796 -0.5021
  750MPD2    C511137   2.341   0.295  11.431  0.2910 -0.2387  0.3447
  750MPD2     H11138   2.194   0.141  11.746  1.1259 -1.4939  0.7703
  750MPD2    H111139   2.221   0.161  11.314  1.6640  1.8003 -1.6290
  750MPD2    H211140   2.470   0.404  11.554  1.6070 -0.7107 -0.2142
  750MPD2    H311141   2.393   0.329  11.343 -1.0630 -1.8808 -1.0757
  750MPD2     N11142   2.103   0.045  11.497  0.2089  0.2954  0.0285
  750MPD2    H511143   2.086   0.037  11.397 -1.7746 -0.2091  0.3952
  750MPD2    N111144   2.398   0.313  11.793 -0.3887 -0.1906 -0.0029
  750MPD2    H711145   2.488   0.360  11.786 -0.0228 -0.6021  1.9486
  751TMC3    C111146   2.016   4.574  11.523 -1.2707  0.0192  0.8480
  751TMC3    C211147   1.982   4.473  11.607  0.9358  0.3305  0.7222
  751TMC3    C311148   1.963   4.352  11.544 -0.2315  0.0456 -0.2535
  751TMC3    C411149   2.055   4.552  11.397 -0.5252 -0.5780 -0.8447
  751TMC3    C511150   2.044   4.431  11.347 -1.1190 -0.2141 -0.0444
  751TMC3    C611151   1.995   4.322  11.414  0.0997 -0.4986 -0.6782
  751TMC3     C11152   2.040   4.702  11.589 -0.4731  0.2755  0.4145
  751TMC3     O11153   2.049   4.701  11.712 -0.4315 -0.4713  0.7768
  751TMC3     H11154   1.942   4.497  11.705  0.9627  1.2563  0.5081
  751TMC3    H111155   2.094   4.627  11.329  0.5145 -0.0754  0.3069
  751TMC3    H211156   1.971   4.226  11.371  0.7983 -1.4259  0.9821
  751TMC3    C711157   2.107   4.402  11.211 -0.4490  0.2939  0.4459
  751TMC3    C811158   1.880   4.250  11.594  0.2416  0.7091 -0.3666
  751TMC3    O111159   2.147   4.499  11.144 -0.1737  0.4342  0.3536
  751TMC3    O211160   1.804   4.185  11.522 -0.2259  0.7326  0.2947
  752TMC3    C111161   1.809   0.941  17.237  0.5697 -0.6575  0.3363
  752TMC3    C211162   1.771   0.812  17.252  0.0487  0.9480  0.1929
  752TMC3    C311163   1.753   0.774  17.378 -0.1191  0.5330 -0.2358
  752TMC3    C411164   1.802   1.032  17.342  0.0030  0.3299  0.1237
  752TMC3    C511165   1.747   0.994  17.465 -0.3972  0.1745  0.3991
  752TMC3    C611166   1.723   0.860  17.483  0.0279 -0.3587 -0.5347
  752TMC3     C11167   1.810   1.000  17.103 -0.7290 -0.1694  0.3201
  752TMC3     O11168   1.861   1.111  17.092  0.4466  0.6347  0.0970
  752TMC3     H11169   1.771   0.740  17.172  0.2788  0.8182  0.3104
  752TMC3    H111170   1.822   1.136  17.318  0.8590 -0.1987 -1.4735
  752TMC3    H211171   1.706   0.828  17.586  0.0550  1.8733  0.1561
  752TMC3    C711172   1.735   1.088  17.571 -0.9483 -0.3195 -0.8399
  752TMC3    C811173   1.735   0.626  17.397  0.1985 -0.4973 -0.1898
  752TMC3    O111174   1.803   1.191  17.579  0.0353  0.7802  0.1044
  752TMC3    O211175   1.739   0.553  17.296  0.1112 -0.3935 -0.1165
  753TMC3    C111176   4.126   1.747  13.672  0.7535  0.7942 -0.2105
  753TMC3    C211177   4.221   1.744  13.771 -0.3369  0.6005  0.5074
  753TMC3    C311178   4.277   1.624  13.809  0.6881 -0.2454 -0.0590
  753TMC3    C411179   4.094   1.630  13.615 -0.6326  0.6649 -0.3914
  753TMC3    C511180   4.147   1.512  13.655 -0.1382 -0.1571 -0.0908
  753TMC3    C611181   4.240   1.503  13.755  0.0178  0.3063 -0.1865
  753TMC3     C11182   4.027   1.853  13.662  0.0107  0.4070  0.0486
  753TMC3     O11183   3.946   1.855  13.575  0.0510 -0.2204  0.1718
  753TMC3     H11184   4.270   1.840  13.789  0.9846 -0.0006  0.1410
  753TMC3    H111185   4.015   1.627  13.541 -1.8310 -0.5270  0.9459
  753TMC3    H211186   4.279   1.405  13.778 -0.0540 -0.1952 -2.2170
  753TMC3    C711187   4.089   1.385  13.605  0.0388 -0.5166  1.0007
  753TMC3    C811188   4.314   1.615  13.954 -0.1591 -0.6092 -0.0546
  753TMC3    O111189   4.052   1.379  13.488  0.0757 -0.2764  0.2759
  753TMC3    O211190   4.259   1.525  14.016  0.1749 -0.3073  0.1060
  754MPD2     C11191   2.755   0.294  13.216 -0.2093 -0.0070  0.4638
  754MPD2    C111192   2.737   0.169  13.272  0.3266  0.4346  0.1509
  754MPD2    C211193   2.608   0.125  13.287 -0.0339 -0.6230  0.3387
  754MPD2    C311194   2.502   0.197  13.231  0.0864 -0.4724  0.0351
  754MPD2    C411195   2.530   0.319  13.174 -0.3938 -0.0766 -0.1369
  754MPD2    C511196   2.652   0.370  13.168  0.8858 -0.0475  0.6151
  754MPD2     H11197   2.584   0.031  13.333  1.0065 -0.2861  1.5700
  754MPD2    H111198   2.450   0.377  13.129 -2.3372 -2.4280  0.2663
  754MPD2    H211199   2.856   0.333  13.223 -1.2329  2.2481  2.8305
  754MPD2    H311200   2.668   0.473  13.138 -0.5803  0.5205  1.7856
  754MPD2     N11201   2.367   0.168  13.252  0.0902  0.2017 -0.3634
  754MPD2    H511202   2.297   0.230  13.211  2.7365  2.6517 -1.2095
  754MPD2    N111203   2.839   0.097  13.332  0.0398 -1.0476  0.5675
  754MPD2    H711204   2.921   0.155  13.347 -0.5118 -0.2724  0.6206
  755MPD2     C11205   1.496   0.506  13.522  0.2655 -0.3515 -0.5381
  755MPD2    C111206   1.618   0.529  13.588  0.6357 -0.4629  0.3979
  755MPD2    C211207   1.716   0.434  13.564 -0.3594 -0.9567  0.3741
  755MPD2    C311208   1.695   0.321  13.485  0.6914 -0.4186 -0.7765
  755MPD2    C411209   1.567   0.303  13.445  0.2192  0.6919  0.6833
  755MPD2    C511210   1.472   0.389  13.464 -0.3982 -0.3694  0.2985
  755MPD2     H11211   1.814   0.453  13.605 -0.4984 -1.6492  1.0148
  755MPD2    H111212   1.529   0.214  13.395  2.1524 -0.8018  1.8976
  755MPD2    H211213   1.413   0.575  13.534  1.8512  1.2043  1.3168
  755MPD2    H311214   1.370   0.370  13.432 -0.0205 -0.0266 -1.0992
  755MPD2     N11215   1.796   0.234  13.448  0.0882  0.8412  0.4086
  755MPD2    H511216   1.761   0.149  13.405 -0.4858  1.9444 -1.2800
  755MPD2    N111217   1.643   0.644  13.661  0.1026  0.4162 -0.5714
  755MPD2    H711218   1.729   0.635  13.714 -1.2193  0.4891  1.5717
  756MPD2     C11219   1.389   1.104   9.712  0.2533 -0.3858 -0.7603
  756MPD2    C111220   1.326   0.985   9.740 -0.0059  0.1405 -0.1822
  756MPD2    C211221   1.204   0.966   9.689  0.1916  0.2326  0.4722
  756MPD2    C311222   1.131   1.065   9.618  0.4092  0.7521 -0.4970
  756MPD2    C411223   1.195   1.183   9.587 -0.3330  0.3305 -0.3225
  756MPD2    C511224   1.327   1.202   9.632  0.4235 -0.4305 -0.4298
  756MPD2     H11225   1.162   0.867   9.700 -0.2382  0.0876 -2.6253
  756MPD2    H111226   1.145   1.248   9.517 -0.9431  0.3879  0.1635
  756MPD2    H211227   1.492   1.122   9.740 -0.5038  1.9136  0.5060
  756MPD2    H311228   1.386   1.289   9.606  0.0771 -1.1261 -3.4638
  756MPD2     N11229   1.005   1.034   9.573  0.1623 -0.1536  0.2686
  756MPD2    H511230   0.971   0.941   9.591 -1.0917  0.1067 -0.7749
  756MPD2    N111231   1.392   0.885   9.809  0.2115 -0.2553  0.0833
  756MPD2    H711232   1.331   0.817   9.852  1.7633 -1.7225 -0.0372
  757MPD2     C11233   0.767   0.291   9.276  0.1915 -0.3610 -0.6284
  757MPD2    C111234   0.867   0.352   9.352 -0.2328 -0.2206  0.3308
  757MPD2    C211235   0.844   0.483   9.397 -0.1822 -0.2209 -0.2030
  757MPD2    C311236   0.737   0.557   9.352  0.1129 -0.2512  0.2344
  757MPD2    C411237   0.647   0.500   9.265 -0.0563  0.2178  0.1412
  757MPD2    C511238   0.662   0.364   9.237 -0.0533 -0.5857  0.0831
  757MPD2     H11239   0.911   0.520   9.474  1.7062  0.6826 -2.2840
  757MPD2    H111240   0.567   0.557   9.217  0.2975  0.8069  0.2425
  757MPD2    H211241   0.768   0.186   9.251 -0.4185 -0.2595 -1.0618
  757MPD2    H311242   0.584   0.319   9.176  1.9437 -2.3550 -1.1911
  757MPD2     N11243   0.730   0.686   9.393 -0.7467  0.2144  0.4444
  757MPD2    H511244   0.801   0.717   9.459 -4.2319  1.1043  3.7807
  757MPD2    N111245   0.989   0.285   9.367 -0.4199  0.0531 -0.4392
  757MPD2    H711246   0.997   0.188   9.337  1.5895  0.2908 -0.6337
  758MPD2     C11247   2.623   4.625  15.671 -0.0316  0.7938 -0.6549
  758MPD2    C111248   2.641   4.529  15.763 -0.7223  0.1517 -0.3086
  758MPD2    C211249   2.586   4.542  15.886  0.1315 -0.5521 -0.0933
  758MPD2    C311250   2.514   4.657  15.915  0.1540 -0.1181  0.2915
  758MPD2    C411251   2.500   0.013  15.824  0.2165 -0.5282  0.0696
  758MPD2    C511252   2.560   4.739  15.698  0.9442  1.0199  0.7805
  758MPD2     H11253   2.603   4.465  15.959 -0.7391 -0.8845 -0.2519
  758MPD2    H111254   2.453   0.106  15.852  1.7951 -0.3813  2.1915
  758MPD2    H211255   2.652   4.611  15.567  0.0268  1.7429 -0.7650
  758MPD2    H311256   2.554   0.071  15.620 -1.7322 -1.5043 -1.4040
  758MPD2     N11257   2.481   4.694  16.046 -0.1101 -0.1635  0.8477
  758MPD2    H511258   2.464   0.050  16.067  0.3477 -0.1399  1.1185
  758MPD2    N111259   2.712   4.418  15.716 -0.2790  0.9408  0.5662
  758MPD2    H711260   2.763   4.427  15.629  0.0475 -0.0497  0.6588
  759MPD2     C11261   1.070   3.744  10.246  0.1208 -0.3078 -0.0719
  759MPD2    C111262   1.165   3.653  10.202 -0.8919 -0.3010 -0.0899
  759MPD2    C211263   1.272   3.699  10.127 -0.2889 -0.3059  0.4262
  759MPD2    C311264   1.288   3.838  10.106 -0.3831 -0.1256  0.7496
  759MPD2    C411265   1.184   3.920  10.148 -0.6622  0.4070  0.2162
  759MPD2    C511266   1.082   3.875  10.227 -0.2849  0.0420  0.6148
  759MPD2     H11267   1.349   3.632  10.090 -1.1444  0.7278 -3.2532
  759MPD2    H111268   1.183   4.026  10.125  1.4183  0.4209  0.1466
  759MPD2    H211269   0.995   3.714  10.318 -0.3809  2.5957  0.6109
  759MPD2    H311270   1.016   3.950  10.268  0.3844  1.2384 -0.4827
  759MPD2     N11271   1.400   3.889  10.039  0.0553  0.5282 -0.2244
  759MPD2    H511272   1.466   3.816  10.014 -1.6871 -1.0159 -0.2690
  759MPD2    N111273   1.145   3.513  10.234  0.1464  0.2923  0.4011
  759MPD2    H711274   1.223   3.451  10.214  0.2662  0.3615  0.6550
  760MPD2     C11275   0.546   0.188  12.088 -0.0443 -0.4321  0.9343
  760MPD2    C111276   0.645   0.153  12.005  0.3655  0.3545  0.4559
  760MPD2    C211277   0.667   0.024  11.971  0.2503 -0.3543 -0.1833
  760MPD2    C311278   0.595   4.666  12.033 -0.5466 -0.5909  0.1432
  760MPD2    C411279   0.485   4.700  12.107 -0.2108 -0.2625 -0.0684
  760MPD2    C511280   0.459   0.088  12.128 -0.0153 -0.4585  0.1403
  760MPD2     H11281   0.759   0.007  11.915  0.6518  0.0682  0.3575
  760MPD2    H111282   0.415   4.628  12.149 -2.1703  1.0780 -1.0067
  760MPD2    H211283   0.530   0.284  12.135 -0.6498  0.2776 -0.7265
  760MPD2    H311284   0.373   0.118  12.186 -0.3621 -2.1847  0.5363
  760MPD2     N11285   0.621   4.528  12.027  0.0375 -0.6428 -0.0310
  760MPD2    H511286   0.554   4.476  12.082  0.4272  1.6157  2.5861
  760MPD2    N111287   0.729   0.244  11.933 -0.0361  0.5560 -0.3039
  760MPD2    H711288   0.785   0.203  11.859 -1.3297 -1.0985 -0.3725
  761MPD2     C11289   1.869   3.816  11.870 -0.5327 -0.8656 -0.0203
  761MPD2    C111290   1.841   3.840  11.741  0.0219 -0.8347 -0.7092
  761MPD2    C211291   1.864   3.964  11.691  0.0530  0.4777  0.6762
  761MPD2    C311292   1.889   4.076  11.770  0.2432 -0.3830  0.3017
  761MPD2    C411293   1.923   4.049  11.898  0.8924  1.1447  0.0273
  761MPD2    C511294   1.907   3.925  11.946  0.3758 -0.0159  0.3416
  761MPD2     H11295   1.862   3.989  11.585 -1.1796  0.8658  0.7925
  761MPD2    H111296   1.947   4.129  11.967 -0.5593 -0.9350  2.9578
  761MPD2    H211297   1.875   3.721  11.922  0.6863 -0.6854  0.1722
  761MPD2    H311298   1.941   3.905  12.047  0.8359  1.4822  0.4796
  761MPD2     N11299   1.913   4.207  11.719  0.0845 -0.1788  0.1275
  761MPD2    H511300   1.963   4.268  11.782 -1.3756 -0.6368  1.7162
  761MPD2    N111301   1.824   3.727  11.660 -0.5516  0.4847  0.5475
  761MPD2    H711302   1.835   3.634  11.700 -2.2188  0.1868  0.3377
  762MPD2     C11303   1.764   3.768  10.843 -1.0632  0.2837 -0.4678
  762MPD2    C111304   1.861   3.713  10.921 -0.0545 -0.7531 -0.0100
  762MPD2    C211305   1.996   3.721  10.873 -0.0924  0.4140  0.1695
  762MPD2    C311306   2.030   3.783  10.748 -0.3551 -0.2658  0.3764
  762MPD2    C411307   1.926   3.839  10.680 -0.6566  0.1389  0.5534
  762MPD2    C511308   1.797   3.835  10.723 -0.2201  0.4553  0.4524
  762MPD2     H11309   2.078   3.676  10.928  0.0692  0.9847  0.4001
  762MPD2    H111310   1.942   3.888  10.584  2.4903  0.4073  1.2151
  762MPD2    H211311   1.659   3.756  10.866 -0.6900 -1.5481  0.2893
  762MPD2    H311312   1.716   3.878  10.664 -1.9646  2.3623  4.2210
  762MPD2     N11313   2.164   3.805  10.706  0.0332  0.1513 -0.0081
  762MPD2    H511314   2.228   3.775  10.778 -1.2802 -1.4000  0.5083
  762MPD2    N111315   1.814   3.654  11.041 -0.2632 -0.2091 -0.3018
  762MPD2    H711316   1.714   3.662  11.055 -0.1578  0.8550 -0.1482
  763MPD2     C11317   4.723   0.113  16.079  0.2655  0.5371 -0.0427
  763MPD2    C111318   4.602   0.182  16.046 -0.1624 -0.4767  0.2816
  763MPD2    C211319   4.588   0.315  16.093 -0.5312 -0.3046  0.3295
  763MPD2    C311320   4.703   0.375  16.150 -0.3039 -0.2858  0.1009
  763MPD2    C411321   0.084   0.313  16.159  0.3830 -0.1412 -0.2063
  763MPD2    C511322   0.082   0.181  16.139  0.0241 -0.5273  0.6513
  763MPD2     H11323   4.497   0.372  16.082 -1.2337 -1.6142 -0.7162
  763MPD2    H111324   0.172   0.349  16.210  2.1324 -1.5311 -2.2284
  763MPD2    H211325   4.738   0.012  16.043  3.1064  1.3362 -1.1048
  763MPD2    H311326   0.178   0.130  16.147 -0.0144 -0.8726 -1.0886
  763MPD2     N11327   4.707   0.514  16.184 -0.2848  0.2779 -0.1403
  763MPD2    H511328   0.057   0.549  16.209 -0.3043  0.2862 -0.0799
  763MPD2    N111329   4.505   0.128  15.958 -0.2981  0.0920  0.1453
  763MPD2    H711330   4.439   0.196  15.922 -1.0107  0.3942  2.0396
  764MPD2     C11331   2.734   1.312  17.436  0.5716  0.1413  0.0962
  764MPD2    C111332   2.601   1.319  17.462  0.2237 -0.3870  0.0897
  764MPD2    C211333   2.557   1.288  17.594  0.2660 -1.1359 -0.3991
  764MPD2    C311334   2.644   1.256  17.700  0.0591  0.0184  0.2803
  764MPD2    C411335   2.780   1.248  17.668 -1.0224  0.3954  0.1298
  764MPD2    C511336   2.814   1.269  17.536 -0.1220  0.3313  0.2343
  764MPD2     H11337   2.450   1.291  17.613 -0.2022 -0.1803 -3.2253
  764MPD2    H111338   2.858   1.229  17.741 -0.1776 -0.7118 -1.0555
  764MPD2    H211339   2.781   1.323  17.339 -1.9143 -0.5103 -1.1940
  764MPD2    H311340   2.918   1.265  17.506 -0.3471 -2.6221 -0.2037
  764MPD2     N11341   2.596   1.227   0.064  0.1354 -0.3177  0.0965
  764MPD2    H511342   2.498   1.246   0.082  0.2019  0.6593 -0.5143
  764MPD2    N111343   2.507   1.361  17.364 -0.2141  0.0033 -0.6052
  764MPD2    H711344   2.415   1.379  17.403  0.0492 -0.0341  0.0319
  765MPD2     C11345   2.413   3.917  15.235  0.4812 -0.8088 -0.1521
  765MPD2    C111346   2.467   3.980  15.338  0.8841  0.6272  0.2736
  765MPD2    C211347   2.592   3.944  15.391  0.3005  0.1622 -0.2329
  765MPD2    C311348   2.655   3.834  15.329 -0.0558  0.6429 -0.0153
  765MPD2    C411349   2.604   3.774  15.214 -0.0292 -0.6312 -0.3244
  765MPD2    C511350   2.481   3.814  15.174 -0.7271  0.0947 -0.1794
  765MPD2     H11351   2.634   3.997  15.475 -0.3129  1.9147 -1.0302
  765MPD2    H111352   2.656   3.701  15.154 -0.5947 -1.5669  0.3209
  765MPD2    H211353   2.309   3.938  15.209  0.3558 -1.1365  0.0807
  765MPD2    H311354   2.437   3.767  15.087 -0.8508  1.8968 -1.1104
  765MPD2     N11355   2.787   3.793  15.382 -0.4365  0.1605  0.7310
  765MPD2    H511356   2.833   3.855  15.447  1.6513 -0.5840 -0.0306
  765MPD2    N111357   2.388   4.078  15.399  0.0083 -0.0756  0.3174
  765MPD2    H711358   2.292   4.089  15.369 -0.0933 -0.7065  0.4097
  766MPD2     C11359   1.656   4.344  15.236  0.6437  0.1987 -0.3334
  766MPD2    C111360   1.780   4.276  15.232 -0.2803 -0.7425  0.3925
  766MPD2    C211361   1.823   4.212  15.119  0.1485 -0.6658  0.2466
  766MPD2    C311362   1.743   4.199  15.007  0.0865 -0.1120 -0.0913
  766MPD2    C411363   1.622   4.263  15.011  0.4272  0.1940  0.4078
  766MPD2    C511364   1.572   4.335  15.125 -0.2193  0.2316 -0.4109
  766MPD2     H11365   1.925   4.173  15.116  0.1820 -0.5084 -0.4445
  766MPD2    H111366   1.547   4.253  14.934  0.4942  1.6608  0.1560
  766MPD2    H211367   1.624   4.408  15.318  0.9273 -0.2737  0.1506
  766MPD2    H311368   1.475   4.384  15.128 -0.0352  0.4750  1.4014
  766MPD2     N11369   1.788   4.147  14.881 -0.7772 -1.4388 -0.0403
  766MPD2    H511370   1.724   4.143  14.802  0.6560 -1.4280 -1.2082
  766MPD2    N111371   1.872   4.303  15.337 -0.2812 -0.0850 -0.8248
  766MPD2    H711372   1.851   4.385  15.393  2.0419 -0.9817  1.3936
  767MPD2     C11373   1.378   4.576  14.794  0.2878 -0.2792  1.0210
  767MPD2    C111374   1.503   4.543  14.766 -0.1380 -0.8032  0.4807
  767MPD2    C211375   1.523   4.462  14.655  0.3840  0.1109  0.2320
  767MPD2    C311376   1.417   4.405  14.583  0.1628  0.0661 -0.4785
  767MPD2    C411377   1.287   4.443  14.622 -0.2792  0.2610  0.9496
  767MPD2    C511378   1.272   4.532  14.717  0.4924  1.0783  0.0649
  767MPD2     H11379   1.624   4.431  14.630  0.0324  1.4216 -2.7466
  767MPD2    H111380   1.201   4.413  14.564  0.8709 -1.9249  0.3617
  767MPD2    H211381   1.357   4.658  14.861 -2.4212 -1.5902  1.7909
  767MPD2    H311382   1.172   4.557  14.748  0.3886 -0.2223  0.7598
  767MPD2     N11383   1.443   4.316  14.473 -0.0629  0.1191 -0.0618
  767MPD2    H511384   1.541   4.288  14.465  0.4902  2.2852 -1.0321
  767MPD2    N111385   1.598   4.594  14.860 -0.4921 -0.1712  0.0831
  767MPD2    H711386   1.567   4.645  14.942  0.7390 -0.4946  0.7618
  768MPD2     C11387   2.387   3.009  10.484 -0.5057  0.2990  0.3801
  768MPD2    C111388   2.339   2.928  10.588  0.3914 -0.1601 -0.3280
  768MPD2    C211389   2.430   2.851  10.657 -0.6296 -0.5427 -1.0522
  768MPD2    C311390   2.566   2.852  10.630  0.3665  0.2537  0.2788
  768MPD2    C411391   2.611   2.936  10.534 -0.0184  0.6638 -0.4653
  768MPD2    C511392   2.523   3.013  10.459 -0.3608 -0.1699  0.1371
  768MPD2     H11393   2.390   2.785  10.732 -0.2597 -0.1805 -0.5362
  768MPD2    H111394   2.714   2.957  10.508  0.9815 -1.2158  2.0057
  768MPD2    H211395   2.322   3.074  10.427 -0.3390  0.4390  0.3504
  768MPD2    H311396   2.555   3.097  10.399  1.4844 -1.3036 -0.4753
  768MPD2     N11397   2.664   2.787  10.714 -0.1586  0.1435 -0.1936
  768MPD2    H511398   2.759   2.819  10.695  0.3553 -1.0697  0.3456
  768MPD2    N111399   2.205   2.922  10.622  0.3010  0.1790  0.0647
  768MPD2    H711400   2.187   2.863  10.702 -0.0747 -0.0667 -0.1985
  769MPD2     C11401   3.355   0.963  14.889  0.4621 -0.1145 -0.0756
  769MPD2    C111402   3.268   1.058  14.939 -0.6914 -0.2730  0.5290
  769MPD2    C211403   3.310   1.128  15.053  0.4264 -0.0294  0.0674
  769MPD2    C311404   3.426   1.104  15.119  0.2071  1.2824 -0.3841
  769MPD2    C411405   3.510   1.007  15.070 -0.0019 -0.2348  0.1931
  769MPD2    C511406   3.472   0.939  14.960 -0.1029  0.1684  0.7498
  769MPD2     H11407   3.245   1.203  15.097  2.4900  3.0511 -2.1236
  769MPD2    H111408   3.603   0.979  15.119 -0.2055  3.1799  2.5734
  769MPD2    H211409   3.325   0.902  14.805 -0.1775 -1.7954  1.3516
  769MPD2    H311410   3.533   0.853  14.933 -0.7447 -1.0094  2.9741
  769MPD2     N11411   3.451   1.170  15.240 -0.1582  0.1239 -0.0082
  769MPD2    H511412   3.371   1.204  15.293 -2.2789 -4.3369 -0.3212
  769MPD2    N111413   3.146   1.082  14.871  0.0691 -0.2195  0.1582
  769MPD2    H711414   3.124   1.017  14.796  1.0687 -0.4335  0.0387
  770MPD2     C11415   2.481   0.545  14.883  0.8097  0.4901  1.0326
  770MPD2    C111416   2.613   0.562  14.910 -0.1690 -0.9464  1.4221
  770MPD2    C211417   2.672   0.686  14.907  0.5554  0.4323  0.4114
  770MPD2    C311418   2.590   0.799  14.882 -0.3584  0.8012 -0.2135
  770MPD2    C411419   2.454   0.779  14.856 -0.8034 -0.1574 -0.6202
  770MPD2    C511420   2.403   0.654  14.852  0.3142 -0.5776 -0.0404
  770MPD2     H11421   2.780   0.691  14.916  0.5639  0.2027  0.4354
  770MPD2    H111422   2.388   0.861  14.835  0.5121  0.2650 -3.0343
  770MPD2    H211423   2.432   0.450  14.901 -0.8083  0.6417 -2.6094
  770MPD2    H311424   2.295   0.645  14.847  0.3286 -0.2986 -0.7984
  770MPD2     N11425   2.653   0.926  14.872 -0.5106 -0.1639  0.3025
  770MPD2    H511426   2.753   0.928  14.887 -0.2324  0.1890 -1.6078
  770MPD2    N111427   2.682   0.444  14.927  0.3314 -0.1725  0.1783
  770MPD2    H711428   2.630   0.357  14.926  1.9161 -1.1085 -0.9811
  771MPD2     C11429   4.491   3.655  13.414 -0.0282  0.3255 -0.2258
  771MPD2    C111430   4.399   3.736  13.477  0.1860 -0.0217  0.2739
  771MPD2    C211431   4.289   3.679  13.526 -0.8264 -0.9217 -0.1248
  771MPD2    C311432   4.277   3.540  13.542  0.3428  0.5029  0.4680
  771MPD2    C411433   4.375   3.461  13.485  0.4140  0.3564  0.8853
  771MPD2    C511434   4.481   3.518  13.424 -0.0080 -0.3208 -0.2207
  771MPD2     H11435   4.226   3.750  13.578  2.2703  1.1170  0.8403
  771MPD2    H111436   4.373   3.353  13.479 -2.6285  0.3220  2.2359
  771MPD2    H211437   4.578   3.707  13.373  0.2317  0.2017  0.1713
  771MPD2    H311438   4.566   3.455  13.397 -1.0835 -2.5939  1.7323
  771MPD2     N11439   4.160   3.491  13.610  0.0003  0.2634 -0.3533
  771MPD2    H511440   4.090   3.551  13.653 -1.3071 -0.3956 -1.5463
  771MPD2    N111441   4.401   3.879  13.472  0.5750  0.7199  0.0361
  771MPD2    H711442   4.328   3.930  13.520 -0.0800 -0.5462  0.3806
  772MPD2     C11443   4.026   4.463  13.731  0.6947  0.1291 -0.0734
  772MPD2    C111444   4.025   4.347  13.653 -0.0397  0.0159 -0.7089
  772MPD2    C211445   3.907   4.281  13.630 -0.5387 -1.2147 -0.5439
  772MPD2    C311446   3.786   4.348  13.652  0.0974 -0.0639 -0.0666
  772MPD2    C411447   3.789   4.471  13.715 -0.9466 -0.2368  0.7672
  772MPD2    C511448   3.908   4.525  13.757  0.1227 -1.0319 -0.7386
  772MPD2     H11449   3.906   4.201  13.556 -0.2851 -0.3506 -1.4782
  772MPD2    H111450   3.697   4.527  13.729  0.6360  2.3682  0.7702
  772MPD2    H211451   4.116   4.517  13.759 -0.1428  0.3231  2.2414
  772MPD2    H311452   3.908   4.625  13.798  1.4432 -1.1359 -0.4846
  772MPD2     N11453   3.660   4.295  13.620  0.2903  0.4967 -0.2251
  772MPD2    H511454   3.578   4.351  13.640  0.4167 -0.2409  2.3222
  772MPD2    N111455   4.139   4.291  13.600  0.0871 -0.0474 -0.1387
  772MPD2    H711456   4.120   4.221  13.530 -2.7764  0.1844  0.4123
  773MPD2     C11457   3.320   0.441  17.540  0.0626 -0.1907 -0.1517
  773MPD2    C111458   3.236   0.330  17.568 -0.6790  0.5198 -0.0531
  773MPD2    C211459   3.291   0.237  17.659  0.6486 -0.2201  0.2043
  773MPD2    C311460   3.414   0.250  17.723 -0.3203  0.2545  0.0655
  773MPD2    C411461   3.491   0.362  17.684  0.3848  1.1364  0.0143
  773MPD2    C511462   3.444   0.457  17.600 -0.0273 -0.7587  0.7583
  773MPD2     H11463   3.239   0.146  17.684  1.1331 -0.4259  0.4719
  773MPD2    H111464   3.586   0.387  17.729  1.6562 -0.0345 -2.0493
  773MPD2    H211465   3.284   0.525  17.480  1.8474  0.9539  0.3804
  773MPD2    H311466   3.505   0.542  17.572 -1.1431 -0.9789 -2.3689
  773MPD2     N11467   3.453   0.147   0.039 -0.0509  0.1607 -0.3202
  773MPD2    H511468   3.393   0.066   0.054  0.6939 -0.5546 -1.2713
  773MPD2    N111469   3.118   0.302  17.495 -0.4643 -0.3077 -0.1664
  773MPD2    H711470   3.073   0.216  17.522  0.4318 -0.6584  0.2226
  774MPD2     C11471   2.926   3.973  13.898  0.8157  0.9042 -0.3107
  774MPD2    C111472   2.801   4.004  13.839 -0.0530 -0.7301 -0.3801
  774MPD2    C211473   2.782   4.140  13.795  0.0037 -0.1840  0.2365
  774MPD2    C311474   2.895   4.225  13.786  0.6269 -0.0703  0.5920
  774MPD2    C411475   3.020   4.193  13.832  0.3394 -0.3134 -0.1414
  774MPD2    C511476   3.029   4.066  13.894  0.3326  0.4007  1.0275
  774MPD2     H11477   2.689   4.175  13.752  1.1131 -1.2370 -2.9635
  774MPD2    H111478   3.101   4.264  13.842  1.0005 -1.1908  0.8325
  774MPD2    H211479   2.949   3.879  13.946 -0.9832  0.8357  0.3973
  774MPD2    H311480   3.118   4.026  13.941  1.9223  2.8712  0.1258
  774MPD2     N11481   2.872   4.351  13.731  0.6340 -0.4677 -0.3530
  774MPD2    H511482   2.794   4.362  13.667  0.5163  0.5377 -0.0373
  774MPD2    N111483   2.700   3.909  13.841 -0.0693 -1.1285  0.3781
  774MPD2    H711484   2.731   3.822  13.883 -2.0771 -1.3435  1.4035
  775MPD2     C11485   3.643   0.851  15.576  0.4347  0.9147 -0.1199
  775MPD2    C111486   3.647   0.949  15.669  0.2776  0.0970 -0.4192
  775MPD2    C211487   3.749   1.047  15.662  0.3128  0.2689 -0.4130
  775MPD2    C311488   3.829   1.055  15.547  0.0365  0.3960  0.1220
  775MPD2    C411489   3.829   0.944  15.464 -0.1685  0.3097 -0.1685
  775MPD2    C511490   3.731   0.847  15.472 -0.2134 -0.2309 -0.4478
  775MPD2     H11491   3.772   1.117  15.741 -1.1484 -0.1243  0.3441
  775MPD2    H111492   3.897   0.933  15.380  0.3512 -1.2993  0.4673
  775MPD2    H211493   3.569   0.772  15.583 -0.1549  1.4005 -0.8924
  775MPD2    H311494   3.715   0.767  15.400 -1.4998 -0.4700  0.0944
  775MPD2     N11495   3.936   1.146  15.530 -0.2268  0.0266 -0.2092
  775MPD2    H511496   3.996   1.133  15.449 -0.5028 -0.5556 -0.3201
  775MPD2    N111497   3.567   0.923  15.785  0.4032 -0.5635 -0.4261
  775MPD2    H711498   3.525   0.831  15.786 -2.6728  0.8396 -0.7700
  776MPD2     C11499   2.769   0.866  11.944  0.2728  0.4586  0.4954
  776MPD2    C111500   2.645   0.817  11.935 -0.0471  0.4480 -0.4413
  776MPD2    C211501   2.549   0.882  11.853 -0.1885  0.4085 -0.2613
  776MPD2    C311502   2.583   0.990  11.777  0.3444  0.4251 -0.8789
  776MPD2    C411503   2.716   1.035  11.778  0.2667 -0.6842 -0.4759
  776MPD2    C511504   2.802   0.973  11.861  0.4317  0.2356 -0.4634
  776MPD2     H11505   2.447   0.846  11.849  0.4155 -0.9530 -2.9529
  776MPD2    H111506   2.748   1.115  11.713  1.0230 -0.5904  0.0070
  776MPD2    H211507   2.840   0.814  12.008  0.3591  0.2499  0.2310
  776MPD2    H311508   2.899   1.019  11.881 -0.2748  0.9066  1.3606
  776MPD2     N11509   2.491   1.054  11.688  0.0467 -0.5478 -0.3260
  776MPD2    H511510   2.530   1.115  11.617 -1.2978  0.0059 -0.5994
  776MPD2    N111511   2.609   0.692  11.983 -0.2393 -0.0942  0.1048
  776MPD2    H711512   2.511   0.670  11.966 -0.1178 -0.9239  0.4660
  777MPD2     C11513   3.308   3.844   0.864 -0.1418 -0.0421 -0.0975
  777MPD2    C111514   3.389   3.737   0.862  0.1774  0.0633 -0.3209
  777MPD2    C211515   3.356   3.635   0.781  0.0761 -0.1348 -0.4419
  777MPD2    C311516   3.239   3.628   0.717  0.2852  0.5779 -0.4233
  777MPD2    C411517   3.145   3.729   0.741 -0.1662 -0.4436 -0.1849
  777MPD2    C511518   3.189   3.845   0.807  1.1837  0.2761 -0.8645
  777MPD2     H11519   3.423   3.549   0.776  0.4106 -0.0218  1.8693
  777MPD2    H111520   3.041   3.719   0.712  0.3117 -2.2760 -1.2679
  777MPD2    H211521   3.331   3.931   0.925  0.6726 -1.4920  1.6497
  777MPD2    H311522   3.129   3.935   0.807  1.2409  0.3124 -0.5444
  777MPD2     N11523   3.211   3.513   0.638  0.0673  0.1721  0.1066
  777MPD2    H511524   3.297   3.459   0.632 -0.8801 -1.3305  0.0652
  777MPD2    N111525   3.506   3.745   0.941  0.1317  0.1611  0.4763
  777MPD2    H711526   3.517   3.828   0.998 -3.2772  0.7023  0.3253
  778MPD2     C11527   4.507   4.120  14.732  0.3845  0.5230  0.3830
  778MPD2    C111528   4.541   3.991  14.708 -0.1264  0.0800  0.5740
  778MPD2    C211529   4.641   3.971  14.612  0.0117 -0.5624 -0.0349
  778MPD2    C311530   4.697   4.074  14.535  0.2739 -0.0394  0.0972
  778MPD2    C411531   4.653   4.198  14.552  0.1032 -0.0581  0.3397
  778MPD2    C511532   4.557   4.222  14.651  0.6200 -0.0481  0.6485
  778MPD2     H11533   4.667   3.868  14.590 -2.4645 -1.2733  0.3864
  778MPD2    H111534   4.690   4.290  14.508  0.8499 -0.7569 -0.4980
  778MPD2    H211535   4.441   4.156  14.809  1.2801  0.3209  1.2413
  778MPD2    H311536   4.518   4.323  14.665 -1.5464 -0.8131  0.1518
  778MPD2     N11537   0.071   4.045  14.466  0.1303  0.1843  0.2283
  778MPD2    H511538   0.115   3.956  14.483  0.5775  0.8159  2.3895
  778MPD2    N111539   4.481   3.881  14.768 -0.1270  0.1802  0.4613
  778MPD2    H711540   4.511   3.789  14.738  0.8214  1.0520 -1.3102
  779MPD2     C11541   4.210   2.636  14.576  0.6489  0.8479  0.3362
  779MPD2    C111542   4.287   2.653  14.457  0.2313  0.2199 -0.0777
  779MPD2    C211543   4.217   2.699  14.349  0.6869  0.2411  0.3481
  779MPD2    C311544   4.093   2.757  14.355 -0.5129  0.9694 -0.5068
  779MPD2    C411545   4.023   2.744  14.470 -0.2019 -0.2814 -0.5278
  779MPD2    C511546   4.083   2.687  14.579 -0.5413 -0.0658 -1.0828
  779MPD2     H11547   4.274   2.699  14.256  1.3490  1.2325  0.7540
  779MPD2    H111548   3.919   2.770  14.487  0.2819  1.9580 -1.1007
  779MPD2    H211549   4.236   2.575  14.662  1.1077 -0.9884 -1.1015
  779MPD2    H311550   4.024   2.681  14.670 -0.9559  1.3417 -1.2544
  779MPD2     N11551   4.048   2.806  14.230 -0.3259 -0.1299  0.0947
  779MPD2    H511552   4.113   2.788  14.154 -0.2770  1.6722 -0.2933
  779MPD2    N111553   4.411   2.588  14.431 -0.2657  0.1722 -0.4963
  779MPD2    H711554   4.446   2.584  14.336  1.2495  0.0461  0.0684
  780MPD2     C11555   3.437   2.294   1.382 -0.0894  0.1731  0.2216
  780MPD2    C111556   3.380   2.236   1.277 -0.1245 -0.0917  0.3389
  780MPD2    C211557   3.443   2.230   1.154  0.4764 -0.4295 -0.8262
  780MPD2    C311558   3.573   2.273   1.143 -1.1197  0.0584 -0.1392
  780MPD2    C411559   3.624   2.346   1.251  0.2266 -0.0718 -0.1785
  780MPD2    C511560   3.557   2.349   1.372 -0.0512  0.3837 -0.3907
  780MPD2     H11561   3.401   2.186   1.064 -3.0812  1.3991 -0.0741
  780MPD2    H111562   3.722   2.393   1.256 -0.7522  1.8258  1.1319
  780MPD2    H211563   3.384   2.293   1.477 -2.8457 -1.0096 -1.3302
  780MPD2    H311564   3.613   2.382   1.458  0.8035 -0.3889 -0.6573
  780MPD2     N11565   3.627   2.266   1.015  0.3420  0.3996 -0.2005
  780MPD2    H511566   3.570   2.240   0.934  2.8203  1.2923 -2.2196
  780MPD2    N111567   3.256   2.176   1.302 -0.0390 -0.2993 -0.1413
  780MPD2    H711568   3.211   2.191   1.392 -0.7288  2.3836 -0.9472
  781MPD2     C11569   0.325   4.390  11.889  0.5409 -0.0856 -0.2688
  781MPD2    C111570   0.345   4.303  11.990 -0.7808 -0.6365  0.6926
  781MPD2    C211571   0.419   4.187  11.966  0.5052 -0.7691 -0.2779
  781MPD2    C311572   0.488   4.168  11.850 -0.0080 -0.0488 -0.8125
  781MPD2    C411573   0.475   4.259  11.749  0.5600  0.6679 -0.2868
  781MPD2    C511574   0.390   4.365  11.771 -0.1556  0.1352 -0.1219
  781MPD2     H11575   0.419   4.109  12.040 -1.6780 -0.9030 -0.4159
  781MPD2    H111576   0.512   4.242  11.649  1.6318 -0.8480  0.3807
  781MPD2    H211577   0.252   4.471  11.894 -0.6974 -1.1111 -1.7357
  781MPD2    H311578   0.384   4.442  11.695 -0.1871 -1.0098 -1.2727
  781MPD2     N11579   0.581   4.056  11.829  0.2735 -0.1510  0.0027
  781MPD2    H511580   0.626   4.058  11.738  0.7804  0.3891  0.2686
  781MPD2    N111581   0.296   4.317  12.123 -0.2796 -0.0482  0.1059
  781MPD2    H711582   0.322   4.251  12.196 -1.4933  0.6776  1.2005
  782MPD2     C11583   2.202   4.712  10.498  0.1610  0.2657 -0.0907
  782MPD2    C111584   2.335   4.736  10.480  0.0086  0.0480 -0.3206
  782MPD2    C211585   2.375   0.120  10.440 -0.3539  0.5721  1.0785
  782MPD2    C311586   2.276   0.222  10.423 -0.3839 -0.0897  0.4649
  782MPD2    C411587   2.143   0.192  10.433  0.0926  0.7325  0.1507
  782MPD2    C511588   2.109   0.064  10.470 -0.1963  0.2640  0.9992
  782MPD2     H11589   2.480   0.125  10.415 -0.2810  2.0780  1.6639
  782MPD2    H111590   2.063   0.265  10.422 -2.0067 -1.4295  1.1428
  782MPD2    H211591   2.170   4.613  10.528 -1.5279  0.7790 -0.1758
  782MPD2    H311592   2.003   0.043  10.475 -0.4630  1.2764 -0.2028
  782MPD2     N11593   2.293   0.349  10.382 -0.0793  0.1395  0.9049
  782MPD2    H511594   2.210   0.400  10.354 -0.1408 -1.2617 -1.4790
  782MPD2    N111595   2.434   4.634  10.512  0.2744 -0.4939 -0.0679
  782MPD2    H711596   2.391   4.557  10.563 -0.3967  0.6951  1.1823
  783MPD2     C11597   2.184   4.076  11.050  0.1324 -0.7567 -0.0652
  783MPD2    C111598   2.199   4.215  11.072 -0.0835 -0.1192  0.1891
  783MPD2    C211599   2.280   4.280  10.986 -0.1942 -0.2721  0.1325
  783MPD2    C311600   2.380   4.218  10.910 -0.0794  0.1429  0.2213
  783MPD2    C411601   2.373   4.079  10.897  0.0830  0.0782 -0.1261
  783MPD2    C511602   2.268   4.016  10.960  0.2480 -0.3546 -0.1396
  783MPD2     H11603   2.285   4.388  10.989 -1.9056 -0.2058  0.3124
  783MPD2    H111604   2.432   4.018  10.830  1.2242 -1.4573  2.2439
  783MPD2    H211605   2.111   4.011  11.097  1.1062 -0.2532  2.1555
  783MPD2    H311606   2.258   3.908  10.958 -1.8652 -0.1649  0.7500
  783MPD2     N11607   2.473   4.289  10.828  1.0119 -0.7207  0.3322
  783MPD2    H511608   2.467   4.390  10.814 -4.6770 -0.6930  2.8605
  783MPD2    N111609   2.124   4.271  11.180 -0.3288  0.1573 -0.0402
  783MPD2    H711610   2.083   4.198  11.238  0.5077 -0.6267 -0.4374
  784MPD2     C11611   1.167   0.690   0.382  0.6602  0.2907  0.6959
  784MPD2    C111612   1.149   0.750   0.501 -0.2198  0.1513  0.0719
  784MPD2    C211613   1.042   0.843   0.521  0.5023  0.2920  0.1133
  784MPD2    C311614   0.949   0.863   0.419  0.2920  0.1169  0.2639
  784MPD2    C411615   0.977   0.807   0.295  0.8144  0.0411 -0.5694
  784MPD2    C511616   1.086   0.729   0.278  0.1069  0.8258  0.3053
  784MPD2     H11617   1.016   0.900   0.609  0.5198 -1.0832  1.0108
  784MPD2    H111618   0.910   0.820   0.211  2.3605  0.4062 -1.7427
  784MPD2    H211619   1.249   0.622   0.366  2.7866  2.9290  0.3338
  784MPD2    H311620   1.092   0.691   0.176  1.8224  0.0526  0.6923
  784MPD2     N11621   0.836   0.936   0.446 -0.2835 -0.6824 -0.0921
  784MPD2    H511622   0.836   0.970   0.542  1.3196 -1.5132  0.2013
  784MPD2    N111623   1.238   0.731   0.602  0.1418 -0.1055 -0.4614
  784MPD2    H711624   1.219   0.780   0.688 -1.9155 -0.1583 -0.8699
  785MPD2     C11625   0.668   3.707  10.868 -0.1187 -0.2416 -0.1119
  785MPD2    C111626   0.606   3.800  10.955 -0.3877  0.0061  0.1506
  785MPD2    C211627   0.468   3.798  10.988 -0.1076  0.8616 -0.3805
  785MPD2    C311628   0.397   3.712  10.912  0.2439  0.0414  0.4515
  785MPD2    C411629   0.458   3.621  10.826 -0.0506  0.2764  0.2285
  785MPD2    C511630   0.591   3.611  10.813  0.0816  0.4597 -0.0669
  785MPD2     H11631   0.424   3.870  11.056  0.1364  0.4728  0.1956
  785MPD2    H111632   0.397   3.547  10.776  1.8474 -0.2486 -1.2929
  785MPD2    H211633   0.771   3.716  10.837  0.3298 -0.9707  1.1498
  785MPD2    H311634   0.631   3.549  10.734 -1.4356 -0.4106 -0.1505
  785MPD2     N11635   0.253   3.719  10.911  0.2066 -0.2145 -0.8946
  785MPD2    H511636   0.196   3.663  10.847 -1.9439  1.8959 -0.8487
  785MPD2    N111637   0.696   3.901  11.001 -0.2465 -0.1044 -0.1583
  785MPD2    H711638   0.791   3.902  10.966  0.4499  0.2964  1.7706
  786MPD2     C11639   4.393   1.573  14.796 -0.0757  0.1393 -0.0244
  786MPD2    C111640   4.532   1.580  14.785  0.1061 -0.0701 -0.8353
  786MPD2    C211641   4.608   1.608  14.898 -0.9606 -0.1976 -0.0939
  786MPD2    C311642   4.545   1.624  15.017 -0.9538  0.3249 -0.0194
  786MPD2    C411643   4.410   1.623  15.029 -0.5126 -0.6311  0.2599
  786MPD2    C511644   4.340   1.606  14.916 -0.0216  0.6428  0.4871
  786MPD2     H11645   4.715   1.612  14.882 -0.8478  1.0761  0.9751
  786MPD2    H111646   4.367   1.646  15.126  0.3088  0.1339  0.4498
  786MPD2    H211647   4.333   1.547  14.710 -2.5703  1.7327  1.2501
  786MPD2    H311648   4.234   1.596  14.938  0.1357  2.3948  2.0634
  786MPD2     N11649   4.613   1.637  15.141 -0.2873 -0.6017 -0.4349
  786MPD2    H511650   4.544   1.646  15.215  0.7455 -2.2877  0.7370
  786MPD2    N111651   4.594   1.566  14.663 -0.5878  0.3507  0.1117
  786MPD2    H711652   4.696   1.569  14.659 -0.5452  1.4042  2.2052
  787MPD2     C11653   0.339   1.146  14.623  0.4175  0.1748 -0.5272
  787MPD2    C111654   0.262   1.119  14.515 -0.1154  0.3008  0.2853
  787MPD2    C211655   0.289   1.006  14.446 -0.1895 -0.9517 -0.1128
  787MPD2    C311656   0.393   0.919  14.482  0.2644  0.3502  0.6723
  787MPD2    C411657   0.473   0.943  14.597 -0.1212 -0.1211 -0.2418
  787MPD2    C511658   0.441   1.065  14.660  0.5344  0.3988  0.1899
  787MPD2     H11659   0.228   0.982  14.360 -2.9020  3.1120  0.6515
  787MPD2    H111660   0.565   0.894  14.626  0.6895  1.2911 -0.4666
  787MPD2    H211661   0.320   1.233  14.686 -0.4245  0.2628 -0.9050
  787MPD2    H311662   0.515   1.098  14.732  0.0775  4.2325 -1.1295
  787MPD2     N11663   0.424   0.806  14.396  0.0643  0.3832 -0.1616
  787MPD2    H511664   0.364   0.788  14.316 -0.2952  0.9633 -0.0224
  787MPD2    N111665   0.163   1.217  14.475  0.2674  0.4794 -0.4499
  787MPD2    H711666   0.172   1.309  14.517 -1.1613  0.8777 -1.0211
  788MPD2     C11667   1.962   0.695   1.031 -0.3929 -0.3029 -0.5589
  788MPD2    C111668   1.903   0.610   0.939 -0.6447  0.1379 -0.2658
  788MPD2    C211669   1.843   0.667   0.826 -0.4422 -0.4419 -0.0078
  788MPD2    C311670   1.856   0.801   0.789  0.2786 -0.0207 -0.0939
  788MPD2    C411671   1.910   0.891   0.887 -0.0345  0.3772 -0.3218
  788MPD2    C511672   1.962   0.835   1.005 -0.5795  0.2275  0.7835
  788MPD2     H11673   1.797   0.595   0.759  0.1933 -0.9534  0.1071
  788MPD2    H111674   1.905   0.999   0.876  3.7574  0.4873 -0.9615
  788MPD2    H211675   2.015   0.670   1.122  2.1463 -0.4136 -2.0540
  788MPD2    H311676   2.011   0.903   1.074 -0.3192  1.0626 -0.2346
  788MPD2     N11677   1.816   0.845   0.657  0.6438 -0.3899  0.3589
  788MPD2    H511678   1.839   0.939   0.626 -2.2421  0.4295  0.6294
  788MPD2    N111679   1.897   0.473   0.949 -0.6413  0.1099  0.0521
  788MPD2    H711680   1.855   0.421   0.872 -0.4045 -0.0538  0.0325
  789MPD2     C11681   2.355   4.273  16.587 -0.1176 -0.2478 -0.2657
  789MPD2    C111682   2.290   4.256  16.710  0.9130  0.0714 -0.3386
  789MPD2    C211683   2.179   4.333  16.739  0.7351  0.3631 -0.1112
  789MPD2    C311684   2.134   4.425  16.644 -0.4440 -0.4160  0.3572
  789MPD2    C411685   2.201   4.443  16.530  0.2980 -0.4671 -0.9780
  789MPD2    C511686   2.311   4.363  16.497 -0.1741  0.7094  0.7110
  789MPD2     H11687   2.137   4.319  16.839 -2.9403 -0.3994 -1.7439
  789MPD2    H111688   2.168   4.508  16.450 -0.9710 -2.5541 -2.1479
  789MPD2    H211689   2.444   4.216  16.561  2.7371  3.8748  0.4999
  789MPD2    H311690   2.367   4.376  16.405  1.5255  1.1409  1.8094
  789MPD2     N11691   2.015   4.497  16.654  0.8832  0.9684  0.1254
  789MPD2    H511692   1.986   4.546  16.570 -1.6914 -1.8298 -0.6375
  789MPD2    N111693   2.332   4.159  16.807  0.4163 -0.1238  0.5716
  789MPD2    H711694   2.307   4.172  16.904  1.4148 -2.8889  1.1948
  790MPD2     C11695   3.046   1.374  13.495 -0.3090  0.2675 -0.2956
  790MPD2    C111696   3.128   1.395  13.387 -0.2459 -0.0609 -0.4776
  790MPD2    C211697   3.096   1.345  13.261  0.4679 -0.0521 -0.3434
  790MPD2    C311698   2.990   1.265  13.246  0.5012 -0.6002 -0.4351
  790MPD2    C411699   2.916   1.228  13.362 -0.0438 -0.1991  0.3427
  790MPD2    C511700   2.942   1.284  13.483  0.4836 -0.2124  0.1213
  790MPD2     H11701   3.150   1.367  13.169 -0.2393 -0.6962 -0.9106
  790MPD2    H111702   2.827   1.168  13.358 -0.4748  0.3879  1.0902
  790MPD2    H211703   3.069   1.420  13.591 -0.8752 -0.8760  0.3942
  790MPD2    H311704   2.868   1.268  13.560  0.6250 -0.2878  0.2401
  790MPD2     N11705   2.966   1.206  13.128  0.3424  0.1257  0.3201
  790MPD2    H511706   3.012   1.249  13.049  1.4140 -1.5037  0.0671
  790MPD2    N111707   3.230   1.489  13.409 -0.0173 -0.0982 -0.5738
  790MPD2    H711708   3.256   1.526  13.500 -0.0846  1.7872 -1.3296
  791MPD2     C11709   2.369   0.971  12.502 -0.1822 -0.1348  0.2303
  791MPD2    C111710   2.423   0.897  12.605 -0.1762 -0.0172  0.1699
  791MPD2    C211711   2.353   0.791  12.662 -0.2875  0.9482  0.0379
  791MPD2    C311712   2.231   0.762  12.614  0.4374 -0.2222  0.2678
  791MPD2    C411713   2.169   0.841  12.524  0.3916  0.3773  0.1480
  791MPD2    C511714   2.240   0.942  12.462  0.2715 -0.3369 -0.7082
  791MPD2     H11715   2.401   0.740  12.745 -1.5747  1.8521  1.3257
  791MPD2    H111716   2.066   0.835  12.492  0.5331  1.4917 -0.5016
  791MPD2    H211717   2.424   1.051  12.455 -0.1004  0.6684  1.6693
  791MPD2    H311718   2.189   0.995  12.382 -1.9946  0.4153  1.1960
  791MPD2     N11719   2.160   0.658  12.683  0.0882  0.0712 -0.2219
  791MPD2    H511720   2.213   0.614  12.758  0.3350 -0.8587 -0.9431
  791MPD2    N111721   2.545   0.948  12.651 -0.4391 -0.1417  0.4897
  791MPD2    H711722   2.577   1.031  12.602  0.6963 -0.3603  0.8517
  792MPD2     C11723   2.483   0.794  11.438  0.5397  1.1184  0.1483
  792MPD2    C111724   2.433   0.841  11.316  0.0672  0.4210 -0.5838
  792MPD2    C211725   2.314   0.789  11.273 -0.3365 -0.1197  0.1109
  792MPD2    C311726   2.252   0.689  11.340 -0.2794  0.2568 -0.1700
  792MPD2    C411727   2.299   0.646  11.462  0.3654  0.6233  0.3621
  792MPD2    C511728   2.413   0.699  11.508 -0.2721 -0.2610  0.3452
  792MPD2     H11729   2.265   0.836  11.188 -1.9283  2.2816  2.3459
  792MPD2    H111730   2.246   0.574  11.523 -0.6183  1.7987  0.9041
  792MPD2    H211731   2.580   0.811  11.484  1.4611  0.8299 -1.6600
  792MPD2    H311732   2.458   0.664  11.599 -0.0219 -1.3159 -0.1876
  792MPD2     N11733   2.134   0.628  11.294 -0.3821 -0.6976  0.0251
  792MPD2    H511734   2.085   0.575  11.366 -1.5528 -0.0279 -0.2899
  792MPD2    N111735   2.506   0.939  11.251  0.2360 -0.0363 -0.5261
  792MPD2    H711736   2.600   0.960  11.283 -0.1373  0.9559 -0.0915
  793MPD2     C11737   1.410   0.605  10.520 -0.1888 -0.8724 -0.4126
  793MPD2    C111738   1.543   0.629  10.485 -0.2419  0.4766 -1.0006
  793MPD2    C211739   1.640   0.617  10.580  0.5754  0.1913 -0.7991
  793MPD2    C311740   1.607   0.571  10.707 -0.0629 -0.1484 -0.8504
  793MPD2    C411741   1.473   0.550  10.737 -0.3213  0.4347 -0.3536
  793MPD2    C511742   1.374   0.569  10.648  0.5371  0.1273 -0.0977
  793MPD2     H11743   1.745   0.643  10.570  0.3561  0.7320 -1.7503
  793MPD2    H111744   1.450   0.524  10.840 -0.4790  1.5158 -0.1078
  793MPD2    H211745   1.331   0.620  10.448  1.2800  1.1701 -1.5792
  793MPD2    H311746   1.268   0.558  10.669  0.7762 -0.1484  0.9535
  793MPD2     N11747   1.714   0.544  10.795 -0.0954  0.3012  0.2364
  793MPD2    H511748   1.810   0.543  10.762 -0.1017  0.6041  0.2149
  793MPD2    N111749   1.577   0.670  10.356 -0.4273 -0.1066  0.3959
  793MPD2    H711750   1.675   0.677  10.330 -0.9155  1.0638 -1.1232
  794MPD2     C11751   2.769   0.205  16.700  0.0491  0.9128 -0.3021
  794MPD2    C111752   2.694   0.288  16.775 -0.3554 -0.4070  0.2325
  794MPD2    C211753   2.578   0.340  16.716  0.1445 -0.3547 -0.1718
  794MPD2    C311754   2.545   0.323  16.583  0.0824  0.0829 -0.3376
  794MPD2    C411755   2.634   0.252  16.512 -0.3880 -0.1278  0.2723
  794MPD2    C511756   2.737   0.186  16.570 -0.0985 -0.0980 -0.6353
  794MPD2     H11757   2.520   0.408  16.778  2.3116 -2.3104  3.9176
  794MPD2    H111758   2.619   0.237  16.406 -3.5082 -0.0376  0.6954
  794MPD2    H211759   2.860   0.161  16.741  0.3800  1.5309 -0.3603
  794MPD2    H311760   2.805   0.132  16.505  0.8122 -1.0501  1.0979
  794MPD2     N11761   2.438   0.380  16.510 -0.3829  0.2366 -0.2825
  794MPD2    H511762   2.431   0.377  16.409  1.6777  0.7541 -0.4331
  794MPD2    N111763   2.710   0.303  16.915  0.0056 -0.3457  0.0095
  794MPD2    H711764   2.635   0.342  16.971  1.0393 -0.2164  1.2868
  795MPD2     C11765   0.568   2.826  13.117  0.1411  0.1886 -0.0014
  795MPD2    C111766   0.478   2.735  13.158 -0.3605  0.1431  0.5902
  795MPD2    C211767   0.522   2.617  13.221 -0.2297 -0.0275  0.1728
  795MPD2    C311768   0.659   2.598  13.248  0.8258 -0.8703  0.7196
  795MPD2    C411769   0.743   2.699  13.211 -0.0630 -0.3197  0.3938
  795MPD2    C511770   0.701   2.805  13.140  0.2151  0.1589 -0.5769
  795MPD2     H11771   0.457   2.539  13.256 -0.4824 -0.4697 -1.2842
  795MPD2    H111772   0.851   2.689  13.217 -0.2011 -0.6466  2.5837
  795MPD2    H211773   0.543   2.928  13.094 -1.3550 -0.4259 -1.0961
  795MPD2    H311774   0.760   2.891  13.112 -0.6515  0.9010 -0.1212
  795MPD2     N11775   0.700   2.469  13.307 -0.3951 -0.1712  0.6762
  795MPD2    H511776   0.636   2.392  13.322  0.1629 -0.7505  0.0712
  795MPD2    N111777   0.342   2.749  13.129  0.2883  0.1046 -0.2806
  795MPD2    H711778   0.277   2.678  13.163 -0.9066  1.4401  0.2582
  796MPD2     C11779   0.028   4.212  16.250  0.1235  0.3804 -0.4611
  796MPD2    C111780   0.149   4.275  16.276 -0.4237 -0.0488 -0.0365
  796MPD2    C211781   0.185   4.373  16.187  1.0501 -0.2435  0.1175
  796MPD2    C311782   0.100   4.413  16.085  0.7699 -0.0311 -0.2270
  796MPD2    C411783   4.723   4.347  16.062 -0.9687  0.5708  0.4591
  796MPD2    C511784   4.691   4.249  16.154 -0.0923 -1.0949 -0.2497
  796MPD2     H11785   0.285   4.414  16.186  0.2897  1.6739  2.2406
  796MPD2    H111786   4.648   4.380  15.990 -0.4605 -0.8527 -0.7326
  796MPD2    H211787   4.742   4.128  16.313 -0.5229  1.2062  0.3530
  796MPD2    H311788   4.601   4.191  16.135 -0.4748 -0.4958 -0.2617
  796MPD2     N11789   0.155   4.510  15.999 -0.1228  0.7539 -0.4361
  796MPD2    H511790   0.232   4.568  16.030 -1.4173  2.9261 -1.2591
  796MPD2    N111791   0.234   4.224  16.378  0.9446  0.0377  0.1810
  796MPD2    H711792   0.192   4.164  16.448 -1.6146 -2.1832 -3.2480
  797MPD2     C11793   1.635   3.762  17.441  0.0244 -0.5129  0.5294
  797MPD2    C111794   1.693   3.882  17.465 -0.2661 -0.4070  0.5415
  797MPD2    C211795   1.686   3.979  17.362  0.3894 -0.5763  0.4421
  797MPD2    C311796   1.616   3.960  17.248  1.0152  0.1332  0.5144
  797MPD2    C411797   1.563   3.833  17.225 -0.1132 -0.2813  0.2615
  797MPD2    C511798   1.575   3.740  17.319 -0.2733  0.1867 -0.5913
  797MPD2     H11799   1.721   4.081  17.368  0.7891 -0.7262  0.6122
  797MPD2    H111800   1.511   3.816  17.131  1.8815  0.7302 -1.0292
  797MPD2    H211801   1.654   3.676  17.503  1.4077 -1.5180 -1.2842
  797MPD2    H311802   1.546   3.639  17.292  0.2196  0.2376 -1.2996
  797MPD2     N11803   1.593   4.071  17.162 -0.3996  0.8041 -0.2228
  797MPD2    H511804   1.641   4.158  17.180  1.8458 -0.3649 -0.6268
  797MPD2    N111805   1.756   3.915  17.585 -0.2223 -0.4285  0.2798
  797MPD2    H711806   1.808   4.002  17.578  0.4330 -0.7813  0.7397
  798MPD2     C11807   1.626   4.618  17.527 -0.7096  0.5874  0.0155
  798MPD2    C111808   1.648   4.508  17.460 -0.1389  0.2236 -0.3498
  798MPD2    C211809   1.688   4.397  17.529 -1.1145  0.3363  0.4536
  798MPD2    C311810   1.717   4.402  17.664 -0.3500  0.0251 -0.6166
  798MPD2    C411811   1.693   4.516  17.729  0.0498  0.0853  0.2265
  798MPD2    C511812   1.643   4.617  17.661  0.0311 -0.0649  0.6499
  798MPD2     H11813   1.710   4.307  17.472  1.1796  0.5555  1.0149
  798MPD2    H111814   1.701   4.527   0.070 -1.9989 -1.1323  0.4863
  798MPD2    H211815   1.584   4.709  17.486  1.2324  2.5544  2.3808
  798MPD2    H311816   1.616   4.706  17.716 -2.4274  0.4752 -1.4489
  798MPD2     N11817   1.768   4.282  17.720  0.0937 -0.7377 -0.4047
  798MPD2    H511818   1.787   4.209  17.652  2.2522 -0.7938  0.2528
  798MPD2    N111819   1.591   4.501  17.331  0.1323 -0.5276  0.0443
  798MPD2    H711820   1.529   4.573  17.294 -1.3766 -1.5821  0.5027
  799MPD2     C11821   0.089   0.677  14.579  0.3920 -0.6447  0.4043
  799MPD2    C111822   0.030   0.590  14.492  0.2046 -0.8933 -0.6048
  799MPD2    C211823   4.698   0.637  14.385  0.4596  0.2304  0.3034
  799MPD2    C311824   4.658   0.771  14.381 -0.3448  0.3715  0.0084
  799MPD2    C411825   4.699   0.854  14.481 -0.2961 -0.2293  0.6442
  799MPD2    C511826   0.049   0.807  14.570  0.6195  0.5763 -0.4503
  799MPD2     H11827   4.662   0.570  14.308  0.6305  1.6700 -1.0253
  799MPD2    H111828   4.676   0.960  14.483  0.9534  0.0728 -0.7660
  799MPD2    H211829   0.163   0.651  14.654  0.7873  0.4267  0.3865
  799MPD2    H311830   0.085   0.872  14.649 -1.1469  3.5830 -2.0998
  799MPD2     N11831   4.578   0.821  14.277  1.0319 -0.1745  0.0563
  799MPD2    H511832   4.579   0.922  14.270  1.0318 -0.1336  0.6448
  799MPD2    N111833   0.069   0.457  14.475 -0.5982  0.3446  0.0313
  799MPD2    H711834   0.020   0.399  14.408 -1.2460  0.8099  0.1083
  800MPD2     C11835   0.309   1.655  13.421 -0.3419 -0.1065 -0.2868
  800MPD2    C111836   0.448   1.673  13.436 -0.2616 -0.0411  0.2487
  800MPD2    C211837   0.533   1.572  13.408  0.8286 -0.1358 -0.1543
  800MPD2    C311838   0.490   1.457  13.344  0.1473 -0.3633 -0.1573
  800MPD2    C411839   0.353   1.443  13.330 -0.0031 -0.2534  0.5521
  800MPD2    C511840   0.265   1.547  13.355  0.4651  0.4231  0.0429
  800MPD2     H11841   0.638   1.584  13.429  0.8809  0.8964 -0.9454
  800MPD2    H111842   0.310   1.356  13.281 -1.9719  1.0312 -0.0190
  800MPD2    H211843   0.231   1.720  13.460 -0.7747 -2.1781  2.3169
  800MPD2    H311844   0.160   1.523  13.356 -0.2247  3.4415 -2.1337
  800MPD2     N11845   0.581   1.356  13.312  0.2381  0.4830  0.3973
  800MPD2    H511846   0.680   1.369  13.329  0.6578 -1.4677 -0.4614
  800MPD2    N111847   0.500   1.784  13.507  0.4163 -0.1512  0.0939
  800MPD2    H711848   0.428   1.843  13.547 -0.5396  0.0699 -1.9275
  801MPD2     C11849   0.523   2.567  13.613 -0.2407  0.3346  0.5821
  801MPD2    C111850   0.516   2.503  13.733 -0.5801 -1.1193  0.0370
  801MPD2    C211851   0.469   2.575  13.833  0.2899 -0.1557  0.3384
  801MPD2    C311852   0.415   2.700  13.828  0.2587 -0.0728  0.3912
  801MPD2    C411853   0.425   2.760  13.702 -0.7987  0.3132 -0.2071
  801MPD2    C511854   0.492   2.701  13.598  0.5624  0.9858 -0.6685
  801MPD2     H11855   0.450   2.520  13.924  0.0872 -2.3470 -1.0203
  801MPD2    H111856   0.387   2.861  13.695  1.9986  1.4299  0.9767
  801MPD2    H211857   0.572   2.518  13.530 -1.5244 -0.5639  0.3600
  801MPD2    H311858   0.501   2.747  13.500 -1.2649 -0.5803 -1.5503
  801MPD2     N11859   0.345   2.755  13.932 -0.7773  0.2541 -0.1187
  801MPD2    H511860   0.308   2.849  13.921 -3.0565 -1.1026 -4.1620
  801MPD2    N111861   0.551   2.366  13.755  0.4538 -1.2760  0.2522
  801MPD2    H711862   0.546   2.333  13.851  4.6641  0.4125  1.0691
  802MPD2     C11863   4.570   2.208  17.631  0.6399  0.1646 -0.9267
  802MPD2    C111864   4.646   2.323  17.627 -0.2301 -0.3751 -0.2614
  802MPD2    C211865   4.728   2.349  17.519  0.2328 -0.7863  0.4218
  802MPD2    C311866   0.022   2.252  17.426  0.0451 -0.5681 -0.4366
  802MPD2    C411867   4.709   2.127  17.451 -0.3895  0.0952  0.0010
  802MPD2    C511868   4.620   2.113  17.552  0.0039 -0.6181  0.4910
  802MPD2     H11869   0.042   2.441  17.519  0.3962 -0.8743  1.6207
  802MPD2    H111870   4.729   2.036  17.397 -3.6078 -1.6595  1.7617
  802MPD2    H211871   4.517   2.177  17.720  1.2177  2.1720  0.1350
  802MPD2    H311872   4.586   2.014  17.582 -0.8168 -0.0442  1.4571
  802MPD2     N11873   0.120   2.291  17.332  0.1877  0.0764 -0.0559
  802MPD2    H511874   0.127   2.389  17.305  0.0481 -0.3563 -1.6520
  802MPD2    N111875   4.622   2.421  17.734  0.0459 -0.1777 -0.3415
  802MPD2    H711876   4.570   2.389   0.049  0.3627 -2.2853 -0.9584
  803MPD2     C11877   0.298   0.842  13.146 -0.1601  0.3525 -0.2882
  803MPD2    C111878   0.293   0.853  13.008  0.3208 -0.1334 -0.1038
  803MPD2    C211879   0.407   0.838  12.939  0.1459  0.2556  0.2491
  803MPD2    C311880   0.529   0.813  13.005  0.1473 -0.7165 -0.3897
  803MPD2    C411881   0.527   0.792  13.139 -0.2760  0.1889 -0.7456
  803MPD2    C511882   0.413   0.798  13.208  0.0622  0.3367 -0.5817
  803MPD2     H11883   0.421   0.843  12.832 -1.9343 -2.0626 -0.1079
  803MPD2    H111884   0.615   0.769  13.198 -0.6608  1.4332  0.3107
  803MPD2    H211885   0.205   0.842  13.201  0.3352  0.9499  0.5399
  803MPD2    H311886   0.420   0.771  13.313  1.8370 -0.5790 -0.9463
  803MPD2     N11887   0.649   0.779  12.938 -0.4831  0.0902 -0.3816
  803MPD2    H511888   0.721   0.738  12.997 -0.3404  0.2209 -0.4670
  803MPD2    N111889   0.178   0.863  12.928  0.2411 -0.1642  0.1180
  803MPD2    H711890   0.202   0.870  12.830  2.7123 -2.9486  0.5167
  804MPD2     C11891   0.637   2.378  16.887  0.3509 -0.0053  0.4990
  804MPD2    C111892   0.688   2.326  16.999  0.2851 -0.2650 -0.7845
  804MPD2    C211893   0.768   2.410  17.079 -0.3468 -0.1093  0.0966
  804MPD2    C311894   0.805   2.534  17.045 -0.3201 -0.4009  0.4661
  804MPD2    C411895   0.756   2.580  16.920 -0.0421  0.3058  0.2074
  804MPD2    C511896   0.675   2.498  16.845  0.2228  0.0552 -0.2491
  804MPD2     H11897   0.794   2.379  17.179 -0.8874 -2.5743 -0.5204
  804MPD2    H111898   0.804   2.666  16.876 -1.3104  1.1720  0.5239
  804MPD2    H211899   0.568   2.326  16.822 -1.1241  0.9823  1.2832
  804MPD2    H311900   0.635   2.524  16.748 -0.8968 -0.1038  0.1702
  804MPD2     N11901   0.892   2.606  17.125 -0.3426  0.0648 -0.4769
  804MPD2    H511902   0.918   2.552  17.207 -1.1239 -0.7246 -0.7448
  804MPD2    N111903   0.667   2.205  17.056  0.0833 -0.0244 -0.1351
  804MPD2    H711904   0.705   2.195  17.150 -0.8970  1.1525  0.3863
  805MPD2     C11905   4.543   0.881  15.329 -0.3378 -0.1561 -0.0578
  805MPD2    C111906   4.591   0.854  15.204 -0.3971 -0.1138 -0.2072
  805MPD2    C211907   4.714   0.793  15.186  0.7215 -0.3403  0.0565
  805MPD2    C311908   0.043   0.741  15.293 -1.1258  0.2884  0.6906
  805MPD2    C411909   4.736   0.759  15.424  0.2567  0.5900 -0.2148
  805MPD2    C511910   4.614   0.825  15.437  0.1629  0.5590  0.4038
  805MPD2     H11911   0.012   0.772  15.088 -2.5481 -1.7693 -0.9787
  805MPD2    H111912   0.042   0.745  15.519 -0.2949  0.0543 -0.0139
  805MPD2    H211913   4.451   0.935  15.345 -0.5916 -0.6768  0.2455
  805MPD2    H311914   4.574   0.835  15.537  2.0922 -0.3257  1.2574
  805MPD2     N11915   0.174   0.701  15.268 -0.3636 -0.0088  0.1157
  805MPD2    H511916   0.219   0.726  15.181 -0.6311 -1.3618 -0.4006
  805MPD2    N111917   4.524   0.889  15.093  0.4322  0.0957  0.0607
  805MPD2    H711918   4.574   0.865  15.007  0.0710  0.9526 -0.3881
  806MPD2     C11919   4.699   0.485   0.139  0.4121 -0.6385  0.1759
  806MPD2    C111920   0.008   0.572   0.236 -0.7203  0.3273  0.4824
  806MPD2    C211921   0.087   0.678   0.191  0.3024 -0.2297  0.0243
  806MPD2    C311922   0.120   0.698   0.060 -0.9870 -0.2495 -0.0480
  806MPD2    C411923   0.086   0.597  17.741  0.3894 -0.4150  0.1599
  806MPD2    C511924   0.009   0.491   0.017 -0.6844  0.0321 -0.0502
  806MPD2     H11925   0.124   0.757   0.255 -1.9681  0.4295  0.5115
  806MPD2    H111926   0.112   0.593  17.635  0.1698 -1.5961  0.1538
  806MPD2    H211927   4.642   0.393   0.151 -0.1411 -0.1625  1.2353
  806MPD2    H311928   4.724   0.406  17.724 -2.6278  0.2999  0.4360
  806MPD2     N11929   0.173   0.817   0.017  0.0707 -0.6846  1.2028
  806MPD2    H511930   0.190   0.881   0.094 -0.0517  1.0950 -0.2420
  806MPD2    N111931   4.707   0.557   0.374 -0.3740  0.1475  0.0482
  806MPD2    H711932   4.657   0.472   0.397 -0.8649 -0.2318 -2.5125
  807MPD2     C11933   4.583   4.708   0.747 -0.6063 -0.3384 -0.4501
  807MPD2    C111934   4.602   0.057   0.852 -0.2017 -0.0642 -0.3003
  807MPD2    C211935   4.593   0.017   0.980  0.2063 -0.6578  0.8055
  807MPD2    C311936   4.563   4.631   1.012  1.4610 -1.0815  0.2306
  807MPD2    C411937   4.535   4.538   0.911  0.0688  0.0152  0.8587
  807MPD2    C511938   4.544   4.584   0.779 -0.3717  0.6309 -0.0378
  807MPD2     H11939   4.600   0.089   1.061  0.8177  0.4322 -0.2210
  807MPD2    H111940   4.510   4.435   0.933 -0.4280  0.1752  1.0258
  807MPD2    H211941   4.593   4.730   0.641 -3.2735 -2.1612 -1.0628
  807MPD2    H311942   4.523   4.512   0.701  2.6670  0.4652 -0.6848
  807MPD2     N11943   4.541   4.600   1.146  0.9081  0.3229  0.0467
  807MPD2    H511944   4.541   4.679   1.210 -1.2761  0.8832 -0.6442
  807MPD2    N111945   4.643   0.197   0.822 -0.4242  0.8362 -0.0782
  807MPD2    H711946   4.660   0.259   0.901 -0.3237  1.7793 -0.8319
  808MPD2     C11947   0.295   2.062  10.201 -0.1796 -0.9262 -0.4891
  808MPD2    C111948   0.179   2.133  10.199  0.1860  0.3082  0.2868
  808MPD2    C211949   0.187   2.271  10.192 -1.1518  0.1994 -0.0310
  808MPD2    C311950   0.309   2.337  10.173  0.0422 -0.3455  0.1139
  808MPD2    C411951   0.419   2.263  10.151 -0.1336  0.3842 -0.3334
  808MPD2    C511952   0.409   2.133  10.177  0.1178 -0.0000 -0.5251
  808MPD2     H11953   0.093   2.324  10.191 -0.8738  0.7355  1.0627
  808MPD2    H111954   0.512   2.316  10.132  0.6482 -0.4869  1.1220
  808MPD2    H211955   0.308   1.954  10.203 -1.0551 -1.0344 -0.6519
  808MPD2    H311956   0.504   2.083  10.170  0.5240  0.6667  0.2538
  808MPD2     N11957   0.326   2.482  10.157 -0.1890  0.1759 -0.0037
  808MPD2    H511958   0.408   2.516  10.108 -0.9279  0.3210 -1.1533
  808MPD2    N111959   0.052   2.066  10.196 -0.2175  0.1345 -0.0720
  808MPD2    H711960   4.708   2.119  10.190  0.4255  1.0713 -1.0221
  809MPD2     C11961   0.357   3.144   9.401  0.1365  0.2391  0.1467
  809MPD2    C111962   0.450   3.051   9.447  0.1234  0.0580 -0.4366
  809MPD2    C211963   0.418   2.992   9.568 -0.5967  0.0362 -0.3903
  809MPD2    C311964   0.313   3.038   9.648  0.1843  0.4388  1.2260
  809MPD2    C411965   0.224   3.124   9.594 -0.6023 -0.5183 -0.3972
  809MPD2    C511966   0.241   3.176   9.471  0.0409 -0.2507  0.0900
  809MPD2     H11967   0.477   2.907   9.600 -1.3488 -0.7248 -1.0009
  809MPD2    H111968   0.139   3.150   9.657 -0.4233  1.1424 -0.8428
  809MPD2    H211969   0.359   3.185   9.300  1.1300  1.8684  0.8231
  809MPD2    H311970   0.169   3.246   9.430  1.0863 -0.5379 -2.2614
  809MPD2     N11971   0.281   2.986   9.780  0.5503  0.4548  0.2339
  809MPD2    H511972   0.219   3.046   9.833 -0.2514  0.1737 -0.3943
  809MPD2    N111973   0.559   2.997   9.370 -0.0589 -0.1946 -0.3770
  809MPD2    H711974   0.620   2.927   9.411 -1.7162 -1.8291 -0.7280
  810MPD2     C11975   4.139   1.256  10.944 -0.2548 -0.5044 -0.2003
  810MPD2    C111976   4.110   1.243  10.810  0.1719  0.2209  0.2271
  810MPD2    C211977   4.083   1.365  10.742 -0.1445  0.3970  0.0019
  810MPD2    C311978   4.091   1.488  10.797  0.7215 -0.0924  0.3134
  810MPD2    C411979   4.116   1.497  10.933  0.8040 -0.8451 -0.1119
  810MPD2    C511980   4.137   1.382  11.006 -0.0822 -0.2866 -0.7282
  810MPD2     H11981   4.064   1.350  10.636  1.1044  0.3533 -0.2127
  810MPD2    H111982   4.149   1.593  10.972 -0.2119 -0.6129  0.1770
  810MPD2    H211983   4.174   1.169  10.998  2.1511  0.1186 -0.7323
  810MPD2    H311984   4.162   1.404  11.110  0.5775 -1.0426 -0.7213
  810MPD2     N11985   4.070   1.612  10.728 -0.0280  0.2578  1.0128
  810MPD2    H511986   4.079   1.694  10.787 -1.5712  0.7525  0.5669
  810MPD2    N111987   4.104   1.125  10.734  0.4540 -0.3254 -0.0650
  810MPD2    H711988   4.061   1.130  10.643  0.0830  0.1941  0.1410
  811MPD2     C11989   3.649   0.975  10.144  0.7104 -0.1466  0.0595
  811MPD2    C111990   3.735   1.049  10.225  0.4016  0.0888 -0.3352
  811MPD2    C211991   3.770   1.179  10.190  0.3445 -0.9434  0.3806
  811MPD2    C311992   3.720   1.235  10.073 -0.0817  0.1110  0.2113
  811MPD2    C411993   3.634   1.155  10.002  0.1936 -0.1398  0.3222
  811MPD2    C511994   3.603   1.031  10.034 -0.0398  1.4600  0.6926
  811MPD2     H11995   3.843   1.234  10.248  0.1723 -1.2164  0.8554
  811MPD2    H111996   3.600   1.188   9.905  2.2233  3.0614  0.6861
  811MPD2    H211997   3.623   0.878  10.186 -0.2932 -0.1380 -0.5355
  811MPD2    H311998   3.544   0.967   9.969  1.4369  1.0159 -0.2245
  811MPD2     N11999   3.755   1.365  10.037  0.1001  0.9169  0.4312
  811MPD2    H512000   3.804   1.414  10.112  0.8756  2.6755 -1.2154
  811MPD2    N112001   3.790   0.990  10.333 -0.3482  0.3811 -0.8239
  811MPD2    H712002   3.762   0.892  10.342  1.8826 -0.1946 -0.1419
  812MPD2     C12003   3.673   1.193  11.934  0.6272  0.7984 -0.5827
  812MPD2    C112004   3.542   1.216  11.976  0.3327  0.2859  0.3084
  812MPD2    C212005   3.503   1.170  12.103 -0.2986  0.1760  0.5037
  812MPD2    C312006   3.596   1.121  12.188  0.8249 -0.8982  0.1899
  812MPD2    C412007   3.733   1.111  12.151 -0.2163  0.1680 -0.5490
  812MPD2    C512008   3.768   1.136  12.018 -0.0862 -0.2534 -0.1138
  812MPD2     H12009   3.395   1.162  12.119 -0.3023 -1.8150 -0.4279
  812MPD2    H112010   3.811   1.072  12.215  1.2150  0.5949 -2.0158
  812MPD2    H212011   3.701   1.228  11.835 -0.7595  3.1803 -0.1307
  812MPD2    H312012   3.874   1.132  11.995  0.3256  1.7007  1.4202
  812MPD2     N12013   3.550   1.088  12.314  0.2543 -0.0104 -0.5347
  812MPD2    H512014   3.452   1.097  12.337 -0.1806 -1.3802 -1.8827
  812MPD2    N112015   3.449   1.283  11.889  0.9178 -0.1086 -0.1355
  812MPD2    H712016   3.485   1.322  11.803  1.9435 -0.5075  0.1092
  813MPD2     C12017   3.018   2.942  13.144 -0.0347  0.0882  0.3631
  813MPD2    C112018   3.131   2.893  13.210 -0.9783  0.1000  0.1988
  813MPD2    C212019   3.100   2.788  13.300  0.3540  0.2377 -0.5124
  813MPD2    C312020   2.973   2.740  13.331  0.5510  0.2700 -0.2211
  813MPD2    C412021   2.868   2.797  13.271 -0.4154 -0.7327  0.3608
  813MPD2    C512022   2.896   2.889  13.177 -0.1576 -0.1320 -0.2872
  813MPD2     H12023   3.184   2.756  13.360  1.0704  0.8848 -1.1601
  813MPD2    H112024   2.765   2.765  13.285 -0.3850 -1.0912 -0.2333
  813MPD2    H212025   3.014   3.022  13.070  1.7858  0.4686  0.6744
  813MPD2    H312026   2.806   2.904  13.118 -0.0189 -1.0443 -0.7323
  813MPD2     N12027   2.961   2.652  13.441  0.2479  0.4593 -0.2339
  813MPD2    H512028   3.047   2.636  13.492  0.0858  1.3717  0.3254
  813MPD2    N112029   3.249   2.972  13.203  0.5855 -0.3746 -0.2167
  813MPD2    H712030   3.240   3.052  13.141 -1.5948  1.4092  2.4052
  814MPD2     C12031   3.226   4.016  12.791 -0.1700 -0.1254 -0.0264
  814MPD2    C112032   3.173   4.048  12.674  0.3644 -0.3506 -0.0003
  814MPD2    C212033   3.209   4.171  12.608 -1.2531 -0.1095  0.7355
  814MPD2    C312034   3.291   4.257  12.676 -0.0543  0.1059  0.3651
  814MPD2    C412035   3.331   4.228  12.801  0.3300 -0.2501  0.4542
  814MPD2    C512036   3.303   4.108  12.861  0.1470 -0.2866  0.0851
  814MPD2     H12037   3.169   4.183  12.508  2.1049 -0.9996 -0.7077
  814MPD2    H112038   3.381   4.307  12.856 -0.7307  1.5412 -1.1460
  814MPD2    H212039   3.211   3.917  12.834  1.2645 -0.1365  0.4441
  814MPD2    H312040   3.341   4.080  12.958 -2.3683 -1.0537  0.8571
  814MPD2     N12041   3.338   4.386  12.628  0.1332 -0.1311  0.0599
  814MPD2    H512042   3.373   4.452  12.697 -0.4744 -0.8567  1.0536
  814MPD2    N112043   3.083   3.963  12.597 -0.2978 -0.1737  0.3546
  814MPD2    H712044   3.036   4.010  12.520 -3.0344 -2.0323  0.9120
  815MPD2     C12045   3.624   2.859  11.537  0.5390  0.6481  0.2802
  815MPD2    C112046   3.578   2.738  11.567  0.2524  0.2505 -0.2354
  815MPD2    C212047   3.493   2.721  11.670  0.3828  0.2539  0.2727
  815MPD2    C312048   3.443   2.823  11.744  0.2612 -0.2065  0.1806
  815MPD2    C412049   3.482   2.954  11.707 -0.9734  0.1817  0.0740
  815MPD2    C512050   3.579   2.964  11.606  0.1822  0.2600 -0.7328
  815MPD2     H12051   3.452   2.623  11.692  3.2520 -0.5901  1.8002
  815MPD2    H112052   3.436   3.041  11.751 -0.5583  1.5095 -2.1117
  815MPD2    H212053   3.689   2.879  11.452 -0.7563 -0.7377 -1.0505
  815MPD2    H312054   3.629   3.053  11.569 -1.0090  1.2441  0.0421
  815MPD2     N12055   3.345   2.792  11.841 -0.5876  0.0493 -0.1256
  815MPD2    H512056   3.330   2.694  11.859 -1.1472  0.3956  1.2883
  815MPD2    N112057   3.624   2.632  11.490  0.0117  0.2786  0.1416
  815MPD2    H712058   3.676   2.657  11.406 -2.1365  0.3344 -1.1550
  816MPD2     C12059   3.715   2.264  17.310  0.6148  0.0753  0.4689
  816MPD2    C112060   3.808   2.362  17.291  0.5627  0.1668  0.0340
  816MPD2    C212061   3.912   2.349  17.198  0.6514  0.0369 -0.7497
  816MPD2    C312062   3.934   2.227  17.135  0.4312  0.3069 -0.8230
  816MPD2    C412063   3.840   2.126  17.156  0.3350 -0.2169 -0.7432
  816MPD2    C512064   3.733   2.149  17.240  0.2160  0.2673  0.0174
  816MPD2     H12065   3.980   2.430  17.176  1.4130 -0.7050 -1.1105
  816MPD2    H112066   3.848   2.028  17.110 -0.0823 -1.0181  0.8849
  816MPD2    H212067   3.623   2.281  17.365 -1.1772 -1.4580 -2.0321
  816MPD2    H312068   3.675   2.059  17.257 -0.0510  0.2797 -0.8571
  816MPD2     N12069   4.045   2.208  17.051  0.2341 -0.1728  0.2572
  816MPD2    H512070   4.093   2.293  17.021 -1.1805  0.7079  0.4950
  816MPD2    N112071   3.790   2.483  17.358 -0.3830 -0.2347 -0.0664
  816MPD2    H712072   3.714   2.478  17.426  0.1023  1.5856  0.6118
  817MPD2     C12073   2.842   3.394  10.116 -0.5629  0.5592 -1.0658
  817MPD2    C112074   2.853   3.444   9.992  0.3494  1.1249 -0.1759
  817MPD2    C212075   2.802   3.565   9.964  0.3807  0.2824  0.5879
  817MPD2    C312076   2.735   3.641  10.056 -0.4057  0.2561  0.2315
  817MPD2    C412077   2.714   3.586  10.182 -0.2283 -0.5355  0.3036
  817MPD2    C512078   2.769   3.465  10.210 -0.1477 -0.1756  0.1448
  817MPD2     H12079   2.817   3.601   9.862 -0.6068 -3.4873 -0.8987
  817MPD2    H112080   2.661   3.637  10.261  1.1696  0.7876  0.3848
  817MPD2    H212081   2.873   3.294  10.142 -0.3498  0.0038 -3.4365
  817MPD2    H312082   2.771   3.422  10.309 -1.1938  0.7395  0.5484
  817MPD2     N12083   2.682   3.761  10.011 -0.3269 -0.6013  0.2488
  817MPD2    H512084   2.715   3.788   9.919  1.4180 -1.1167  0.7151
  817MPD2    N112085   2.901   3.368   9.886  0.2706  0.2800  0.4309
  817MPD2    H712086   2.896   3.416   9.797 -0.8560  3.5511  2.2330
  818MPD2     C12087   1.707   3.998  10.239  0.0869 -0.1689  0.5841
  818MPD2    C112088   1.686   3.871  10.290 -0.4639  0.2723  0.2772
  818MPD2    C212089   1.777   3.766  10.267 -0.4149  0.0229  0.2606
  818MPD2    C312090   1.879   3.784  10.176 -0.6113  0.3299 -0.0654
  818MPD2    C412091   1.903   3.910  10.121 -0.6779 -0.2163  0.0986
  818MPD2    C512092   1.817   4.008  10.157  0.3964 -0.4807 -0.3189
  818MPD2     H12093   1.763   3.666  10.307 -0.1212  0.1939  0.7979
  818MPD2    H112094   1.975   3.931  10.043 -2.3759  1.6311 -0.9732
  818MPD2    H212095   1.642   4.079  10.272 -1.2696 -0.1833 -1.9737
  818MPD2    H312096   1.839   4.102  10.108  0.4354 -0.6276 -0.5787
  818MPD2     N12097   1.948   3.667  10.131 -0.0437  0.2179  0.3907
  818MPD2    H512098   1.910   3.577  10.160  0.9760  0.0277  1.1509
  818MPD2    N112099   1.569   3.828  10.364 -0.0883 -0.0589 -0.1525
  818MPD2    H712100   1.556   3.729  10.377  4.6111 -1.0065 -2.7264
  819MPD2     C12101   0.768   0.476  15.330  0.7823 -0.5207 -0.5715
  819MPD2    C112102   0.699   0.378  15.390 -0.2398 -0.3421  0.0486
  819MPD2    C212103   0.754   0.314  15.498 -0.8703  0.1208  0.1654
  819MPD2    C312104   0.874   0.356  15.550  0.3100 -0.8422  0.1237
  819MPD2    C412105   0.944   0.460  15.488 -0.5141  0.1747  0.2077
  819MPD2    C512106   0.892   0.524  15.378  0.8294  0.5266 -0.2935
  819MPD2     H12107   0.701   0.235  15.552 -1.0481 -1.2893 -2.0852
  819MPD2    H112108   1.037   0.503  15.524  0.4995 -3.5955  2.0686
  819MPD2    H212109   0.730   0.534  15.246 -0.7180 -0.1615  0.3614
  819MPD2    H312110   0.937   0.612  15.334  1.5003  0.1054 -0.4401
  819MPD2     N12111   0.915   0.289  15.667  0.8886 -0.4249 -0.2112
  819MPD2    H512112   0.862   0.209  15.698 -0.1653 -0.0301 -0.9863
  819MPD2    N112113   0.582   0.340  15.325 -0.2491 -0.3698 -0.4301
  819MPD2    H712114   0.559   0.375  15.233  1.7704 -0.1319 -0.8406
  820MPD2     C12115   4.514   0.350  14.695  0.1432  0.5489  0.6638
  820MPD2    C112116   4.584   0.455  14.763 -0.0048 -0.3914  0.5200
  820MPD2    C212117   4.663   0.430  14.867 -0.0912  0.0294 -0.5242
  820MPD2    C312118   4.691   0.299  14.903  0.5840  0.1760  0.1772
  820MPD2    C412119   4.624   0.198  14.844  0.2112 -0.3942  0.1618
  820MPD2    C512120   4.539   0.225  14.733  0.0713  0.1606 -0.2852
  820MPD2     H12121   4.704   0.516  14.919  1.8882 -0.0631 -1.9073
  820MPD2    H112122   4.639   0.098  14.882  0.9078 -1.2646 -2.3920
  820MPD2    H212123   4.450   0.370  14.610 -0.4117  1.2874  1.2462
  820MPD2    H312124   4.488   0.144  14.682 -0.6915  0.4150  0.0849
  820MPD2     N12125   0.042   0.262  15.008  0.0125  0.0997 -0.6681
  820MPD2    H512126   0.049   0.162  15.027 -2.7029 -0.2811 -1.5903
  820MPD2    N112127   4.527   0.575  14.734  0.4842  0.3276  0.4143
  820MPD2    H712128   4.455   0.579  14.664  1.2627  0.3070 -0.3835
  821MPD2     C12129   0.829   1.359  12.712  0.7644 -0.6055  0.1596
  821MPD2    C112130   0.928   1.286  12.774  0.5407  0.4229  0.3832
  821MPD2    C212131   1.064   1.317  12.747 -0.4662  0.1617  0.0207
  821MPD2    C312132   1.087   1.429  12.666 -0.8770  0.9470  0.7964
  821MPD2    C412133   0.985   1.494  12.596 -0.0936 -0.2514 -0.6251
  821MPD2    C512134   0.859   1.465  12.622 -0.0514  0.7946 -0.6308
  821MPD2     H12135   1.140   1.265  12.804 -0.4924 -0.5224 -0.5834
  821MPD2    H112136   1.006   1.568  12.519  1.0585 -1.2889 -1.2862
  821MPD2    H212137   0.722   1.348  12.723  1.0589 -2.7159  1.0062
  821MPD2    H312138   0.773   1.517  12.581 -1.7340  0.0121  1.8445
  821MPD2     N12139   1.218   1.477  12.639  0.5593 -0.2827  0.5380
  821MPD2    H512140   1.223   1.572  12.603  1.6524 -0.9131 -0.9982
  821MPD2    N112141   0.908   1.191  12.874 -0.6577 -0.2871 -0.2369
  821MPD2    H712142   0.988   1.138  12.909  0.5295  1.3826 -0.4228
  822MPD2     C12143   1.384   1.643  15.789  0.5433 -0.2302 -0.1994
  822MPD2    C112144   1.341   1.588  15.908  0.5087 -0.3879  0.2224
  822MPD2    C212145   1.269   1.660  15.997  0.3731  0.4918 -0.1435
  822MPD2    C312146   1.230   1.789  15.969 -0.2023  0.0146  0.2947
  822MPD2    C412147   1.254   1.841  15.847  0.3073 -0.6736  0.1242
  822MPD2    C512148   1.337   1.766  15.758 -0.8875 -0.4363 -0.2837
  822MPD2     H12149   1.251   1.612  16.092  1.3171 -1.4167 -0.9286
  822MPD2    H112150   1.210   1.938  15.824  2.3877 -0.0697 -1.2778
  822MPD2    H212151   1.437   1.586  15.713 -0.1786 -1.2364  0.0491
  822MPD2    H312152   1.371   1.815  15.667 -2.6009  1.2524 -0.0144
  822MPD2     N12153   1.157   1.849  16.071  1.2697 -0.1629 -0.4375
  822MPD2    H512154   1.136   1.803  16.159  0.9218 -0.2597 -0.5721
  822MPD2    N112155   1.374   1.463  15.958 -0.4592 -0.0106 -0.5212
  822MPD2    H712156   1.341   1.441  16.051 -1.6562  0.4600 -0.8381
  823MPD2     C12157   0.927   1.927  16.886 -1.1581 -0.5718  0.9536
  823MPD2    C112158   0.933   1.856  16.764  0.8001  0.2754  0.2502
  823MPD2    C212159   0.944   1.718  16.773  0.1441  0.0881  0.3857
  823MPD2    C312160   0.943   1.650  16.894  0.4951  0.5525 -0.7313
  823MPD2    C412161   0.931   1.722  17.012 -0.1972  0.0880 -0.3843
  823MPD2    C512162   0.922   1.859  17.002 -0.5228 -0.0593  0.7756
  823MPD2     H12163   0.963   1.665  16.680  1.1473  0.3763  0.4249
  823MPD2    H112164   0.936   1.671  17.107 -0.4300 -1.7605 -1.3664
  823MPD2    H212165   0.931   2.035  16.888  2.1891 -0.7094  2.8552
  823MPD2    H312166   0.903   1.916  17.092 -0.2387  1.3207 -0.0391
  823MPD2     N12167   0.949   1.507  16.897 -0.6956 -0.1684  0.2221
  823MPD2    H512168   0.954   1.470  16.992 -1.3890 -2.7071 -0.7508
  823MPD2    N112169   0.941   1.927  16.641  0.0472 -0.6452  0.7132
  823MPD2    H712170   0.935   2.028  16.642 -0.0383 -0.6523  0.9465
  824MPD2     C12171   1.802   0.712  15.908  0.3631 -0.1390  0.6375
  824MPD2    C112172   1.816   0.838  15.856  0.3116 -0.5415 -0.7819
  824MPD2    C212173   1.909   0.854  15.762 -0.4932 -0.8045  0.3398
  824MPD2    C312174   1.982   0.744  15.714 -0.6761  0.7607 -0.4544
  824MPD2    C412175   1.968   0.621  15.777  0.4967  0.6738  0.4526
  824MPD2    C512176   1.871   0.600  15.869  0.7693 -0.1968 -0.1364
  824MPD2     H12177   1.921   0.954  15.722 -2.0863 -0.1779  1.4276
  824MPD2    H112178   2.031   0.537  15.750 -2.2379 -0.2786 -2.9320
  824MPD2    H212179   1.722   0.689  15.978  0.9740 -1.9867  0.7062
  824MPD2    H312180   1.869   0.507  15.926  1.5345  1.0662  1.9432
  824MPD2     N12181   2.069   0.764  15.600  0.2619  0.4316 -0.7161
  824MPD2    H512182   2.104   0.857  15.579  1.9907  0.4778  2.3994
  824MPD2    N112183   1.752   0.955  15.907  0.0631 -0.1067 -0.0417
  824MPD2    H712184   1.775   1.043  15.862 -1.4383  0.4795  0.3578
  825MPD2     C12185   2.741   1.053  15.246 -0.0125  0.1225  0.6951
  825MPD2    C112186   2.610   1.076  15.217  0.1143 -0.4338  0.8439
  825MPD2    C212187   2.560   1.186  15.148  0.5956  0.5025 -0.2918
  825MPD2    C312188   2.650   1.289  15.132 -0.3386  0.1246  0.2764
  825MPD2    C412189   2.783   1.275  15.173  0.0610  0.1460 -0.2852
  825MPD2    C512190   2.827   1.161  15.231  0.2383 -1.0321 -0.8502
  825MPD2     H12191   2.465   1.189  15.097 -0.0524 -0.6777  0.8597
  825MPD2    H112192   2.851   1.358  15.159  1.8116 -1.3274 -0.4351
  825MPD2    H212193   2.775   0.956  15.281 -1.7848 -0.5536  0.5459
  825MPD2    H312194   2.932   1.147  15.251 -0.3778 -1.1668  2.3498
  825MPD2     N12195   2.614   1.413  15.082 -0.4592  0.2200 -0.5975
  825MPD2    H512196   2.680   1.488  15.103  0.9292 -1.3341  0.6096
  825MPD2    N112197   2.533   0.967  15.254 -0.9442  0.1879 -0.2569
  825MPD2    H712198   2.580   0.897  15.310 -1.6479  0.8839  1.1970
  826MPD2     C12199   1.979   0.895  13.867 -0.4586 -0.0958 -0.3544
  826MPD2    C112200   1.951   0.926  13.734  0.2963 -0.0032 -0.1134
  826MPD2    C212201   1.861   1.025  13.709 -1.0025 -0.1002  0.3116
  826MPD2    C312202   1.815   1.106  13.806 -0.7836 -0.1855 -0.6098
  826MPD2    C412203   1.835   1.077  13.938 -0.4574 -0.6570  0.1447
  826MPD2    C512204   1.927   0.978  13.964 -0.4193  0.1688  0.7574
  826MPD2     H12205   1.835   1.041  13.605  0.9583 -0.1488 -0.1894
  826MPD2    H112206   1.791   1.125  14.024 -0.9081  0.6839 -0.8424
  826MPD2    H212207   2.034   0.804  13.890 -0.6933 -0.2179 -0.2767
  826MPD2    H312208   1.934   0.941  14.066  1.1397 -0.3572  0.4632
  826MPD2     N12209   1.732   1.219  13.781 -0.2183  0.3300 -0.7825
  826MPD2    H512210   1.691   1.263  13.863  0.8931  0.2907 -0.2089
  826MPD2    N112211   2.007   0.839  13.634 -0.5487  0.4986 -0.7796
  826MPD2    H712212   2.083   0.776  13.658 -1.6618 -0.5845 -0.1260
  827MPD2     C12213   2.214   2.530  10.023 -0.8972 -0.2584  0.1443
  827MPD2    C112214   2.210   2.418  10.106  0.5293  0.2952 -0.6834
  827MPD2    C212215   2.081   2.368  10.132  0.4257  0.9427 -1.0477
  827MPD2    C312216   1.968   2.422  10.079 -0.2545 -0.2257  0.7539
  827MPD2    C412217   1.983   2.533   9.996  0.2928  0.2051 -0.0549
  827MPD2    C512218   2.107   2.578   9.962  1.1268 -0.8725 -0.5505
  827MPD2     H12219   2.074   2.280  10.195 -0.8095 -0.4171 -3.0795
  827MPD2    H112220   1.901   2.582   9.945 -1.2364 -1.5119  0.7412
  827MPD2    H212221   2.311   2.564   9.990 -1.1934  1.3900  0.9979
  827MPD2    H312222   2.113   2.667   9.900  0.6527  0.2196  1.0029
  827MPD2     N12223   1.838   2.364  10.106 -0.2239 -0.2992 -0.4732
  827MPD2    H512224   1.842   2.274  10.151  0.8054  1.0211  2.0678
  827MPD2    N112225   2.325   2.356  10.153  0.4880 -0.3698 -0.4466
  827MPD2    H712226   2.411   2.391  10.113 -0.8085  1.7265 -1.3821
  828MPD2     C12227   1.232   1.861  11.851 -0.0710  0.1749  0.6824
  828MPD2    C112228   1.127   1.947  11.806  0.1839 -0.5476  0.3795
  828MPD2    C212229   1.116   1.967  11.672 -0.1704 -0.4389 -0.5097
  828MPD2    C312230   1.196   1.903  11.572 -0.2783  0.0295  0.5534
  828MPD2    C412231   1.300   1.822  11.623 -0.0150 -0.5606 -0.2905
  828MPD2    C512232   1.315   1.796  11.758  0.9742  0.3056 -0.8542
  828MPD2     H12233   1.039   2.041  11.650 -1.2055 -1.4866 -0.4125
  828MPD2    H112234   1.357   1.758  11.557 -0.1849  0.4695 -1.4331
  828MPD2    H212235   1.245   1.846  11.957 -2.0541 -2.1684  0.5863
  828MPD2    H312236   1.400   1.736  11.788  1.0992  0.6345 -0.5600
  828MPD2     N12237   1.169   1.907  11.429  0.3020  0.0870 -0.3270
  828MPD2    H512238   1.237   1.854  11.374 -2.0715 -0.6293 -2.5841
  828MPD2    N112239   1.047   2.023  11.889  0.4402  0.1666  0.6163
  828MPD2    H712240   0.965   2.063  11.844  0.8612  0.6717  0.2998
  829MPD2     C12241   0.379   2.480  11.601 -0.3913  0.2958 -0.2866
  829MPD2    C112242   0.346   2.470  11.734  0.0050 -1.1481 -0.8322
  829MPD2    C212243   0.440   2.421  11.826 -0.2400 -0.5753  0.5727
  829MPD2    C312244   0.564   2.378  11.773  0.9441  0.5203 -0.2069
  829MPD2    C412245   0.592   2.387  11.633  0.5720 -0.5493 -0.0237
  829MPD2    C512246   0.497   2.432  11.549  0.2796 -0.0455 -0.0280
  829MPD2     H12247   0.411   2.419  11.931 -0.7332  2.9828  0.4910
  829MPD2    H112248   0.688   2.351  11.596  0.4821  1.8266 -2.6564
  829MPD2    H212249   0.300   2.517  11.536 -2.3183 -0.6317  1.5281
  829MPD2    H312250   0.518   2.436  11.442  1.3807  0.6931  0.2075
  829MPD2     N12251   0.665   2.319  11.851  0.2232  0.5492  0.5587
  829MPD2    H512252   0.736   2.270  11.798  0.3165 -0.2596  1.4290
  829MPD2    N112253   0.211   2.497  11.771 -0.2845  0.8769  0.2560
  829MPD2    H712254   0.151   2.526  11.693 -0.5674 -2.6454 -0.8447
  830MPD2     C12255   1.516   4.675  15.775 -0.7261 -0.3134 -0.2573
  830MPD2    C112256   1.384   4.686  15.730  0.4769  0.3512  0.7718
  830MPD2    C212257   1.349   0.050  15.643  0.4810  0.2507  1.0335
  830MPD2    C312258   1.446   0.142  15.625  0.4277  0.6728 -0.0269
  830MPD2    C412259   1.564   0.135  15.681 -0.0872  0.3607  0.9404
  830MPD2    C512260   1.607   0.031  15.752  0.2043 -0.3521 -0.2372
  830MPD2     H12261   1.255   0.054  15.589  0.4253 -1.9855  0.9546
  830MPD2    H112262   1.637   0.212  15.659 -0.2757  0.0752 -0.6835
  830MPD2    H212263   1.539   4.590  15.839 -2.2728 -0.1124  0.5824
  830MPD2    H312264   1.706   0.028  15.797 -0.9910 -1.1723  2.3323
  830MPD2     N12265   1.412   0.263  15.558 -0.1923 -0.4394  0.5203
  830MPD2    H512266   1.486   0.332  15.552  0.5433 -1.2463  0.2665
  830MPD2    N112267   1.284   4.595  15.783  0.0140  0.2803 -0.0598
  830MPD2    H712268   1.307   4.538  15.864  0.5776  2.8557  1.6114
  831MPD2     C12269   1.366   1.901  16.413 -0.2906 -0.1014 -1.0354
  831MPD2    C112270   1.406   1.803  16.327  0.2155 -0.6998  0.2733
  831MPD2    C212271   1.366   1.676  16.341 -0.4067  0.4067  0.0724
  831MPD2    C312272   1.276   1.637  16.442  0.1731 -0.4035 -0.7155
  831MPD2    C412273   1.260   1.731  16.544 -0.3774 -0.1571 -0.4543
  831MPD2    C512274   1.300   1.865  16.527 -0.1383 -1.0187  0.2498
  831MPD2     H12275   1.392   1.608  16.261 -1.0311 -1.2517  1.2822
  831MPD2    H112276   1.184   1.699  16.615 -0.4823  0.8987 -0.0807
  831MPD2    H212277   1.388   2.005  16.394 -2.9874  0.8262  0.8469
  831MPD2    H312278   1.275   1.940  16.601 -0.0590  1.4480 -2.2384
  831MPD2     N12279   1.190   1.522  16.446  0.2404  0.6886 -0.2435
  831MPD2    H512280   1.120   1.515  16.519 -1.0111  1.1763 -1.3985
  831MPD2    N112281   1.479   1.860  16.220 -0.3793  0.4110  0.6631
  831MPD2    H712282   1.483   1.961  16.215  0.2558  0.2762 -1.7565
  832MPD2     C12283   0.075   3.264  17.457 -0.2071  0.1124 -0.1397
  832MPD2    C112284   0.091   3.394  17.414 -0.2988 -1.4684 -0.7372
  832MPD2    C212285   4.720   3.460  17.366 -0.0945 -0.1362 -0.0214
  832MPD2    C312286   4.592   3.405  17.374  0.8263  0.6214 -0.2040
  832MPD2    C412287   4.581   3.273  17.413  0.3869 -0.3330 -0.2156
  832MPD2    C512288   4.694   3.202  17.457 -0.8967 -0.3550  0.1524
  832MPD2     H12289   4.731   3.562  17.332 -0.4014  0.1461  0.7267
  832MPD2    H112290   4.481   3.232  17.404 -0.8813  3.1578 -2.1730
  832MPD2    H212291   0.156   3.201  17.491 -0.4083  0.0452  0.2234
  832MPD2    H312292   4.692   3.099  17.488  0.0766 -0.5891 -0.5702
  832MPD2     N12293   4.474   3.473  17.329 -0.2207 -0.4865  0.3681
  832MPD2    H512294   4.391   3.415  17.323 -0.5198 -0.0593  0.4281
  832MPD2    N112295   0.215   3.461  17.410 -0.0248 -0.5547 -0.4541
  832MPD2    H712296   0.219   3.561  17.392 -1.9095 -0.5683 -1.0021
  833MPD2     C12297   1.745   4.433  12.958  0.4398 -0.1885  0.2067
  833MPD2    C112298   1.702   4.485  12.837  0.2544 -0.2882  0.5808
  833MPD2    C212299   1.741   4.415  12.723 -0.1406 -0.5617 -0.1739
  833MPD2    C312300   1.809   4.296  12.726  0.8761  0.1167 -0.0560
  833MPD2    C412301   1.862   4.254  12.851  0.0536 -0.5394  0.6985
  833MPD2    C512302   1.824   4.320  12.960 -0.3647 -0.7409  0.2178
  833MPD2     H12303   1.690   4.435  12.629 -2.9432  0.8107  1.6186
  833MPD2    H112304   1.920   4.163  12.861  0.4401 -0.2180  1.3888
  833MPD2    H212305   1.697   4.477  13.045 -0.3142 -0.2560 -0.1756
  833MPD2    H312306   1.844   4.276  13.057  1.0718 -0.5432  0.0049
  833MPD2     N12307   1.841   4.221  12.614  0.0800 -0.1017  0.0474
  833MPD2    H512308   1.873   4.128  12.638 -1.6410 -0.2716  1.6934
  833MPD2    N112309   1.617   4.604  12.835  0.0609  0.4546 -0.1488
  833MPD2    H712310   1.593   4.646  12.924 -0.4917 -0.9228  0.3628
  834MPD2     C12311   1.620   3.399  12.053 -0.2654  0.4795 -0.1179
  834MPD2    C112312   1.561   3.493  11.976 -0.0939  0.1323  0.4119
  834MPD2    C212313   1.573   3.621  12.028  0.4147  0.7779 -0.0552
  834MPD2    C312314   1.646   3.649  12.148 -0.9675  0.1369  0.0483
  834MPD2    C412315   1.705   3.543  12.214 -0.0597 -0.2564  0.2097
  834MPD2    C512316   1.689   3.420  12.163 -0.3262  0.0978 -0.0385
  834MPD2     H12317   1.535   3.701  11.965 -0.3559  1.5765  1.4256
  834MPD2    H112318   1.758   3.572  12.304 -0.4632 -0.2983  0.4580
  834MPD2    H212319   1.612   3.297  12.019 -2.9822  1.0502 -1.1791
  834MPD2    H312320   1.729   3.335  12.217 -1.4244 -1.2787 -1.3917
  834MPD2     N12321   1.662   3.782  12.180 -0.1347 -0.4124  0.1843
  834MPD2    H512322   1.619   3.852  12.120  1.0714 -2.1827 -2.7499
  834MPD2    N112323   1.483   3.451  11.875 -0.2482 -0.2719  0.7235
  834MPD2    H712324   1.469   3.352  11.862  0.5826 -0.5099  1.5943
  835MPD2     C12325   1.437   2.063  10.987 -0.6343  0.8665 -0.0459
  835MPD2    C112326   1.368   2.168  11.049 -1.1137  0.3676  0.1287
  835MPD2    C212327   1.390   2.191  11.181  0.1962  0.7187  0.3875
  835MPD2    C312328   1.467   2.113  11.260 -1.1327  0.3656  0.3284
  835MPD2    C412329   1.538   2.013  11.197  0.2447 -0.2207 -0.0813
  835MPD2    C512330   1.525   1.987  11.062  0.4631  0.2930  0.2211
  835MPD2     H12331   1.343   2.279  11.222  1.8092  0.7096  2.2626
  835MPD2    H112332   1.626   1.970  11.243  1.0359 -0.1500 -1.5530
  835MPD2    H212333   1.439   2.042  10.881  3.3192 -0.5500  0.3120
  835MPD2    H312334   1.598   1.920  11.018 -0.7100 -0.0728 -1.1697
  835MPD2     N12335   1.490   2.135  11.394 -1.2199  0.8185  0.4574
  835MPD2    H512336   1.552   2.063  11.430 -0.1456  1.1663 -0.6657
  835MPD2    N112337   1.293   2.259  10.968 -0.0126  0.3505 -0.6696
  835MPD2    H712338   1.253   2.343  11.010  1.0414  1.4313 -1.8478
  836MPD2     C12339   1.006   2.517  11.892  0.7270 -0.8299  0.0298
  836MPD2    C112340   1.093   2.437  11.967  0.0199  0.1751 -0.1859
  836MPD2    C212341   1.090   2.440  12.104  0.4984 -0.2306  0.4866
  836MPD2    C312342   0.982   2.503  12.167 -0.5059  0.4297 -0.4829
  836MPD2    C412343   0.880   2.568  12.093 -0.4929  0.2345  0.6727
  836MPD2    C512344   0.899   2.569  11.959 -0.0969 -0.9093 -0.3409
  836MPD2     H12345   1.164   2.380  12.155 -0.0941 -0.5741  0.9392
  836MPD2    H112346   0.790   2.611  12.137  0.0731 -1.3031  3.3575
  836MPD2    H212347   1.000   2.518  11.784  0.1601  0.9612  0.0841
  836MPD2    H312348   0.824   2.613  11.894 -1.2083  0.1294  1.6488
  836MPD2     N12349   0.962   2.498  12.303 -0.0112 -0.0670 -0.6868
  836MPD2    H512350   0.882   2.543  12.345  0.2014 -0.3613  0.0319
  836MPD2    N112351   1.180   2.351  11.897 -0.5707  0.1739 -0.5884
  836MPD2    H712352   1.158   2.341  11.799  2.3271  2.2849 -1.4351
  837MPD2     C12353   4.264   1.876  10.277  0.2222 -0.5111  0.4333
  837MPD2    C112354   4.163   1.925  10.203 -0.3532  0.1997 -0.1665
  837MPD2    C212355   4.134   2.055  10.197  0.2850 -0.3833 -1.4501
  837MPD2    C312356   4.189   2.139  10.292  0.1183 -0.1039 -0.1775
  837MPD2    C412357   4.276   2.088  10.381  0.8003 -0.5213  0.0850
  837MPD2    C512358   4.321   1.958  10.373  0.0825  0.1773 -1.4138
  837MPD2     H12359   4.067   2.096  10.123 -1.0915  2.2337  1.2815
  837MPD2    H112360   4.337   2.152  10.444  0.8495 -0.6814  0.1974
  837MPD2    H212361   4.292   1.772  10.260 -2.3287 -1.3689  1.4320
  837MPD2    H312362   4.397   1.921  10.440 -0.6451  0.9671 -0.1526
  837MPD2     N12363   4.144   2.272  10.298  0.1653  0.2725 -0.3514
  837MPD2    H512364   4.096   2.308  10.216 -1.6545 -1.0995  0.0996
  837MPD2    N112365   4.089   1.853  10.111 -0.2710 -0.0546 -0.3025
  837MPD2    H712366   4.026   1.909  10.055  1.5915  0.0583 -2.2994
  838MPD2     C12367   2.300   4.281  11.625 -0.1547  0.6346 -0.3240
  838MPD2    C112368   2.315   4.384  11.714 -0.2701 -0.4348  0.1924
  838MPD2    C212369   2.289   4.371  11.849  0.1572 -0.1097 -0.6496
  838MPD2    C312370   2.253   4.245  11.899  0.4296  0.2845 -0.0146
  838MPD2    C412371   2.242   4.137  11.816  0.2140  0.1048  0.1526
  838MPD2    C512372   2.255   4.161  11.678 -0.1113 -0.3225 -0.3232
  838MPD2     H12373   2.307   4.459  11.910 -1.4026  0.1780 -0.5868
  838MPD2    H112374   2.212   4.037  11.846 -0.8011  0.7630  1.3629
  838MPD2    H212375   2.318   4.290  11.519 -1.2759 -0.1473 -0.5762
  838MPD2    H312376   2.236   4.076  11.614 -1.5972  0.1285 -0.4803
  838MPD2     N12377   2.232   4.237  12.037  0.6713  0.2007 -0.0901
  838MPD2    H512378   2.236   4.319  12.098  2.5939 -1.2606  1.7485
  838MPD2    N112379   2.349   4.510  11.679  0.1509  0.5263  0.4761
  838MPD2    H712380   2.361   4.583  11.749  1.5896  0.3259  0.4533
  839MPD2     C12381   2.766   4.560  12.201 -1.0342  0.6901 -0.4207
  839MPD2    C112382   2.719   4.506  12.082  0.9186  0.4660  0.0862
  839MPD2    C212383   2.707   4.593  11.971  0.0054  0.2853  0.5398
  839MPD2    C312384   2.747   4.726  11.969 -0.0290 -0.2133 -1.0264
  839MPD2    C412385   2.785   0.038  12.092  0.2663 -0.0803  0.0808
  839MPD2    C512386   2.807   4.695  12.196 -0.5625 -0.3081  0.6298
  839MPD2     H12387   2.677   4.539  11.881 -0.4020 -0.4682  1.1221
  839MPD2    H112388   2.820   0.140  12.094  0.5494 -0.1587 -0.9550
  839MPD2    H212389   2.781   4.496  12.287 -2.3397 -0.4787 -1.0422
  839MPD2    H312390   2.833   4.736  12.293 -1.6703  0.1969  0.7106
  839MPD2     N12391   2.747   0.061  11.853 -0.1634 -0.2038  0.4416
  839MPD2    H512392   2.745   0.163  11.854 -2.4414 -0.2150 -0.6693
  839MPD2    N112393   2.693   4.370  12.041  0.3083  0.6260  0.3067
  839MPD2    H712394   2.677   4.353  11.943  0.6264  3.0923 -0.1611
  840MPD2     C12395   2.839   2.616   9.977 -0.0379  0.0483 -0.1511
  840MPD2    C112396   2.874   2.561  10.093  0.1881  0.2088 -0.2218
  840MPD2    C212397   2.984   2.618  10.155  0.2668 -0.6086  0.4142
  840MPD2    C312398   3.043   2.735  10.110 -0.7441 -0.1557  0.0532
  840MPD2    C412399   2.994   2.794   9.999  0.3451 -0.7649  0.2371
  840MPD2    C512400   2.900   2.732   9.930 -0.8797  0.0253 -0.4767
  840MPD2     H12401   3.013   2.575  10.250 -1.5239 -1.6452  0.4921
  840MPD2    H112402   3.037   2.881   9.952 -1.3497 -1.3193 -2.3837
  840MPD2    H212403   2.756   2.580   9.917 -0.4291  1.6954 -0.5900
  840MPD2    H312404   2.866   2.772   9.835  0.4538  1.0179 -0.5346
  840MPD2     N12405   3.159   2.801  10.161 -0.0272 -0.7841  0.2316
  840MPD2    H512406   3.182   2.888  10.115  0.5656 -1.9742 -1.7523
  840MPD2    N112407   2.788   2.458  10.140  0.5787 -0.2239  0.1625
  840MPD2    H712408   2.699   2.451  10.092  0.2395 -1.0832  0.9026
  841MPD2     C12409   3.148   2.345  14.325  0.3188 -0.1700  0.5847
  841MPD2    C112410   3.273   2.290  14.336  0.0859 -0.3454  1.1011
  841MPD2    C212411   3.365   2.351  14.417  0.3436 -0.2634 -0.2160
  841MPD2    C312412   3.334   2.466  14.484  0.3717 -0.3333 -0.6004
  841MPD2    C412413   3.208   2.516  14.470 -0.8211  0.0552  1.1560
  841MPD2    C512414   3.114   2.469  14.383 -0.0569  0.5002  0.4951
  841MPD2     H12415   3.470   2.324  14.422  1.2526  3.2727  0.2957
  841MPD2    H112416   3.177   2.605  14.524 -0.9756  1.5671 -1.4316
  841MPD2    H212417   3.068   2.307  14.262  0.5858  0.8364 -0.3623
  841MPD2    H312418   3.021   2.524  14.371  1.3434  2.7476  0.0532
  841MPD2     N12419   3.442   2.520  14.556 -0.4407 -0.1908 -0.5432
  841MPD2    H512420   3.527   2.465  14.552 -1.1080 -1.3647  1.6762
  841MPD2    N112421   3.308   2.174  14.264  0.1328 -0.5526 -0.0937
  841MPD2    H712422   3.406   2.150  14.258 -0.1934 -1.9913  0.2555
  842MPD2     C12423   3.635   3.758  17.134  0.4523  0.1399 -0.2310
  842MPD2    C112424   3.552   3.700  17.042  0.1764 -0.1485 -0.6589
  842MPD2    C212425   3.472   3.591  17.084 -0.0245  0.3078  0.0408
  842MPD2    C312426   3.485   3.531  17.206 -0.0147 -0.5695 -0.8456
  842MPD2    C412427   3.552   3.603  17.307  0.8818 -0.6952 -0.5730
  842MPD2    C512428   3.630   3.713  17.266 -0.0538 -0.2989 -0.5171
  842MPD2     H12429   3.412   3.535  17.013 -0.6925  0.9934  0.0525
  842MPD2    H112430   3.574   3.572  17.408  0.2012  0.1197 -0.1785
  842MPD2    H212431   3.689   3.848  17.108  0.0591  0.0011 -1.5351
  842MPD2    H312432   3.689   3.774  17.334  0.3220  0.1289 -1.2242
  842MPD2     N12433   3.412   3.409  17.218 -0.2455  0.0391 -0.3910
  842MPD2    H512434   3.380   3.378  17.126 -3.0050 -0.1485  0.6434
  842MPD2    N112435   3.563   3.748  16.914  0.3727  0.5110  0.0682
  842MPD2    H712436   3.640   3.810  16.891  2.9735 -2.1400  1.6074
  843MPD2     C12437   1.382   3.954  17.541  0.2169  0.1798 -0.2865
  843MPD2    C112438   1.373   3.928  17.679 -0.1262 -0.0361  0.1049
  843MPD2    C212439   1.383   4.037  17.764 -0.0874 -0.1021  0.5133
  843MPD2    C312440   1.380   4.171  17.709 -1.2524 -1.4302 -0.3816
  843MPD2    C412441   1.362   4.185  17.575 -0.1930 -0.3474  0.3672
  843MPD2    C512442   1.368   4.081  17.492  0.4939  0.7355  0.2927
  843MPD2     H12443   1.395   4.019   0.103 -0.4992  0.4243  0.6433
  843MPD2    H112444   1.353   4.285  17.534 -0.6881 -0.2738  0.6657
  843MPD2    H212445   1.372   3.870  17.473  1.0529 -0.5461  0.4926
  843MPD2    H312446   1.356   4.090  17.385  1.4119  2.2064  0.3166
  843MPD2     N12447   1.377   4.287   0.030  0.1122  0.1039  0.6837
  843MPD2    H512448   1.350   4.376  17.755  1.1948  0.8529  1.5921
  843MPD2    N112449   1.380   3.797  17.715  0.0400  0.0252  0.4876
  843MPD2    H712450   1.376   3.726  17.642  1.2910 -0.1491  0.5964
  844MPD2     C12451   3.965   3.199  16.618  1.0713  0.1949  0.1622
  844MPD2    C112452   4.076   3.133  16.570  0.0355 -0.0386 -0.2292
  844MPD2    C212453   4.192   3.134  16.641 -0.5604  0.1272  0.3681
  844MPD2    C312454   4.202   3.216  16.754 -0.3874  0.0597 -0.4816
  844MPD2    C412455   4.085   3.283  16.802 -0.0014 -1.0203 -1.4623
  844MPD2    C512456   3.968   3.275  16.734  0.1696  0.1658 -1.1241
  844MPD2     H12457   4.275   3.078  16.600 -0.8302  0.1294 -0.1865
  844MPD2    H112458   4.080   3.347  16.889 -1.8476 -0.4031 -2.0220
  844MPD2    H212459   3.871   3.188  16.566  0.9643 -0.0979  0.4190
  844MPD2    H312460   3.888   3.339  16.769  0.1242 -1.4272  1.7584
  844MPD2     N12461   4.321   3.219  16.828 -0.6802  0.7288  0.3968
  844MPD2    H512462   4.403   3.177  16.787 -0.9986  1.3622 -0.8766
  844MPD2    N112463   4.073   3.069  16.445 -0.6699 -1.1081 -0.6093
  844MPD2    H712464   4.156   3.015  16.421 -1.1208 -1.6626 -0.9266
  845MPD2     C12465   4.638   4.070  16.787 -0.2708 -0.0799  0.3613
  845MPD2    C112466   4.722   4.028  16.887  0.2609  0.1955  0.3914
  845MPD2    C212467   4.724   3.890  16.920 -0.2471  0.6410 -0.1277
  845MPD2    C312468   4.646   3.796  16.854 -0.4478  0.1614  0.3874
  845MPD2    C412469   4.558   3.845  16.757 -0.1441 -0.5373  0.3937
  845MPD2    C512470   4.560   3.983  16.725  0.7948 -0.0901  0.0024
  845MPD2     H12471   0.039   3.853  17.005 -0.3125  1.4449  0.2661
  845MPD2    H112472   4.493   3.773  16.708 -0.5108  0.3814 -0.4479
  845MPD2    H212473   4.627   4.175  16.763 -1.9820 -0.3836 -0.1887
  845MPD2    H312474   4.496   4.014  16.642  2.1677  1.1409 -0.6062
  845MPD2     N12475   4.625   3.660  16.895 -0.1516  0.1371  0.3950
  845MPD2    H512476   4.545   3.611  16.858  1.0683  0.0895 -2.1631
  845MPD2    N112477   0.053   4.129  16.956  0.0722 -0.1823  0.8565
  845MPD2    H712478   0.055   4.222  16.916 -0.9767 -0.7193 -0.4215
  846MPD2     C12479   0.816   3.843  13.597 -0.3013 -0.9998  0.3484
  846MPD2    C112480   0.768   3.970  13.582  0.2301 -0.4301  0.3186
  846MPD2    C212481   0.774   4.054  13.695  0.0257 -0.0550 -0.2364
  846MPD2    C312482   0.830   4.011  13.812 -0.4745 -0.0022  0.1853
  846MPD2    C412483   0.886   3.889  13.817  0.7816  0.6836 -0.1245
  846MPD2    C512484   0.887   3.803  13.706  0.1646  0.3914 -0.5065
  846MPD2     H12485   0.728   4.152  13.690  1.9425  0.8626  0.1487
  846MPD2    H112486   0.936   3.850  13.905  1.6269 -1.5361 -1.5899
  846MPD2    H212487   0.814   3.772  13.515  0.3765 -1.6051  0.8480
  846MPD2    H312488   0.929   3.704  13.721  2.1696  1.5123  1.4415
  846MPD2     N12489   0.835   4.104  13.926 -0.0218 -0.7384 -0.3081
  846MPD2    H512490   0.789   4.194  13.914  1.2652  0.1776  1.6248
  846MPD2    N112491   0.721   4.020  13.460 -0.0563 -0.6316 -0.2216
  846MPD2    H712492   0.718   4.121  13.454 -0.6437 -0.5702  1.0986
  847MPD2     C12493   1.044   0.420  14.628 -0.1454  0.5666  1.1002
  847MPD2    C112494   1.125   0.529  14.651  0.1374 -0.8052  0.0357
  847MPD2    C212495   1.252   0.510  14.704  0.1221  0.4448 -0.7576
  847MPD2    C312496   1.296   0.391  14.738  0.3547  0.6486  0.1795
  847MPD2    C412497   1.216   0.278  14.722 -0.3768  0.4293 -0.2456
  847MPD2    C512498   1.093   0.296  14.664  0.2770  0.2892 -0.4615
  847MPD2     H12499   1.302   0.599  14.739 -0.1320  1.3360 -2.6684
  847MPD2    H112500   1.243   0.179  14.756 -1.0583  1.8641  4.5516
  847MPD2    H212501   0.951   0.431  14.574  1.2132  3.1757 -0.6938
  847MPD2    H312502   1.028   0.216  14.631  0.4321  0.6766 -1.6833
  847MPD2     N12503   1.412   0.389  14.814 -0.3199  0.3315  0.1253
  847MPD2    H512504   1.462   0.477  14.819  0.6659 -0.2883  1.0340
  847MPD2    N112505   1.088   0.660  14.627 -0.7461 -0.4388  0.0813
  847MPD2    H712506   1.161   0.727  14.649 -2.1821  0.8600  0.9037
  848MPD2     C12507   4.173   3.823  16.648 -0.1659  0.1045  0.5294
  848MPD2    C112508   4.203   3.911  16.750 -0.2101 -0.0561 -0.5335
  848MPD2    C212509   4.228   4.042  16.712  0.4262 -0.1964 -0.1167
  848MPD2    C312510   4.223   4.082  16.583 -0.5174 -0.7790 -0.7137
  848MPD2    C412511   4.199   3.996  16.484  0.4581  0.0156  0.0574
  848MPD2    C512512   4.185   3.864  16.519 -0.1184 -0.4846 -0.8593
  848MPD2     H12513   4.242   4.122  16.784 -0.5590 -0.1382  0.0147
  848MPD2    H112514   4.207   4.022  16.379  0.9809 -1.8384 -0.3575
  848MPD2    H212515   4.139   3.722  16.665 -0.9990  0.1797 -0.6444
  848MPD2    H312516   4.178   3.790  16.441  0.8477 -0.0162 -1.3883
  848MPD2     N12517   4.234   4.215  16.549 -0.1592 -0.0578 -0.1108
  848MPD2    H512518   4.221   4.232  16.449  2.2253  1.2980 -0.1783
  848MPD2    N112519   4.212   3.862  16.883 -0.3616 -0.3529  0.4291
  848MPD2    H712520   4.246   3.931  16.949  0.5858  0.2584 -0.6867
  849MPD2     C12521   3.084   3.638  13.998 -0.7455  0.0056  0.1620
  849MPD2    C112522   3.081   3.578  14.121  0.3596 -0.1145  0.1984
  849MPD2    C212523   3.165   3.620  14.218  0.4464 -0.2999 -0.9047
  849MPD2    C312524   3.255   3.722  14.188  0.5880 -0.5016  0.2264
  849MPD2    C412525   3.247   3.796  14.066  0.1547 -0.6186 -0.3978
  849MPD2    C512526   3.172   3.741  13.968  0.0955  0.3048 -0.0160
  849MPD2     H12527   3.171   3.565  14.310  0.2355  0.0592 -0.6745
  849MPD2    H112528   3.291   3.894  14.053 -3.1083  1.0942  1.2734
  849MPD2    H212529   3.015   3.605  13.920 -1.3112  0.7762  0.3316
  849MPD2    H312530   3.171   3.789  13.871 -2.5765 -0.8050 -0.5416
  849MPD2     N12531   3.345   3.770  14.280  0.1202 -0.4268  0.4525
  849MPD2    H512532   3.400   3.850  14.251  0.0714  0.6143  3.2481
  849MPD2    N112533   2.988   3.472  14.140  0.2950  0.2516  0.6368
  849MPD2    H712534   2.946   3.440  14.053 -0.6794 -1.9449  1.9317
  850MPD2     C12535   1.258   1.416  14.687  0.0441 -1.0446  0.0309
  850MPD2    C112536   1.291   1.488  14.801 -0.3376 -0.2164  0.0040
  850MPD2    C212537   1.414   1.548  14.802 -0.1422 -0.2866 -0.3676
  850MPD2    C312538   1.511   1.542  14.701  0.0581 -0.2272  0.2069
  850MPD2    C412539   1.475   1.470  14.591 -0.3106 -0.1952 -0.3110
  850MPD2    C512540   1.350   1.413  14.582 -0.5962 -0.0826  0.0278
  850MPD2     H12541   1.441   1.607  14.889  1.7943 -3.3391  1.0614
  850MPD2    H112542   1.552   1.451  14.516  0.6718  1.1103  0.3790
  850MPD2    H212543   1.167   1.357  14.686  0.1463 -1.1789 -1.1850
  850MPD2    H312544   1.327   1.352  14.495 -2.5813  1.3788 -0.4663
  850MPD2     N12545   1.646   1.585  14.707  0.0573  0.2406  0.7371
  850MPD2    H512546   1.702   1.584  14.622  3.7162  0.7641  3.1192
  850MPD2    N112547   1.195   1.491  14.905  0.1026 -0.2468  0.5182
  850MPD2    H712548   1.133   1.411  14.909 -0.2606 -0.0504 -1.2923
  851MPD2     C12549   1.155   1.212  15.687  0.3207  0.0024 -0.2476
  851MPD2    C112550   1.139   1.196  15.550 -0.3506 -0.4831 -0.8547
  851MPD2    C212551   1.178   1.075  15.496  0.0458  0.7487 -0.5865
  851MPD2    C312552   1.234   0.978  15.578  0.1691  0.4644  0.7301
  851MPD2    C412553   1.250   1.002  15.714 -0.0262  0.0613  0.0035
  851MPD2    C512554   1.203   1.119  15.773  0.1854 -0.2441 -0.9311
  851MPD2     H12555   1.171   1.049  15.391  1.0223 -0.6104 -0.3307
  851MPD2    H112556   1.288   0.931  15.786 -0.8478  0.0863  0.4601
  851MPD2    H212557   1.124   1.304  15.734 -0.6243  0.4548 -1.7748
  851MPD2    H312558   1.209   1.124  15.881 -1.5666  1.5720 -0.9343
  851MPD2     N12559   1.270   0.854  15.524 -0.0060  0.4162 -0.3412
  851MPD2    H512560   1.240   0.835  15.429  0.5069  1.9642 -0.8064
  851MPD2    N112561   1.083   1.302  15.475  0.4329  0.0743  0.0090
  851MPD2    H712562   1.068   1.386  15.529  0.1936  0.1594 -0.1898
  852MPD2     C12563   4.630   3.979  10.369 -0.3827  0.2107  0.3341
  852MPD2    C112564   0.004   3.987  10.452  0.0066 -0.9507  0.3836
  852MPD2    C212565   0.125   4.016  10.395 -0.3224 -0.2717 -0.1575
  852MPD2    C312566   0.129   4.047  10.259 -0.2414 -0.5817 -0.0059
  852MPD2    C412567   0.012   4.038  10.180  0.0964 -0.5365  0.9823
  852MPD2    C512568   4.638   4.015  10.237 -0.1498 -0.0608  0.1694
  852MPD2     H12569   0.218   4.014  10.452  0.7213  0.2521 -1.8400
  852MPD2    H112570   0.005   4.073  10.078  0.2715 -2.7329  0.1997
  852MPD2    H212571   4.535   3.943  10.405 -1.0273 -1.1180 -2.7207
  852MPD2    H312572   4.552   4.018  10.172  0.4885 -0.2666 -0.6922
  852MPD2     N12573   0.252   4.094  10.210 -0.5080 -0.6047 -0.4636
  852MPD2    H512574   0.321   4.101  10.284  0.0504 -2.5211 -0.8087
  852MPD2    N112575   0.000   3.969  10.592  0.3470 -0.5184  0.0813
  852MPD2    H712576   0.088   3.958  10.641 -0.8580  0.4378  2.4911
  853MPD2     C12577   2.973   3.059  12.635  0.1356  0.2195  0.8072
  853MPD2    C112578   2.840   3.087  12.617 -0.1456  0.7666  0.3748
  853MPD2    C212579   2.793   3.097  12.486  0.3053  0.0365 -0.0558
  853MPD2    C312580   2.882   3.087  12.379  0.4453 -0.4785  0.2916
  853MPD2    C412581   3.020   3.072  12.406 -0.3773  0.0609  0.4364
  853MPD2    C512582   3.068   3.058  12.532  0.2961  0.0608  0.7355
  853MPD2     H12583   2.690   3.117  12.462 -0.0362 -0.3542  1.0814
  853MPD2    H112584   3.085   3.064  12.320  0.0921 -1.3306  0.9295
  853MPD2    H212585   3.013   3.029  12.731  0.9560  0.5989  0.5892
  853MPD2    H312586   3.169   3.033  12.560  0.7319  0.7873 -0.2008
  853MPD2     N12587   2.849   3.086  12.244  0.7172  0.0750 -0.1902
  853MPD2    H512588   2.919   3.117  12.178 -1.0393 -0.1745 -2.1777
  853MPD2    N112589   2.756   3.111  12.725  0.8300  0.4625  0.2486
  853MPD2    H712590   2.801   3.120  12.815  3.2934 -3.0305 -0.6307
  854MPD2     C12591   4.033   3.430  12.654  0.7629  0.0220  0.5792
  854MPD2    C112592   4.094   3.539  12.697 -0.1551  0.4847 -0.9950
  854MPD2    C212593   4.217   3.517  12.762  0.0765 -0.6403  0.1682
  854MPD2    C312594   4.265   3.392  12.796  0.5139  0.2527  0.0420
  854MPD2    C412595   4.193   3.282  12.755  0.2777 -0.5068 -0.4627
  854MPD2    C512596   4.083   3.309  12.682 -0.4235 -0.1336  0.4732
  854MPD2     H12597   4.279   3.605  12.776 -0.0644 -0.3336 -1.1352
  854MPD2    H112598   4.219   3.178  12.772 -1.2294 -0.7491  0.3650
  854MPD2    H212599   3.938   3.437  12.603  0.5209 -1.0758  0.8830
  854MPD2    H312600   4.024   3.227  12.644 -0.5009  0.5017 -0.7557
  854MPD2     N12601   4.383   3.370  12.881 -0.6207 -0.3773  1.4396
  854MPD2    H512602   4.386   3.272  12.905  0.5016 -0.9399 -1.0681
  854MPD2    N112603   4.040   3.668  12.678  0.3555 -0.0464 -0.5334
  854MPD2    H712604   3.961   3.668  12.615 -1.2763  0.9338  1.5268
  855MPD2     C12605   4.054   2.850  13.188 -0.1463  0.2609  0.2276
  855MPD2    C112606   4.144   2.868  13.293 -0.1591  0.4239  0.0250
  855MPD2    C212607   4.262   2.941  13.276  0.8118  0.6415  0.7405
  855MPD2    C312608   4.290   2.999  13.153  0.0418  0.7465 -0.7637
  855MPD2    C412609   4.203   2.982  13.049 -0.9579 -0.2509  0.3031
  855MPD2    C512610   4.087   2.902  13.065  0.3604  0.1501  0.6584
  855MPD2     H12611   4.336   2.945  13.355  1.4878  2.0167  0.0335
  855MPD2    H112612   4.231   3.020  12.951 -0.2424 -2.1489 -0.2191
  855MPD2    H212613   3.958   2.800  13.193 -0.9261  1.5877 -1.2298
  855MPD2    H312614   4.028   2.890  12.975 -1.3933 -0.0522  1.8405
  855MPD2     N12615   4.393   3.091  13.133 -0.2728 -0.9220  0.8319
  855MPD2    H512616   4.388   3.149  13.050 -0.2877  0.1601  1.5899
  855MPD2    N112617   4.126   2.803  13.417  0.2986 -0.4001 -0.7288
  855MPD2    H712618   4.210   2.793  13.473  0.9573  1.6894 -1.3504
  856MPD2     C12619   2.387   3.846  14.064  0.7393 -0.3221  0.6000
  856MPD2    C112620   2.379   3.976  14.028 -0.1038  0.8649  0.3515
  856MPD2    C212621   2.266   4.030  13.975 -0.1425 -0.4068  0.0041
  856MPD2    C312622   2.154   3.950  13.954 -0.4432 -0.2139  0.5415
  856MPD2    C412623   2.155   3.824  14.005  0.4677 -0.3145 -0.1156
  856MPD2    C512624   2.270   3.768  14.050  0.7364  0.0367 -0.9900
  856MPD2     H12625   2.258   4.135  13.949 -0.6684 -0.2295  0.8824
  856MPD2    H112626   2.074   3.752  14.004  2.1283 -2.1869  0.4193
  856MPD2    H212627   2.469   3.796  14.113  0.4115 -0.6431  0.8160
  856MPD2    H312628   2.254   3.670  14.092 -2.4817 -0.1075 -2.5319
  856MPD2     N12629   2.033   4.010  13.914 -0.8633  0.2652 -0.1634
  856MPD2    H512630   1.954   3.947  13.921 -0.3602 -0.2055  1.3535
  856MPD2    N112631   2.479   4.076  14.063 -0.4142 -0.3366 -0.6373
  856MPD2    H712632   2.475   4.171  14.028 -0.6597 -0.4821 -1.0009
  857MPD2     C12633   3.517   1.974  12.432 -0.1937  0.2541  0.2091
  857MPD2    C112634   3.639   1.965  12.498 -0.0560 -0.3493 -0.0759
  857MPD2    C212635   3.666   2.060  12.598 -0.1238  0.4907  0.3860
  857MPD2    C312636   3.584   2.166  12.621  0.3164 -0.6164 -0.4866
  857MPD2    C412637   3.463   2.166  12.562  0.1253  0.2862  0.2512
  857MPD2    C512638   3.435   2.081  12.460  0.2476  0.7470  0.5942
  857MPD2     H12639   3.756   2.044  12.656  0.3738 -0.0442 -0.5192
  857MPD2    H112640   3.395   2.247  12.583 -1.7337 -1.5848  1.3947
  857MPD2    H212641   3.485   1.900  12.360  2.5595  0.4796 -1.2466
  857MPD2    H312642   3.336   2.076  12.416  0.5090  0.6792  0.0048
  857MPD2     N12643   3.631   2.266  12.704 -0.9823 -0.1525  0.0782
  857MPD2    H512644   3.715   2.240  12.754  0.0101  0.1681 -1.4255
  857MPD2    N112645   3.718   1.847  12.481  0.4625 -0.3993  0.7691
  857MPD2    H712646   3.673   1.774  12.426 -1.5752 -0.4393  2.4620
  858MPD2     C12647   4.587   1.264  16.480 -0.2489  0.2543 -0.1834
  858MPD2    C112648   4.617   1.139  16.536  0.6179 -0.4387 -0.1069
  858MPD2    C212649   4.570   1.114  16.667  0.2459 -0.0730  0.3659
  858MPD2    C312650   4.501   1.210  16.736  0.2592  0.2976 -0.2666
  858MPD2    C412651   4.473   1.329  16.681 -0.7278  0.1873  0.1949
  858MPD2    C512652   4.513   1.352  16.553 -0.0417 -0.7892  0.6863
  858MPD2     H12653   4.590   1.018  16.713 -1.4813 -0.4252  0.3870
  858MPD2    H112654   4.422   1.410  16.732 -2.8352 -0.8135 -0.3203
  858MPD2    H212655   4.620   1.296  16.381  1.7887  1.8882  1.0217
  858MPD2    H312656   4.493   1.452  16.516 -0.5853 -0.5791  1.5392
  858MPD2     N12657   4.454   1.194  16.871  0.5759 -0.9287 -0.4443
  858MPD2    H512658   4.392   1.264  16.913  3.5310  1.6075 -0.3067
  858MPD2    N112659   4.673   1.030  16.462 -0.1935  0.6644 -0.3523
  858MPD2    H712660   4.678   0.939  16.507  1.6153  1.1950  0.5154
  859MPD2     C12661   3.392   3.221  15.389 -0.5359  0.3430 -0.2273
  859MPD2    C112662   3.297   3.257  15.295 -0.5852 -0.3752  0.2033
  859MPD2    C212663   3.205   3.165  15.238 -1.2016 -0.5197 -0.0813
  859MPD2    C312664   3.216   3.031  15.272  0.6117 -0.2066 -0.8691
  859MPD2    C412665   3.305   2.999  15.377 -0.5662 -0.3622  1.4587
  859MPD2    C512666   3.393   3.093  15.432  0.5773 -1.0598  0.2096
  859MPD2     H12667   3.147   3.193  15.151  0.2150  0.9279 -0.5669
  859MPD2    H112668   3.311   2.895  15.408  0.8931 -1.3967 -2.1952
  859MPD2    H212669   3.449   3.290  15.451  0.1437 -1.2772  0.9349
  859MPD2    H312670   3.451   3.072  15.521  0.7057 -0.8382  0.1790
  859MPD2     N12671   3.139   2.931  15.219 -0.2069  0.1049  0.7077
  859MPD2    H512672   3.166   2.837  15.248  1.4174 -0.1555 -1.6434
  859MPD2    N112673   3.319   3.386  15.236  0.3283 -0.3072 -0.5305
  859MPD2    H712674   3.407   3.435  15.250 -0.2433  0.8606 -1.0233
  860MPD2     C12675   1.073   3.321  11.833  0.2999  0.5546 -0.0906
  860MPD2    C112676   1.049   3.313  11.965  0.6206 -0.5035  0.4249
  860MPD2    C212677   0.919   3.328  12.014  0.2615 -0.0905 -0.3120
  860MPD2    C312678   0.816   3.367  11.934  0.2835  0.0766 -0.4477
  860MPD2    C412679   0.839   3.388  11.799  0.1616  0.7632  0.1192
  860MPD2    C512680   0.970   3.362  11.750 -0.7400  0.5784 -0.2402
  860MPD2     H12681   0.899   3.306  12.118 -0.4763  1.1874 -0.1801
  860MPD2    H112682   0.765   3.412  11.724 -0.0995 -0.6351 -0.0673
  860MPD2    H212683   1.171   3.301  11.791  0.4073  1.3899 -0.2456
  860MPD2    H312684   0.991   3.366  11.644 -0.4990 -1.4897 -0.2650
  860MPD2     N12685   0.690   3.388  11.993 -0.1066  0.3450  0.6034
  860MPD2    H512686   0.685   3.362  12.091 -2.1445  2.7001  1.1433
  860MPD2    N112687   1.143   3.274  12.065 -0.6637  0.1463 -0.3544
  860MPD2    H712688   1.101   3.275  12.157  0.7131 -0.7625  0.2993
  861MPD2     C12689   3.751   1.300  10.808 -0.5825  0.0308  0.4604
  861MPD2    C112690   3.647   1.335  10.895  0.4816  0.2681  0.7852
  861MPD2    C212691   3.530   1.387  10.845  0.4067 -0.4032  0.1433
  861MPD2    C312692   3.511   1.408  10.710 -0.1459  0.2030 -1.3436
  861MPD2    C412693   3.615   1.375  10.625 -0.5805  0.3102  0.2138
  861MPD2    C512694   3.736   1.325  10.675 -0.1023  0.0426 -0.0662
  861MPD2     H12695   3.449   1.402  10.916 -0.5083 -1.0663 -0.7643
  861MPD2    H112696   3.609   1.382  10.517 -0.1053 -3.9512 -0.0890
  861MPD2    H212697   3.845   1.261  10.844 -1.1393 -1.6185  0.1455
  861MPD2    H312698   3.813   1.299  10.603 -0.2513 -0.6341  0.0216
  861MPD2     N12699   3.402   1.477  10.650 -0.3740  0.1790  0.1260
  861MPD2    H512700   3.404   1.505  10.552 -1.2174  0.2725  0.1436
  861MPD2    N112701   3.650   1.317  11.030  0.0951 -0.0421  0.2346
  861MPD2    H712702   3.560   1.339  11.072 -1.3835 -1.7160 -2.0873
  862MPD2     C12703   2.979   1.621  10.087  0.0034  0.7678  0.3421
  862MPD2    C112704   3.004   1.549  10.200  0.3332 -0.1275  0.0559
  862MPD2    C212705   2.953   1.421  10.197  0.7742 -0.2693 -0.5039
  862MPD2    C312706   2.870   1.377  10.098 -0.1437 -0.5955 -0.0996
  862MPD2    C412707   2.843   1.450   9.985  0.3853 -1.0869 -0.5357
  862MPD2    C512708   2.902   1.573   9.986 -0.0128  0.3458  0.4465
  862MPD2     H12709   2.954   1.365  10.289  1.6237 -1.4831 -1.2479
  862MPD2    H112710   2.777   1.420   9.904 -1.5299  0.2457  0.5513
  862MPD2    H212711   3.011   1.724  10.086  1.0088  0.4655  0.3537
  862MPD2    H312712   2.866   1.636   9.905 -2.1100 -1.4334 -0.0173
  862MPD2     N12713   2.806   1.251  10.112  0.3221  0.2586  0.0389
  862MPD2    H512714   2.718   1.234  10.064 -0.8547 -1.2638  2.6592
  862MPD2    N112715   3.074   1.597  10.314  0.0839 -0.6027  0.0384
  862MPD2    H712716   3.083   1.525  10.385 -1.3788 -0.8846 -0.0711
  863MPD2     C12717   2.577   4.443  16.930  0.6374 -0.3209 -0.3637
  863MPD2    C112718   2.659   4.490  16.831  0.6875  0.7085 -0.0054
  863MPD2    C212719   2.789   4.448  16.830 -0.2091 -0.2702  0.5028
  863MPD2    C312720   2.843   4.385  16.947 -0.1651 -0.0187 -0.3476
  863MPD2    C412721   2.754   4.346  17.046 -0.1910  0.5153  0.2538
  863MPD2    C512722   2.622   4.363  17.031  0.8670 -0.0829  0.4544
  863MPD2     H12723   2.863   4.463  16.752 -1.4983 -0.8209 -0.8130
  863MPD2    H112724   2.787   4.298  17.137  0.8784  0.3463 -0.2211
  863MPD2    H212725   2.470   4.462  16.936  0.2995 -2.0045 -0.8510
  863MPD2    H312726   2.554   4.349  17.114  0.9198 -1.5925  0.2462
  863MPD2     N12727   2.969   4.353  16.971  0.0671 -0.4564  0.7274
  863MPD2    H512728   2.992   4.314  17.062 -0.0788 -1.6562  0.2491
  863MPD2    N112729   2.600   4.565  16.723 -0.2717 -0.4339 -0.5079
  863MPD2    H712730   2.501   4.587  16.728 -0.0126  1.2156 -2.6576
  864MPD2     C12731   3.437   0.506  17.212 -0.3392 -0.2453  0.0531
  864MPD2    C112732   3.502   0.482  17.089 -0.2146 -0.7299 -0.1563
  864MPD2    C212733   3.576   0.587  17.028 -0.4591  0.3055 -0.6881
  864MPD2    C312734   3.594   0.706  17.091  0.2058  0.6846  0.4284
  864MPD2    C412735   3.543   0.727  17.217  0.0022  0.5245 -0.0176
  864MPD2    C512736   3.468   0.624  17.275 -0.0968 -0.0253  0.1865
  864MPD2     H12737   3.620   0.573  16.930  0.8848 -0.1108 -0.0198
  864MPD2    H112738   3.542   0.817  17.277 -1.0098  0.9766 -0.7116
  864MPD2    H212739   3.367   0.439  17.262  0.8810 -0.6448  1.2133
  864MPD2    H312740   3.422   0.655  17.368  1.1827  2.9313 -0.1688
  864MPD2     N12741   3.664   0.817  17.037  0.4692 -0.3688 -0.0752
  864MPD2    H512742   3.661   0.898  17.098  0.3057 -0.2090 -0.2942
  864MPD2    N112743   3.464   0.362  17.032 -0.1518  0.5078 -0.1529
  864MPD2    H712744   3.400   0.305  17.086 -0.3653  0.8064 -0.0853
  865MPD2     C12745   3.489   1.379  16.410 -0.5823  0.6029  0.2390
  865MPD2    C112746   3.467   1.244  16.439 -0.1449 -0.6417  0.2398
  865MPD2    C212747   3.503   1.202  16.561  0.6260  0.1288 -0.0635
  865MPD2    C312748   3.554   1.285  16.661 -0.8257 -0.8172  0.4795
  865MPD2    C412749   3.570   1.417  16.625  0.0464  1.1356  0.5135
  865MPD2    C512750   3.540   1.462  16.503  0.0682 -0.4020 -0.0601
  865MPD2     H12751   3.494   1.097  16.587 -0.6462 -0.0433 -1.1844
  865MPD2    H112752   3.623   1.488  16.688 -1.1943  2.0787  0.5068
  865MPD2    H212753   3.481   1.423  16.311  1.9372  0.4141 -0.0399
  865MPD2    H312754   3.560   1.565  16.475  0.3582 -0.1459  1.0677
  865MPD2     N12755   3.605   1.227  16.776  0.7281 -0.0355  0.4385
  865MPD2    H512756   3.583   1.129  16.793 -1.5312  0.2067 -1.0708
  865MPD2    N112757   3.427   1.165  16.331 -0.2925  0.2584 -0.2705
  865MPD2    H712758   3.433   1.208  16.239 -0.6214  0.3671 -0.2384
  866MPD2     C12759   4.300   1.795  11.309 -0.4194  0.4107 -0.6141
  866MPD2    C112760   4.295   1.780  11.174 -0.7067 -0.1258 -0.1771
  866MPD2    C212761   4.180   1.821  11.111  0.1631  0.1054 -0.3004
  866MPD2    C312762   4.069   1.869  11.186 -0.0718  0.0520 -0.4442
  866MPD2    C412763   4.096   1.915  11.309  0.3919  0.2930 -1.1049
  866MPD2    C512764   4.210   1.880  11.373  0.5942 -0.1849 -0.1428
  866MPD2     H12765   4.175   1.799  11.005  0.9702 -3.2824  0.3673
  866MPD2    H112766   4.019   1.961  11.369 -1.0448 -1.5048 -1.5822
  866MPD2    H212767   4.391   1.768  11.361 -0.1491  2.2092 -0.1201
  866MPD2    H312768   4.218   1.911  11.476  1.7216 -1.4545  0.1661
  866MPD2     N12769   3.944   1.876  11.133 -0.0240  0.3434 -0.2447
  866MPD2    H512770   3.867   1.916  11.186  2.9748  1.8847  3.0043
  866MPD2    N112771   4.401   1.706  11.116 -0.3457 -0.9528  0.0593
  866MPD2    H712772   4.475   1.661  11.169 -1.2160  0.2009  2.2794
  867MPD2     C12773   1.976   1.159  16.433  0.5052 -0.1458  0.3351
  867MPD2    C112774   2.051   1.076  16.515  0.1356  0.5057 -0.4870
  867MPD2    C212775   2.108   1.125  16.634 -0.2586 -0.0265  0.1779
  867MPD2    C312776   2.074   1.254  16.681 -0.6416  0.9655 -0.1413
  867MPD2    C412777   1.996   1.333  16.601  0.1802 -0.1231 -0.4520
  867MPD2    C512778   1.951   1.288  16.475 -0.7012  0.5578 -0.0286
  867MPD2     H12779   2.181   1.065  16.687  0.4602 -1.1355 -2.0799
  867MPD2    H112780   1.982   1.438  16.625 -1.9938 -0.3713 -0.6872
  867MPD2    H212781   1.919   1.124  16.348  2.0107  0.3849 -0.8889
  867MPD2    H312782   1.878   1.351  16.425  0.2355  0.4955 -1.4582
  867MPD2     N12783   2.135   1.312  16.791  0.1207 -0.2582 -0.1981
  867MPD2    H512784   2.119   1.407  16.824  0.3286 -0.3889  0.2731
  867MPD2    N112785   2.071   0.946  16.471  0.4856  0.3694 -0.1779
  867MPD2    H712786   2.051   0.921  16.375 -0.0461 -1.4432  0.4197
  868MPD2     C12787   3.771   0.899  13.229  0.3332 -0.1426 -0.1493
  868MPD2    C112788   3.800   0.774  13.271 -0.4872 -0.0208  0.7240
  868MPD2    C212789   3.749   0.723  13.390  0.1314  0.3793 -0.2913
  868MPD2    C312790   3.660   0.795  13.466 -0.2057 -0.2978 -0.2826
  868MPD2    C412791   3.625   0.921  13.409 -0.1554  0.4809 -0.2788
  868MPD2    C512792   3.680   0.970  13.301 -0.2220  0.2071 -0.8151
  868MPD2     H12793   3.772   0.624  13.427  2.1688  1.2161  0.6806
  868MPD2    H112794   3.549   0.977  13.462 -0.2314  0.9119 -0.8515
  868MPD2    H212795   3.814   0.943  13.140  2.0040  1.0177  1.2214
  868MPD2    H312796   3.638   1.062  13.262  0.5683 -0.3664 -3.0261
  868MPD2     N12797   3.611   0.740  13.583  0.1990 -0.4868  0.1157
  868MPD2    H512798   3.618   0.640  13.601  1.7969 -0.7387 -1.8800
  868MPD2    N112799   3.893   0.703  13.183  0.3673 -0.2045  0.3578
  868MPD2    H712800   3.946   0.751  13.111  1.6354  0.1591  1.5415
  869MPD2     C12801   0.315   2.787   0.933 -0.0795  0.1117  0.2387
  869MPD2    C112802   0.418   2.754   0.843 -0.7332 -0.1158 -0.6645
  869MPD2    C212803   0.546   2.796   0.872 -0.0472 -0.2957  0.1989
  869MPD2    C312804   0.567   2.878   0.989 -0.0097  0.3371  0.3638
  869MPD2    C412805   0.465   2.907   1.079 -0.0598 -0.2339 -0.0542
  869MPD2    C512806   0.338   2.862   1.047  0.1037 -0.2293  0.0917
  869MPD2     H12807   0.624   2.770   0.800  0.4150  0.6509  0.3577
  869MPD2    H112808   0.475   2.959   1.173 -3.3400 -2.9588  1.7843
  869MPD2    H212809   0.215   2.748   0.920 -0.1476 -0.0898  1.3617
  869MPD2    H312810   0.259   2.869   1.121 -1.0025  2.3395 -1.3316
  869MPD2     N12811   0.688   2.935   1.018 -0.1136 -0.3351  0.1666
  869MPD2    H512812   0.679   2.999   1.097 -2.2052 -1.1371  0.5580
  869MPD2    N112813   0.379   2.673   0.737  0.1933 -0.0682  0.4310
  869MPD2    H712814   0.278   2.666   0.735 -0.1475  4.6983  1.0760
  870MPD2     C12815   0.567   1.954   1.247  0.6169  0.0023  0.4199
  870MPD2    C112816   0.485   1.865   1.187 -0.5817  0.0889 -0.5798
  870MPD2    C212817   0.358   1.909   1.144 -0.5802  0.2449  0.1274
  870MPD2    C312818   0.322   2.042   1.161  0.1688  0.1470 -0.2798
  870MPD2    C412819   0.407   2.132   1.222 -0.3228 -0.1343 -0.0720
  870MPD2    C512820   0.530   2.086   1.256 -0.5986 -0.0018 -0.2804
  870MPD2     H12821   0.296   1.848   1.079  0.6969 -1.2604  0.3213
  870MPD2    H112822   0.381   2.236   1.239  1.1744 -0.1205  2.1158
  870MPD2    H212823   0.660   1.916   1.289  0.0725  0.7703  2.3120
  870MPD2    H312824   0.604   2.145   1.308  1.2244  1.5281 -4.6387
  870MPD2     N12825   0.196   2.082   1.101  0.2639  0.2990  0.1632
  870MPD2    H512826   0.148   2.016   1.042  1.9466  0.0073 -0.8928
  870MPD2    N112827   0.539   1.735   1.162  0.3823 -0.2084  0.3672
  870MPD2    H712828   0.635   1.718   1.189  0.0847  0.1006  1.6136
  871MPD2     C12829   0.846   0.676  16.467 -0.5512  0.4434  0.5498
  871MPD2    C112830   0.954   0.765  16.501  0.0658 -0.1854 -0.7104
  871MPD2    C212831   1.066   0.743  16.435 -0.1184  0.7072  0.0742
  871MPD2    C312832   1.084   0.637  16.345  0.5624 -0.1580 -0.3905
  871MPD2    C412833   0.974   0.562  16.310 -0.4201 -0.5601 -0.1675
  871MPD2    C512834   0.852   0.586  16.369  0.7310 -0.6417 -0.4573
  871MPD2     H12835   1.149   0.806  16.464  0.6991  1.0520 -3.0048
  871MPD2    H112836   0.981   0.505  16.218  0.8393 -1.2678  0.3704
  871MPD2    H212837   0.753   0.712  16.508 -2.2968 -1.0100 -2.1778
  871MPD2    H312838   0.755   0.540  16.352 -1.4021  3.4474  0.6776
  871MPD2     N12839   1.214   0.621  16.297  0.0708  0.0927 -0.7313
  871MPD2    H512840   1.287   0.685  16.328 -1.2786  0.4995  1.6044
  871MPD2    N112841   0.927   0.871  16.590 -0.2222 -0.3294  0.1536
  871MPD2    H712842   0.843   0.866  16.646 -0.3890  1.1645  0.0572
  872MPD2     C12843   1.937   3.643  13.525  0.1809  0.3128  0.3336
  872MPD2    C112844   1.994   3.686  13.646  0.1687 -0.0523 -0.7115
  872MPD2    C212845   1.918   3.685  13.762 -0.4329  0.2087 -0.7785
  872MPD2    C312846   1.782   3.650  13.761  1.1034 -0.7149 -0.5200
  872MPD2    C412847   1.732   3.610  13.640 -0.4819  0.0325 -0.2803
  872MPD2    C512848   1.806   3.605  13.524  0.1556 -0.7275 -0.0643
  872MPD2     H12849   1.969   3.723  13.849 -1.1124 -3.1955  1.0870
  872MPD2    H112850   1.627   3.598  13.616 -0.3626 -0.7737 -0.3986
  872MPD2    H212851   1.986   3.634  13.429  0.7029 -3.2763  0.9418
  872MPD2    H312852   1.759   3.579  13.430  0.1411  0.4830 -0.3948
  872MPD2     N12853   1.697   3.645  13.877 -0.0906  0.7906 -0.1790
  872MPD2    H512854   1.608   3.596  13.867  0.3107 -0.2337  1.2961
  872MPD2    N112855   2.128   3.732  13.658  0.4340 -0.0774  0.4254
  872MPD2    H712856   2.164   3.757  13.750 -1.6385  1.4190  0.8104
  873MPD2     C12857   3.357   4.272   0.790 -0.7861  0.9738 -0.1991
  873MPD2    C112858   3.460   4.188   0.816 -0.3011 -0.3010 -0.0162
  873MPD2    C212859   3.480   4.085   0.720  0.0158  0.5964 -0.6144
  873MPD2    C312860   3.402   4.076   0.606  0.0397  0.1892 -0.1092
  873MPD2    C412861   3.296   4.163   0.585 -0.6217 -0.1234 -0.5883
  873MPD2    C512862   3.280   4.262   0.675 -0.2697 -0.0734  0.4049
  873MPD2     H12863   3.569   4.023   0.729 -0.0232  0.7707  0.9444
  873MPD2    H112864   3.243   4.167   0.490 -1.9400 -1.4564  0.1007
  873MPD2    H212865   3.331   4.355   0.854  1.3184  1.6201 -0.2013
  873MPD2    H312866   3.198   4.331   0.660 -0.7971 -1.6671 -3.7699
  873MPD2     N12867   3.403   3.970   0.511  0.4667  0.1767 -0.1622
  873MPD2    H512868   3.320   3.965   0.453 -2.2697  0.7735  3.7019
  873MPD2    N112869   3.532   4.194   0.940 -0.3411 -0.0990 -0.9554
  873MPD2    H712870   3.515   4.270   1.004  1.4332 -1.3221  0.9434
  874MPD2     C12871   3.525   4.386  16.281  0.6505  0.2955 -0.0372
  874MPD2    C112872   3.575   4.312  16.387 -0.0837  0.3672  0.1785
  874MPD2    C212873   3.690   4.364  16.450  0.3897 -0.1704  0.8262
  874MPD2    C312874   3.759   4.475  16.407 -0.6390  0.1688  0.6508
  874MPD2    C412875   3.707   4.537  16.297  0.2303 -0.2609  0.5067
  874MPD2    C512876   3.593   4.489  16.231 -0.0454  0.3164  0.8811
  874MPD2     H12877   3.739   4.310  16.530 -0.2816  1.7539  2.5261
  874MPD2    H112878   3.760   4.616  16.246 -0.8964 -0.2444 -0.6359
  874MPD2    H212879   3.440   4.342  16.230  0.6392  2.1201 -1.5774
  874MPD2    H312880   3.564   4.529  16.134 -0.0684 -0.1941  0.6780
  874MPD2     N12881   3.879   4.508  16.472 -0.1211  0.1312 -0.3015
  874MPD2    H512882   3.926   4.441  16.533 -0.7699 -2.9126 -3.1596
  874MPD2    N112883   3.507   4.195  16.441 -0.0139 -0.6621 -0.5163
  874MPD2    H712884   3.424   4.165  16.390 -0.2154  0.5196 -0.8833
  875MPD2     C12885   0.269   2.210  14.891 -0.0918 -0.3886  0.4164
  875MPD2    C112886   0.169   2.306  14.860  0.1881  0.2694  0.4720
  875MPD2    C212887   0.128   2.380  14.966 -0.6528  0.3564  0.2092
  875MPD2    C312888   0.176   2.355  15.095  0.4981  0.0610  0.2095
  875MPD2    C412889   0.273   2.260  15.125  0.3900  0.2475  0.2169
  875MPD2    C512890   0.315   2.191  15.018 -0.0144  0.1391  0.9875
  875MPD2     H12891   0.053   2.457  14.956 -0.6196  0.5054  1.1205
  875MPD2    H112892   0.319   2.253  15.223  1.9493 -3.8135 -0.8262
  875MPD2    H212893   0.317   2.156  14.811  1.5093  1.8050 -0.1150
  875MPD2    H312894   0.395   2.118  15.031  1.0451  1.2689  0.7520
  875MPD2     N12895   0.100   2.428  15.194  0.0851  0.2500  0.0734
  875MPD2    H512896   0.025   2.489  15.163  0.7852  0.4722 -1.1711
  875MPD2    N112897   0.106   2.333  14.737  0.1248 -0.3834 -0.7129
  875MPD2    H712898   0.037   2.407  14.743  1.0851  0.5733 -1.3282
  876MPD2     C12899   3.927   3.742  16.287 -0.1906 -0.3220 -0.4390
  876MPD2    C112900   3.899   3.683  16.164 -0.6081 -0.6929  0.4609
  876MPD2    C212901   3.812   3.572  16.159  0.5003 -0.0618  0.0270
  876MPD2    C312902   3.756   3.520  16.273 -0.1357 -0.0468  0.2451
  876MPD2    C412903   3.789   3.580  16.391 -1.1137  0.8364  0.3684
  876MPD2    C512904   3.878   3.680  16.396  0.1921 -0.1240 -0.1329
  876MPD2     H12905   3.786   3.524  16.066 -1.6199  0.7667  0.2014
  876MPD2    H112906   3.760   3.547  16.491 -3.5527  1.5762 -0.0979
  876MPD2    H212907   3.989   3.829  16.305 -1.3768  0.3198  0.5795
  876MPD2    H312908   3.896   3.729  16.492 -0.3461  0.3301 -0.2634
  876MPD2     N12909   3.674   3.402  16.266  0.1285  0.1543  0.8751
  876MPD2    H512910   3.668   3.358  16.175 -0.3775 -1.0388  1.4759
  876MPD2    N112911   3.947   3.750  16.051  0.7568 -0.0789 -0.0801
  876MPD2    H712912   3.990   3.841  16.067  2.5318 -1.1348  1.1821
  877MPD2     C12913   4.071   4.412  15.686 -0.2985  0.7621 -0.5525
  877MPD2    C112914   4.008   4.315  15.609 -0.4043  1.1965  0.2284
  877MPD2    C212915   3.957   4.346  15.486  0.7044 -0.1567 -0.2742
  877MPD2    C312916   3.963   4.479  15.437 -0.5252 -0.0251  0.3036
  877MPD2    C412917   4.012   4.579  15.521  0.1533 -0.3937  0.4924
  877MPD2    C512918   4.061   4.543  15.643 -0.6068  0.0203  0.4821
  877MPD2     H12919   3.926   4.267  15.418 -2.7949 -0.2308  1.3705
  877MPD2    H112920   4.010   4.685  15.499  1.1857 -0.6806 -0.9590
  877MPD2    H212921   4.137   4.390  15.769 -1.7576  0.9413  0.6582
  877MPD2    H312922   4.101   4.626  15.700  0.8537 -0.9277  0.8261
  877MPD2     N12923   3.934   4.517  15.303 -0.0462 -0.2655  0.2150
  877MPD2    H512924   3.985   4.594  15.261 -0.4261 -0.8403 -1.2940
  877MPD2    N112925   4.023   4.173  15.627 -0.4355 -0.0035 -0.0293
  877MPD2    H712926   3.980   4.117  15.554 -0.7033 -0.1163  0.2130
  878MPD2     C12927   3.277   2.825  13.695 -0.7415 -0.0187 -0.1280
  878MPD2    C112928   3.299   2.959  13.713 -0.1676 -1.0445 -0.2094
  878MPD2    C212929   3.226   3.025  13.809  0.2655  0.3385  0.1283
  878MPD2    C312930   3.137   2.953  13.888 -0.1968  0.8092  0.0472
  878MPD2    C412931   3.115   2.817  13.865  0.1164  0.0693  0.2653
  878MPD2    C512932   3.185   2.759  13.769 -0.8000  0.3612  0.3539
  878MPD2     H12933   3.235   3.131  13.831  0.2874  0.3729 -0.0484
  878MPD2    H112934   3.035   2.759  13.910  1.0002 -0.3055  1.3481
  878MPD2    H212935   3.320   2.765  13.615 -0.1268 -1.3147  1.1761
  878MPD2    H312936   3.153   2.656  13.758  1.1373 -0.2364  0.3100
  878MPD2     N12937   3.057   3.025  13.981  0.7823 -0.2128  0.4565
  878MPD2    H512938   3.090   3.118  14.004 -0.7006  0.5902 -0.6440
  878MPD2    N112939   3.389   3.016  13.622  0.2663  0.3730  0.0520
  878MPD2    H712940   3.424   2.944  13.560 -0.6059  1.4739 -1.7176
  879MPD2     C12941   3.498   4.043  17.409  0.0429 -0.1102  0.3031
  879MPD2    C112942   3.556   4.097  17.299 -0.1924 -0.0788  0.2212
  879MPD2    C212943   3.515   4.059  17.174  0.1400 -0.0478 -0.6916
  879MPD2    C312944   3.399   3.982  17.159  0.1003  0.2221 -0.9231
  879MPD2    C412945   3.349   3.925  17.269 -0.1002 -0.1078 -0.1385
  879MPD2    C512946   3.401   3.956  17.398  0.0461 -1.1818  1.0936
  879MPD2     H12947   3.557   4.098  17.082 -1.3011 -1.6969 -2.0565
  879MPD2    H112948   3.275   3.846  17.270  1.0676 -1.1870  0.0760
  879MPD2    H212949   3.532   4.061  17.510 -0.5933  0.6656  0.3805
  879MPD2    H312950   3.362   3.917  17.491  0.8203 -0.3972  1.7527
  879MPD2     N12951   3.325   3.961  17.047  0.2025  0.9239  0.2103
  879MPD2    H512952   3.250   3.893  17.052 -0.1290  1.2875  0.1941
  879MPD2    N112953   3.660   4.192  17.319  0.7349 -0.2931 -0.1409
  879MPD2    H712954   3.670   4.224  17.415  0.9704  1.7896 -0.8503
  880MPD2     C12955   4.577   1.256   0.065 -0.5021 -0.0388  0.1805
  880MPD2    C112956   4.639   1.350   0.147 -0.2095  0.3351 -0.1175
  880MPD2    C212957   0.006   1.319   0.227  0.0804  0.1920 -0.4814
  880MPD2    C312958   0.067   1.199   0.221  0.2828  0.1468  0.0266
  880MPD2    C412959   0.008   1.101   0.137 -0.0016 -0.0272 -0.4819
  880MPD2    C512960   4.635   1.131   0.062 -0.1340 -0.0713  0.3011
  880MPD2     H12961   0.043   1.394   0.296  1.7276  1.1267 -2.3696
  880MPD2    H112962   0.063   1.010   0.119  1.1455  0.4430  0.6535
  880MPD2    H212963   4.502   1.280  17.758 -0.2888 -0.5470 -0.2002
  880MPD2    H312964   4.594   1.050   0.003  0.4128 -0.7226  0.8086
  880MPD2     N12965   0.191   1.183   0.293 -0.3940  0.5190 -0.0224
  880MPD2    H512966   0.215   1.257   0.358  0.1370  0.9889 -0.7408
  880MPD2    N112967   4.592   1.484   0.151 -1.1033  0.6159 -0.0175
  880MPD2    H712968   4.658   1.547   0.195  1.3418 -0.9704 -1.3884
  881MPD2     C12969   0.368   2.240  17.623 -0.4525  0.6522 -0.0051
  881MPD2    C112970   0.358   2.104  17.584 -0.0362  0.0870  0.4432
  881MPD2    C212971   0.259   2.026  17.643  0.5638  0.1182 -0.7330
  881MPD2    C312972   0.179   2.081  17.743  0.5076  0.4850 -0.1425
  881MPD2    C412973   0.192   2.213   0.008 -0.7672  0.2339 -0.2386
  881MPD2    C512974   0.284   2.290  17.713  0.1751  0.4429  0.9404
  881MPD2     H12975   0.240   1.930  17.597 -0.6639 -0.4309  0.9131
  881MPD2    H112976   0.144   2.264   0.091 -0.6952 -1.6940  0.9930
  881MPD2    H212977   0.431   2.302  17.561  0.1923  3.0995  3.1029
  881MPD2    H312978   0.296   2.393  17.745  1.0580  0.6983 -0.2096
  881MPD2     N12979   0.066   2.010   0.024 -0.6419  0.0656 -0.3018
  881MPD2    H512980   4.731   2.060   0.067  1.0064  2.8165 -0.5035
  881MPD2    N112981   0.429   2.064  17.465 -0.3110  0.2260 -0.2157
  881MPD2    H712982   0.482   2.134  17.414  0.1669 -1.3299 -1.8544
  882MPD2     C12983   3.564   4.494  14.439  0.0228  0.1643 -0.2659
  882MPD2    C112984   3.565   4.426  14.563 -0.0986  0.0726  0.2445
  882MPD2    C212985   3.468   4.327  14.581  0.2078 -0.2449  0.7304
  882MPD2    C312986   3.381   4.298  14.480 -0.6518  0.0979  0.0271
  882MPD2    C412987   3.375   4.371  14.366  0.8135 -0.6747  0.5783
  882MPD2    C512988   3.476   4.465  14.335 -0.4998 -0.2226  0.2645
  882MPD2     H12989   3.458   4.278  14.676  1.8698 -1.9660  0.0154
  882MPD2    H112990   3.296   4.356  14.294  0.6116 -0.8497  0.8350
  882MPD2    H212991   3.638   4.572  14.427  0.3790 -0.3145 -1.1696
  882MPD2    H312992   3.482   4.510  14.237  1.1168  0.0853  0.4990
  882MPD2     N12993   3.275   4.200  14.494 -0.0486  1.2084  0.4263
  882MPD2    H512994   3.209   4.194  14.418  1.7504  1.6167 -1.1712
  882MPD2    N112995   3.656   4.471  14.664 -0.1435 -0.0489 -0.4701
  882MPD2    H712996   3.715   4.550  14.639 -1.6648  0.9559 -0.8491
  883MPD2     C12997   0.996   3.448  16.527  0.4496 -0.2129  0.4208
  883MPD2    C112998   1.068   3.524  16.442 -0.1138 -0.0438  0.1637
  883MPD2    C212999   1.200   3.546  16.472 -0.5496  0.5726 -0.6740
  883MPD2    C313000   1.260   3.471  16.575  0.2230 -0.2405 -0.3331
  883MPD2    C413001   1.191   3.389  16.661  0.2542 -0.8370 -0.7390
  883MPD2    C513002   1.057   3.383  16.634 -0.3023 -0.1717 -0.1898
  883MPD2     H13003   1.262   3.607  16.408 -1.8604  4.0379  1.3858
  883MPD2    H113004   1.234   3.320  16.733 -0.3081  0.9213  1.2658
  883MPD2    H213005   0.888   3.451  16.528  0.4781  0.5899  0.5978
  883MPD2    H313006   0.995   3.318  16.694 -0.6613  0.5996  0.2808
  883MPD2     N13007   1.401   3.487  16.586  0.2900  0.0236 -0.1466
  883MPD2    H513008   1.444   3.535  16.508 -0.5521  1.8669  0.5232
  883MPD2    N113009   1.015   3.614  16.343  1.1152 -0.0613  0.3057
  883MPD2    H713010   1.071   3.685  16.297 -0.4738  0.8032 -0.2655
  884MPD2     C13011   2.640   4.493  15.022  0.2425  0.6229 -0.2616
  884MPD2    C113012   2.602   4.615  14.975 -0.7529 -0.8377 -0.3337
  884MPD2    C213013   2.471   4.648  14.987 -0.6623  1.0705 -0.1998
  884MPD2    C313014   2.379   4.562  15.041 -0.5501 -0.1551 -0.0264
  884MPD2    C413015   2.419   4.445  15.087 -0.6237 -0.4829 -0.0555
  884MPD2    C513016   2.548   4.409  15.075 -0.6783 -0.2866  0.2783
  884MPD2     H13017   2.439   0.003  14.953  0.1059  1.9420  1.6220
  884MPD2    H113018   2.347   4.387  15.144  1.5846 -0.7120  2.4870
  884MPD2    H213019   2.743   4.459  15.018  0.7177  2.0348 -0.2477
  884MPD2    H313020   2.586   4.313  15.108  1.1249  0.0736 -0.7713
  884MPD2     N13021   2.248   4.619  15.051 -0.2259 -0.1426  0.1014
  884MPD2    H513022   2.235   4.718  15.034 -2.9547 -0.4752  0.2135
  884MPD2    N113023   2.698   4.706  14.918 -0.1301  0.6620  0.2697
  884MPD2    H713024   2.659   0.055  14.896  3.8487  1.8682 -1.7127
  885MPD2     C13025   0.577   0.617   0.081 -0.6365 -0.4014 -0.0403
  885MPD2    C113026   0.693   0.557   0.062  0.1971 -0.5144 -0.3802
  885MPD2    C213027   0.723   0.501  17.704  0.1739  0.1072 -0.5781
  885MPD2    C313028   0.637   0.529  17.596  0.3148 -0.3181 -0.3040
  885MPD2    C413029   0.529   0.605  17.620  0.5066 -0.1454 -0.0788
  885MPD2    C513030   0.496   0.644  17.744 -0.3522 -0.2830  0.2994
  885MPD2     H13031   0.805   0.431  17.689  0.4958  0.6887 -1.5141
  885MPD2    H113032   0.460   0.642  17.545 -1.2599 -0.2984  1.4458
  885MPD2    H213033   0.554   0.661   0.178  1.3872 -0.8065  0.6169
  885MPD2    H313034   0.403   0.698  17.752  0.4834  1.0158  1.1734
  885MPD2     N13035   0.664   0.480  17.470  0.2277  0.0299 -0.1398
  885MPD2    H513036   0.590   0.506  17.405 -0.6236 -0.7215  0.5352
  885MPD2    N113037   0.763   0.545   0.183 -0.0195 -0.3038  0.4514
  885MPD2    H713038   0.729   0.587   0.269  1.5168  0.6134  0.6199
  886MPD2     C13039   2.069   2.980  14.933 -0.0842  1.1522 -0.0145
  886MPD2    C113040   2.175   3.036  15.000  0.5256 -0.5300 -0.0218
  886MPD2    C213041   2.229   3.159  14.968 -0.2963  0.3021  0.0944
  886MPD2    C313042   2.160   3.228  14.869  0.0933 -0.1837 -0.0026
  886MPD2    C413043   2.050   3.177  14.813  0.1111 -0.0159 -0.4220
  886MPD2    C513044   2.001   3.051  14.844 -0.1028 -0.0973 -0.4488
  886MPD2     H13045   2.318   3.193  15.018 -0.6901  3.3758 -1.2862
  886MPD2    H113046   1.981   3.227  14.747  1.2157  2.6065  0.4127
  886MPD2    H213047   2.016   2.886  14.946  1.0328  0.7284  1.5248
  886MPD2    H313048   1.919   3.001  14.793 -0.2651  1.7897 -2.0444
  886MPD2     N13049   2.205   3.353  14.816 -0.8178 -0.1109  0.1007
  886MPD2    H513050   2.137   3.410  14.767 -0.2381  1.0073  0.5905
  886MPD2    N113051   2.238   2.961  15.104 -0.2061 -0.0526  0.1153
  886MPD2    H713052   2.315   3.014  15.144 -1.0816  1.1023  0.2838
  887MPD2     C13053   2.868   2.804  15.482  0.3510 -0.6112 -0.1502
  887MPD2    C113054   2.786   2.897  15.420  0.2325 -0.3274 -0.4761
  887MPD2    C213055   2.823   3.036  15.413 -0.0158 -0.8768 -0.3463
  887MPD2    C313056   2.933   3.084  15.479  0.9518 -0.1597  0.4017
  887MPD2    C413057   3.014   2.989  15.540 -0.3236  0.2283  0.4569
  887MPD2    C513058   2.987   2.855  15.545 -0.4833 -0.2027 -0.1266
  887MPD2     H13059   2.754   3.105  15.366 -0.6833 -1.4230 -0.1636
  887MPD2    H113060   3.104   3.019  15.592  0.1628  0.3848 -0.4778
  887MPD2    H213061   2.857   2.697  15.471 -0.5736 -0.0217 -5.1056
  887MPD2    H313062   3.052   2.778  15.588  0.8382  0.9212 -0.1209
  887MPD2     N13063   2.957   3.220  15.481 -0.2840  0.2466 -0.6145
  887MPD2    H513064   2.900   3.281  15.424 -0.2609  1.1989  0.3864
  887MPD2    N113065   2.655   2.864  15.371  0.0818 -0.2084 -0.3831
  887MPD2    H713066   2.588   2.940  15.369  2.1083  1.5509 -1.0874
  888MPD2     C13067   4.377   3.327  14.769  0.5269  0.4217 -0.0868
  888MPD2    C113068   4.401   3.348  14.907 -0.6149 -0.5254 -0.6890
  888MPD2    C213069   4.488   3.452  14.944 -0.2264  0.2278  0.3804
  888MPD2    C313070   4.557   3.531  14.859  0.1391  0.3922  0.3325
  888MPD2    C413071   4.526   3.520  14.721 -0.0078  0.4433 -0.4678
  888MPD2    C513072   4.433   3.423  14.684 -0.3204 -0.4196  0.0690
  888MPD2     H13073   4.504   3.473  15.049 -2.1210  0.8235  0.5534
  888MPD2    H113074   4.565   3.584  14.643  0.7658 -0.7132 -1.0250
  888MPD2    H213075   4.305   3.262  14.720  0.5845  0.8832 -0.7891
  888MPD2    H313076   4.395   3.412  14.583  1.1394 -0.4371 -0.4784
  888MPD2     N13077   4.645   3.636  14.904  0.1943  0.1516  0.5422
  888MPD2    H513078   4.638   3.669  15.000  3.0227  0.1185  0.7491
  888MPD2    N113079   4.342   3.267  15.001 -0.0405  0.1856  0.1740
  888MPD2    H713080   4.388   3.259  15.091 -1.9713 -0.6898  1.0852
  889MPD2     C13081   3.689   3.120  12.925 -0.7328  0.7258  0.1336
  889MPD2    C113082   3.700   3.021  13.018  0.3365 -0.5358  0.3919
  889MPD2    C213083   3.754   3.061  13.140 -0.0578 -0.3993  0.0716
  889MPD2    C313084   3.742   3.190  13.183 -0.1720 -0.0321  0.3380
  889MPD2    C413085   3.682   3.282  13.100 -0.1603 -0.6629 -0.1725
  889MPD2    C513086   3.663   3.247  12.969 -0.1954  0.2710 -0.0637
  889MPD2     H13087   3.790   2.981  13.204  0.3210 -1.0249 -0.9299
  889MPD2    H113088   3.654   3.383  13.125  1.6076  0.4773 -2.7399
  889MPD2    H213089   3.664   3.101  12.822  0.1396  2.1012 -0.3299
  889MPD2    H313090   3.605   3.314  12.906 -1.0188  0.1472  0.5701
  889MPD2     N13091   3.786   3.224  13.313  0.2704 -0.0694 -0.2676
  889MPD2    H513092   3.840   3.151  13.358  1.2493  0.5246 -0.4688
  889MPD2    N113093   3.712   2.886  12.987  0.5709 -0.6162  0.5005
  889MPD2    H713094   3.741   2.822  13.061  1.4055 -1.4745 -0.5610
  890MPD2     C13095   3.208   4.584  14.739  0.5819  0.2537 -0.5610
  890MPD2    C113096   3.301   4.683  14.772  0.2894 -0.2440 -0.3437
  890MPD2    C213097   3.369   4.675  14.888  0.1901  0.2219 -0.2423
  890MPD2    C313098   3.361   4.555  14.968 -0.1382 -0.4019 -0.3274
  890MPD2    C413099   3.269   4.458  14.929 -0.1338 -0.2041 -0.1888
  890MPD2    C513100   3.186   4.478  14.820 -0.1584  0.3739 -0.7882
  890MPD2     H13101   3.439   0.007  14.926  1.3588 -0.9696 -0.0382
  890MPD2    H113102   3.249   4.369  14.988  0.2635 -0.4160 -0.3727
  890MPD2    H213103   3.154   4.607  14.648 -0.9860 -0.8906  0.0688
  890MPD2    H313104   3.115   4.396  14.811  1.3826 -1.2862  2.0931
  890MPD2     N13105   3.443   4.546  15.079  0.2855  0.2019  0.3630
  890MPD2    H513106   3.515   4.615  15.093 -1.4330  1.7846  1.2822
  890MPD2    N113107   3.321   0.050  14.686 -0.2424 -0.1128 -0.6478
  890MPD2    H713108   3.252   0.062  14.612 -2.2363 -0.6872  1.1453
  891MPD2     C13109   1.916   2.529  16.632  0.4269  0.1467  1.1526
  891MPD2    C113110   1.838   2.550  16.742  0.2674 -0.4327  0.3288
  891MPD2    C213111   1.833   2.454  16.840 -0.6051 -0.3916 -0.0427
  891MPD2    C313112   1.904   2.342  16.839 -0.7272 -0.7124  1.1581
  891MPD2    C413113   1.994   2.328  16.735 -0.7344 -0.0239 -0.1795
  891MPD2    C513114   1.999   2.416  16.635 -0.0166  0.1730 -0.1024
  891MPD2     H13115   1.769   2.476  16.925 -1.4163 -1.0054 -0.4879
  891MPD2    H113116   2.065   2.246  16.740 -1.0363 -0.3797 -1.6978
  891MPD2    H213117   1.929   2.597  16.549 -0.3232 -0.9505  0.1528
  891MPD2    H313118   2.064   2.395  16.552 -0.1523 -0.6857  0.0085
  891MPD2     N13119   1.901   2.258  16.950 -0.6840  0.0442  0.2195
  891MPD2    H513120   1.822   2.274  17.013  0.7835 -0.3796  2.1769
  891MPD2    N113121   1.772   2.675  16.745  0.9481  0.6265 -0.3121
  891MPD2    H713122   1.776   2.734  16.662  0.7555 -0.2833 -0.9731
  892MPD2     C13123   2.525   4.525  14.626  0.2928  0.6079 -0.1019
  892MPD2    C113124   2.477   4.405  14.592 -0.2972 -0.5324  0.0953
  892MPD2    C213125   2.570   4.306  14.577 -0.5092 -0.6079  0.0293
  892MPD2    C313126   2.704   4.325  14.575  0.5727 -0.6443 -0.2927
  892MPD2    C413127   2.749   4.450  14.606 -0.3930 -0.4068  0.1338
  892MPD2    C513128   2.659   4.552  14.631  0.1681  0.4989  0.5256
  892MPD2     H13129   2.529   4.206  14.570  0.1854 -0.9847  1.2695
  892MPD2    H113130   2.854   4.469  14.623 -0.1886 -2.0641  0.7831
  892MPD2    H213131   2.449   4.592  14.666  0.4345  1.4077 -1.1601
  892MPD2    H313132   2.705   4.647  14.658 -0.8947  0.9886  0.5873
  892MPD2     N13133   2.801   4.224  14.561 -0.2596  0.1984 -0.3254
  892MPD2    H513134   2.893   4.264  14.573  0.4978 -2.4074  2.5611
  892MPD2    N113135   2.341   4.384  14.602 -0.3374  0.5359  0.8870
  892MPD2    H713136   2.285   4.467  14.620 -0.6664  0.0712  1.9912
  893MPD2     C13137   3.813   2.812   1.486  0.7487 -0.7328  0.3425
  893MPD2    C113138   3.844   2.785   1.359  0.0269 -0.6243  0.3100
  893MPD2    C213139   3.745   2.744   1.279 -0.0560  0.0151 -0.6492
  893MPD2    C313140   3.615   2.731   1.321  0.4001  0.3643 -0.1444
  893MPD2    C413141   3.586   2.757   1.450 -0.0258  0.5733  0.6438
  893MPD2    C513142   3.685   2.806   1.531 -0.2921 -1.1324 -0.3764
  893MPD2     H13143   3.764   2.700   1.183  1.6681 -0.7087  0.0216
  893MPD2    H113144   3.488   2.758   1.497  1.5613  1.0145  3.9933
  893MPD2    H213145   3.891   2.853   1.548 -0.6204  0.1940  1.4607
  893MPD2    H313146   3.681   2.844   1.632 -1.9634 -0.7409 -0.5848
  893MPD2     N13147   3.507   2.685   1.240  0.1414  0.4900  0.5738
  893MPD2    H513148   3.417   2.659   1.277 -0.2618 -1.4892 -1.8326
  893MPD2    N113149   3.980   2.795   1.323 -0.4194 -0.4436 -0.1712
  893MPD2    H713150   4.040   2.842   1.391 -3.2323  0.3486  1.7599
  894MPD2     C13151   2.530   4.413   1.167 -0.0464 -0.0653 -0.6102
  894MPD2    C113152   2.441   4.516   1.176 -0.6542 -0.3935 -0.4474
  894MPD2    C213153   2.502   4.640   1.163  0.2720  0.5934  0.5419
  894MPD2    C313154   2.629   4.663   1.124 -1.1013  0.4604  0.0599
  894MPD2    C413155   2.710   4.555   1.111 -0.7796 -0.2642 -0.3492
  894MPD2    C513156   2.662   4.433   1.136 -0.5943  0.4093  0.7733
  894MPD2     H13157   2.445   4.730   1.185  0.4872  0.3155  2.2587
  894MPD2    H113158   2.814   4.563   1.082 -0.9242 -2.1025 -1.3779
  894MPD2    H213159   2.497   4.310   1.165 -1.7211  0.4591  0.6582
  894MPD2    H313160   2.730   4.349   1.127 -2.0378 -0.8512  1.4962
  894MPD2     N13161   2.672   0.055   1.119 -0.5887 -0.0388  0.8606
  894MPD2    H513162   2.604   0.126   1.146  0.0154 -0.6215  3.8466
  894MPD2    N113163   2.305   4.515   1.217  0.1087  0.3740 -0.2661
  894MPD2    H713164   2.259   4.604   1.232 -1.3306 -0.5947  1.1347
  895MPD2     C13165   2.185   2.661  13.827  0.4673  0.2381  0.0342
  895MPD2    C113166   2.095   2.667  13.715  0.8166  0.3288  0.1981
  895MPD2    C213167   2.062   2.551  13.652  0.2373  0.5736 -0.8164
  895MPD2    C313168   2.137   2.437  13.667  0.2168 -0.0584  0.5180
  895MPD2    C413169   2.232   2.426  13.770 -0.4825  0.3049 -0.0205
  895MPD2    C513170   2.248   2.537  13.850 -0.1443 -0.6313 -0.0613
  895MPD2     H13171   1.984   2.547  13.577  0.2610 -2.4596 -0.6925
  895MPD2    H113172   2.268   2.327  13.798 -0.1157  0.7393  1.0473
  895MPD2    H213173   2.211   2.747  13.889  1.4946  0.1999 -0.3435
  895MPD2    H313174   2.308   2.525  13.939 -2.3462  0.3719  1.5781
  895MPD2     N13175   2.120   2.324  13.585 -0.0223 -0.1613  0.4965
  895MPD2    H513176   2.167   2.241  13.619  1.0673 -0.7356 -2.3784
  895MPD2    N113177   2.033   2.786  13.670 -0.2831 -0.1618  0.7839
  895MPD2    H713178   1.958   2.769  13.604  0.1436  0.2940  0.1844
  896MPD2     C13179   4.264   1.236   1.547 -0.0501  0.2468 -0.2408
  896MPD2    C113180   4.221   1.166   1.436 -0.6454  0.4850  0.2381
  896MPD2    C213181   4.126   1.065   1.457  0.1665  0.3093 -0.1804
  896MPD2    C313182   4.076   1.043   1.584 -0.7351  0.2340  0.9647
  896MPD2    C413183   4.124   1.116   1.689  0.2136 -0.3275 -0.2310
  896MPD2    C513184   4.215   1.207   1.668 -0.5097  0.0849 -0.1098
  896MPD2     H13185   4.096   1.010   1.368  1.3017 -1.9685  0.8312
  896MPD2    H113186   4.093   1.107   1.792  3.7338  0.7725  0.9290
  896MPD2    H213187   4.341   1.312   1.541 -0.2121  0.3055 -1.6534
  896MPD2    H313188   4.247   1.259   1.757  2.6566 -1.9081 -0.0858
  896MPD2     N13189   3.977   0.937   1.602  0.2043 -0.1062  0.7585
  896MPD2    H513190   3.962   0.863   1.533  3.7515 -0.2965  0.2078
  896MPD2    N113191   4.280   1.199   1.311  0.6730 -0.7670  0.2726
  896MPD2    H713192   4.354   1.269   1.307 -1.6091  1.7270  1.3691
  897MPD2     C13193   4.739   2.354  10.503  0.2309 -0.5101 -0.6584
  897MPD2    C113194   4.637   2.442  10.497 -0.2938  0.6332  0.6771
  897MPD2    C213195   4.547   2.458  10.600  0.0879 -0.5369 -0.0387
  897MPD2    C313196   4.535   2.354  10.692 -0.1496  0.7969  0.0360
  897MPD2    C413197   4.637   2.257  10.699 -0.1389 -0.5638  0.6466
  897MPD2    C513198   4.736   2.254  10.600  0.6465 -0.6286 -0.0044
  897MPD2     H13199   4.468   2.529  10.580 -0.5521 -1.8224 -2.1163
  897MPD2    H113200   4.643   2.193  10.785 -0.8404 -0.6231  0.6499
  897MPD2    H213201   0.082   2.345  10.436 -0.1680 -0.7674 -1.1368
  897MPD2    H313202   0.078   2.186  10.593  1.6038  0.4661  0.9525
  897MPD2     N13203   4.422   2.360  10.772  0.5238 -0.0981 -0.0804
  897MPD2    H513204   4.363   2.443  10.770 -1.0691 -1.1838  1.3501
  897MPD2    N113205   4.643   2.534  10.387  0.4325  0.6442 -0.0444
  897MPD2    H713206   4.725   2.530  10.328  0.8716 -2.0669  0.7634
  898MPD2     C13207   2.007   3.353  17.752  0.0680  0.4751 -0.4234
  898MPD2    C113208   2.142   3.331  17.741  0.1356 -0.2204  0.5001
  898MPD2    C213209   2.211   3.380  17.637  0.3535 -0.5861 -0.0374
  898MPD2    C313210   2.145   3.439  17.530 -0.7740 -1.0659  0.4206
  898MPD2    C413211   2.002   3.451  17.536 -0.6458  0.2142 -0.6166
  898MPD2    C513212   1.936   3.408  17.646  0.3491 -0.0623 -0.3500
  898MPD2     H13213   2.319   3.376  17.635  0.2554 -3.4093  1.2666
  898MPD2    H113214   1.942   3.491  17.455  0.0431  2.2865 -0.1008
  898MPD2    H213215   1.943   3.316   0.064  0.4002 -1.0569 -0.8749
  898MPD2    H313216   1.829   3.424  17.655  0.4458  0.9963 -1.1029
  898MPD2     N13217   2.216   3.506  17.435  0.4218 -0.0752 -0.7519
  898MPD2    H513218   2.318   3.498  17.441  0.4114 -0.0898 -0.5796
  898MPD2    N113219   2.220   3.261   0.074 -0.7969 -0.1507 -0.1274
  898MPD2    H713220   2.320   3.243   0.068 -1.5730 -5.5404  3.5699
  899MPD2     C13221   3.007   4.014  17.473 -0.3041  0.3783 -0.1424
  899MPD2    C113222   3.069   4.138  17.478  0.3617 -0.9840  0.6369
  899MPD2    C213223   3.055   4.219  17.593  0.0432  0.4700  0.3742
  899MPD2    C313224   2.975   4.169  17.698 -1.1456  0.5510 -0.3345
  899MPD2    C413225   2.919   4.042  17.689  0.1653  0.0660 -0.1189
  899MPD2    C513226   2.938   3.965  17.577 -0.1890  0.2993 -0.4479
  899MPD2     H13227   3.100   4.318  17.600  2.1751 -0.4905  0.0688
  899MPD2    H113228   2.874   3.997   0.010  0.2581  0.6240  0.2196
  899MPD2    H213229   3.003   3.961  17.378 -3.8197  2.0374 -0.9294
  899MPD2    H313230   2.895   3.866  17.564 -1.5171  0.7446  0.6056
  899MPD2     N13231   2.957   4.239   0.055  0.0395  1.1821  0.4697
  899MPD2    H513232   2.891   4.197   0.120  1.4778  0.9152  1.7664
  899MPD2    N113233   3.131   4.181  17.355 -0.0833 -0.3543  0.3807
  899MPD2    H713234   3.149   4.115  17.280  1.0176  0.5028 -0.0945
  900MPD2     C13235   2.496   0.606  12.449  0.0598 -0.7089  0.6437
  900MPD2    C113236   2.410   0.502  12.455 -0.5182  0.0245  0.2193
  900MPD2    C213237   2.316   0.475  12.351  0.8333  0.1172  0.3100
  900MPD2    C313238   2.310   0.566  12.243  0.3501  0.3190  0.5058
  900MPD2    C413239   2.395   0.676  12.247  0.4202  0.3268  0.0683
  900MPD2    C513240   2.481   0.700  12.354 -0.2831 -0.0476 -0.1581
  900MPD2     H13241   2.247   0.392  12.359  0.1933  0.5230 -0.9817
  900MPD2    H113242   2.379   0.754  12.173  2.9789  1.3097  0.5540
  900MPD2    H213243   2.561   0.631  12.532  3.4610 -2.4095 -1.5388
  900MPD2    H313244   2.545   0.788  12.347 -1.9205  1.1072 -0.5407
  900MPD2     N13245   2.211   0.545  12.141 -0.1538  0.5928 -0.0997
  900MPD2    H513246   2.138   0.478  12.160  1.4683 -1.2261 -0.2918
  900MPD2    N113247   2.428   0.412  12.566  0.0939  0.7123 -0.2647
  900MPD2    H713248   2.513   0.426  12.619 -1.0169  1.4644  1.3076
  901MPD2     C13249   2.270   4.247  13.180  0.2330 -0.5647  0.0346
  901MPD2    C113250   2.403   4.283  13.174  0.7089  0.5429  0.0863
  901MPD2    C213251   2.430   4.410  13.117  0.5050 -0.6214  0.4132
  901MPD2    C313252   2.331   4.491  13.071 -0.1722  0.1350 -0.6966
  901MPD2    C413253   2.196   4.453  13.077  0.4937 -0.1066  0.4462
  901MPD2    C513254   2.171   4.332  13.134 -0.1678  0.5635  0.0493
  901MPD2     H13255   2.531   4.447  13.104 -0.6151  1.8767 -1.2080
  901MPD2    H113256   2.104   4.508  13.056  1.7395  1.7575 -0.1599
  901MPD2    H213257   2.234   4.159  13.233  1.8876 -0.8170  0.7340
  901MPD2    H313258   2.070   4.294  13.146 -0.1072  0.5134  0.4058
  901MPD2     N13259   2.373   4.611  13.006 -0.2619  0.0943 -0.2878
  901MPD2    H513260   2.472   4.634  13.010 -0.0879 -0.7335  0.1591
  901MPD2    N113261   2.503   4.193  13.201  0.0688 -1.1459  0.0182
  901MPD2    H713262   2.474   4.096  13.209  0.3093 -1.2278 -0.1140
  902MPD2     C13263   1.325   3.516  12.754  0.0668 -0.4759 -0.1724
  902MPD2    C113264   1.435   3.562  12.824  0.0685  0.4384 -0.2481
  902MPD2    C213265   1.536   3.469  12.856 -0.2609 -0.6168 -0.2102
  902MPD2    C313266   1.520   3.334  12.826 -0.3110  0.1981  0.2742
  902MPD2    C413267   1.405   3.294  12.757 -0.3214 -0.6477 -0.1791
  902MPD2    C513268   1.310   3.385  12.718  1.0259 -0.4439  0.1786
  902MPD2     H13269   1.622   3.495  12.917 -1.1385  1.7238  0.0007
  902MPD2    H113270   1.396   3.188  12.738 -0.5935 -0.4168 -1.3343
  902MPD2    H213271   1.246   3.585  12.724  1.6174  0.9284 -1.0059
  902MPD2    H313272   1.230   3.353  12.653  0.4589 -0.4749  0.8966
  902MPD2     N13273   1.612   3.240  12.860 -0.5435 -0.2778 -0.4134
  902MPD2    H513274   1.601   3.145  12.828  3.6267 -0.8683 -0.1018
  902MPD2    N113275   1.437   3.696  12.859  0.4980  0.1324  0.2984
  902MPD2    H713276   1.351   3.747  12.843  0.6560 -0.2049 -1.6232
  903MPD2     C13277   2.077   2.834  12.446 -0.4553 -0.0118  0.0768
  903MPD2    C113278   2.022   2.934  12.520  0.3220  0.3523  0.1017
  903MPD2    C213279   1.896   2.984  12.494  0.6358 -0.0122 -0.4916
  903MPD2    C313280   1.825   2.940  12.388  0.0338  0.2604  0.6827
  903MPD2    C413281   1.879   2.836  12.316  0.0176 -0.3905  0.4264
  903MPD2    C513282   1.999   2.789  12.340 -0.2573  0.1596  0.6073
  903MPD2     H13283   1.844   3.058  12.553 -0.2174 -0.9942 -0.0095
  903MPD2    H113284   1.837   2.800  12.222 -3.9961 -0.6108  2.2934
  903MPD2    H213285   2.169   2.782  12.470  0.1769  1.8612  1.7132
  903MPD2    H313286   2.031   2.705  12.279 -0.7542  0.7479 -0.4737
  903MPD2     N13287   1.705   2.997  12.360  0.4357 -0.5292 -0.2807
  903MPD2    H513288   1.669   3.057  12.433 -0.8765  0.2513 -1.5813
  903MPD2    N113289   2.110   2.982  12.621 -0.0952 -0.6791 -0.0092
  903MPD2    H713290   2.206   2.949  12.612  1.3737  3.2865  0.8908
  904MPD2     C13291   2.118   1.951  13.838 -0.7938  0.7083 -0.3559
  904MPD2    C113292   2.095   2.056  13.928 -0.0232 -0.0753 -0.6840
  904MPD2    C213293   2.178   2.051  14.042  0.2818  0.5679  0.3843
  904MPD2    C313294   2.273   1.959  14.066 -0.1838 -0.5486 -0.3532
  904MPD2    C413295   2.295   1.859  13.970  1.2093  0.8253  0.4192
  904MPD2    C513296   2.219   1.862  13.859 -0.3754 -0.2244 -0.0629
  904MPD2     H13297   2.158   2.116  14.126  0.9090  3.0132 -1.3378
  904MPD2    H113298   2.365   1.777  13.978 -0.6638 -0.8967 -0.8772
  904MPD2    H213299   2.056   1.946  13.749 -1.8102  1.9293  0.2704
  904MPD2    H313300   2.231   1.778  13.791 -1.5577 -1.3870  1.1699
  904MPD2     N13301   2.341   1.960  14.193 -0.4555 -0.0078  0.1717
  904MPD2    H513302   2.311   2.033  14.258 -2.6210  0.2155 -1.0572
  904MPD2    N113303   1.990   2.147  13.908 -0.3087 -0.3027 -0.0282
  904MPD2    H713304   1.936   2.135  13.823 -1.5569 -0.0288  0.7318
  905MPD2     C13305   1.385   2.332  13.416  0.5634  0.1233 -0.4227
  905MPD2    C113306   1.515   2.332  13.455  0.7150  0.2358 -0.9078
  905MPD2    C213307   1.609   2.288  13.356  0.1050 -0.2862  0.0738
  905MPD2    C313308   1.578   2.244  13.232 -0.3923 -0.2073 -0.1720
  905MPD2    C413309   1.440   2.237  13.207 -0.1119 -0.2208 -0.2635
  905MPD2    C513310   1.345   2.287  13.294  0.1154  0.1867  0.9340
  905MPD2     H13311   1.714   2.306  13.378 -0.7517  2.5385  1.8798
  905MPD2    H113312   1.390   2.199  13.119 -0.3157  0.7108 -0.5531
  905MPD2    H213313   1.306   2.361  13.484  0.9985 -0.8080  0.4816
  905MPD2    H313314   1.240   2.297  13.270  0.5720  1.5307 -0.5007
  905MPD2     N13315   1.668   2.210  13.127  0.2221 -1.0281  0.2455
  905MPD2    H513316   1.623   2.205  13.036 -0.6702  2.1514  0.5234
  905MPD2    N113317   1.558   2.367  13.588 -0.3302 -0.5423 -0.0491
  905MPD2    H713318   1.484   2.390  13.654  0.3381  0.3283  0.3984
  906MPD2     C13319   3.409   3.101  10.793 -0.0531 -0.6364  0.2002
  906MPD2    C113320   3.350   2.998  10.718  0.3756  0.0084  0.5443
  906MPD2    C213321   3.300   2.883  10.784  0.6227  1.0476  0.3257
  906MPD2    C313322   3.324   2.866  10.920 -1.0364  0.2386  0.0548
  906MPD2    C413323   3.387   2.966  10.993 -0.2016  0.1594  0.1938
  906MPD2    C513324   3.421   3.089  10.928 -0.3286 -0.0786 -0.2738
  906MPD2     H13325   3.255   2.809  10.718 -1.4012  1.5858  1.1088
  906MPD2    H113326   3.402   2.966  11.101  1.9279 -0.9084 -0.0969
  906MPD2    H213327   3.438   3.198  10.754 -0.3479 -0.3334  0.7337
  906MPD2    H313328   3.469   3.158  10.995 -0.1198 -1.5052  1.0393
  906MPD2     N13329   3.285   2.740  10.978  0.1195  0.1831  0.2241
  906MPD2    H513330   3.222   2.694  10.913  1.7507  0.3627 -1.4890
  906MPD2    N113331   3.353   2.992  10.576  0.2522 -0.3049  0.1076
  906MPD2    H713332   3.336   2.904  10.528  1.2390 -0.9368  0.8983
  907MPD2     C13333   2.434   1.907  15.490 -0.0666  0.0458 -0.4282
  907MPD2    C113334   2.535   1.868  15.417 -0.2093  0.5874  0.1787
  907MPD2    C213335   2.649   1.833  15.475 -0.1881  0.2929 -0.2721
  907MPD2    C313336   2.662   1.842  15.612 -0.4753  0.1042  0.3447
  907MPD2    C413337   2.558   1.885  15.686 -0.2328  0.5587 -0.4379
  907MPD2    C513338   2.439   1.908  15.622 -0.3261  0.1122  0.4499
  907MPD2     H13339   2.733   1.807  15.411 -1.5536  1.3730 -2.5195
  907MPD2    H113340   2.567   1.922  15.788  2.3493  1.0940 -0.8395
  907MPD2    H213341   2.337   1.933  15.450  0.5018 -0.2688 -1.9868
  907MPD2    H313342   2.353   1.952  15.672 -1.5095 -2.1014  0.3856
  907MPD2     N13343   2.793   1.817  15.659  0.3345 -0.9737 -0.0339
  907MPD2    H513344   2.872   1.792  15.600 -0.1534 -1.3980 -0.5061
  907MPD2    N113345   2.524   1.847  15.275  0.2379  0.3420 -0.3253
  907MPD2    H713346   2.606   1.806  15.232  0.6067  1.2924 -0.5239
  908MPD2     C13347   0.297   2.320   9.716  0.3896  0.0543  0.1013
  908MPD2    C113348   0.201   2.260   9.790 -0.1990  0.0251 -0.4167
  908MPD2    C213349   0.102   2.343   9.843  0.6190  0.2086  0.4560
  908MPD2    C313350   0.104   2.481   9.838  0.3380 -0.0585  0.7613
  908MPD2    C413351   0.197   2.537   9.761  0.2612  0.1598  0.7026
  908MPD2    C513352   0.295   2.456   9.706  0.0605  0.2931  0.3411
  908MPD2     H13353   0.017   2.313   9.903 -1.0437  1.0484 -1.4635
  908MPD2    H113354   0.211   2.645   9.760  2.5510 -0.1296  1.1036
  908MPD2    H213355   0.367   2.255   9.666  0.9373  0.8178 -0.1208
  908MPD2    H313356   0.373   2.501   9.645 -0.1153 -0.2634 -0.2899
  908MPD2     N13357   0.007   2.549   9.915 -1.3660  0.2592 -0.3572
  908MPD2    H513358   4.679   2.499   9.969 -1.0329  2.4344  2.0998
  908MPD2    N113359   0.213   2.118   9.808 -0.0548  0.1337 -0.1798
  908MPD2    H713360   0.303   2.079   9.783 -1.2401 -1.6419 -1.7089
  909MPD2     C13361   0.412   0.685  11.829 -0.4914  0.1295 -0.8897
  909MPD2    C113362   0.327   0.761  11.745  0.0552 -1.1104 -0.3504
  909MPD2    C213363   0.196   0.780  11.787 -0.0960 -0.0191  0.4083
  909MPD2    C313364   0.145   0.710  11.892 -0.0510 -0.0570  0.1464
  909MPD2    C413365   0.228   0.645  11.983 -0.1729 -0.0618  0.6272
  909MPD2    C513366   0.358   0.626  11.943 -0.1891  0.8636  0.0211
  909MPD2     H13367   0.126   0.834  11.724  2.0627  1.3445 -0.8574
  909MPD2    H113368   0.183   0.597  12.068 -1.0409 -2.8083 -1.3848
  909MPD2    H213369   0.514   0.658  11.806 -0.2231  1.1240 -0.8543
  909MPD2    H313370   0.420   0.572  12.013 -0.3084  1.2862  0.4542
  909MPD2     N13371   0.004   0.720  11.907 -0.6991  0.1294 -1.0688
  909MPD2    H513372   4.692   0.755  11.829 -1.0084 -2.8076 -2.1841
  909MPD2    N113373   0.374   0.804  11.616  0.0844 -0.0864 -0.4342
  909MPD2    H713374   0.310   0.865  11.566 -0.4665  1.3272  2.0014
  910MPD2     C13375   2.505   2.327  15.783 -0.2810  0.3514 -0.1790
  910MPD2    C113376   2.394   2.253  15.804  0.1936  0.3638 -0.1074
  910MPD2    C213377   2.313   2.228  15.693 -0.1400  0.2502  0.0914
  910MPD2    C313378   2.352   2.270  15.567  0.5050  0.3717  0.9289
  910MPD2    C413379   2.468   2.342  15.552 -0.1370  0.7481  0.9226
  910MPD2    C513380   2.543   2.371  15.663 -0.1176 -0.3286  0.2232
  910MPD2     H13381   2.228   2.164  15.710 -1.1511  1.6607  0.2985
  910MPD2    H113382   2.495   2.387  15.457  0.1634  0.4746  0.8770
  910MPD2    H213383   2.574   2.357  15.862 -0.1294  0.6289 -0.4156
  910MPD2    H313384   2.638   2.415  15.635 -0.6369  0.5167 -0.2238
  910MPD2     N13385   2.272   2.249  15.454  0.6588 -0.0209  0.1246
  910MPD2    H513386   2.307   2.282  15.365  0.7179  0.3438  0.2801
  910MPD2    N113387   2.357   2.203  15.929 -0.6923  0.0681 -0.3972
  910MPD2    H713388   2.270   2.152  15.933 -0.0036 -1.1072 -0.4774
  911MPD2     C13389   4.708   3.111  16.644  0.0954  0.0233 -0.7023
  911MPD2    C113390   0.073   3.191  16.665  0.3104 -0.2736 -0.3012
  911MPD2    C213391   0.056   3.331  16.643 -0.2618  0.0512  0.2549
  911MPD2    C313392   4.677   3.379  16.584 -0.2251  0.2216 -0.4895
  911MPD2    C413393   4.575   3.288  16.562 -0.2422 -0.4671 -0.4813
  911MPD2    C513394   4.589   3.160  16.589 -0.3123  0.2231  0.3693
  911MPD2     H13395   0.135   3.402  16.668  0.7179 -0.2616 -1.9816
  911MPD2    H113396   4.486   3.323  16.509 -1.6288 -3.8016 -0.3488
  911MPD2    H213397   4.721   3.005  16.661 -0.0183  0.3496  1.3407
  911MPD2    H313398   4.510   3.093  16.557  2.8629 -2.9989 -0.5993
  911MPD2     N13399   4.657   3.513  16.533 -0.1442  0.1013  0.2141
  911MPD2    H513400   4.572   3.543  16.488 -0.5289 -2.0515 -0.5048
  911MPD2    N113401   0.193   3.131  16.707 -0.4108  0.2870  0.5362
  911MPD2    H713402   0.196   3.032  16.731 -3.2951  0.7195  2.6255
  912MPD2     C13403   4.341   3.681  15.891  0.7742  0.8991 -0.6403
  912MPD2    C113404   4.331   3.652  16.030  0.1084  0.6397 -0.1604
  912MPD2    C213405   4.280   3.530  16.067 -0.6979  0.4412 -0.2659
  912MPD2    C313406   4.221   3.442  15.976  0.1093 -0.5582  0.7377
  912MPD2    C413407   4.236   3.472  15.840 -0.6009 -0.3547 -0.0185
  912MPD2    C513408   4.279   3.598  15.798 -0.2842 -0.1750 -0.1541
  912MPD2     H13409   4.269   3.506  16.172  0.3816 -1.0213 -0.4995
  912MPD2    H113410   4.194   3.415  15.758  1.0081 -0.3058 -0.8773
  912MPD2    H213411   4.386   3.773  15.856  1.8617  1.4859  2.2451
  912MPD2    H313412   4.276   3.624  15.693 -0.4974  1.9459  0.3743
  912MPD2     N13413   4.174   3.321  16.016  0.0156 -0.4106  0.1574
  912MPD2    H513414   4.159   3.311  16.116  1.9605 -0.0930  0.4904
  912MPD2    N113415   4.400   3.739  16.115  0.0239 -0.2720 -0.1002
  912MPD2    H713416   4.456   3.812  16.070  0.4859 -1.5238 -1.5466
  913MPD2     C13417   4.511   4.525  11.004  0.2208  0.4600 -0.2461
  913MPD2    C113418   4.448   4.452  10.912 -0.5902  0.6156  0.0895
  913MPD2    C213419   4.454   4.492  10.776  0.7886  0.2426  0.1790
  913MPD2    C313420   4.523   4.607  10.742 -0.7636  0.8892 -0.7160
  913MPD2    C413421   4.583   4.676  10.836 -0.6573  0.1069 -0.1782
  913MPD2    C513422   4.576   4.641  10.964 -0.2486 -0.6729  0.0575
  913MPD2     H13423   4.428   4.418  10.702 -0.0462  0.3838  0.3306
  913MPD2    H113424   4.653   0.010  10.804 -0.7481 -0.1915 -1.1007
  913MPD2    H213425   4.506   4.489  11.106 -0.5809  0.5840 -0.2439
  913MPD2    H313426   4.628   4.693  11.044 -3.2673  3.1161 -0.4878
  913MPD2     N13427   4.535   4.645  10.603  0.0259  0.1095  0.6230
  913MPD2    H513428   4.608   4.708  10.571  0.2402 -0.5666 -0.2575
  913MPD2    N113429   4.371   4.340  10.957  0.0955 -1.1986 -0.2847
  913MPD2    H713430   4.395   4.316  11.053 -2.5829 -2.0500  0.1565
  914MPD2     C13431   2.347   3.678  12.606 -0.0053 -1.2420 -0.9122
  914MPD2    C113432   2.363   3.813  12.610  0.0373 -0.2129  0.6108
  914MPD2    C213433   2.464   3.865  12.698 -0.5511 -0.3930 -0.1716
  914MPD2    C313434   2.538   3.787  12.783  0.6333  0.6888  0.4869
  914MPD2    C413435   2.517   3.651  12.773  0.9807  0.3625 -0.0874
  914MPD2    C513436   2.423   3.600  12.691 -0.0855  0.1820 -0.0144
  914MPD2     H13437   2.476   3.972  12.707 -1.0874 -0.2935 -0.6393
  914MPD2    H113438   2.564   3.582  12.843 -1.1344  0.5621  1.5167
  914MPD2    H213439   2.271   3.642  12.538 -0.9791 -0.6475 -0.1433
  914MPD2    H313440   2.401   3.494  12.686 -1.0613  0.5404 -3.4194
  914MPD2     N13441   2.616   3.856  12.874 -0.3474  0.2477 -0.7116
  914MPD2    H513442   2.599   3.956  12.882  1.2307  0.4266  0.3912
  914MPD2    N113443   2.277   3.897  12.537  0.2527  0.0224  0.4214
  914MPD2    H713444   2.190   3.854  12.507  0.0339  0.6915  0.0908
  915MPD2     C13445   0.958   4.103  15.566  0.3728  0.2169  0.5179
  915MPD2    C113446   0.850   4.179  15.537 -0.1968  0.5813  0.4411
  915MPD2    C213447   0.815   4.284  15.625  0.0146 -0.5569 -0.1917
  915MPD2    C313448   0.869   4.304  15.746  0.0198 -0.2042 -0.9245
  915MPD2    C413449   0.979   4.230  15.779 -0.5738 -0.0741 -0.7303
  915MPD2    C513450   1.025   4.136  15.684 -0.4556 -0.6823  0.0532
  915MPD2     H13451   0.728   4.345  15.605  1.5277  1.3298 -1.0795
  915MPD2    H113452   1.025   4.232  15.877 -0.0243  0.3540 -0.9965
  915MPD2    H213453   0.982   4.011  15.513  1.1659 -0.1581  1.5185
  915MPD2    H313454   1.105   4.076  15.725  1.0472  3.1648  2.7123
  915MPD2     N13455   0.825   4.412  15.832 -0.2573  0.8044  0.1705
  915MPD2    H513456   0.747   4.470  15.802 -0.2032  0.2716 -1.0163
  915MPD2    N113457   0.771   4.136  15.426  0.1011  0.1281 -1.1115
  915MPD2    H713458   0.680   4.179  15.411 -0.6415 -0.9981  0.1682
  916MPD2     C13459   3.840   2.995  15.876 -0.5357  0.0481 -0.2620
  916MPD2    C113460   3.766   2.921  15.962 -0.4912 -0.2359 -0.0323
  916MPD2    C213461   3.803   2.787  15.981 -0.1114  0.3097 -0.3304
  916MPD2    C313462   3.901   2.725  15.897 -0.5240 -0.4843  0.1649
  916MPD2    C413463   3.972   2.805  15.812  0.1815 -0.2928 -0.1187
  916MPD2    C513464   3.941   2.938  15.798  0.6458  0.3187  0.3910
  916MPD2     H13465   3.747   2.733  16.057 -0.0960 -0.7387 -1.0683
  916MPD2    H113466   4.049   2.764  15.749  1.9067  0.2516  1.6281
  916MPD2    H213467   3.821   3.100  15.859  1.8010  0.6668  1.0319
  916MPD2    H313468   3.999   2.989  15.723  2.8904 -0.7902  1.3749
  916MPD2     N13469   3.922   2.585  15.892  0.0124 -0.1459 -0.9010
  916MPD2    H513470   3.858   2.541  15.958 -0.0406  1.6852  0.2838
  916MPD2    N113471   3.671   2.988  16.042 -0.0918  0.4558 -0.2861
  916MPD2    H713472   3.673   3.088  16.024 -2.4492  0.7858  1.2291
  917MPD2     C13473   3.100   4.583  11.344  0.7848  0.4760 -0.3169
  917MPD2    C113474   3.075   4.672  11.446 -0.3612  0.6888  0.7718
  917MPD2    C213475   3.045   0.059  11.403  0.2323  0.1544 -0.5284
  917MPD2    C313476   3.051   0.100  11.273 -0.1065  0.4025 -0.2367
  917MPD2    C413477   3.085   0.007  11.173  0.6597 -0.5972 -0.2389
  917MPD2    C513478   3.107   4.621  11.214  0.3246  0.6744 -0.3105
  917MPD2     H13479   3.005   0.127  11.477 -0.8037 -1.8881  0.7898
  917MPD2    H113480   3.095   0.043  11.071 -1.9434  1.6016  0.3072
  917MPD2    H213481   3.114   4.478  11.369 -0.5455  0.4831  0.4790
  917MPD2    H313482   3.135   4.538  11.150 -2.2243 -0.0158 -0.5668
  917MPD2     N13483   3.017   0.239  11.238  0.2339  0.6998  0.3023
  917MPD2    H513484   3.011   0.259  11.139 -0.2746 -0.4706  0.0894
  917MPD2    N113485   3.075   4.627  11.582  0.4535 -0.4000  0.3146
  917MPD2    H713486   3.082   4.528  11.605  1.8371 -0.4055 -0.1696
  918MPD2     C13487   3.379   0.416  12.389 -0.2679  0.3134 -0.0357
  918MPD2    C113488   3.418   0.420  12.259 -1.2953  0.4409 -0.2513
  918MPD2    C213489   3.370   0.321  12.173 -0.0611 -0.5213 -0.1313
  918MPD2    C313490   3.279   0.228  12.218 -0.1520 -0.0891 -0.6398
  918MPD2    C413491   3.248   0.219  12.352  0.3207  0.2048  0.1509
  918MPD2    C513492   3.292   0.320  12.432 -0.2850 -0.6890 -0.3049
  918MPD2     H13493   3.402   0.311  12.070  1.4053 -0.8428  0.3568
  918MPD2    H113494   3.188   0.139  12.395 -3.1637  1.8715 -1.6317
  918MPD2    H213495   3.415   0.492  12.459  0.5415 -1.0215  1.0062
  918MPD2    H313496   3.272   0.314  12.539  1.0095  1.7992  0.0741
  918MPD2     N13497   3.237   0.128  12.124  0.1860 -0.5357 -0.0919
  918MPD2    H513498   3.259   0.148  12.027  0.5757 -0.8458 -0.0694
  918MPD2    N113499   3.494   0.526  12.211  0.1403 -0.3568  0.2358
  918MPD2    H713500   3.525   0.592  12.282  2.9005  1.6526 -2.8278
  919MPD2     C13501   4.038   3.979  11.790 -0.4520 -0.2938  0.8257
  919MPD2    C113502   4.014   3.863  11.722 -0.1746  0.5619 -0.0895
  919MPD2    C213503   3.973   3.866  11.596 -0.1254  0.3788 -0.5425
  919MPD2    C313504   3.951   3.986  11.528  0.8164  0.4620  0.5251
  919MPD2    C413505   3.969   4.106  11.594 -0.1730 -0.5333 -0.3255
  919MPD2    C513506   4.009   4.097  11.724  0.9649 -1.3535 -0.2214
  919MPD2     H13507   3.961   3.772  11.544 -0.7045  0.5400 -0.7004
  919MPD2    H113508   3.965   4.205  11.550  1.0378 -1.9592 -3.6740
  919MPD2    H213509   4.073   3.982  11.893  0.7528 -2.4486  0.4758
  919MPD2    H313510   4.032   4.191  11.772 -0.8594 -0.8368 -0.3616
  919MPD2     N13511   3.900   3.987  11.398 -0.5122 -0.2430 -0.2554
  919MPD2    H513512   3.863   4.076  11.368  0.6628  0.6438  0.8914
  919MPD2    N113513   4.031   3.735  11.773  0.2336 -0.0709  0.4615
  919MPD2    H713514   3.984   3.658  11.725 -0.9804  0.5566  0.6512
  920MPD2     C13515   3.599   4.566  10.669  0.1054  0.1830 -0.2514
  920MPD2    C113516   3.544   4.453  10.621 -1.3260  0.6314 -0.1933
  920MPD2    C213517   3.565   4.335  10.694  0.2605  0.5235  0.5666
  920MPD2    C313518   3.659   4.332  10.797 -0.3487 -0.3064  0.0890
  920MPD2    C413519   3.722   4.451  10.833 -0.8426 -0.1719 -0.7934
  920MPD2    C513520   3.689   4.570  10.770  0.0880  0.0307 -0.7258
  920MPD2     H13521   3.518   4.240  10.668  0.7446  0.6433 -0.7799
  920MPD2    H113522   3.804   4.445  10.904  0.6512 -0.6323 -2.5652
  920MPD2    H213523   3.562   4.661  10.632  0.8884  0.7347  0.3732
  920MPD2    H313524   3.718   4.664  10.815  1.5412 -0.6299 -0.2953
  920MPD2     N13525   3.694   4.210  10.854  0.1823  0.7386 -0.1030
  920MPD2    H513526   3.643   4.128  10.821  0.5914  0.6193 -0.4390
  920MPD2    N113527   3.459   4.446  10.508  0.3765  0.5109 -0.2901
  920MPD2    H713528   3.418   4.356  10.487 -0.7654  0.4636  2.1231
  921MPD2     C13529   1.165   3.324  17.056 -0.1469 -0.3798  0.0903
  921MPD2    C113530   1.171   3.193  17.006 -0.8975 -0.6228 -0.4805
  921MPD2    C213531   1.052   3.123  17.007  0.2584 -0.9548  0.5088
  921MPD2    C313532   0.929   3.182  17.042 -0.5681  0.5026  0.2303
  921MPD2    C413533   0.921   3.320  17.075  0.6120  0.9186  0.0791
  921MPD2    C513534   1.042   3.382  17.091 -0.4284  0.4344 -0.2087
  921MPD2     H13535   1.049   3.029  16.953 -1.4123  0.1064 -1.2577
  921MPD2    H113536   0.829   3.376  17.092 -1.0391 -2.1858  1.2780
  921MPD2    H213537   1.250   3.390  17.057 -0.1581 -0.3580 -0.4332
  921MPD2    H313538   1.043   3.481  17.136  2.1102  1.0185 -1.5867
  921MPD2     N13539   0.814   3.101  17.019  0.2180 -0.6383 -0.4878
  921MPD2    H513540   0.822   3.011  16.974  0.6253 -0.8609  0.0257
  921MPD2    N113541   1.290   3.146  16.943 -0.0580  0.5518  0.1335
  921MPD2    H713542   1.366   3.212  16.928  1.1757 -0.5889  1.4068
  922MPD2     C13543   1.556   1.318  17.200 -0.3289  0.1336 -0.0255
  922MPD2    C113544   1.534   1.283  17.332 -0.1371 -0.3195 -0.4013
  922MPD2    C213545   1.479   1.157  17.362  0.3070  0.2701  0.7324
  922MPD2    C313546   1.459   1.066  17.261  0.3110 -0.0269 -0.3748
  922MPD2    C413547   1.477   1.104  17.131 -1.0526  0.1040 -0.7244
  922MPD2    C513548   1.522   1.227  17.103  0.8325  0.1984 -0.9582
  922MPD2     H13549   1.454   1.128  17.464  1.0570 -1.0208  0.5497
  922MPD2    H113550   1.469   1.035  17.048  0.8125 -1.4165  0.3339
  922MPD2    H213551   1.615   1.405  17.174  0.0579 -0.1384 -0.0550
  922MPD2    H313552   1.530   1.254  16.998 -0.2988  0.1927 -1.0544
  922MPD2     N13553   1.430   0.933  17.293  0.2388 -0.3579 -0.0075
  922MPD2    H513554   1.423   0.907  17.391 -0.3985  0.5261  0.1776
  922MPD2    N113555   1.554   1.374  17.440 -0.6232  0.2545  0.9512
  922MPD2    H713556   1.540   1.343  17.536  2.1792  1.5014  1.7672
  923MPD2     C13557   1.675   2.804   9.010  0.2990 -0.5054 -0.5329
  923MPD2    C113558   1.708   2.931   9.058  1.2332 -0.3349 -0.1463
  923MPD2    C213559   1.838   2.959   9.098 -0.4486 -0.1706 -0.6318
  923MPD2    C313560   1.931   2.862   9.101 -0.1738 -0.0707  0.1607
  923MPD2    C413561   1.896   2.735   9.056 -0.2806 -0.4650  0.4241
  923MPD2    C513562   1.771   2.701   9.013  0.2624  0.6898 -0.5025
  923MPD2     H13563   1.860   3.060   9.132 -0.5923  0.3764 -2.1524
  923MPD2    H113564   1.974   2.661   9.055  0.1487  0.0444 -2.0584
  923MPD2    H213565   1.576   2.772   8.979 -0.1933 -1.3524  1.8924
  923MPD2    H313566   1.750   2.603   8.970  2.1097 -0.6060  1.5125
  923MPD2     N13567   2.061   2.874   9.156  0.0749 -0.0053  0.0636
  923MPD2    H513568   2.104   2.786   9.179  0.7521 -0.1280 -1.7466
  923MPD2    N113569   1.613   3.028   9.046 -0.5164 -0.2271 -0.0240
  923MPD2    H713570   1.530   2.994   8.998 -0.1107  1.6790 -2.1077
  924MPD2     C13571   2.612   1.060  15.687 -0.4306  0.4391 -0.0371
  924MPD2    C113572   2.652   1.088  15.814  0.2405 -0.0390  0.4359
  924MPD2    C213573   2.760   1.168  15.846 -0.2749  0.5627 -0.2224
  924MPD2    C313574   2.815   1.233  15.735  0.5936 -0.3313  0.1915
  924MPD2    C413575   2.770   1.213  15.602 -0.4722  0.7672 -0.0895
  924MPD2    C513576   2.667   1.128  15.580  0.2323 -0.8544 -0.2963
  924MPD2     H13577   2.785   1.174  15.951  0.4783 -2.2086 -0.2548
  924MPD2    H113578   2.806   1.263  15.512  0.1786 -1.5388 -1.1041
  924MPD2    H213579   2.528   0.997  15.659  0.7364 -0.9915 -0.2902
  924MPD2    H313580   2.619   1.126  15.483  1.4701  0.1673 -0.9316
  924MPD2     N13581   2.914   1.331  15.762  0.2709 -0.0507  0.1431
  924MPD2    H513582   2.935   1.333  15.862  1.2212  0.7628 -0.0700
  924MPD2    N113583   2.584   1.038  15.927  0.2459  0.3231  0.2796
  924MPD2    H713584   2.615   1.075  16.016 -0.2970 -0.4229  0.7913
  925MPD2     C13585   1.685   3.801  14.753 -0.1121  0.1658 -0.0019
  925MPD2    C113586   1.628   3.688  14.707 -0.4258  0.9203 -1.0161
  925MPD2    C213587   1.572   3.594  14.795 -0.2408  0.1109  0.4035
  925MPD2    C313588   1.576   3.617  14.929  0.7400 -0.3087  0.4774
  925MPD2    C413589   1.639   3.725  14.977  0.0856  0.8047  0.0372
  925MPD2    C513590   1.684   3.822  14.888 -0.0034  0.2983  0.4312
  925MPD2     H13591   1.515   3.507  14.763  0.9972 -0.8882  0.8895
  925MPD2    H113592   1.645   3.740  15.084 -0.7162 -0.8849  0.3223
  925MPD2    H213593   1.718   3.887  14.696 -0.2463  0.4436  0.3412
  925MPD2    H313594   1.720   3.915  14.931  0.8978  0.9948 -1.8267
  925MPD2     N13595   1.509   3.532  15.024 -0.2964 -0.3201 -0.6199
  925MPD2    H513596   1.501   3.579  15.114 -2.4625 -1.0152 -0.4545
  925MPD2    N113597   1.598   3.660  14.567  0.1677 -0.3498 -0.0729
  925MPD2    H713598   1.551   3.572  14.550 -0.2528 -0.2736  0.6774
  926MPD2     C13599   0.398   2.029  13.270  0.4009 -0.0228  0.6495
  926MPD2    C113600   0.293   2.126  13.266  0.1822 -0.4090  0.2591
  926MPD2    C213601   0.314   2.247  13.194 -0.1027  0.1038 -0.3514
  926MPD2    C313602   0.426   2.263  13.113  0.3048  0.1397  0.5060
  926MPD2    C413603   0.531   2.175  13.133  0.6446  0.0209 -0.6655
  926MPD2    C513604   0.510   2.054  13.195 -0.8700 -0.7904 -0.1830
  926MPD2     H13605   0.231   2.317  13.194 -0.2042 -0.0100 -2.4364
  926MPD2    H113606   0.623   2.184  13.076 -0.0527 -1.7267 -2.0537
  926MPD2    H213607   0.389   1.935  13.324 -0.0099  1.0944  2.5146
  926MPD2    H313608   0.585   1.976  13.189  0.0305  0.0741 -0.1170
  926MPD2     N13609   0.451   2.367  13.018 -0.1755 -0.1336  0.3796
  926MPD2    H513610   0.543   2.381  12.979 -0.7819 -1.6243 -1.5624
  926MPD2    N113611   0.177   2.123  13.344  0.1701  0.3111 -0.2149
  926MPD2    H713612   0.107   2.193  13.322 -0.8262 -0.9708 -1.1091
  927MPD2     C13613   0.216   4.716  17.736 -0.8609 -0.3142  0.1693
  927MPD2    C113614   0.176   4.605  17.658 -0.6926 -0.6388 -0.3104
  927MPD2    C213615   0.260   4.566  17.551  0.3501 -0.2603  0.8030
  927MPD2    C313616   0.378   4.630  17.525  0.0404  0.2102 -0.1826
  927MPD2    C413617   0.424   4.730  17.615 -0.0518 -0.3517 -0.5405
  927MPD2    C513618   0.335   0.032  17.715 -0.3805  0.6546 -0.3077
  927MPD2     H13619   0.227   4.493  17.478  0.5075  0.1165  0.3580
  927MPD2    H113620   0.521   0.035  17.620 -0.7953  1.0860  0.2595
  927MPD2    H213621   0.160   0.003   0.057  3.4562  0.5661  2.6683
  927MPD2    H313622   0.378   0.115   0.003 -1.4704  0.4962  0.7879
  927MPD2     N13623   0.449   4.600  17.405  0.0834 -0.5632  0.6607
  927MPD2    H513624   0.428   4.519  17.348  1.6139  1.1836 -2.3639
  927MPD2    N113625   0.051   4.538  17.691 -0.1884 -0.4640  0.1583
  927MPD2    H713626   4.740   4.589  17.760 -2.1064 -1.4333 -0.6348
  928MPD2     C13627   3.096   2.856   1.259 -0.2196 -0.4491 -0.1672
  928MPD2    C113628   3.191   2.946   1.213 -0.2303  0.1384  0.2857
  928MPD2    C213629   3.206   2.970   1.074 -0.0693  0.4909 -0.4267
  928MPD2    C313630   3.113   2.918   0.986  0.3036 -0.4457 -0.0941
  928MPD2    C413631   3.012   2.840   1.035  0.3679 -0.0289 -0.3780
  928MPD2    C513632   3.008   2.808   1.168 -0.0814 -1.7702  0.1819
  928MPD2     H13633   3.278   3.043   1.040  1.7369  0.7219  3.7889
  928MPD2    H113634   2.936   2.793   0.973  1.9256 -1.9758 -0.8019
  928MPD2    H213635   3.083   2.829   1.364 -2.7125 -2.5350 -1.0080
  928MPD2    H313636   2.930   2.740   1.203 -1.2750 -0.8345 -0.6480
  928MPD2     N13637   3.093   2.963   0.852 -0.4130 -0.3425  0.2780
  928MPD2    H513638   3.004   2.934   0.813 -0.3914 -1.3688  0.9971
  928MPD2    N113639   3.277   2.998   1.311  0.2151  0.4319 -0.1391
  928MPD2    H713640   3.253   2.987   1.409  1.3197 -3.0505 -0.2424
  929MPD2     C13641   2.549   2.942  10.051  0.0144  0.0650 -0.3574
  929MPD2    C113642   2.411   2.936  10.064  1.4375 -0.2973 -0.1164
  929MPD2    C213643   2.340   3.038  10.012  0.6224  0.3059  0.2175
  929MPD2    C313644   2.400   3.143   9.947 -0.7464 -0.1552 -0.5508
  929MPD2    C413645   2.535   3.144   9.933  0.4415 -0.6625 -0.1330
  929MPD2    C513646   2.612   3.044   9.990 -0.1783  0.3230  0.1765
  929MPD2     H13647   2.232   3.025  10.013  0.5048  1.2403 -1.4480
  929MPD2    H113648   2.590   3.228   9.890  0.7498 -1.1160 -0.6244
  929MPD2    H213649   2.602   2.859  10.096 -0.5555 -0.6331 -0.9548
  929MPD2    H313650   2.720   3.047   9.978  0.0404  3.7832  2.8612
  929MPD2     N13651   2.326   3.251   9.892 -0.2053 -0.2517 -0.0216
  929MPD2    H513652   2.379   3.327   9.850  1.2066 -1.9798 -1.3727
  929MPD2    N113653   2.358   2.839  10.149 -0.5355 -0.5008  0.4903
  929MPD2    H713654   2.427   2.779  10.193  1.2203 -0.9008 -2.8203
  930MPD2     C13655   4.246   0.262  13.969  0.3872 -0.2317 -0.0413
  930MPD2    C113656   4.374   0.287  13.923  0.2936  0.3778  0.5713
  930MPD2    C213657   4.416   0.227  13.810 -0.1162  0.3293  0.2139
  930MPD2    C313658   4.327   0.155  13.735  0.0460 -0.5332  0.4687
  930MPD2    C413659   4.191   0.142  13.768  1.3801  0.0937 -0.1550
  930MPD2    C513660   4.154   0.197  13.893  0.3336  0.2533  0.0815
  930MPD2     H13661   4.516   0.241  13.770 -1.2921  1.9163 -2.0967
  930MPD2    H113662   4.123   0.084  13.707  1.9153 -0.3320 -0.3560
  930MPD2    H213663   4.207   0.297  14.064 -1.6089 -1.8425 -0.2674
  930MPD2    H313664   4.052   0.187  13.928  0.2448  1.4030  0.1537
  930MPD2     N13665   4.365   0.098  13.609  0.4879  0.0969 -0.0521
  930MPD2    H513666   4.290   0.065  13.549  1.0644  1.2263 -1.4276
  930MPD2    N113667   4.457   0.371  13.996  0.2314 -0.1257 -0.0594
  930MPD2    H713668   4.424   0.440  14.063 -0.5347 -0.9676  0.4238
  931MPD2     C13669   4.703   3.830   0.136  0.4459 -0.2066 -0.0915
  931MPD2    C113670   4.650   3.924   0.212 -0.2480 -0.3923  0.1151
  931MPD2    C213671   4.653   3.910   0.349  0.2323 -0.1695  0.3905
  931MPD2    C313672   4.701   3.795   0.408 -0.2534 -0.6746 -0.2301
  931MPD2    C413673   0.016   3.700   0.327 -0.3806  0.2076 -0.0504
  931MPD2    C513674   0.013   3.716   0.188  0.3684  0.0661  0.3212
  931MPD2     H13675   4.643   3.997   0.412 -3.1458 -1.3990  1.5669
  931MPD2    H113676   0.061   3.605   0.355 -0.4831  1.0465  2.9158
  931MPD2    H213677   4.699   3.842   0.028  1.4922 -0.7550 -0.1908
  931MPD2    H313678   0.063   3.651   0.118  3.0524  2.8127 -0.3041
  931MPD2     N13679   4.720   3.776   0.542  0.6474 -0.4425  0.2279
  931MPD2    H513680   0.027   3.697   0.580 -0.6254 -1.0396  0.6442
  931MPD2    N113681   4.610   4.044   0.147 -0.1073  0.4238  0.0207
  931MPD2    H713682   4.604   4.038   0.046 -0.6336 -0.3646  0.0999
  932MPD2     C13683   1.269   2.839  11.702 -0.5688  0.1731 -1.1085
  932MPD2    C113684   1.382   2.921  11.715 -0.0808  0.3325 -0.3184
  932MPD2    C213685   1.491   2.870  11.780  0.3855 -0.6125  0.3659
  932MPD2    C313686   1.498   2.738  11.816 -0.7994 -1.2563  0.0280
  932MPD2    C413687   1.386   2.656  11.800  0.3404  0.3826  0.4634
  932MPD2    C513688   1.274   2.707  11.741  0.3332 -0.2175  0.4828
  932MPD2     H13689   1.572   2.941  11.796 -0.4832 -0.2196  3.0691
  932MPD2    H113690   1.382   2.551  11.827 -0.5273  0.5171  0.8575
  932MPD2    H213691   1.177   2.875  11.657 -1.2587 -2.0932 -1.5434
  932MPD2    H313692   1.192   2.637  11.729  0.1436  0.0006  0.5185
  932MPD2     N13693   1.615   2.675  11.858  0.7258  0.0507 -0.1076
  932MPD2    H513694   1.601   2.575  11.873  0.4613  0.1331  0.1948
  932MPD2    N113695   1.388   3.052  11.663  0.1377 -0.0979 -0.2121
  932MPD2    H713696   1.475   3.104  11.667  0.9249 -1.5068  0.6817
  933MPD2     C13697   3.538   3.540   1.957 -0.2574  0.2569 -0.4189
  933MPD2    C113698   3.445   3.493   1.861 -0.0540  0.2951  0.6318
  933MPD2    C213699   3.329   3.567   1.854 -0.0325 -0.2925 -0.6220
  933MPD2    C313700   3.300   3.669   1.939  0.5186 -0.9776  0.0389
  933MPD2    C413701   3.392   3.702   2.037 -0.4277 -0.6318 -0.4639
  933MPD2    C513702   3.515   3.645   2.044 -0.0710 -0.5549  0.0180
  933MPD2     H13703   3.255   3.530   1.784 -2.2891  2.1977  0.4772
  933MPD2    H113704   3.372   3.786   2.102 -0.6413 -0.3911 -0.8461
  933MPD2    H213705   3.636   3.496   1.954 -0.5799 -0.4833 -0.1044
  933MPD2    H313706   3.600   3.662   2.110  1.7662  0.5418 -2.6559
  933MPD2     N13707   3.177   3.730   1.925  0.1090  0.2293 -0.0389
  933MPD2    H513708   3.119   3.689   1.852 -1.0665 -0.0502  1.0665
  933MPD2    N113709   3.489   3.389   1.772 -0.0385 -0.2809  0.1722
  933MPD2    H713710   3.583   3.356   1.789 -0.1348 -1.6670 -2.0196
  934MPD2     C13711   4.026   0.644   1.955  0.2982 -0.4828  0.4304
  934MPD2    C113712   4.087   0.607   1.838 -0.2134 -0.3041  0.2453
  934MPD2    C213713   4.044   0.490   1.781 -0.5194  0.6720 -0.9406
  934MPD2    C313714   3.943   0.412   1.830 -0.1706 -0.3095  0.1270
  934MPD2    C413715   3.881   0.450   1.954 -0.1607 -0.5883 -0.0197
  934MPD2    C513716   3.925   0.568   2.003 -0.2316  0.0434 -0.0336
  934MPD2     H13717   4.094   0.460   1.689  1.1369  0.8893 -0.1041
  934MPD2    H113718   3.790   0.406   1.992 -0.1955  0.5828  1.2502
  934MPD2    H213719   4.043   0.737   2.008  0.1815 -0.8766  1.1648
  934MPD2    H313720   3.875   0.611   2.089 -0.5784 -1.7972  0.7027
  934MPD2     N13721   3.891   0.294   1.769 -0.3927 -0.4220 -0.2311
  934MPD2    H513722   3.819   0.248   1.824 -0.8356 -1.2777 -1.5326
  934MPD2    N113723   4.197   0.682   1.785 -1.1015 -0.2146  0.2943
  934MPD2    H713724   4.245   0.644   1.705  1.5289  0.9589  1.3429
  935MPD2     C13725   4.179   4.281   1.151 -0.3896 -0.3039  0.0421
  935MPD2    C113726   4.058   4.336   1.105  0.0815  0.9447 -0.1546
  935MPD2    C213727   4.002   4.436   1.185  0.1760 -0.0450 -0.0981
  935MPD2    C313728   4.046   4.464   1.313  0.3948 -0.4113 -0.3486
  935MPD2    C413729   4.160   4.400   1.361 -0.2639  0.1545 -0.0339
  935MPD2    C513730   4.227   4.314   1.278  0.7626 -0.4079 -0.6622
  935MPD2     H13731   3.920   4.497   1.149  1.4250  1.2423 -0.8065
  935MPD2    H113732   4.214   4.426   1.451 -0.4484  1.4447 -0.2940
  935MPD2    H213733   4.242   4.223   1.085 -0.0687  0.0497  0.0416
  935MPD2    H313734   4.329   4.287   1.305  0.2745 -1.1592  0.4255
  935MPD2     N13735   3.974   4.552   1.400 -0.8411 -0.3422  0.0248
  935MPD2    H513736   4.007   4.560   1.496  3.2798  0.0089 -1.4290
  935MPD2    N113737   4.007   4.322   0.972  0.1258  0.3273  0.7187
  935MPD2    H713738   3.936   4.386   0.935  0.4673 -0.3641 -1.1429
  936MPD2     C13739   2.284   2.056  12.164  0.0502  0.0728 -0.0063
  936MPD2    C113740   2.323   1.968  12.263 -0.2229 -0.1032  0.1651
  936MPD2    C213741   2.323   2.009  12.388  0.3285 -0.0233 -0.7955
  936MPD2    C313742   2.289   2.138  12.430 -0.8934  0.2673  0.0735
  936MPD2    C413743   2.258   2.228  12.332  0.2382 -0.1304 -0.2085
  936MPD2    C513744   2.251   2.183  12.203 -0.5314  0.0742 -0.6972
  936MPD2     H13745   2.367   1.936  12.455  1.2545 -0.1774 -1.5750
  936MPD2    H113746   2.232   2.332  12.348 -2.6592 -0.8529 -0.2100
  936MPD2    H213747   2.278   2.026  12.060  0.9551 -0.4261  0.0839
  936MPD2    H313748   2.217   2.250  12.125 -1.8807  0.2766  0.0526
  936MPD2     N13749   2.312   2.186  12.563  0.2059 -0.1696 -0.2178
  936MPD2    H513750   2.296   2.285  12.583 -0.0389 -0.4372  0.9504
  936MPD2    N113751   2.377   1.835  12.237 -0.5357 -0.3803  0.4556
  936MPD2    H713752   2.408   1.774  12.311 -0.8003  1.5922  2.2083
  937MPD2     C13753   4.312   3.103  11.597 -0.1280 -0.1150  0.2086
  937MPD2    C113754   4.369   3.225  11.629  0.5546 -0.4486 -0.0011
  937MPD2    C213755   4.445   3.287  11.530 -0.7786 -0.5907  0.2565
  937MPD2    C313756   4.467   3.228  11.409  0.0233 -0.4474 -0.3242
  937MPD2    C413757   4.413   3.109  11.372  0.2662 -0.6843 -0.2154
  937MPD2    C513758   4.340   3.044  11.474  0.0885 -0.8815 -1.3281
  937MPD2     H13759   4.491   3.383  11.547 -5.0780  1.6355 -0.5541
  937MPD2    H113760   4.432   3.049  11.283  0.1282  0.4350 -1.0003
  937MPD2    H213761   4.238   3.056  11.662  0.9840 -3.7307 -1.1406
  937MPD2    H313762   4.278   2.964  11.437 -2.0652 -0.5178  1.4888
  937MPD2     N13763   4.561   3.288  11.325  0.0081 -0.3001  0.0466
  937MPD2    H513764   4.612   3.366  11.366  0.1418 -1.1293  1.4694
  937MPD2    N113765   4.317   3.307  11.732  0.1805 -0.1973  0.3524
  937MPD2    H713766   4.333   3.407  11.722  0.4445  0.0098  3.0604
  938MPD2     C13767   3.114   4.281   1.056  0.0394 -0.7286  0.2819
  938MPD2    C113768   3.133   4.397   1.133  0.4505 -0.6540  0.0838
  938MPD2    C213769   3.148   4.379   1.269  0.1327 -0.1043 -0.1486
  938MPD2    C313770   3.121   4.256   1.327  0.2896 -0.3217 -0.3275
  938MPD2    C413771   3.096   4.141   1.251  0.1902  0.3902 -1.1224
  938MPD2    C513772   3.099   4.158   1.116 -0.1456 -0.8016 -0.3911
  938MPD2     H13773   3.165   4.473   1.321 -2.6130 -1.0324  2.3881
  938MPD2    H113774   3.075   4.038   1.275  2.1371  0.3583  0.3960
  938MPD2    H213775   3.092   4.290   0.950 -0.1408  0.5673  0.4318
  938MPD2    H313776   3.079   4.071   1.056  1.3919 -0.8276 -0.8607
  938MPD2     N13777   3.133   4.224   1.465  0.1778  0.0993 -0.8001
  938MPD2    H513778   3.132   4.128   1.497  0.4753  0.1284 -0.6998
  938MPD2    N113779   3.151   4.522   1.079 -0.1999 -0.3605  0.0642
  938MPD2    H713780   3.195   4.592   1.138 -0.1193  0.1856 -0.6428
  939MPD2     C13781   3.573   0.633   1.061 -0.1539 -0.3487  0.8231
  939MPD2    C113782   3.508   0.743   1.004 -0.1955 -0.5515  0.4166
  939MPD2    C213783   3.567   0.787   0.884  0.1275 -0.6526  0.1218
  939MPD2    C313784   3.682   0.732   0.834  0.4086  0.3573  0.8199
  939MPD2    C413785   3.748   0.623   0.896  0.4370 -0.1101 -0.3808
  939MPD2    C513786   3.685   0.582   1.011  0.0274 -0.0622 -0.0672
  939MPD2     H13787   3.507   0.858   0.828 -0.2067 -0.3492  0.8651
  939MPD2    H113788   3.838   0.571   0.867  1.3629  0.7845  0.9077
  939MPD2    H213789   3.533   0.589   1.151 -0.1847  1.1453  1.5414
  939MPD2    H313790   3.733   0.500   1.062 -0.0037  0.6297  1.0860
  939MPD2     N13791   3.730   0.777   0.706 -0.2507  0.5307 -0.4779
  939MPD2    H513792   3.678   0.853   0.664 -0.2396  3.1907  4.4587
  939MPD2    N113793   3.387   0.786   1.062  0.0531  0.0425  0.3940
  939MPD2    H713794   3.361   0.743   1.150 -2.9038 -0.9370 -0.9622
  940MPD2     C13795   2.781   2.023  12.500  0.7676  0.3372 -0.1458
  940MPD2    C113796   2.892   1.944  12.484 -0.5182 -0.1857 -0.2588
  940MPD2    C213797   2.914   1.877  12.367 -0.1463 -0.7276  0.5438
  940MPD2    C313798   2.826   1.889  12.264  0.6836 -0.0707 -0.3333
  940MPD2    C413799   2.716   1.975  12.270 -0.4118 -0.8811 -0.3365
  940MPD2    C513800   2.696   2.044  12.392 -0.3576 -0.1444 -0.3554
  940MPD2     H13801   3.009   1.824  12.366 -1.5902 -3.2314 -2.2231
  940MPD2    H113802   2.654   1.989  12.182 -0.3824  2.2611  0.1488
  940MPD2    H213803   2.750   2.057  12.598 -2.8728 -0.1642 -1.1203
  940MPD2    H313804   2.605   2.102  12.400  0.7619  1.3254  1.7614
  940MPD2     N13805   2.836   1.826  12.139  0.3801 -0.9369 -0.0912
  940MPD2    H513806   2.765   1.840  12.069 -0.4306 -1.1864  0.6775
  940MPD2    N113807   2.990   1.925  12.585  0.1351 -0.3436  0.7343
  940MPD2    H713808   3.064   1.860  12.563 -0.1507 -1.1032  2.0320
  941MPD2     C13809   1.007   1.184  10.121  0.7255  0.3145 -0.7049
  941MPD2    C113810   1.117   1.127  10.067  0.0170  0.0744  0.4229
  941MPD2    C213811   1.111   0.986  10.039  0.3413  0.2059 -0.4471
  941MPD2    C313812   0.989   0.915  10.050 -0.7245  0.3954  0.1072
  941MPD2    C413813   0.880   0.986  10.091 -0.6755 -0.1384  0.5324
  941MPD2    C513814   0.886   1.115  10.130 -0.0067 -0.7486 -0.3407
  941MPD2     H13815   1.205   0.934  10.022 -0.0685 -1.1361  1.4481
  941MPD2    H113816   0.786   0.932  10.101 -1.0305  0.6997  1.7545
  941MPD2    H213817   1.000   1.291  10.137  0.8843  0.3503 -0.8831
  941MPD2    H313818   0.802   1.175  10.162  0.0149  0.1250 -1.9472
  941MPD2     N13819   0.980   0.774  10.032 -0.2693  0.5635 -0.5889
  941MPD2    H513820   0.889   0.737  10.056  1.1312 -2.4469  0.0554
  941MPD2    N113821   1.246   1.184  10.075 -0.0460  0.3048 -0.4405
  941MPD2    H713822   1.322   1.120  10.056 -0.7015  0.0101 -2.0555
  942MPD2     C13823   1.183   3.578   9.825 -0.1567 -0.2850  0.0353
  942MPD2    C113824   1.115   3.459   9.799  0.3163  0.0689 -0.7335
  942MPD2    C213825   1.189   3.365   9.726 -0.5146 -1.1543 -0.2750
  942MPD2    C313826   1.323   3.393   9.685 -0.2263 -0.4772 -0.1826
  942MPD2    C413827   1.380   3.513   9.710 -0.1882 -0.4220  0.4447
  942MPD2    C513828   1.308   3.607   9.777 -1.0355  0.3018  0.3229
  942MPD2     H13829   1.139   3.273   9.696  0.6939 -2.0220  0.3428
  942MPD2    H113830   1.480   3.538   9.677 -0.6093  0.1128 -0.4232
  942MPD2    H213831   1.134   3.642   9.898  1.1125  1.8345 -0.9798
  942MPD2    H313832   1.358   3.698   9.808 -1.4366  0.1089  1.5284
  942MPD2     N13833   1.402   3.309   9.608  0.0373 -0.0114  0.2283
  942MPD2    H513834   1.497   3.339   9.594  0.0631 -0.1587  0.0853
  942MPD2    N113835   0.985   3.427   9.844 -0.7340  0.0518  0.1270
  942MPD2    H713836   0.965   3.328   9.853 -2.3844  0.3769 -0.0192
  943MPD2     C13837   0.287   0.727   9.646 -0.2474 -0.2399  0.5957
  943MPD2    C113838   0.420   0.709   9.670 -0.1444 -0.1426 -0.5600
  943MPD2    C213839   0.491   0.817   9.716  0.5412  0.4954 -1.0229
  943MPD2    C313840   0.431   0.935   9.751  0.8244  0.4016 -0.3018
  943MPD2    C413841   0.291   0.947   9.733 -0.6817  0.4481  0.6005
  943MPD2    C513842   0.221   0.835   9.682 -0.0963 -0.0845 -0.3085
  943MPD2     H13843   0.599   0.808   9.723  0.1251 -1.2077  3.7658
  943MPD2    H113844   0.241   1.042   9.747 -0.1998  0.9432 -1.0119
  943MPD2    H213845   0.233   0.639   9.613 -0.4510  0.1077 -0.0069
  943MPD2    H313846   0.113   0.826   9.677 -0.2652  0.0725  3.1631
  943MPD2     N13847   0.499   1.046   9.819 -0.3936  0.2973  0.2456
  943MPD2    H513848   0.443   1.130   9.835  0.0572  0.7088 -0.3461
  943MPD2    N113849   0.475   0.585   9.645 -1.0201  0.1373  1.1650
  943MPD2    H713850   0.405   0.516   9.619  0.0033 -0.6604  0.5117
  944MPD2     C13851   0.432   0.418  11.398  0.0280 -0.5640 -0.3249
  944MPD2    C113852   0.451   0.319  11.494 -0.3081  0.3112 -0.2561
  944MPD2    C213853   0.348   0.293  11.586  0.2835  0.7966  0.4067
  944MPD2    C313854   0.236   0.366  11.578 -0.1194 -0.6080  0.3410
  944MPD2    C413855   0.222   0.476  11.488  0.7633  0.0597 -0.5936
  944MPD2    C513856   0.318   0.498  11.393  0.6655  0.1890 -0.0746
  944MPD2     H13857   0.355   0.218  11.664 -0.8538 -0.6980 -0.9338
  944MPD2    H113858   0.141   0.547  11.495  0.1767 -0.6559 -0.0774
  944MPD2    H213859   0.515   0.447  11.335 -0.3161 -0.5539 -0.7712
  944MPD2    H313860   0.312   0.578  11.321 -1.5849 -3.3216 -3.7553
  944MPD2     N13861   0.129   0.333  11.669 -0.0364 -0.3611 -0.5021
  944MPD2    H513862   0.145   0.259  11.737 -0.0838  2.2155  2.3250
  944MPD2    N113863   0.569   0.241  11.491  0.0242  0.9972  0.3855
  944MPD2    H713864   0.631   0.257  11.412  0.7142  0.0792  0.7498
    1TMC1    C113865   3.514   1.883  15.373  0.6972  0.2490  0.3529
    1TMC1    C213866   3.568   1.782  15.299 -0.4820 -0.1155 -0.6111
    1TMC1    C313867   3.480   1.682  15.265 -0.1670  0.3280  0.2811
    1TMC1    C413868   3.383   1.885  15.415  0.2326 -0.4428 -0.5943
    1TMC1    C513869   3.310   1.774  15.388  0.0312  0.6955 -0.0115
    1TMC1    C613870   3.349   1.671  15.317 -0.0704 -0.7540 -0.1225
    1TMC1     C13871   3.603   1.985  15.424  0.3908  0.2103  1.1596
    1TMC1     O13872   3.574   2.031  15.536  0.2043  0.0663 -0.3736
    1TMC1     H13873   3.671   1.784  15.267  0.4157  2.5181  2.3778
    1TMC1    H113874   3.342   1.978  15.452  0.1868 -0.6351 -0.1658
    1TMC1    H213875   3.284   1.585  15.303 -1.3487  0.3507 -1.0139
    1TMC1    C713876   3.161   1.787  15.407 -0.6527 -0.5238  0.0691
    1TMC1    C813877   3.536   1.571  15.186 -0.4211 -0.1230  0.3390
    1TMC1    O113878   3.079   1.720  15.343  0.3615 -0.1532 -0.3294
    1TMC1    O213879   3.658   1.561  15.178  0.5480  0.8881  0.3327
    1TMC1    O313880   3.120   1.878  15.495  0.7099  0.0013  0.1402
    1TMC1    H313881   3.181   1.914  15.563  1.0207  2.1790 -1.3084
    1TMC1    O513882   3.447   1.470  15.158 -0.1228 -0.0732  0.1324
    1TMC1    H513883   3.354   1.500  15.149 -0.6637 -1.5213  0.8678
    2MPD2     C13884   3.986   2.320  15.364 -0.5107  0.0483  0.7392
    2MPD2    C113885   3.978   2.242  15.251 -0.3101  0.4949  0.1256
    2MPD2    C213886   3.881   2.144  15.239 -0.3189 -0.4208 -0.5022
    2MPD2    C313887   3.789   2.129  15.341 -0.0000  0.2674 -0.0006
    2MPD2    C413888   3.790   2.212  15.445 -0.0499 -1.2278 -0.4906
    2MPD2    C513889   3.890   2.306  15.455  0.1312  0.4259 -0.4180
    2MPD2     H13890   3.880   2.076  15.155  2.0991 -0.6993 -0.2903
    2MPD2    H113891   3.715   2.215  15.523 -0.2671 -0.3998 -0.7300
    2MPD2    H213892   4.054   2.403  15.382  0.9646 -0.8336 -0.7313
    2MPD2    H313893   3.881   2.387  15.526  4.0955 -1.2211  1.9033
    2MPD2     N13894   3.702   2.018  15.328 -0.3348  0.3740  0.4770
    2MPD2    H513895   3.718   1.950  15.255  0.3096  0.4458  0.5494
    2MPD2    N113896   4.080   2.257  15.153 -0.3953 -0.1523 -0.0181
    2MPD2    H713897   4.154   2.325  15.168  0.0151 -1.0364  1.8960
    3TMC2    C113898   4.179   2.262  14.938 -0.2640 -0.1858  1.1738
    3TMC2    C213899   4.303   2.281  14.987 -0.6461  0.3327  0.0390
    3TMC2    C313900   4.408   2.284  14.901 -0.1648 -1.0147 -0.1461
    3TMC2    C413901   4.155   2.267  14.808 -0.3699 -0.2215 -0.0219
    3TMC2    C513902   4.261   2.256  14.721  0.4116  0.2378  0.6721
    3TMC2    C613903   4.391   2.261  14.769 -0.2258  0.1294 -0.1372
    3TMC2     C13904   4.065   2.228  15.017  0.8374  0.0122 -0.6432
    3TMC2     O13905   3.960   2.198  14.962 -0.1051 -0.1221  0.0800
    3TMC2     H13906   4.310   2.282  15.095 -0.6476 -1.1284  0.0511
    3TMC2    H113907   4.055   2.262  14.767 -0.6308  0.8521  0.4824
    3TMC2    H213908   4.476   2.253  14.703 -1.6668  0.7422 -2.0811
    3TMC2    C713909   4.249   2.251  14.574 -0.3273  0.3760 -0.8919
    3TMC2    C813910   4.537   2.330  14.956  0.7992 -0.6992 -0.6862
    3TMC2    O113911   4.349   2.226  14.509  0.2418 -0.2868  0.1610
    3TMC2    O213912   4.553   2.344  15.078  0.1453 -0.3393 -0.1068
    3TMC2    O513913   4.573   2.427  14.871  0.6593  0.5813 -0.6627
    3TMC2    H513914   4.526   2.447  14.788 -2.6915  1.0762  1.3354
    4TMC2    C113915   3.443   2.550  14.040 -0.1103  0.2365  0.1514
    4TMC2    C213916   3.414   2.683  14.052  0.2591 -0.5123  0.0971
    4TMC2    C313917   3.485   2.761  14.140 -1.0351  0.2381 -0.0789
    4TMC2    C413918   3.540   2.490  14.120 -0.5034  0.6464 -0.2354
    4TMC2    C513919   3.593   2.561  14.222  0.1059  0.4310  0.3870
    4TMC2    C613920   3.574   2.700  14.230  0.2571  0.2924 -0.8221
    4TMC2     C13921   3.375   2.468  13.948 -0.2088  0.4701 -0.2734
    4TMC2     O13922   3.435   2.371  13.889  0.2938  0.6254 -0.1389
    4TMC2     H13923   3.356   2.721  13.968  0.6859  0.3539  0.1961
    4TMC2    H113924   3.550   2.382  14.115 -1.0717  0.5706  0.1849
    4TMC2    H213925   3.626   2.765  14.300  0.5876  0.2364 -1.0188
    4TMC2    C713926   3.713   2.503  14.288  0.2780 -0.1384  0.1944
    4TMC2    C813927   3.511   2.902  14.107  0.5421  0.0798 -0.2927
    4TMC2    O113928   3.699   2.480  14.405  0.6898  0.3227  0.4356
    4TMC2    O213929   3.509   2.991  14.188 -0.2044  0.4967 -0.3755
    4TMC2    O513930   3.536   2.918  13.977  0.0977  0.3884 -0.3356
    4TMC2    H513931   3.556   2.836  13.929 -2.8089 -0.0412 -0.7740
    5MPD2     C13932   2.903   2.312  13.826  0.2783  0.7372  0.8136
    5MPD2    C113933   3.020   2.291  13.753  0.7995  0.9851 -0.2325
    5MPD2    C213934   3.139   2.338  13.806 -0.1639 -0.0513 -1.1926
    5MPD2    C313935   3.137   2.418  13.925 -0.4959 -0.2273 -1.1825
    5MPD2    C413936   3.016   2.455  13.980 -0.0168  0.4003 -0.6702
    5MPD2    C513937   2.900   2.397  13.932 -0.4648 -0.2490  0.5387
    5MPD2     H13938   3.238   2.310  13.772  0.2655  0.9436 -0.7644
    5MPD2    H113939   3.010   2.517  14.069 -1.9041 -1.0502  0.2058
    5MPD2    H213940   2.804   2.279  13.795  0.2780  1.4697  0.0120
    5MPD2    H313941   2.807   2.415  13.984  1.3814  1.8161  3.0685
    5MPD2     N13942   3.247   2.485  13.982  0.4551  0.3393  0.0239
    5MPD2    H513943   3.220   2.548  14.057 -0.0532  0.1496  0.0033
    5MPD2    N113944   3.007   2.227  13.625 -0.0203  0.9402  0.1456
    5MPD2    H713945   2.914   2.200  13.594  0.2745 -0.5170  0.5586
    6MPD1     C13946   2.149   3.368  13.383 -0.3178  0.0081 -1.1237
    6MPD1    C113947   2.064   3.322  13.273  0.3240  0.5660  0.0171
    6MPD1    C213948   2.096   3.214  13.198 -0.1589 -0.5151 -0.0365
    6MPD1    C313949   2.199   3.130  13.243 -0.0442 -0.2468 -0.2203
    6MPD1    C413950   2.264   3.156  13.361 -1.0161 -0.3850  0.3932
    6MPD1    C513951   2.238   3.280  13.426 -0.2552  1.1239  0.4730
    6MPD1     H13952   2.036   3.190  13.112 -0.0129 -0.7270 -0.0808
    6MPD1    H113953   2.334   3.085  13.405  0.4794  0.4959 -0.5472
    6MPD1    H213954   2.124   3.452  13.447  1.1183  1.0772 -1.9741
    6MPD1    H313955   2.274   3.295  13.527  0.6049  2.6812 -0.0567
    6MPD1     N13956   2.232   3.005  13.185  0.4005  0.0816 -0.3326
    6MPD1    H513957   2.312   2.960  13.229  1.2085  0.5687 -1.3260
    6MPD1    N113958   1.942   3.387  13.251 -0.3198 -0.2410  0.1255
    6MPD1    H613959   1.901   3.371  13.160  1.7966 -0.3242 -0.8181
    6MPD1    H713960   1.938   3.487  13.269  0.5833  0.3426 -2.9563
    7MPD2     C13961   2.264   2.189  13.123 -0.2447 -0.0799  0.2888
    7MPD2    C113962   2.362   2.285  13.148  0.1459  0.1886  0.2367
    7MPD2    C213963   2.477   2.241  13.203  0.0080 -0.3201  0.3293
    7MPD2    C313964   2.503   2.114  13.235  0.3508  0.5108  0.4209
    7MPD2    C413965   2.411   2.013  13.215  0.1416 -0.5705  0.0913
    7MPD2    C513966   2.286   2.055  13.161 -0.9022  0.7763  0.6664
    7MPD2     H13967   2.548   2.319  13.227  0.6351 -0.1253 -2.2313
    7MPD2    H113968   2.425   1.914  13.258  0.3277 -1.3306 -1.6790
    7MPD2    H213969   2.169   2.220  13.083  0.1976  0.8870 -0.0209
    7MPD2    H313970   2.203   1.986  13.152 -0.2941  0.3245 -1.4842
    7MPD2     N13971   2.633   2.074  13.276 -0.3840  0.1884 -1.4162
    7MPD2    H513972   2.644   1.978  13.306 -0.3897  0.8540  0.7081
    7MPD2    N113973   2.344   2.424  13.119 -0.1286 -0.3561  0.6462
    7MPD2    H713974   2.411   2.485  13.164  0.3797  0.4477 -1.1985
    8TMC3    C113975   2.868   2.084  13.282 -0.1718  0.1553 -0.7063
    8TMC3    C213976   2.921   2.102  13.410  0.2657  0.4844  0.1154
    8TMC3    C313977   3.053   2.137  13.421 -0.1116 -0.5366 -0.1550
    8TMC3    C413978   2.944   2.119  13.175  0.9015  0.2561  0.1267
    8TMC3    C513979   3.070   2.169  13.187  0.2693 -0.8787  0.0392
    8TMC3    C613980   3.127   2.170  13.313  0.8065  0.2489  0.2374
    8TMC3     C13981   2.742   2.153  13.269 -0.2564  0.7149 -0.1415
    8TMC3     O13982   2.759   2.271  13.244  0.1889 -0.1485 -0.6404
    8TMC3     H13983   2.866   2.059  13.492  1.2760  0.8196  0.9651
    8TMC3    H113984   2.886   2.132  13.084 -0.3584  2.0612  1.1831
    8TMC3    H213985   3.226   2.212  13.328  0.5825  2.0726 -3.3815
    8TMC3    C713986   3.092   2.289  13.107 -0.8989 -0.6091 -0.0693
    8TMC3    C813987   3.109   2.205  13.541 -0.5685 -0.4073 -1.2083
    8TMC3    O113988   3.203   2.312  13.066 -0.1946 -0.0194 -0.1804
    8TMC3    O213989   3.229   2.233  13.546  0.0085  0.3847  0.4371
    9TMC3    C113990   2.237   2.841  13.023  0.5522  0.2299 -0.3124
    9TMC3    C213991   2.365   2.867  12.978  0.3851  0.3712  0.6999
    9TMC3    C313992   2.441   2.757  12.948  0.0752  0.6313 -0.1189
    9TMC3    C413993   2.183   2.717  13.034  0.0607  0.6540 -0.1172
    9TMC3    C513994   2.263   2.612  13.010 -0.2316  0.2431 -0.2372
    9TMC3    C613995   2.391   2.626  12.965 -0.1209  0.7364 -0.2484
    9TMC3     C13996   2.166   2.942  13.089  0.4827  0.3519  0.4727
    9TMC3     O13997   2.043   2.938  13.077 -0.3186 -0.6043 -0.7888
    9TMC3     H13998   2.403   2.967  12.959 -0.3689  0.1443 -2.0265
    9TMC3    H113999   2.089   2.702  13.086 -1.6466 -1.3785 -3.7561
    9TMC3    H214000   2.447   2.537  12.940 -0.6542 -0.0898  1.4973
    9TMC3    C714001   2.228   2.482  13.061 -0.3103  0.2671  0.3854
    9TMC3    C814002   2.583   2.772  12.932  0.4700  0.5794 -0.3592
    9TMC3    O114003   2.128   2.432  13.014  0.2691  0.0690 -0.0442
    9TMC3    O214004   2.627   2.861  12.859 -0.0242  0.4846 -0.1211
   10MPD2     C14005   3.044   2.550  12.975 -0.3146  0.8352  0.3809
   10MPD2    C114006   2.954   2.489  13.055  0.9877  0.2428 -0.1389
   10MPD2    C214007   2.824   2.530  13.063  0.4163  0.3219 -0.0563
   10MPD2    C314008   2.777   2.629  12.976 -0.1360 -1.2561 -0.2545
   10MPD2    C414009   2.868   2.686  12.888 -0.0718 -0.5614 -0.5688
   10MPD2    C514010   3.003   2.650  12.892 -0.6569  0.1515 -0.5089
   10MPD2     H14011   2.746   2.473  13.111 -0.9883  3.2169  1.0643
   10MPD2    H114012   2.845   2.770  12.824 -1.5610 -0.3058  0.3109
   10MPD2    H214013   3.150   2.524  12.972 -0.6945 -0.7913  1.4592
   10MPD2    H314014   3.072   2.718  12.844  0.9879 -2.0642 -1.2946
   10MPD2     N14015   2.645   2.672  12.997 -0.5255 -0.6047 -0.1004
   10MPD2    H514016   2.602   2.629  13.078  1.4306 -0.2792  1.1127
   10MPD2    N114017   2.981   2.369  13.122 -0.6087 -0.2953 -0.0428
   10MPD2    H714018   2.914   2.329  13.186  0.7221  0.4253  1.8049
   11MPD2     C14019   4.163   2.267  14.298 -0.1803 -0.8539 -0.4796
   11MPD2    C114020   4.096   2.324  14.396 -0.8142  0.0024  0.5321
   11MPD2    C214021   3.973   2.388  14.369  0.2606 -0.1303 -0.5798
   11MPD2    C314022   3.933   2.392  14.236 -0.5067 -0.1765  0.6615
   11MPD2    C414023   4.003   2.337  14.130  0.6861  0.6199 -0.3824
   11MPD2    C514024   4.115   2.276  14.167 -0.0812 -0.0212 -0.3368
   11MPD2     H14025   3.920   2.419  14.457  0.6086  2.6817 -1.3538
   11MPD2    H114026   3.961   2.330  14.031 -1.0886 -2.4676  0.5958
   11MPD2    H214027   4.250   2.203  14.302  1.1509  0.8055 -2.8177
   11MPD2    H314028   4.177   2.226  14.094  0.4734 -1.5781  1.1975
   11MPD2     N14029   3.804   2.448  14.205  0.1884 -0.0642 -0.7168
   11MPD2    H514030   3.794   2.478  14.109 -1.6623  2.3036  0.2183
   11MPD2    N114031   4.135   2.306  14.533  0.1588 -0.5333  0.1253
   11MPD2    H714032   4.070   2.343  14.601 -0.1592 -0.8252 -0.0243
    1MPD1     C14033   2.387   3.366  16.367  0.0616  0.6979  0.2315
    1MPD1    C114034   2.267   3.297  16.353 -0.0144  0.1264 -0.0554
    1MPD1    C214035   2.225   3.214  16.454 -0.5790 -0.0233 -0.3701
    1MPD1    C314036   2.285   3.218  16.571  0.1346  0.4286 -0.3586
    1MPD1    C414037   2.401   3.292  16.589  0.2805  0.4584  0.4129
    1MPD1    C514038   2.451   3.370  16.488 -0.2664  0.0761  0.6048
    1MPD1     H14039   2.152   3.136  16.434 -1.8499  1.5369 -1.8055
    1MPD1    H114040   2.444   3.295  16.688  1.0383 -3.4676  0.2145
    1MPD1    H214041   2.422   3.432  16.289 -0.8298  0.7209 -0.1579
    1MPD1    H314042   2.542   3.428  16.496  0.4801 -1.0026  0.0002
    1MPD1     N14043   2.242   3.139  16.683  0.3028 -0.4026  0.1853
    1MPD1    H514044   2.302   3.130  16.765 -0.2797 -0.8966  0.5591
    1MPD1    N114045   2.216   3.287  16.225  0.5340  0.3718  0.4800
    1MPD1    H614046   2.242   3.374  16.179 -2.1322  0.9000 -0.0371
    1MPD1    H714047   2.115   3.275  16.224  0.5667  0.0116  1.6010
    2MPD1     C14048   1.509   3.101  17.297 -0.1794  0.6839  0.2973
    2MPD1    C114049   1.560   3.189  17.207  0.1362  1.2107  1.2607
    2MPD1    C214050   1.657   3.140  17.121  0.1528  0.4274  0.1297
    2MPD1    C314051   1.715   3.017  17.137 -0.0042 -0.2642 -0.2067
    2MPD1    C414052   1.657   2.931  17.231  0.4690 -0.1687 -0.1195
    2MPD1    C514053   1.565   2.980  17.314  0.2385 -0.3899  0.0685
    2MPD1     H14054   1.688   3.200  17.036 -1.1325 -0.3552 -0.8899
    2MPD1    H114055   1.705   2.835  17.239 -1.4722 -0.9563  2.2024
    2MPD1    H214056   1.438   3.130  17.373  0.0433  0.6908  0.5038
    2MPD1    H314057   1.525   2.920  17.396  0.9396 -0.9814 -0.0206
    2MPD1     N14058   1.836   2.988  17.066  0.2538 -0.2631  0.3808
    2MPD1    H514059   1.875   3.055  17.001 -0.2300  0.4968  0.8733
    2MPD1    N114060   1.492   3.312  17.186 -0.2848  0.4908  0.9993
    2MPD1    H614061   1.550   3.374  17.131  0.1492 -1.3468 -0.5900
    2MPD1    H714062   1.474   3.353  17.278 -1.8051  1.2301  0.3836
    3TMC3    C114063   2.030   2.890  17.007 -0.1440  0.5610  0.3330
    3TMC3    C214064   2.146   2.841  17.055  0.1450 -0.0027  0.3207
    3TMC3    C314065   2.254   2.853  16.978 -0.6129 -0.1073 -0.2303
    3TMC3    C414066   2.013   2.944  16.884 -0.1965  0.0326 -0.1772
    3TMC3    C514067   2.134   2.984  16.822  0.3478 -0.2815 -0.1614
    3TMC3    C614068   2.250   2.932  16.863  0.8784 -0.8640 -0.4480
    3TMC3     C14069   1.922   2.884  17.097  0.2993  0.5651  0.4355
    3TMC3     O14070   1.920   2.791  17.176  0.3527  0.8640  0.1285
    3TMC3     H14071   2.153   2.786  17.149  1.8889 -1.3107 -0.5772
    3TMC3    H114072   1.918   2.964  16.836 -0.5395  0.2154  0.5877
    3TMC3    H214073   2.342   2.961  16.814  1.0886  0.2327  0.5930
    3TMC3    C714074   2.133   3.063  16.697  1.3264 -0.2074 -0.6599
    3TMC3    C814075   2.372   2.779  17.022  0.0239 -0.2173 -1.3888
    3TMC3    O114076   2.028   3.074  16.635  0.0689  0.4871 -0.3804
    3TMC3    O214077   2.376   2.742  17.140  0.7446  0.1236  0.1328
    4MPD1     C14078   2.852   2.585  16.962  0.0469 -0.1137  0.0490
    4MPD1    C114079   2.803   2.629  16.843  0.0477 -0.9393  0.0609
    4MPD1    C214080   2.672   2.681  16.842  0.2437 -0.1716  0.3328
    4MPD1    C314081   2.584   2.683  16.948  0.8977  0.2325 -0.1280
    4MPD1    C414082   2.637   2.630  17.066 -0.5232  0.1825  0.3321
    4MPD1    C514083   2.763   2.576  17.068 -0.8703  0.4664  0.5149
    4MPD1     H14084   2.638   2.726  16.749  0.2738 -1.9926 -0.5488
    4MPD1    H114085   2.562   2.625  17.144 -1.1067  1.5186 -0.1401
    4MPD1    H214086   2.954   2.550  16.975 -0.6214 -1.7133  0.9956
    4MPD1    H314087   2.800   2.547  17.166 -0.7059 -0.2142  0.2508
    4MPD1     N14088   2.472   2.767  16.929  0.5517  0.4599  0.1476
    4MPD1    H514089   2.459   2.796  16.833 -4.2848  0.6368  0.8491
    4MPD1    N114090   2.894   2.644  16.728  0.6131 -0.1200  0.2648
    4MPD1    H614091   2.960   2.567  16.722  1.0937  0.3832 -0.8718
    4MPD1    H714092   2.835   2.642  16.645  0.4472 -1.9715  0.4358
    1TCq1    O114093   1.496   3.260  11.306  0.0982  0.0751  0.5031
    1TCq1    C114094   1.521   3.167  11.214 -0.5262  0.4394 -0.1519
    1TCq1    O214095   1.571   3.058  11.237 -0.1949 -0.4131  0.0535
    1TCq1    C214096   1.542   3.238  11.089  0.0315  0.4432  0.4322
    1TCq1    C314097   1.463   3.347  11.054 -0.3556 -0.4828  0.0140
    1TCq1    C414098   1.508   3.426  10.947  0.1444  0.3159 -0.1762
    1TCq1    C514099   1.628   3.406  10.889  0.8391  0.2086 -0.8760
    1TCq1    C614100   1.703   3.296  10.931  0.5884  0.3872 -0.3861
    1TCq1    C714101   1.651   3.205  11.015  0.8075 -0.0525 -0.0793
    1TCq1    C814102   1.834   3.267  10.872 -0.6877  0.1587  0.2274
    1TCq1    O414103   1.893   3.169  10.912  0.5784  0.2628 -0.8126
    1TCq1    C914104   1.467   3.561  10.948  0.0888 -0.6466 -0.0163
    1TCq1    O514105   1.537   3.637  11.018 -0.1070  0.1888 -0.2312
    1TCq1    O614106   1.344   3.576  10.926  0.2088  0.2821 -0.9553
    1TCq1    H114107   1.493   3.351  11.270 -1.5280 -0.1546  0.0358
    1TCq1    H214108   1.385   3.380  11.122  1.0690  0.4567  1.1609
    1TCq1    H314109   1.669   3.493  10.838  1.6961 -0.0532 -0.6436
    1TCq1    H414110   1.719   3.126  11.045 -1.6494 -2.5638 -1.2098
    2MPD1     C14111   2.214   3.405  10.552 -0.6720  0.4381 -0.0875
    2MPD1    C114112   2.108   3.489  10.520 -0.1262  0.4154 -0.3466
    2MPD1    C214113   1.991   3.466  10.593 -1.0104 -0.4079  0.2187
    2MPD1    C314114   1.990   3.368  10.694 -0.5932 -0.3912  0.5112
    2MPD1    C414115   2.104   3.301  10.730 -0.1731  0.0845 -0.2516
    2MPD1    C514116   2.218   3.326  10.664  0.0621 -0.9019  0.0172
    2MPD1     H14117   1.900   3.520  10.572 -1.5342 -0.1478  3.0982
    2MPD1    H114118   2.107   3.218  10.799  0.6180  0.6629  0.4024
    2MPD1    H214119   2.306   3.418  10.496 -0.7839  0.4747 -0.2632
    2MPD1    H314120   2.303   3.263  10.687  0.9023 -0.2231 -1.2569
    2MPD1     N14121   1.860   3.348  10.760 -0.0501 -0.0150  0.3947
    2MPD1    H514122   1.778   3.394  10.722 -0.3110 -0.8639 -0.0699
    2MPD1    N114123   2.109   3.569  10.404 -0.0894  0.1353 -0.5620
    2MPD1    H614124   2.043   3.646  10.409  1.1920  1.2674 -1.1033
    2MPD1    H714125   2.197   3.610  10.375 -1.5547  2.1204 -2.1549
    1TMC1    C114126   0.121   4.506   0.739  0.0165 -0.2278  0.1571
    1TMC1    C214127   0.133   4.367   0.723 -0.7099  0.0097 -0.2437
    1TMC1    C314128   0.120   4.292   0.836 -0.1097 -0.1275  0.4542
    1TMC1    C414129   0.124   4.570   0.864  1.1811  0.6764  0.4300
    1TMC1    C514130   0.130   4.482   0.972 -0.5444  0.6236  0.2065
    1TMC1    C614131   0.136   4.347   0.961  0.4386  0.5399  0.0448
    1TMC1     C14132   0.121   4.586   0.621  0.4317  0.6295  0.4227
    1TMC1     O14133   0.072   4.529   0.523 -0.1823 -0.2490 -1.1283
    1TMC1     H14134   0.168   4.335   0.625 -0.0438  1.1817 -0.3930
    1TMC1    H114135   0.105   4.676   0.880  3.1974  0.8176  1.9859
    1TMC1    H214136   0.130   4.280   1.046  0.8405  0.4174 -0.0220
    1TMC1    C714137   0.171   4.532   1.108 -0.0142 -0.0631  0.5091
    1TMC1    C814138   0.116   4.150   0.833  0.0332  0.3437 -0.0316
    1TMC1    O114139   0.136   4.482   1.216  0.5587  0.1827  0.0664
    1TMC1    O214140   0.188   4.093   0.911 -0.0900 -0.1852 -0.6965
    1TMC1    O314141   0.248   4.637   1.092 -0.1709 -0.1803 -0.0720
    1TMC1    H314142   0.279   4.649   0.999  0.3655 -0.1824  0.1045
    1TMC1    O514143   0.101   4.111   0.709  0.1264 -0.3991 -0.2695
    1TMC1    H514144   0.051   4.165   0.645  0.3886 -0.1745 -0.2833
    2MPD1     C14145   0.178   0.260   0.343 -0.2080  0.3109  0.1814
    2MPD1    C114146   0.222   0.286   0.468 -0.5568  0.0247 -0.4946
    2MPD1    C214147   0.215   0.184   0.558 -0.2733  0.1223 -0.0464
    2MPD1    C314148   0.177   0.058   0.520 -0.3839  0.7573  0.7588
    2MPD1    C414149   0.123   0.036   0.395  0.2823 -0.0522  0.4745
    2MPD1    C514150   0.132   0.136   0.305 -0.5884 -0.2328  0.6088
    2MPD1     H14151   0.256   0.209   0.655  0.4929  1.7515 -0.7799
    2MPD1    H114152   0.085   4.683   0.361 -0.3153 -0.1915  1.5261
    2MPD1    H214153   0.179   0.340   0.270 -1.9749  0.7869  0.6806
    2MPD1    H314154   0.094   0.118   0.205 -1.8705 -0.2958  1.1099
    2MPD1     N14155   0.174   4.707   0.626  0.1901 -0.2148  0.0839
    2MPD1    H514156   0.215   4.729   0.716 -1.6823  0.9847  0.6395
    2MPD1    N114157   0.288   0.410   0.502 -0.3458 -0.1403 -0.2259
    2MPD1    H614158   0.288   0.434   0.601 -1.4667 -1.3068  0.0517
    2MPD1    H714159   0.258   0.492   0.449 -1.6844 -0.7916 -0.4908
    1MPD1     C14160   3.045   2.202  12.155 -0.3226 -0.4502 -0.5032
    1MPD1    C114161   3.094   2.254  12.276 -0.1567  0.5336 -0.0413
    1MPD1    C214162   3.207   2.335  12.260 -0.3675 -0.0665 -0.5081
    1MPD1    C314163   3.244   2.383  12.135 -0.1092  0.5681 -0.7228
    1MPD1    C414164   3.169   2.356  12.027  0.7692 -0.6201  0.7986
    1MPD1    C514165   3.082   2.255  12.033  0.2491 -0.3495 -0.6416
    1MPD1     H14166   3.263   2.360  12.350  1.1695  1.4645 -1.8843
    1MPD1    H114167   3.198   2.389  11.928  0.4943 -0.8816  0.6296
    1MPD1    H214168   2.985   2.112  12.159  0.7576 -1.1005  1.3298
    1MPD1    H314169   3.040   2.212  11.943 -1.8440  2.1067 -0.8372
    1MPD1     N14170   3.353   2.474  12.132 -0.7931  0.8903  0.3394
    1MPD1    H514171   3.390   2.504  12.221  0.9861 -3.2736  0.9974
    1MPD1    N114172   3.068   2.179  12.391  0.2648  0.1215  0.0600
    1MPD1    H614173   2.974   2.140  12.390 -0.5291  2.0346  1.5871
    1MPD1    H714174   3.070   2.232  12.477 -0.9777 -0.2246  0.2977
    2MPD1     C14175   2.872   4.106  11.223  0.7140 -0.0975 -0.6271
    2MPD1    C114176   2.846   4.106  11.089 -0.2317 -0.9349  0.3321
    2MPD1    C214177   2.910   4.004  11.018 -0.9583  0.6876  0.0087
    2MPD1    C314178   2.989   3.898  11.072 -0.3940 -0.1520 -0.1945
    2MPD1    C414179   2.995   3.896  11.208  0.4934 -0.1016 -0.2427
    2MPD1    C514180   2.949   4.001  11.280  1.1286  0.2725  0.7819
    2MPD1     H14181   2.901   4.003  10.910 -2.1826  0.4251  0.1050
    2MPD1    H114182   3.019   3.801  11.256  0.5872  0.3363  0.5647
    2MPD1    H214183   2.829   4.187  11.280 -1.4147 -0.2516 -2.0241
    2MPD1    H314184   2.959   4.002  11.388 -1.9325  0.8767  1.0723
    2MPD1     N14185   3.048   3.797  10.997  0.2422  0.1655  0.1407
    2MPD1    H514186   3.115   3.738  11.045  0.8017  0.6713 -0.0189
    2MPD1    N114187   2.777   4.206  11.027  0.4602  0.3822  0.1113
    2MPD1    H614188   2.700   4.235  11.087  1.9983  1.3675  1.6132
    2MPD1    H714189   2.748   4.169  10.937  1.5401 -0.3944  0.0793
    3MPD1     C14190   2.944   2.919  10.412 -0.2506  0.5148 -0.0483
    3MPD1    C114191   2.965   2.925  10.550  0.0210  0.2136  0.3414
    3MPD1    C214192   2.998   3.048  10.602 -0.7129  0.1445  0.5564
    3MPD1    C314193   3.025   3.167  10.528  0.3014 -0.6014 -0.3671
    3MPD1    C414194   3.013   3.152  10.394 -0.4250 -0.4724  0.2673
    3MPD1    C514195   2.976   3.028  10.337 -0.5661 -0.3426  0.3589
    3MPD1     H14196   3.015   3.060  10.709 -1.9604  2.1069  0.5319
    3MPD1    H114197   3.010   3.235  10.325 -0.7730 -0.1199  0.7045
    3MPD1    H214198   2.892   2.839  10.361  0.3581 -0.7128  1.2676
    3MPD1    H314199   2.953   3.033  10.232  0.4553 -1.1740  0.0941
    3MPD1     N14200   3.058   3.285  10.597 -0.6575  0.1082  0.1216
    3MPD1    H514201   3.073   3.280  10.698 -2.7126 -0.4769  0.3965
    3MPD1    N114202   2.924   2.816  10.624  0.1573  0.5741  0.0274
    3MPD1    H614203   2.930   2.730  10.571 -0.9564 -0.2080  1.1527
    3MPD1    H714204   2.983   2.801  10.706 -0.4324 -0.2668  0.2973
    4MPD2     C14205   3.541   3.212  12.011 -0.6512 -0.0098 -0.0159
    4MPD2    C114206   3.644   3.117  11.983 -0.9465  0.0196 -0.4990
    4MPD2    C214207   3.742   3.149  11.891 -0.1506 -0.6777 -0.1588
    4MPD2    C314208   3.740   3.279  11.831 -0.2020  1.0762 -0.2329
    4MPD2    C414209   3.648   3.375  11.868 -0.1645 -0.8729  0.5535
    4MPD2    C514210   3.556   3.336  11.960 -0.3414 -0.0482  0.8138
    4MPD2     H14211   3.820   3.082  11.855  0.7987  0.9722 -1.1561
    4MPD2    H114212   3.634   3.474  11.826 -4.3574 -0.9723  1.7256
    4MPD2    H214213   3.458   3.184  12.076 -0.2590  1.2682  1.0443
    4MPD2    H314214   3.484   3.409  11.998  1.5247  1.8106  0.7830
    4MPD2     N14215   3.841   3.296  11.734  0.0696  0.5354 -0.5010
    4MPD2    H514216   3.897   3.214  11.715 -0.0330  0.1965  0.6688
    4MPD2    N114217   3.654   2.986  12.043  0.3038 -0.2792  0.8035
    4MPD2    H714218   3.716   2.917  12.002  2.0678  0.8009  1.6654
    5TMC3    C114219   3.613   2.794  12.167  0.3292  0.1015  0.3761
    5TMC3    C214220   3.515   2.708  12.153 -0.4629  0.6588  0.1811
    5TMC3    C314221   3.530   2.602  12.069 -0.1863  0.1131  0.9425
    5TMC3    C414222   3.728   2.760  12.109  0.1917 -0.3822  0.2232
    5TMC3    C514223   3.739   2.660  12.017 -0.3627 -0.1391  0.3137
    5TMC3    C614224   3.632   2.587  11.981 -0.1403  0.5235 -0.1985
    5TMC3     C14225   3.581   2.932  12.148  0.2597 -0.2903 -0.3835
    5TMC3     O14226   3.497   2.987  12.217 -0.0358  0.3134 -0.3280
    5TMC3     H14227   3.423   2.743  12.200 -0.6456  0.0016  0.3185
    5TMC3    H114228   3.819   2.795  12.156  0.3173 -1.3336  0.6902
    5TMC3    H214229   3.622   2.525  11.893 -1.4378  1.2305 -0.5612
    5TMC3    C714230   3.844   2.696  11.918  0.7477 -0.3854  0.6051
    5TMC3    C814231   3.406   2.538  12.031  0.4866 -0.3959 -0.3190
    5TMC3    O114232   3.881   2.812  11.929 -0.6382 -0.2691 -0.2657
    5TMC3    O214233   3.379   2.518  11.913 -0.2015  0.1101 -0.1176
    6TMC3    C114234   3.097   3.657  10.808  0.1881 -0.4491  0.2400
    6TMC3    C214235   3.057   3.595  10.693  0.5281  0.5510  0.1242
    6TMC3    C314236   3.140   3.496  10.647  0.2538 -0.5049 -0.8630
    6TMC3    C414237   3.221   3.626  10.860 -0.2936 -0.3622  0.0298
    6TMC3    C514238   3.301   3.530  10.807  0.6140  0.3276  0.3060
    6TMC3    C614239   3.256   3.453  10.701  0.0619 -0.2035 -0.0756
    6TMC3     C14240   3.015   3.763  10.867  0.6928 -0.1989 -0.4467
    6TMC3     O14241   2.921   3.812  10.804  0.2199 -0.3766 -0.0424
    6TMC3     H14242   2.964   3.607  10.640  0.2916  0.5041  0.5276
    6TMC3    H114243   3.267   3.694  10.931  1.3181 -1.5902  0.1772
    6TMC3    H214244   3.307   3.371  10.652  1.4747 -0.9754  2.6462
    6TMC3    C714245   3.439   3.529  10.856  0.6458 -0.3441  0.4295
    6TMC3    C814246   3.080   3.413  10.545  0.1336 -0.0136 -0.1354
    6TMC3    O114247   3.458   3.570  10.971  0.2749  0.5382 -0.0782
    6TMC3    O214248   3.076   3.445  10.424  0.0317 -0.2624 -0.2903
    7MPD2     C14249   3.992   2.689  11.437 -0.9263 -0.7294 -0.1565
    7MPD2    C114250   3.962   2.800  11.512  0.2829  0.1949  0.4854
    7MPD2    C214251   3.914   2.775  11.643  0.7549 -0.7088 -0.0881
    7MPD2    C314252   3.916   2.642  11.692 -0.7691  0.1440  0.3856
    7MPD2    C414253   3.961   2.537  11.616  0.4054  0.0673  0.1075
    7MPD2    C514254   3.995   2.564  11.485 -0.3064 -0.8831 -0.1679
    7MPD2     H14255   3.859   2.854  11.692 -0.5505 -1.2056 -0.7585
    7MPD2    H114256   3.929   2.438  11.646  2.2376 -1.0412 -1.5971
    7MPD2    H214257   4.030   2.712  11.338 -0.2558 -1.3793 -0.0454
    7MPD2    H314258   4.025   2.481  11.422  2.1843 -0.6645  0.7305
    7MPD2     N14259   3.861   2.608  11.813 -0.5891  0.0948 -0.0623
    7MPD2    H514260   3.846   2.509  11.830  1.7068 -0.3778 -0.9280
    7MPD2    N114261   3.971   2.928  11.452  0.3278  0.1452  0.4924
    7MPD2    H714262   3.993   2.932  11.353  1.0939 -2.7565  0.5307
    8TMC3    C114263   3.992   3.170  11.464 -0.2043  0.1208  0.0665
    8TMC3    C214264   3.935   3.196  11.341 -0.0409  0.6329  0.4807
    8TMC3    C314265   3.877   3.317  11.325 -0.1594 -0.1038  0.5092
    8TMC3    C414266   4.010   3.270  11.560 -0.1211  0.2824  0.0629
    8TMC3    C514267   3.939   3.390  11.544  0.0846  0.0794  0.0831
    8TMC3    C614268   3.877   3.416  11.428 -0.1958  0.1731 -0.0038
    8TMC3     C14269   3.979   3.042  11.536 -0.3244 -0.3806  0.2411
    8TMC3     O14270   3.985   3.043  11.661 -0.3459 -0.2791 -0.3468
    8TMC3     H14271   3.926   3.118  11.266  1.7964 -0.6158  1.5601
    8TMC3    H114272   4.059   3.260  11.656  1.8521  0.0841 -0.9615
    8TMC3    H214273   3.805   3.497  11.416  1.1345  1.3938  0.2145
    8TMC3    C714274   3.855   3.417  11.660 -0.2286  0.0230  0.2579
    8TMC3    C814275   3.798   3.348  11.203  0.1920  0.0211  0.4742
    8TMC3    O114276   3.824   3.533  11.674  0.1292 -0.6446 -0.7213
    8TMC3    O214277   3.705   3.425  11.214  0.2361  0.0738 -0.3954
    9MPD2     C14278   3.854   3.225  10.865 -0.3793  0.2614  0.4202
    9MPD2    C114279   3.793   3.295  10.967 -0.6326 -0.3511 -0.9258
    9MPD2    C214280   3.684   3.378  10.934 -0.9429 -0.1520  0.2387
    9MPD2    C314281   3.630   3.379  10.809 -0.0158  0.5136  0.6120
    9MPD2    C414282   3.681   3.293  10.718 -0.5070 -0.2387 -0.6855
    9MPD2    C514283   3.795   3.220  10.744  1.2546 -0.4789  0.5757
    9MPD2     H14284   3.632   3.431  11.012  0.5092  2.8639 -0.8667
    9MPD2    H114285   3.655   3.304  10.614 -2.0234  1.3967 -0.1428
    9MPD2    H214286   3.941   3.162  10.880 -0.8827 -0.6860 -0.6400
    9MPD2    H314287   3.858   3.179  10.666  0.4963  0.6555 -0.6276
    9MPD2     N14288   3.507   3.443  10.774  0.2352  0.5948  0.3357
    9MPD2    H514289   3.478   3.439  10.677  1.5979  1.6811 -0.1095
    9MPD2    N114290   3.845   3.291  11.093  0.2705  0.2156 -0.2863
    9MPD2    H714291   3.935   3.246  11.106  0.6607  1.2626  0.6467
    1MPD1     C14292   4.647   2.133  17.027  0.0891  0.0372  0.2529
    1MPD1    C114293   4.666   2.061  16.906 -0.2430  0.3031 -0.3002
    1MPD1    C214294   4.658   2.133  16.791  0.4915 -0.2308 -0.2002
    1MPD1    C314295   4.631   2.266  16.788  0.2647  0.5604  0.2092
    1MPD1    C414296   4.620   2.329  16.913 -0.4037 -0.3941 -0.2756
    1MPD1    C514297   4.643   2.269  17.031  0.1744  0.2121 -0.2643
    1MPD1     H14298   4.683   2.082  16.698  2.0021 -0.2033  0.1878
    1MPD1    H114299   4.600   2.436  16.917 -2.1483 -0.7083 -0.5988
    1MPD1    H214300   4.663   2.068  17.112 -0.6298 -0.3731  0.0784
    1MPD1    H314301   4.636   2.318  17.127 -1.2475 -0.1717 -0.1800
    1MPD1     N14302   4.626   2.342  16.672  0.4089  0.4224 -0.4829
    1MPD1    H514303   4.609   2.441  16.684  0.5093  0.1793  1.6002
    1MPD1    N114304   4.719   1.933  16.911  0.1075 -0.2009 -1.1713
    1MPD1    H614305   4.690   1.876  16.990 -2.5532 -0.0521 -2.0658
    1MPD1    H714306   4.698   1.877  16.829 -3.9395 -0.1837 -0.1242
    2TMC2    C114307   4.582   2.615  16.362  0.3593  0.3487 -0.6159
    2TMC2    C214308   4.654   2.583  16.251 -0.2320 -0.0665 -0.6925
    2TMC2    C314309   4.687   2.451  16.230  0.8117 -0.3064 -0.0042
    2TMC2    C414310   4.559   2.520  16.461  0.1678  0.0881  0.4690
    2TMC2    C514311   4.606   2.395  16.444 -0.7053  0.1491  0.4925
    2TMC2    C614312   4.671   2.357  16.331  0.1517  0.6635 -0.8221
    2TMC2     C14313   4.528   2.752  16.372 -0.0698 -0.0935 -0.2526
    2TMC2     O14314   4.462   2.778  16.472 -0.2914 -0.6687  0.1274
    2TMC2     H14315   4.663   2.643  16.161  0.8455  2.8745  1.4062
    2TMC2    H114316   4.503   2.532  16.553  0.6473  3.2722  0.3272
    2TMC2    H214317   4.700   2.253  16.330  1.7654  1.0650  2.6245
    2TMC2    C714318   4.605   2.291  16.546 -0.4962  0.7307 -1.0562
    2TMC2    C814319   4.692   2.414  16.088 -0.3386 -0.2206 -0.2530
    2TMC2    O114320   4.587   2.173  16.510  0.8386  0.3329 -0.0510
    2TMC2    O214321   4.720   2.494  15.994 -0.7872  0.0134  0.9926
    2TMC2    O514322   4.720   2.282  16.080  0.3616  0.0944  0.2702
    2TMC2    H514323   4.704   2.232  16.162  0.9538  1.0071  0.9451
    3MPD1     C14324   4.460   3.235  16.200 -0.5548  0.0263 -0.5869
    3MPD1    C114325   4.562   3.177  16.123 -0.5965 -0.8696 -0.3575
    3MPD1    C214326   4.596   3.040  16.154  0.5987  0.5037 -0.1645
    3MPD1    C314327   4.538   2.973  16.257  0.0140  0.1255  0.5318
    3MPD1    C414328   4.434   3.031  16.325 -0.1005  0.2882  0.7251
    3MPD1    C514329   4.390   3.158  16.291 -0.2073  0.1896  0.2497
    3MPD1     H14330   4.673   2.999  16.091  0.1065  0.2409 -0.5975
    3MPD1    H114331   4.393   2.983  16.413 -1.6260  1.1662  0.4860
    3MPD1    H214332   4.432   3.339  16.191  0.9963  0.4913 -0.1030
    3MPD1    H314333   4.307   3.201  16.346  0.7163 -1.8280  3.1933
    3MPD1     N14334   4.581   2.841  16.284  0.3975 -0.7618  0.6468
    3MPD1    H514335   4.654   2.802  16.226 -1.3421 -3.1554  0.0702
    3MPD1    N114336   4.648   3.255  16.045  0.2444  0.0626  0.8080
    3MPD1    H614337   4.609   3.346  16.019  1.2943 -0.2169 -1.6946
    3MPD1    H714338   4.681   3.201  15.966  2.9490  1.8247  0.7697
    1TMC1    C114339   1.810   1.252  13.194  0.1106 -0.1340 -0.2129
    1TMC1    C214340   1.775   1.344  13.101 -0.6278 -0.4852 -0.3342
    1TMC1    C314341   1.644   1.395  13.109 -0.2992 -0.5520 -0.3854
    1TMC1    C414342   1.720   1.193  13.280  0.3818 -0.0192  0.3257
    1TMC1    C514343   1.589   1.240  13.289 -0.2816  0.4910 -0.3723
    1TMC1    C614344   1.555   1.338  13.201  0.5043  0.4442 -0.1739
    1TMC1     C14345   1.951   1.232  13.199  1.4166  0.8510  0.7273
    1TMC1     O14346   2.025   1.271  13.109 -0.7176 -0.1996 -0.1336
    1TMC1     H14347   1.844   1.408  13.046  0.3587  0.1882  1.6687
    1TMC1    H114348   1.753   1.125  13.358  1.4951 -0.9290 -0.9538
    1TMC1    H214349   1.453   1.370  13.215 -0.2141 -0.9156 -2.3762
    1TMC1    C714350   1.479   1.193  13.365  0.4461 -0.4224 -0.9726
    1TMC1    C814351   1.605   1.420  12.971 -0.0432 -0.6599  0.6989
    1TMC1    O114352   1.395   1.273  13.407  0.6312  0.2906 -0.2619
    1TMC1    O214353   1.664   1.363  12.879  0.4317  0.0734 -0.2059
    1TMC1    O314354   1.518   1.094  13.438 -0.1961  0.0437  0.3899
    1TMC1    H314355   1.559   1.024  13.382  1.1776  0.4139  0.9314
    1TMC1    O514356   1.470   1.431  12.975  0.0418 -0.1584  0.1184
    1TMC1    H514357   1.442   1.481  13.054 -0.6436 -0.7951  0.2762
    2MPD2     C14358   2.232   1.180  13.300  0.1547  0.7686 -0.0641
    2MPD2    C114359   2.117   1.178  13.375  0.0011  0.7173 -0.8439
    2MPD2    C214360   2.115   1.148  13.506 -0.0732 -0.2529 -0.0839
    2MPD2    C314361   2.243   1.120  13.565 -0.3100  1.2306  0.0332
    2MPD2    C414362   2.355   1.110  13.489  0.0916  0.3250 -0.2529
    2MPD2    C514363   2.351   1.140  13.352 -0.9656 -0.8315 -0.6559
    2MPD2     H14364   2.029   1.155  13.571  1.0175 -0.3368  1.3796
    2MPD2    H114365   2.451   1.072  13.523 -0.6249 -0.3083  1.0144
    2MPD2    H214366   2.226   1.206  13.195  0.5944  1.5717  0.1126
    2MPD2    H314367   2.437   1.128  13.287 -0.5650  1.3673 -0.5003
    2MPD2     N14368   2.246   1.094  13.704  0.1603 -0.5272 -0.7925
    2MPD2    H514369   2.158   1.095  13.756 -0.6180  0.2673 -2.1284
    2MPD2    N114370   1.986   1.202  13.325 -0.3519  0.3667 -0.3408
    2MPD2    H714371   1.914   1.201  13.397 -0.1660  0.4164 -0.1535
    3TCq1    O114372   2.566   1.082  14.335  0.6138  0.4947  0.0398
    3TCq1    C114373   2.561   1.128  14.205  0.0538 -0.1539  0.4952
    3TCq1    O214374   2.653   1.187  14.143 -0.2778 -0.0150 -0.4271
    3TCq1    C214375   2.437   1.090  14.140  0.9473 -0.1580  0.0861
    3TCq1    C314376   2.318   1.121  14.194 -0.1065  0.2860  0.1268
    3TCq1    C414377   2.209   1.139  14.115 -0.5366  0.2358  0.6284
    3TCq1    C514378   2.215   1.141  13.980 -0.2102  0.3193  0.6142
    3TCq1    C614379   2.333   1.108  13.923 -0.2944 -0.3706 -0.0112
    3TCq1    C714380   2.444   1.080  14.000 -0.3763 -0.6496 -0.1852
    3TCq1    C814381   2.359   1.102  13.783  0.4972  0.4201 -0.5890
    3TCq1    O414382   2.473   1.117  13.744 -0.3139 -0.5439 -0.1020
    3TCq1    C914383   2.086   1.161  14.182 -0.2304  0.5008 -0.3771
    3TCq1    O514384   2.044   1.280  14.169  0.1099 -0.2536 -0.2128
    3TCq1    O614385   2.058   1.088  14.279 -0.2190  0.0970  0.3619
    3TCq1    H114386   2.483   1.049  14.376  0.4078  2.8986  1.5670
    3TCq1    H214387   2.296   1.103  14.299  0.3798 -1.0665 -0.0135
    3TCq1    H314388   2.124   1.163  13.926  0.1845  1.2484  0.3275
    3TCq1    H414389   2.542   1.070  13.954  0.6159 -3.2986  2.4599
    1MPD2     C14390   1.110   2.436  14.718 -0.1583 -0.1425 -0.3649
    1MPD2    C114391   1.009   2.372  14.643  0.3409  0.0737  0.1707
    1MPD2    C214392   1.006   2.233  14.640 -0.2845 -0.3433 -0.6073
    1MPD2    C314393   1.105   2.161  14.695  0.4538  0.3885 -0.0671
    1MPD2    C414394   1.202   2.224  14.773 -0.4462  0.4746 -1.0898
    1MPD2    C514395   1.201   2.362  14.780  0.1955 -0.2441 -0.3856
    1MPD2     H14396   0.942   2.180  14.571 -3.6401  2.1266  0.6267
    1MPD2    H114397   1.288   2.172  14.814 -0.5941 -2.0410 -3.9435
    1MPD2    H214398   1.116   2.544  14.717  2.1431 -0.2478  1.3894
    1MPD2    H314399   1.283   2.410  14.831 -1.9685  0.5112  2.3943
    1MPD2     N14400   1.098   2.025  14.672  0.1064  0.2934 -0.5183
    1MPD2    H514401   1.034   1.991  14.600  0.6529  2.9789 -2.2653
    1MPD2    N114402   0.928   2.443  14.557  0.3722 -0.0524  0.6553
    1MPD2    H714403   0.946   2.543  14.546  1.3430 -0.4450 -1.3185
    2TMC3    C114404   0.760   2.494  14.384 -0.6902  0.5436  0.8939
    2TMC3    C214405   0.654   2.437  14.323 -0.4211  0.1566 -0.4418
    2TMC3    C314406   0.624   2.441  14.189  0.3434  0.2590  0.1202
    2TMC3    C414407   0.847   2.564  14.303 -0.5477 -0.2308 -0.1100
    2TMC3    C514408   0.821   2.558  14.167  0.3171 -0.0084 -0.0534
    2TMC3    C614409   0.707   2.499  14.110 -0.6316  0.0206 -0.2312
    2TMC3     C14410   0.826   2.395  14.475 -0.7472 -0.8192 -0.4741
    2TMC3     O14411   0.771   2.285  14.479  0.0178 -0.6287  0.1029
    2TMC3     H14412   0.585   2.384  14.388  0.1369  1.6885  1.3939
    2TMC3    H114413   0.927   2.620  14.350 -0.4226 -0.8506  0.4205
    2TMC3    H214414   0.696   2.485  14.003 -0.4368  0.4285 -0.3027
    2TMC3    C714415   0.895   2.633  14.070  0.2944 -1.1483  0.7115
    2TMC3    C814416   0.579   2.313  14.148  0.2049  0.3180  0.1804
    2TMC3    O114417   0.856   2.626  13.951  0.4283  0.5627 -0.1540
    2TMC3    O214418   0.530   2.307  14.036  0.2700 -0.9129 -0.0044
    3TCq1    O114419   1.791   3.362  14.271 -0.7045 -0.1255  0.1855
    3TCq1    C114420   1.773   3.321  14.398 -0.4935 -0.4391 -0.0195
    3TCq1    O214421   1.859   3.336  14.480 -0.2850 -0.3693  0.3203
    3TCq1    C214422   1.711   3.193  14.376 -0.0114 -0.0403 -0.0447
    3TCq1    C314423   1.770   3.081  14.436 -1.0283  0.2502  0.4856
    3TCq1    C414424   1.731   2.962  14.386  1.0598 -0.0895  0.2146
    3TCq1    C514425   1.641   2.942  14.282 -0.7389 -0.0649  0.2083
    3TCq1    C614426   1.573   3.051  14.237 -0.2861  0.5384  0.0506
    3TCq1    C714427   1.610   3.183  14.276  0.7416  0.0205  0.0072
    3TCq1    C814428   1.493   3.031  14.124 -0.3991  0.2422 -0.3842
    3TCq1    O414429   1.476   3.126  14.046 -0.5980  0.4968 -0.2841
    3TCq1    C914430   1.793   2.847  14.447  0.2977 -1.2777  0.2562
    3TCq1    O514431   1.769   2.731  14.397 -0.9152  0.2006  0.0080
    3TCq1    O614432   1.839   2.857  14.562 -0.4803 -0.0135 -0.6099
    3TCq1    H114433   1.722   3.331  14.208  0.2721 -1.2607 -0.3358
    3TCq1    H214434   1.837   3.089  14.520  0.7031  0.4671 -0.9157
    3TCq1    H314435   1.626   2.837  14.260  2.7071 -0.6995  0.9472
    3TCq1    H414436   1.553   3.268  14.241 -1.8752 -2.5731 -2.0428
    4MPD2     C14437   1.297   2.925  13.924 -0.4873  0.0592 -0.6052
    4MPD2    C114438   1.311   2.884  14.053  0.3850 -0.1226  0.5085
    4MPD2    C214439   1.216   2.797  14.102  0.5030 -0.2279  0.4696
    4MPD2    C314440   1.102   2.764  14.033  0.1411  0.0050 -0.5034
    4MPD2    C414441   1.078   2.822  13.910  0.7191  0.0719 -0.1870
    4MPD2    C514442   1.176   2.899  13.856  0.6042  0.1757 -0.0268
    4MPD2     H14443   1.233   2.772  14.206  1.4937 -1.2557  0.0635
    4MPD2    H114444   0.987   2.803  13.854  0.8200 -0.0875 -0.2984
    4MPD2    H214445   1.369   2.990  13.874 -0.0635 -1.1647 -1.5926
    4MPD2    H314446   1.154   2.942  13.759  0.9251  1.8405  0.6449
    4MPD2     N14447   1.016   2.680  14.113  0.2629  0.9990  0.7250
    4MPD2    H514448   1.039   2.657  14.209  2.1685  0.9128  0.2339
    4MPD2    N114449   1.414   2.921  14.139  0.0915 -0.3657 -0.4666
    4MPD2    H714450   1.413   2.874  14.230 -0.3792  1.9077  0.6911
    5TMC2    C114451   0.981   1.737  14.502  0.2106 -0.4141 -0.3756
    5TMC2    C214452   0.916   1.660  14.587 -0.1779  0.6889 -0.3027
    5TMC2    C314453   0.950   1.660  14.718 -0.4286 -0.0433  0.1200
    5TMC2    C414454   1.094   1.797  14.545  0.2686  0.3653 -0.9551
    5TMC2    C514455   1.131   1.792  14.674 -0.0214  0.1504  0.2950
    5TMC2    C614456   1.056   1.731  14.765  0.1861  0.2894  0.3275
    5TMC2     C14457   0.902   1.831  14.421 -0.1038  0.7658  0.2705
    5TMC2     O14458   0.943   1.950  14.433  0.0660  0.0189  0.0999
    5TMC2     H14459   0.821   1.615  14.560  0.3388  1.0269 -2.6551
    5TMC2    H114460   1.155   1.863  14.483 -2.2765  1.7116 -2.0292
    5TMC2    H214461   1.069   1.753  14.870  1.7345  2.5474 -0.3404
    5TMC2    C714462   1.177   1.922  14.719 -0.6415  0.3699 -0.4424
    5TMC2    C814463   0.876   1.566  14.798 -0.4213 -0.0837  0.2519
    5TMC2    O114464   1.278   1.931  14.787  0.5158  0.6871  0.2570
    5TMC2    O214465   0.848   1.450  14.763 -0.6764  0.0817  0.3346
    5TMC2    O514466   0.872   1.616  14.924  0.2479  0.0977  0.3886
    5TMC2    H514467   0.892   1.711  14.932  1.9796 -0.3392  1.1561
    6MPD2     C14468   0.568   2.040  14.097  0.0928  0.4268 -0.4318
    6MPD2    C114469   0.639   2.086  14.205  0.2954 -0.4784 -0.1437
    6MPD2    C214470   0.712   1.998  14.283 -0.0574  0.1818  0.5474
    6MPD2    C314471   0.709   1.859  14.265  0.3104  0.0412  0.5445
    6MPD2    C414472   0.643   1.815  14.155 -0.8611  0.5287  0.5325
    6MPD2    C514473   0.581   1.905  14.070  0.7922 -0.8856 -0.0878
    6MPD2     H14474   0.773   2.049  14.357  1.0552  3.2300 -2.4620
    6MPD2    H114475   0.627   1.710  14.135  0.4802  0.7226 -1.6549
    6MPD2    H214476   0.517   2.095  14.018 -2.8421  0.7098  1.6366
    6MPD2    H314477   0.525   1.868  13.984  2.2387 -0.2889 -1.2791
    6MPD2     N14478   0.796   1.778  14.344 -0.5039  0.1511 -0.4014
    6MPD2    H514479   0.791   1.677  14.331 -1.0338  0.0789  0.3837
    6MPD2    N114480   0.636   2.223  14.230 -0.8323  0.7123  0.5053
    6MPD2    H714481   0.692   2.259  14.307 -1.3490 -0.2211  1.3077
  945NH4     N114482   1.670   0.280   3.477 -0.5342 -0.2035 -0.1462
  945NH4     H214483   1.694   0.337   3.394  1.5513 -0.7790  0.0582
  945NH4     H314484   1.755   0.223   3.498 -0.4724  0.0212  0.2350
  945NH4     H414485   1.579   0.230   3.474 -0.2555 -0.6842 -0.5361
  945NH4     H514486   1.664   0.352   3.552 -0.8707  1.8822 -2.1892
  946SOD     NA14487   1.735   2.078  14.882  0.4123 -0.2706 -0.5560
  947SOD     NA14488   1.216   1.947  10.619  0.1080 -0.0266  0.1521
  948SOD     NA14489   1.813   2.607  14.586 -0.0011  0.2282  0.4640
  949SOD     NA14490   2.692   3.412  15.187 -0.1851 -0.5529 -0.1269
  950SOD     NA14491   2.838   3.607   4.566 -0.2560  0.3402  0.5643
  951SOD     NA14492   4.400   4.445  13.878 -0.5919 -0.0188 -0.0239
  952SOD     NA14493   1.378   0.725  11.951  0.2285 -0.0928  0.1057
  953SOL     OW14494   1.439   3.328   4.395  0.7555 -0.1314  0.6056
  953SOL    HW114495   1.487   3.401   4.435  1.2486  0.7138 -1.5096
  953SOL    HW214496   1.495   3.326   4.317  0.9128  2.1722  0.6449
  954SOL     OW14497   0.138   2.979  15.914 -0.3662  0.0015  0.2676
  954SOL    HW114498   0.173   3.054  15.963 -1.4180 -0.2568  1.4033
  954SOL    HW214499   0.141   2.906  15.976 -0.5369  1.0399  1.5117
  955SOL     OW14500   4.681   3.061   3.308  0.4870 -0.4567  0.4049
  955SOL    HW114501   0.030   3.087   3.303  0.7863 -1.6898 -0.4994
  955SOL    HW214502   4.643   3.129   3.252  1.9252 -0.7511 -0.9190
  956SOL     OW14503   4.166   4.051  17.203 -0.0787  0.5973  0.3860
  956SOL    HW114504   4.258   4.043  17.178  0.2803  0.4840  1.7399
  956SOL    HW214505   4.152   4.123  17.142  0.5391 -0.0489 -0.5182
  957SOL     OW14506   0.227   1.120  10.099 -0.2009  0.0502  0.0570
  957SOL    HW114507   0.164   1.190  10.117  0.5931  0.2966  1.9009
  957SOL    HW214508   0.211   1.065  10.176  0.4326 -0.2767 -0.0493
  958SOL     OW14509   2.462   2.422   6.361 -0.5257  0.4597 -0.2748
  958SOL    HW114510   2.436   2.414   6.269  1.6905  1.1617 -0.9725
  958SOL    HW214511   2.444   2.337   6.400  0.1060  0.2532 -0.4311
  959SOL     OW14512   0.901   1.316   4.283  0.1106  0.5198 -0.2428
  959SOL    HW114513   0.836   1.373   4.243 -0.1871  1.9402  2.2192
  959SOL    HW214514   0.843   1.259   4.333 -0.3628  0.2160 -1.1417
  960SOL     OW14515   2.872   1.824   9.764  0.0648  0.0914 -0.1785
  960SOL    HW114516   2.861   1.882   9.839  1.1331  1.8744 -1.4228
  960SOL    HW214517   2.787   1.781   9.762 -0.4742  1.2424 -1.9066
  961SOL     OW14518   1.381   4.742   3.048 -0.1149  0.2947  0.2924
  961SOL    HW114519   1.393   0.013   2.954  1.5306 -0.3973  0.4175
  961SOL    HW214520   1.303   0.050   3.073  0.2211  1.3025 -0.6937
  962SOL     OW14521   3.338   0.425  14.947 -0.3868 -0.8430  0.0224
  962SOL    HW114522   3.308   0.504  14.993 -0.1203 -2.0314  2.2062
  962SOL    HW214523   3.316   0.361  15.014 -1.8352  0.1021  0.4486
  963SOL     OW14524   2.091   1.897   4.469 -0.2314  0.1506 -0.2569
  963SOL    HW114525   2.061   1.808   4.454 -1.2721  0.3675  0.5253
  963SOL    HW214526   2.116   1.897   4.561  1.0583 -2.1151 -0.5949
  964SOL     OW14527   1.892   0.307   2.160  0.3469  0.3659  0.4963
  964SOL    HW114528   1.893   0.227   2.107 -2.0681  1.1820 -0.7924
  964SOL    HW214529   1.905   0.372   2.090  0.3808  2.1679  2.1637
  965SOL     OW14530   2.430   2.906   3.080 -0.1570  0.9844  0.0592
  965SOL    HW114531   2.461   2.950   3.001 -0.1129  0.7592 -0.0507
  965SOL    HW214532   2.511   2.891   3.129 -1.0973  1.3931  1.7174
  966SOL     OW14533   3.564   1.943  17.684  0.4981 -0.0743  0.4087
  966SOL    HW114534   3.608   1.905  17.608  1.7331 -0.0675  1.1187
  966SOL    HW214535   3.514   2.008  17.635  0.0680  0.1867  1.1896
  967SOL     OW14536   1.610   1.255  10.908 -0.1914 -0.0857 -0.3803
  967SOL    HW114537   1.577   1.300  10.830  0.3746 -0.5630 -0.8946
  967SOL    HW214538   1.532   1.230  10.957 -0.9716 -1.6168 -2.3935
  968SOL     OW14539   2.568   3.628   6.364  1.1017 -0.6527 -0.0591
  968SOL    HW114540   2.540   3.539   6.383 -1.0611  0.0798  0.1760
  968SOL    HW214541   2.623   3.634   6.443  0.6896 -0.7508  0.2315
  969SOL     OW14542   2.172   2.787   5.114 -0.6391  0.5064  0.1492
  969SOL    HW114543   2.186   2.834   5.032 -0.0674  1.6889  0.9254
  969SOL    HW214544   2.201   2.853   5.177 -0.0621 -0.6120  1.0687
  970SOL     OW14545   0.550   0.239   5.957  0.5565 -0.2947 -0.4014
  970SOL    HW114546   0.620   0.284   6.002 -0.8750  0.1357  1.3895
  970SOL    HW214547   0.546   0.156   6.006 -0.4189  1.5165  2.5646
  971SOL     OW14548   4.598   4.380   9.616  0.7654 -0.5408  0.3062
  971SOL    HW114549   4.678   4.348   9.659  1.6483  0.1187 -0.8376
  971SOL    HW214550   4.600   4.468   9.653 -1.3636  0.3447 -1.7477
  972SOL     OW14551   0.446   1.321   8.330 -0.2704  0.4544 -0.2229
  972SOL    HW114552   0.484   1.392   8.277  0.8628  0.6700  0.8736
  972SOL    HW214553   0.480   1.246   8.281  0.0881  0.7070 -0.3646
  973SOL     OW14554   1.889   1.797   2.601  0.3687  0.3365  0.5742
  973SOL    HW114555   1.895   1.739   2.525 -0.2174  0.9069  0.0948
  973SOL    HW214556   1.800   1.830   2.600 -0.4023 -1.7540  0.9259
  974SOL     OW14557   0.145   3.178   0.362 -0.1278  0.5839 -0.2294
  974SOL    HW114558   0.123   3.186   0.454  0.4324 -1.1569  0.0614
  974SOL    HW214559   0.208   3.106   0.361  0.5780  1.2228 -2.2665
  975SOL     OW14560   4.391   1.326  11.281  0.2998  0.4204  0.2965
  975SOL    HW114561   4.469   1.303  11.331  0.7026  0.5928 -0.2440
  975SOL    HW214562   4.408   1.269  11.206 -2.7774  0.6503 -0.5651
  976SOL     OW14563   2.885   3.494   2.163  0.5892  0.1295  0.0034
  976SOL    HW114564   2.924   3.425   2.218  1.2066 -1.1062 -1.9783
  976SOL    HW214565   2.868   3.445   2.082 -0.1823  0.8324 -0.2521
  977SOL     OW14566   2.611   0.263   5.958 -0.1387  0.0581 -0.3350
  977SOL    HW114567   2.555   0.204   5.908 -0.0112 -0.4218  0.0846
  977SOL    HW214568   2.543   0.323   5.987  1.4932  2.2081 -0.9174
  978SOL     OW14569   0.292   2.205  14.260 -0.1594  0.8940 -0.1794
  978SOL    HW114570   0.290   2.296  14.291 -0.8068  0.3314  1.4049
  978SOL    HW214571   0.385   2.199  14.235  0.1184 -0.0388  1.1330
  979SOL     OW14572   1.170   0.197   5.669 -0.5200  0.4486 -0.2410
  979SOL    HW114573   1.113   0.252   5.615 -1.2807 -1.1511 -1.0367
  979SOL    HW214574   1.105   0.169   5.734 -0.8338 -0.2329 -0.8569
  980SOL     OW14575   3.352   1.104   2.560 -0.0925 -0.1495  0.1218
  980SOL    HW114576   3.371   1.015   2.531  1.9932  0.6789 -1.0390
  980SOL    HW214577   3.385   1.090   2.648  0.0404 -1.6028 -0.1529
  981SOL     OW14578   1.283   0.661  16.635  0.3211  0.5400 -0.0539
  981SOL    HW114579   1.226   0.588  16.658  0.8378  1.1323  3.0944
  981SOL    HW214580   1.266   0.737  16.690 -0.4905  0.6451 -0.4458
  982SOL     OW14581   3.835   1.143   4.528  0.0407  0.2507 -0.7310
  982SOL    HW114582   3.837   1.209   4.458 -0.5801 -0.4210 -1.3829
  982SOL    HW214583   3.797   1.190   4.602  0.7788 -0.2267 -0.0502
  983SOL     OW14584   1.255   1.825  10.433  0.0758  0.8442 -0.2271
  983SOL    HW114585   1.275   1.736  10.406 -1.0717  0.5137  0.0012
  983SOL    HW214586   1.308   1.876  10.373  0.4404  0.7630  0.0231
  984SOL     OW14587   4.016   0.045   7.891 -0.2582 -0.1517 -0.3769
  984SOL    HW114588   4.019   0.081   7.802  2.2483  1.3679  0.3252
  984SOL    HW214589   3.935   4.737   7.883 -1.6812  2.1525 -0.3990
  985SOL     OW14590   3.644   2.945   6.293 -0.0660 -0.4371  0.2241
  985SOL    HW114591   3.616   3.000   6.219 -0.0666 -1.0809 -0.2606
  985SOL    HW214592   3.593   2.864   6.290 -1.2620  0.3010  0.5162
  986SOL     OW14593   2.705   3.535   3.337  0.5360  0.2933 -0.1918
  986SOL    HW114594   2.710   3.492   3.252 -0.9932  1.4297 -0.8347
  986SOL    HW214595   2.644   3.602   3.307  0.3726 -1.3055 -3.3660
  987SOL     OW14596   4.266   1.892  11.949  0.2278  0.0597 -0.0366
  987SOL    HW114597   4.319   1.915  12.025 -2.0630 -0.9398  1.8605
  987SOL    HW214598   4.178   1.895  11.988  0.0778 -0.4662 -0.3393
  988SOL     OW14599   0.747   4.004   2.431 -0.6715 -0.1470  0.2295
  988SOL    HW114600   0.770   3.912   2.422 -1.5684 -0.1259 -2.0978
  988SOL    HW214601   0.659   3.991   2.468 -0.4087 -0.4168  0.7536
  989SOL     OW14602   1.606   1.350  12.218  0.4133  0.2346 -0.1255
  989SOL    HW114603   1.595   1.257  12.194  2.6026  0.0066 -0.2776
  989SOL    HW214604   1.699   1.353  12.242  0.6584  3.6415 -1.5472
  990SOL     OW14605   3.597   4.250   4.728 -0.3482 -0.0934 -0.0639
  990SOL    HW114606   3.579   4.299   4.647  1.3790  0.0698 -0.3459
  990SOL    HW214607   3.646   4.175   4.694 -0.0401 -1.1451  2.6503
  991SOL     OW14608   3.504   1.913  15.034  0.2145 -0.6579  0.8875
  991SOL    HW114609   3.598   1.903  15.049  0.6670 -0.3007 -1.7341
  991SOL    HW214610   3.508   1.880  14.944  1.0179  1.7971  0.0370
  992SOL     OW14611   0.435   3.107   5.912  0.0194 -0.0545 -0.0402
  992SOL    HW114612   0.389   3.098   5.828 -1.6848  5.2143  0.3529
  992SOL    HW214613   0.385   3.038   5.955 -0.2633 -0.0719 -0.3974
  993SOL     OW14614   4.706   2.844   9.590  0.5955 -1.1691  0.0745
  993SOL    HW114615   0.016   2.818   9.666 -0.7961 -0.1820  1.3805
  993SOL    HW214616   4.676   2.925   9.632 -0.5093 -0.8451 -1.3726
  994SOL     OW14617   4.129   2.432   7.073  0.7416 -0.2101 -0.5613
  994SOL    HW114618   4.214   2.393   7.091  0.6507  0.4888  1.4404
  994SOL    HW214619   4.070   2.358   7.058  1.3160 -1.1735  1.8338
  995SOL     OW14620   0.434   2.454   3.828  0.0577 -0.3614  0.6756
  995SOL    HW114621   0.476   2.532   3.790 -3.6168  0.3109 -1.9822
  995SOL    HW214622   0.494   2.426   3.897  1.9208  0.0457 -0.8006
  996SOL     OW14623   2.261   2.997   6.772 -0.2412 -0.5526  0.1864
  996SOL    HW114624   2.230   2.910   6.749 -1.1700  0.4987 -2.5958
  996SOL    HW214625   2.182   3.028   6.817  1.3793  1.1824  1.8359
  997SOL     OW14626   3.971   0.263  10.291 -0.0788  0.2690  0.0224
  997SOL    HW114627   4.022   0.262  10.211  0.1723 -0.8770  0.1982
  997SOL    HW214628   3.903   0.208  10.252 -0.8951  1.3410 -0.0907
  998SOL     OW14629   3.962   0.279   8.060 -0.4020 -0.4092 -0.6425
  998SOL    HW114630   3.888   0.288   8.000 -1.4579  0.6615  0.8345
  998SOL    HW214631   4.004   0.208   8.011  0.6842  1.0181 -1.7367
  999SOL     OW14632   4.509   4.258   0.707  0.0286 -0.4920  0.1487
  999SOL    HW114633   4.490   4.169   0.733 -0.0475 -1.1516 -2.1140
  999SOL    HW214634   4.584   4.248   0.648 -0.1119 -0.9099  0.0463
 1000SOL     OW14635   4.380   4.613   3.006 -0.0650  0.1469  0.4975
 1000SOL    HW114636   4.345   4.701   3.020  0.2959  0.1591  1.3429
 1000SOL    HW214637   4.428   4.589   3.085 -0.2727 -0.6187  0.3846
 1001SOL     OW14638   2.165   2.010   8.490 -0.2479 -0.4826 -0.3611
 1001SOL    HW114639   2.092   1.990   8.547 -0.0331 -1.4849 -0.4414
 1001SOL    HW214640   2.235   2.004   8.555  0.9719  3.1849 -1.3258
 1002SOL     OW14641   3.411   2.297   0.834 -0.1808 -0.1105 -0.0670
 1002SOL    HW114642   3.361   2.319   0.756 -0.4224 -0.7141 -0.0815
 1002SOL    HW214643   3.378   2.213   0.865  1.1638 -1.4215 -2.2153
 1003SOL     OW14644   2.076   4.025   7.954 -0.6244 -0.3126  0.6879
 1003SOL    HW114645   2.032   4.019   7.869  0.5947 -0.4402  0.0557
 1003SOL    HW214646   2.003   4.005   8.012 -0.0385 -2.3633  0.7202
 1004SOL     OW14647   0.035   2.284   3.301 -0.1117  0.0123  0.1816
 1004SOL    HW114648   4.701   2.260   3.352 -0.3660  1.3749  0.4454
 1004SOL    HW214649   0.010   2.362   3.251  2.0905 -0.7812 -2.1565
 1005SOL     OW14650   2.631   1.373   7.881  0.3783  0.6144 -0.7139
 1005SOL    HW114651   2.685   1.322   7.820 -0.0120 -1.3799  0.5904
 1005SOL    HW214652   2.687   1.383   7.958  0.7776 -2.7068 -0.5788
 1006SOL     OW14653   2.642   3.296  13.728  0.2110  0.1228 -0.1461
 1006SOL    HW114654   2.547   3.301  13.738  0.0708  2.0953 -2.2472
 1006SOL    HW214655   2.657   3.212  13.685 -0.7856 -1.5726  2.8492
 1007SOL     OW14656   2.981   0.598   9.938 -0.6153  0.1671 -0.2514
 1007SOL    HW114657   3.019   0.518   9.975  1.4499  1.4293  0.3559
 1007SOL    HW214658   3.062   0.640   9.908 -1.2268  2.0427  0.6993
 1008SOL     OW14659   0.836   2.154   5.243  0.0833 -0.1162  0.0447
 1008SOL    HW114660   0.788   2.100   5.305 -0.5577 -0.9359 -1.1692
 1008SOL    HW214661   0.904   2.091   5.218  0.8088  0.9167 -0.5783
 1009SOL     OW14662   4.719   4.025   2.185 -0.2934 -0.5945 -0.2815
 1009SOL    HW114663   4.680   4.094   2.131  1.0641 -0.1335 -0.6545
 1009SOL    HW214664   0.010   4.071   2.261  0.5208  0.5348 -1.3271
 1010SOL     OW14665   4.566   4.365  11.536 -0.2905  0.2203 -0.2246
 1010SOL    HW114666   4.634   4.338  11.597 -1.7749 -2.0785  0.4064
 1010SOL    HW214667   4.486   4.357  11.588 -0.2272  1.4759  0.0671
 1011SOL     OW14668   1.907   3.026   7.079 -0.2159  0.0865  0.4519
 1011SOL    HW114669   1.814   3.003   7.077  0.2724 -2.0853  3.0398
 1011SOL    HW214670   1.934   2.956   7.138  0.4409 -0.1523 -0.1306
 1012SOL     OW14671   0.985   2.530   6.700  0.4849  0.2706 -0.5327
 1012SOL    HW114672   0.990   2.563   6.611  1.1384  0.3900 -0.4513
 1012SOL    HW214673   0.890   2.535   6.713  0.5733  0.5180  0.0379
 1013SOL     OW14674   3.446   3.207  13.991  0.2154 -0.3929  0.7235
 1013SOL    HW114675   3.469   3.115  13.974 -0.2008 -0.6071  1.3297
 1013SOL    HW214676   3.517   3.224  14.053  1.7429 -2.3466 -0.4664
 1014SOL     OW14677   1.086   0.834   4.659 -0.6359 -0.0042  0.6247
 1014SOL    HW114678   1.041   0.763   4.613  3.0117 -0.8089 -1.7118
 1014SOL    HW214679   1.036   0.914   4.641 -1.6570 -0.9251 -0.6253
 1015SOL     OW14680   3.948   3.213   2.745  0.7452  0.3025  0.2156
 1015SOL    HW114681   4.033   3.195   2.705  0.8808  1.9196 -0.2296
 1015SOL    HW214682   3.894   3.143   2.707 -2.5621  2.0753  1.6429
 1016SOL     OW14683   1.218   0.424  11.177 -0.0158  0.1038 -0.1060
 1016SOL    HW114684   1.190   0.513  11.197 -0.7417 -0.8997  3.3809
 1016SOL    HW214685   1.142   0.388  11.131 -1.9379  2.6629  1.0733
 1017SOL     OW14686   1.531   2.565   3.735  0.0818 -0.2873 -0.1796
 1017SOL    HW114687   1.513   2.561   3.829 -0.5359 -0.7627 -0.3234
 1017SOL    HW214688   1.612   2.514   3.726  0.6207  0.7958 -1.5777
 1018SOL     OW14689   2.437   0.907   1.596  0.3562  0.0320  0.0798
 1018SOL    HW114690   2.472   0.823   1.565  0.0072 -1.0128  2.5573
 1018SOL    HW214691   2.423   0.945   1.509 -0.7227  0.6037  0.5055
 1019SOL     OW14692   1.959   1.660   1.019  1.0738 -0.2554 -0.2149
 1019SOL    HW114693   1.987   1.697   1.103 -0.5467  1.2135 -0.3306
 1019SOL    HW214694   1.864   1.669   1.029  1.1977  1.5878 -0.6362
 1020SOL     OW14695   0.361   1.160   1.189  0.3972 -0.2514  0.3688
 1020SOL    HW114696   0.272   1.137   1.217  0.1240 -0.9726 -1.0746
 1020SOL    HW214697   0.410   1.079   1.202  2.4346  1.4977  3.6728
 1021SOL     OW14698   4.374   3.702  15.450 -0.2673  0.4592  0.8926
 1021SOL    HW114699   4.434   3.647  15.500  0.3051  0.0231 -0.2645
 1021SOL    HW214700   4.332   3.636  15.395 -0.7656  0.9038  0.7355
 1022SOL     OW14701   3.556   3.303   7.169  0.1917  0.1834 -0.7180
 1022SOL    HW114702   3.463   3.286   7.157 -0.1716  2.9131 -1.7509
 1022SOL    HW214703   3.546   3.355   7.249 -0.6603  1.2729 -1.5404
 1023SOL     OW14704   3.741   1.257   5.611  0.6476  0.3790  0.2671
 1023SOL    HW114705   3.794   1.233   5.535  1.2792 -1.2478  1.2160
 1023SOL    HW214706   3.692   1.175   5.624  0.8771 -0.0446 -1.5709
 1024SOL     OW14707   0.823   4.725   3.867 -0.1735 -0.0280 -0.2997
 1024SOL    HW114708   0.832   0.068   3.909 -1.2625  0.0389 -0.2007
 1024SOL    HW214709   0.871   4.666   3.926  0.5662  0.3941 -0.4855
 1025SOL     OW14710   2.851   1.686   3.950 -0.5005 -0.0380  0.1586
 1025SOL    HW114711   2.833   1.728   4.035 -1.2808 -1.6764  0.8089
 1025SOL    HW214712   2.825   1.753   3.887 -1.2557 -0.3636  0.1171
 1026SOL     OW14713   2.995   4.690   9.191  0.3504 -0.4248  0.1843
 1026SOL    HW114714   3.067   4.689   9.127 -1.8162 -1.4985 -2.2269
 1026SOL    HW214715   2.975   4.596   9.194  2.2507 -0.8683 -0.7189
 1027SOL     OW14716   0.161   2.428   3.892  0.3100  0.5650 -0.3715
 1027SOL    HW114717   0.116   2.396   3.970 -0.5406  3.7166  0.4022
 1027SOL    HW214718   0.253   2.433   3.917  0.2242  0.4140 -0.0298
 1028SOL     OW14719   4.610   2.572   9.589 -0.1770 -0.6767 -0.5038
 1028SOL    HW114720   4.631   2.665   9.590  1.4882 -1.0591  1.2387
 1028SOL    HW214721   4.515   2.579   9.586 -0.1279  0.1843  0.0821
 1029SOL     OW14722   1.032   2.607  15.323  0.0452  0.0018  0.1682
 1029SOL    HW114723   1.016   2.602  15.417  0.9394 -0.5799  0.2831
 1029SOL    HW214724   1.121   2.577  15.308  0.4261  1.1381  0.1360
 1030SOL     OW14725   1.631   0.418   6.569 -0.1477  0.0140  0.0530
 1030SOL    HW114726   1.722   0.391   6.579 -0.3476 -0.6763  0.0156
 1030SOL    HW214727   1.597   0.342   6.523 -0.7280  0.0458  0.4133
 1031SOL     OW14728   3.972   2.947   0.406 -0.1207 -0.0656 -0.1046
 1031SOL    HW114729   4.014   2.897   0.476  1.3614 -2.1209 -2.4481
 1031SOL    HW214730   4.038   2.931   0.339  0.3661  0.0397  0.3458
 1032SOL     OW14731   1.363   1.793   6.215  0.2174  0.4561 -0.1487
 1032SOL    HW114732   1.290   1.736   6.236  1.6918 -1.8288 -1.2554
 1032SOL    HW214733   1.433   1.740   6.253 -0.5507 -0.5812 -0.1818
 1033SOL     OW14734   2.257   3.441   9.187  0.1137 -0.2843 -0.4128
 1033SOL    HW114735   2.349   3.448   9.162  0.2348 -2.0922 -0.4936
 1033SOL    HW214736   2.216   3.483   9.111 -1.0419 -0.3626  0.1656
 1034SOL     OW14737   4.244   2.640   8.599  0.4450 -0.1373  0.2397
 1034SOL    HW114738   4.242   2.683   8.513  2.6396 -2.4470 -0.9486
 1034SOL    HW214739   4.162   2.671   8.639  1.3777  2.0617  0.4890
 1035SOL     OW14740   0.852   2.156   9.687  0.0535  0.0642 -0.0799
 1035SOL    HW114741   0.844   2.092   9.758  1.5443 -0.5091 -0.4248
 1035SOL    HW214742   0.878   2.237   9.731 -0.2317  0.4656 -0.6537
 1036SOL     OW14743   2.195   4.319   6.373  0.1756  0.0522 -0.2477
 1036SOL    HW114744   2.125   4.319   6.438 -0.0827  1.5733 -0.5263
 1036SOL    HW214745   2.260   4.368   6.423  0.9040  1.0146 -2.1250
 1037SOL     OW14746   0.630   0.027   2.759 -0.0479 -0.5235  0.4742
 1037SOL    HW114747   0.613   0.090   2.689  0.8156  1.7046  2.2707
 1037SOL    HW214748   0.627   0.092   2.830  1.3682  1.3348 -1.1749
 1038SOL     OW14749   3.787   3.584   9.423  0.5327  0.4924  0.1775
 1038SOL    HW114750   3.709   3.528   9.424 -0.6734  2.2182  1.5000
 1038SOL    HW214751   3.834   3.560   9.342  1.9223 -0.1975  1.1838
 1039SOL     OW14752   0.926   0.753   6.440 -0.3941  0.5820  0.5218
 1039SOL    HW114753   0.935   0.812   6.515 -0.1367 -0.9454  1.6918
 1039SOL    HW214754   0.848   0.791   6.402 -0.5968  0.8118  1.1582
 1040SOL     OW14755   3.347   3.934   3.400  0.3621 -0.0993 -0.1636
 1040SOL    HW114756   3.387   3.900   3.480  1.1496  0.0630 -0.4928
 1040SOL    HW214757   3.388   4.021   3.403 -1.9010  0.9538  0.2951
 1041SOL     OW14758   0.899   0.489   4.826 -0.0084 -0.1688  0.1492
 1041SOL    HW114759   0.856   0.560   4.873  2.3440  0.6825  1.0346
 1041SOL    HW214760   0.834   0.420   4.837  0.9982 -0.9156  1.4406
 1042SOL     OW14761   0.789   4.367   7.481 -0.1387  0.0491  0.6677
 1042SOL    HW114762   0.812   4.330   7.566 -0.6153 -1.5901  0.0908
 1042SOL    HW214763   0.813   4.459   7.488 -1.6766  0.4866  0.1470
 1043SOL     OW14764   2.256   2.354   3.028 -0.1926 -0.8841  0.4125
 1043SOL    HW114765   2.264   2.354   3.124  0.2047  0.7795  0.3767
 1043SOL    HW214766   2.285   2.445   3.018 -1.7204 -0.2443  1.7555
 1044SOL     OW14767   2.748   2.937  17.016  0.0775 -0.2603  0.1491
 1044SOL    HW114768   2.710   2.851  17.000 -0.9679  0.4721 -1.2346
 1044SOL    HW214769   2.701   2.968  17.094  1.3250 -0.5883  1.0401
 1045SOL     OW14770   2.317   3.996   3.826 -0.1101 -0.1315 -0.3327
 1045SOL    HW114771   2.222   3.988   3.830 -0.0763 -1.3092 -1.6755
 1045SOL    HW214772   2.333   4.073   3.772  3.0872  0.2153  1.1071
 1046SOL     OW14773   2.006   2.074  15.834  0.1070  0.8916 -0.7311
 1046SOL    HW114774   2.067   2.000  15.830 -1.0867 -0.1305  0.0588
 1046SOL    HW214775   2.023   2.120  15.751 -2.2573 -0.1863 -1.7983
 1047SOL     OW14776   4.170   2.323   2.567  0.4995  0.0378 -0.5368
 1047SOL    HW114777   4.095   2.375   2.596  0.6516 -0.4074  0.6677
 1047SOL    HW214778   4.229   2.347   2.638 -0.7699  0.7776  0.2788
 1048SOL     OW14779   1.115   4.500  12.430  0.4313  0.2486 -0.3178
 1048SOL    HW114780   1.165   4.563  12.481  1.0104  1.3899 -2.2714
 1048SOL    HW214781   1.065   4.451  12.495 -1.7002 -1.4344 -3.2233
 1049SOL     OW14782   3.964   2.005   7.424  0.0776  0.3016 -0.1114
 1049SOL    HW114783   3.915   1.924   7.413 -0.9326  0.9742 -0.5943
 1049SOL    HW214784   3.906   2.065   7.376  1.2043  0.3997 -1.3489
 1050SOL     OW14785   2.733   3.467  11.932 -0.0597  0.5685 -0.0959
 1050SOL    HW114786   2.761   3.546  11.978  1.2797  0.0743 -0.0664
 1050SOL    HW214787   2.818   3.437  11.900  0.2649  0.1691  1.1239
 1051SOL     OW14788   3.123   2.216   8.980  0.2053 -0.4513  0.3111
 1051SOL    HW114789   3.196   2.227   8.918  0.2322  0.4017  0.4946
 1051SOL    HW214790   3.162   2.268   9.050 -2.1848 -0.2477  1.4826
 1052SOL     OW14791   3.816   1.929   4.752  0.3342  0.0296  0.7056
 1052SOL    HW114792   3.907   1.937   4.781  0.2859 -2.3095  1.5299
 1052SOL    HW214793   3.779   1.907   4.837 -1.9848  0.6612 -0.1378
 1053SOL     OW14794   3.834   1.496   3.362 -0.5355 -0.2937 -0.5430
 1053SOL    HW114795   3.820   1.452   3.278 -5.0527 -0.8886  0.5559
 1053SOL    HW214796   3.746   1.489   3.399  0.2381 -0.4195  1.2987
 1054SOL     OW14797   0.664   0.254   1.072 -0.4382 -0.1779  0.2895
 1054SOL    HW114798   0.700   0.269   0.984 -0.5777  0.2107  0.2992
 1054SOL    HW214799   0.572   0.267   1.053 -0.2271  0.3403 -0.3733
 1055SOL     OW14800   2.668   0.506   1.577 -0.0472 -0.7754  0.1674
 1055SOL    HW114801   2.722   0.475   1.504  1.5447  0.3956  0.8526
 1055SOL    HW214802   2.713   0.447   1.638 -1.2592 -0.1004  1.7210
 1056SOL     OW14803   2.964   1.229  12.078  0.4684  0.3217  0.1873
 1056SOL    HW114804   2.987   1.162  12.142  2.8924  0.7360 -0.2354
 1056SOL    HW214805   3.050   1.250  12.041 -0.0017 -1.5097 -1.9502
 1057SOL     OW14806   0.238   1.890   5.189  0.3895 -0.9443 -0.1653
 1057SOL    HW114807   0.243   1.820   5.254 -3.2134 -1.0865 -0.0727
 1057SOL    HW214808   0.145   1.894   5.168  0.3955  0.0688 -0.0177
 1058SOL     OW14809   0.444   3.348   5.201 -0.1964  0.6209  0.2302
 1058SOL    HW114810   0.534   3.382   5.203  0.1334 -0.2244 -0.2133
 1058SOL    HW214811   0.448   3.290   5.125 -1.4906 -1.1289  1.5134
 1059SOL     OW14812   0.896   0.364  12.385  0.0141 -0.5807 -0.0657
 1059SOL    HW114813   0.806   0.348  12.413 -0.3912  1.1151 -0.3992
 1059SOL    HW214814   0.942   0.291  12.426 -0.0373 -0.8794 -0.5400
 1060SOL     OW14815   3.144   1.501   9.165 -0.2055  0.1138  0.0430
 1060SOL    HW114816   3.192   1.583   9.151 -1.0705  0.6559  0.3087
 1060SOL    HW214817   3.056   1.534   9.183 -0.7494 -1.2463 -0.0991
 1061SOL     OW14818   2.012   3.864  16.263 -0.0298 -0.2923 -0.2163
 1061SOL    HW114819   2.072   3.861  16.189  1.5966  1.1969  1.0124
 1061SOL    HW214820   2.068   3.916  16.321  1.8368 -2.6667  0.0862
 1062SOL     OW14821   0.130   3.677   1.963 -0.2705  0.1826 -0.0698
 1062SOL    HW114822   0.045   3.661   2.004  1.5136 -2.1031  2.6708
 1062SOL    HW214823   0.101   3.672   1.872  0.3355 -1.0568 -0.1847
 1063SOL     OW14824   1.057   3.897   6.928 -0.2344  0.0130  0.5823
 1063SOL    HW114825   1.043   3.896   7.023 -1.2844 -0.0276  0.4261
 1063SOL    HW214826   1.009   3.977   6.906  0.1461 -0.2744 -1.2835
 1064SOL     OW14827   0.982   1.912   1.952 -0.1591  0.5269 -0.0146
 1064SOL    HW114828   1.001   2.006   1.943  0.4152  0.1695 -2.6887
 1064SOL    HW214829   0.890   1.915   1.928 -0.5708  0.5012  1.5564
 1065SOL     OW14830   1.752   2.357   3.734  0.5482  0.5008  0.5047
 1065SOL    HW114831   1.764   2.298   3.659 -1.7989  0.8083 -0.1223
 1065SOL    HW214832   1.734   2.302   3.810  3.4602 -0.3520  0.5874
 1066SOL     OW14833   0.020   4.664   4.324 -0.2374 -0.7015  0.0130
 1066SOL    HW114834   4.670   4.689   4.330  0.7894  3.0590  0.3187
 1066SOL    HW214835   0.054   0.011   4.319 -0.0267 -0.9745 -3.1665
 1067SOL     OW14836   4.099   2.781   5.024 -0.0345 -0.0967  0.1243
 1067SOL    HW114837   4.061   2.694   5.009 -1.2936  0.3038  0.9652
 1067SOL    HW214838   4.108   2.817   4.936 -1.5682 -0.9965 -0.4041
 1068SOL     OW14839   3.845   2.110  14.386  0.1276  0.8921 -0.0053
 1068SOL    HW114840   3.877   2.180  14.328  2.5286  0.7513  1.1709
 1068SOL    HW214841   3.872   2.142  14.472  2.0729  1.2812 -0.7567
 1069SOL     OW14842   2.232   0.458   3.781 -0.2262  0.4271 -0.2280
 1069SOL    HW114843   2.247   0.363   3.781  0.9355  0.6117  0.4524
 1069SOL    HW214844   2.226   0.477   3.687 -0.8040 -1.2189 -0.5276
 1070SOL     OW14845   0.249   0.574   2.410 -0.0130  0.4085  0.1015
 1070SOL    HW114846   0.240   0.604   2.320 -0.4641 -1.5597 -0.5042
 1070SOL    HW214847   0.334   0.531   2.417 -0.0516  0.4574  0.8799
 1071SOL     OW14848   2.527   2.678   6.661 -0.1334  0.1954 -0.0585
 1071SOL    HW114849   2.522   2.759   6.712 -0.9473  1.4420 -2.1157
 1071SOL    HW214850   2.477   2.708   6.585  0.5392  0.4685 -0.3941
 1072SOL     OW14851   2.972   3.733   3.609  0.2156 -0.2974  0.3709
 1072SOL    HW114852   2.986   3.745   3.515  1.0259 -0.1211  0.5141
 1072SOL    HW214853   2.983   3.637   3.613  2.0451 -0.0970  0.3702
 1073SOL     OW14854   2.330   1.893   1.865  1.2545 -0.5612  0.1001
 1073SOL    HW114855   2.325   1.864   1.956  0.8250  1.6430  0.7801
 1073SOL    HW214856   2.321   1.986   1.885 -0.3157 -0.7769  0.4111
 1074SOL     OW14857   2.128   0.993   5.144  0.0647  0.7101 -0.3067
 1074SOL    HW114858   2.063   1.039   5.196 -0.4389 -0.6667  0.2797
 1074SOL    HW214859   2.208   1.002   5.195 -0.6184  2.0072  0.5329
 1075SOL     OW14860   3.538   1.358   4.929  0.4122 -0.1727 -0.1100
 1075SOL    HW114861   3.560   1.451   4.928 -0.5992  0.0635 -0.4703
 1075SOL    HW214862   3.463   1.371   4.987 -0.5382  0.0429 -1.3796
 1076SOL     OW14863   3.845   1.282   8.385 -0.3422  0.4581  0.3776
 1076SOL    HW114864   3.899   1.341   8.332  0.5622 -0.1254  0.6386
 1076SOL    HW214865   3.873   1.304   8.474  2.3412 -1.2851 -0.0307
 1077SOL     OW14866   1.280   4.573   4.264  0.1733  0.0955 -0.3497
 1077SOL    HW114867   1.276   4.552   4.357  2.3417  0.4475 -0.1845
 1077SOL    HW214868   1.327   4.656   4.260  2.7123 -1.2689  1.2365
 1078SOL     OW14869   3.673   2.090  13.348 -0.1484  1.2151  0.1423
 1078SOL    HW114870   3.662   2.024  13.416 -1.4324  1.2247 -0.0690
 1078SOL    HW214871   3.698   2.161  13.407  0.5920 -0.7432  2.1964
 1079SOL     OW14872   2.003   2.645   2.693 -0.7787 -0.1346  0.5110
 1079SOL    HW114873   2.023   2.628   2.785  3.5036 -2.5296 -0.8548
 1079SOL    HW214874   1.979   2.555   2.669 -0.8643  0.2731 -0.9215
 1080SOL     OW14875   2.243   2.460  12.603 -0.4305 -0.3044  0.0073
 1080SOL    HW114876   2.150   2.437  12.601 -0.8785  1.6141 -0.8040
 1080SOL    HW214877   2.234   2.553  12.586  0.5843 -0.5480 -1.8547
 1081SOL     OW14878   4.236   4.285   7.503  0.4766 -0.1756  0.1801
 1081SOL    HW114879   4.145   4.277   7.533  0.0092  0.7799 -1.0028
 1081SOL    HW214880   4.204   4.316   7.419  1.4501  1.8206  0.5488
 1082SOL     OW14881   3.964   1.078  12.693 -0.2257 -0.2887  0.6616
 1082SOL    HW114882   3.910   1.005  12.663  0.6934 -0.1229 -1.3770
 1082SOL    HW214883   4.052   1.043  12.684  0.1356  0.6213  0.6160
 1083SOL     OW14884   0.545   4.198   2.632  0.1551  0.2477 -0.5045
 1083SOL    HW114885   0.592   4.198   2.716  1.0973  0.4320 -1.0338
 1083SOL    HW214886   0.527   4.104   2.627 -2.3684  0.5462  2.8383
 1084SOL     OW14887   2.306   0.181  16.027  0.3130  0.6011 -0.3085
 1084SOL    HW114888   2.255   0.259  16.050  0.6879  0.4166  1.1431
 1084SOL    HW214889   2.281   0.166  15.936 -0.1806 -1.1883  0.1127
 1085SOL     OW14890   0.669   0.281   6.425 -0.3240  0.0633  0.4979
 1085SOL    HW114891   0.724   0.331   6.485  0.7830 -1.3947  0.7017
 1085SOL    HW214892   0.735   0.217   6.400  0.5722  0.6249  1.4662
 1086SOL     OW14893   3.836   1.593   5.537  0.4282 -0.0371 -0.2843
 1086SOL    HW114894   3.915   1.539   5.535 -1.2420 -2.6194  2.6559
 1086SOL    HW214895   3.821   1.605   5.444  1.4988 -2.4524 -0.7594
 1087SOL     OW14896   3.967   3.014   9.604  0.0151  0.3391 -0.4811
 1087SOL    HW114897   3.989   3.087   9.661 -1.0893  0.7323 -0.5556
 1087SOL    HW214898   3.926   3.073   9.541  0.4723 -2.9634 -3.9272
 1088SOL     OW14899   3.873   1.671  14.239  0.1213  0.1290 -0.1740
 1088SOL    HW114900   3.789   1.650  14.197 -0.2216  0.6215  0.2770
 1088SOL    HW214901   3.932   1.659  14.164  0.3830  2.3097 -0.3225
 1089SOL     OW14902   2.165   0.011   5.404 -0.0343 -0.5153 -0.0188
 1089SOL    HW114903   2.136   4.714   5.486 -1.0578  0.4899  0.0950
 1089SOL    HW214904   2.099   4.719   5.344 -0.9680  1.0520  0.1194
 1090SOL     OW14905   2.577   4.680   6.609 -0.1753 -0.2139 -0.2114
 1090SOL    HW114906   2.638   4.634   6.668 -0.4266  0.1224  0.3143
 1090SOL    HW214907   2.595   4.638   6.525  1.0846  0.4316 -0.2743
 1091SOL     OW14908   3.220   4.107   7.762  0.0845 -0.5807 -0.3945
 1091SOL    HW114909   3.156   4.178   7.773 -0.7047 -1.7096  2.5130
 1091SOL    HW214910   3.304   4.151   7.753 -0.8326  1.4658  1.1049
 1092SOL     OW14911   1.664   1.598  11.295 -0.0246  0.5098 -0.3090
 1092SOL    HW114912   1.674   1.542  11.217 -1.6875  0.3155 -0.3919
 1092SOL    HW214913   1.745   1.648  11.287  0.7231 -1.0514 -2.6794
 1093SOL     OW14914   4.290   0.991   8.303 -1.1442 -0.4294 -0.3690
 1093SOL    HW114915   4.295   0.995   8.399 -0.1710 -1.3453 -0.3833
 1093SOL    HW214916   4.303   1.080   8.269 -0.1524 -0.0396  1.0138
 1094SOL     OW14917   1.736   0.079   6.631  0.2650  0.0485 -0.2448
 1094SOL    HW114918   1.797   0.036   6.692 -0.0491  0.7706  0.5706
 1094SOL    HW214919   1.652   0.100   6.672 -0.1962 -0.6742 -0.8226
 1095SOL     OW14920   1.873   1.002   9.713 -0.7077  0.2246  0.0247
 1095SOL    HW114921   1.850   1.061   9.785 -0.6544  1.3561 -0.8963
 1095SOL    HW214922   1.794   0.948   9.718 -0.9896  0.4512 -1.9941
 1096SOL     OW14923   2.014   2.277   6.602  0.1887  0.0927 -0.4956
 1096SOL    HW114924   2.045   2.270   6.692  2.0646  1.2970 -1.0299
 1096SOL    HW214925   2.069   2.218   6.551 -1.4905 -1.9223  0.0394
 1097SOL     OW14926   3.062   0.807   6.936 -0.2162 -0.3762 -0.1775
 1097SOL    HW114927   3.140   0.832   6.986 -1.3634  3.2160 -0.1985
 1097SOL    HW214928   3.101   0.773   6.855  0.6570 -1.8666  0.8734
 1098SOL     OW14929   0.831   1.523   5.118  0.0127  0.1319  0.3083
 1098SOL    HW114930   0.782   1.570   5.185 -1.6019  2.4631 -2.4750
 1098SOL    HW214931   0.908   1.580   5.121  0.1381  0.1138 -1.9925
 1099SOL     OW14932   3.815   0.285   0.756  0.3974  0.0210  0.8613
 1099SOL    HW114933   3.783   0.275   0.667 -0.2104  0.7272  0.9996
 1099SOL    HW214934   3.751   0.351   0.783 -0.2148  0.3247 -1.4086
 1100SOL     OW14935   1.612   0.518   7.892  0.0255 -0.2336 -0.6510
 1100SOL    HW114936   1.696   0.481   7.917 -0.2309 -0.6879 -0.4490
 1100SOL    HW214937   1.560   0.505   7.971  2.5072  0.5751  1.0850
 1101SOL     OW14938   0.628   2.942   1.586  0.2846  0.0989  0.2699
 1101SOL    HW114939   0.656   2.872   1.527  0.0822  0.0266  0.2605
 1101SOL    HW214940   0.710   2.959   1.632  0.7832  3.3230 -1.8136
 1102SOL     OW14941   4.008   2.945   6.751  0.1733 -0.1475  0.0643
 1102SOL    HW114942   3.946   2.971   6.818 -0.0759 -0.9276  0.1312
 1102SOL    HW214943   4.090   2.932   6.798 -0.9497  0.7586  2.2352
 1103SOL     OW14944   2.018   4.739   6.152  0.7202  0.2476 -0.0491
 1103SOL    HW114945   1.951   4.674   6.132  0.4545  0.6812 -0.5679
 1103SOL    HW214946   2.094   4.701   6.197 -0.9319 -1.4754  1.2812
 1104SOL     OW14947   3.551   0.169  13.891 -0.3277  0.5120  0.2711
 1104SOL    HW114948   3.488   0.216  13.945  1.8378 -1.1801  4.2671
 1104SOL    HW214949   3.510   0.187  13.806 -0.2369  1.4776  0.4273
 1105SOL     OW14950   2.727   3.546   6.587 -0.4999 -0.4762  0.0759
 1105SOL    HW114951   2.762   3.595   6.661  0.4824 -0.0032 -0.7074
 1105SOL    HW214952   2.704   3.462   6.626 -0.9209  0.0221  0.8983
 1106SOL     OW14953   1.671   4.065   8.971  0.3688 -0.0888 -0.1687
 1106SOL    HW114954   1.723   3.989   8.947 -0.8286 -1.4088  1.4041
 1106SOL    HW214955   1.720   4.129   8.919  1.3056  0.1897  1.0396
 1107SOL     OW14956   2.944   0.937  10.951 -0.1891 -0.0103 -0.0272
 1107SOL    HW114957   2.873   0.971  10.897 -1.6406 -2.4588  0.3553
 1107SOL    HW214958   2.948   0.859  10.895  0.6926  0.6547 -0.9093
 1108SOL     OW14959   4.373   2.778  12.822 -0.2406 -0.2909 -0.7907
 1108SOL    HW114960   4.290   2.795  12.776 -0.1790 -1.0755 -1.2011
 1108SOL    HW214961   4.423   2.730  12.756  0.8177  0.4253 -0.4901
 1109SOL     OW14962   3.825   4.711  13.411  0.2368 -0.8336 -0.6988
 1109SOL    HW114963   3.801   0.061  13.406 -2.0081 -1.4457 -1.3801
 1109SOL    HW214964   3.802   4.688  13.502  0.4037 -1.9489 -0.9376
 1110SOL     OW14965   1.005   1.516   5.941  0.9109  0.6940 -0.0272
 1110SOL    HW114966   1.002   1.579   6.013  1.1078  1.3509 -0.5885
 1110SOL    HW214967   0.945   1.446   5.967  2.4983  0.3611  2.6871
 1111SOL     OW14968   1.522   0.631   5.510  0.8069 -0.0593  0.4450
 1111SOL    HW114969   1.561   0.546   5.489 -0.9117 -0.4102 -1.2422
 1111SOL    HW214970   1.428   0.619   5.501  0.8532 -0.4978  0.5654
 1112SOL     OW14971   3.285   0.136   5.627  0.1409 -0.5392  0.2990
 1112SOL    HW114972   3.341   0.105   5.556  2.0486  1.5261  0.8788
 1112SOL    HW214973   3.258   0.225   5.605 -0.2689 -0.2020  2.1053
 1113SOL     OW14974   4.062   0.431   1.110  0.4799  0.4732 -0.1509
 1113SOL    HW114975   4.069   0.429   1.206 -0.3284  0.0785 -0.0952
 1113SOL    HW214976   4.043   0.524   1.102  1.0011  0.6515  0.7455
 1114SOL     OW14977   1.454   3.610  16.976 -0.0151 -0.0277 -0.2181
 1114SOL    HW114978   1.544   3.612  17.010 -0.8396 -1.0764  2.0123
 1114SOL    HW214979   1.447   3.526  16.932 -0.4752 -1.3918  2.4978
 1115SOL     OW14980   3.878   4.199  16.927  0.3211  0.4504 -0.4398
 1115SOL    HW114981   3.906   4.131  16.989  1.3325 -0.4079 -1.8178
 1115SOL    HW214982   3.812   4.236  16.986  1.7008  0.4806  1.0749
 1116SOL     OW14983   2.526   1.218   6.199 -0.4564  0.5941 -0.0421
 1116SOL    HW114984   2.434   1.242   6.216 -0.7907 -1.5169  1.1994
 1116SOL    HW214985   2.570   1.298   6.170  0.1309  0.4119  0.3525
 1117SOL     OW14986   3.164   2.754   5.901 -0.3204 -0.0176  0.2442
 1117SOL    HW114987   3.110   2.774   5.977  0.8239  2.2848  0.4647
 1117SOL    HW214988   3.093   2.756   5.837  0.6300  3.7207 -0.6816
 1118SOL     OW14989   0.754   4.334  17.716  0.1161  0.1203  0.4403
 1118SOL    HW114990   0.824   4.269  17.720 -2.0657 -2.2894 -0.4759
 1118SOL    HW214991   0.771   4.395   0.021  1.5359 -0.2523  0.4187
 1119SOL     OW14992   1.409   1.488   5.574 -0.3312  0.7137 -0.4333
 1119SOL    HW114993   1.383   1.413   5.520  1.9839 -0.3644 -0.0183
 1119SOL    HW214994   1.455   1.536   5.506 -0.6476 -0.5876 -1.5586
 1120SOL     OW14995   0.358   4.677  11.789 -0.6283  0.0789 -0.1606
 1120SOL    HW114996   0.403   4.628  11.857 -0.5713  3.0882  1.9977
 1120SOL    HW214997   0.436   4.726  11.765 -0.7048  1.5232  2.5124
 1121SOL     OW14998   0.104   3.097   7.060  0.0980  0.3570  0.3214
 1121SOL    HW114999   0.108   3.071   7.152 -1.7141  0.7979  0.5311
 1121SOL    HW215000   0.065   3.015   7.029 -0.7089  1.8870 -2.7303
 1122SOL     OW15001   1.768   1.697   6.412  0.5302 -0.1734 -0.0553
 1122SOL    HW115002   1.712   1.745   6.473  0.4181 -1.9206  1.2202
 1122SOL    HW215003   1.853   1.702   6.456  0.3461 -3.3095  0.6472
 1123SOL     OW15004   0.223   1.469  11.648 -0.0777  0.2242  0.0126
 1123SOL    HW115005   0.223   1.374  11.637  1.3875  0.4017 -1.5147
 1123SOL    HW215006   0.176   1.464  11.731  1.3962 -0.2259  0.8240
 1124SOL     OW15007   0.922   3.455  15.534  0.2250  0.6760  0.4882
 1124SOL    HW115008   0.994   3.402  15.567 -0.8092 -1.0773 -0.0868
 1124SOL    HW215009   0.938   3.445  15.440 -0.8548 -2.4670  0.6349
 1125SOL     OW15010   1.963   1.225   8.232  0.1675  0.2055 -0.6775
 1125SOL    HW115011   1.969   1.161   8.160 -3.0406 -1.8182  0.8460
 1125SOL    HW215012   2.041   1.277   8.216 -0.2522  0.6515 -1.3030
 1126SOL     OW15013   3.388   3.703   3.216 -0.0355  0.1317  0.1064
 1126SOL    HW115014   3.369   3.787   3.259 -3.7950 -0.9388  0.5057
 1126SOL    HW215015   3.335   3.723   3.139 -0.8234 -1.9790  0.1181
 1127SOL     OW15016   3.370   3.216   2.045 -0.0238 -0.0937  0.4112
 1127SOL    HW115017   3.401   3.271   1.973  0.4605  0.0447  0.7299
 1127SOL    HW215018   3.445   3.210   2.104  0.3011  1.1285  0.1104
 1128SOL     OW15019   2.557   3.318   5.692  0.6486 -0.3605  0.3711
 1128SOL    HW115020   2.531   3.397   5.645  1.9594  1.1721  2.2090
 1128SOL    HW215021   2.594   3.266   5.622 -1.9089 -2.7695  0.8121
 1129SOL     OW15022   0.853   1.010   7.491 -0.1562 -0.3658  0.1086
 1129SOL    HW115023   0.943   0.978   7.499  0.0195  0.1521  0.2400
 1129SOL    HW215024   0.846   1.007   7.395 -1.3584 -0.7919  0.2186
 1130SOL     OW15025   0.583   2.322   7.190  0.5818 -0.3488  0.3848
 1130SOL    HW115026   0.496   2.310   7.230  0.5729  0.3259  0.5779
 1130SOL    HW215027   0.599   2.410   7.224 -0.7440 -0.3452  1.0003
 1131SOL     OW15028   3.388   0.990   2.236 -0.2756 -0.0223  0.2973
 1131SOL    HW115029   3.347   1.070   2.202 -0.7434 -0.6099 -0.5268
 1131SOL    HW215030   3.422   0.958   2.153 -1.4887 -1.3145  0.2882
 1132SOL     OW15031   4.582   4.526   6.877  0.3184 -0.3824 -0.2764
 1132SOL    HW115032   4.611   4.434   6.871  1.3383  0.0048 -1.3987
 1132SOL    HW215033   4.647   4.555   6.941  0.8575  2.2329 -2.0142
 1133SOL     OW15034   2.670   3.123  17.415 -0.2567 -0.2158 -0.1054
 1133SOL    HW115035   2.760   3.119  17.447 -0.1714  1.8218 -0.1136
 1133SOL    HW215036   2.628   3.086  17.493 -0.9109 -0.0020 -0.3573
 1134SOL     OW15037   3.785   3.918   6.056 -0.2029 -0.2675  0.2517
 1134SOL    HW115038   3.841   3.881   6.125  0.4161 -3.6625 -2.0901
 1134SOL    HW215039   3.849   3.895   5.989  0.4930 -1.9782  1.4821
 1135SOL     OW15040   4.177   1.657   2.742  0.1921 -0.0532  0.0292
 1135SOL    HW115041   4.246   1.618   2.794  0.4159 -1.2602 -1.1827
 1135SOL    HW215042   4.208   1.748   2.743 -1.2420  0.4348  0.5600
 1136SOL     OW15043   3.912   1.329   4.300 -0.4526  0.5911  0.1549
 1136SOL    HW115044   3.853   1.314   4.226 -1.1662 -3.0511  1.4958
 1136SOL    HW215045   3.946   1.418   4.286 -2.5606  1.8232  2.9639
 1137SOL     OW15046   0.378   0.190   1.336  0.3386  0.1485  0.3789
 1137SOL    HW115047   0.352   0.172   1.246 -1.7507 -1.5744  1.3218
 1137SOL    HW215048   0.474   0.193   1.334  0.3007  1.1735  0.0713
 1138SOL     OW15049   2.924   4.738   6.176  0.0209  0.3353 -0.2563
 1138SOL    HW115050   2.982   4.695   6.239  2.1250  1.7729 -1.2025
 1138SOL    HW215051   2.923   0.087   6.203 -1.5845  0.3468 -0.3822
 1139SOL     OW15052   4.447   3.910   9.926  0.6290  0.1045  0.2018
 1139SOL    HW115053   4.507   3.947   9.862  0.0712  1.2078  0.3173
 1139SOL    HW215054   4.363   3.904   9.881  0.6231  2.8053 -0.0953
 1140SOL     OW15055   1.806   4.734   4.991 -0.1606 -0.0491  0.0270
 1140SOL    HW115056   1.879   0.037   4.950  0.7386 -0.8957  0.6684
 1140SOL    HW215057   1.774   0.061   5.048  0.5631 -0.2721  0.6947
 1141SOL     OW15058   3.008   3.200   1.651  1.2659  0.1037 -0.2572
 1141SOL    HW115059   3.025   3.272   1.589 -1.9084 -0.1693 -1.4332
 1141SOL    HW215060   3.070   3.217   1.721 -0.2920  0.7725  0.9515
 1142SOL     OW15061   2.798   1.034   4.985  0.0458 -0.1465  0.2951
 1142SOL    HW115062   2.884   1.058   4.949 -0.0383  1.4369  1.1315
 1142SOL    HW215063   2.732   1.045   4.917  0.4813  0.6648  0.0013
 1143SOL     OW15064   4.033   1.397   5.304  0.0555 -0.0823 -0.0802
 1143SOL    HW115065   3.985   1.466   5.258 -0.4052 -0.1273  0.3323
 1143SOL    HW215066   4.103   1.374   5.244 -2.0706  0.2785 -2.7199
 1144SOL     OW15067   1.604   4.087  15.990  0.0345  0.3300 -0.0777
 1144SOL    HW115068   1.653   4.088  16.072  1.3074 -2.1777 -0.8122
 1144SOL    HW215069   1.520   4.057  16.024  0.2075  0.3075  0.3288
 1145SOL     OW15070   2.914   4.620   5.620 -0.3724 -0.5988  0.0244
 1145SOL    HW115071   2.916   4.682   5.693  0.0844  0.9298 -1.2703
 1145SOL    HW215072   3.007   4.600   5.614 -0.2798 -0.1300 -0.1472
 1146SOL     OW15073   2.144   3.400   7.501  0.4466 -0.4101  0.4211
 1146SOL    HW115074   2.209   3.332   7.519  2.9886  1.7614 -0.5476
 1146SOL    HW215075   2.101   3.362   7.424 -0.8039 -1.3465  1.5889
 1147SOL     OW15076   1.897   2.650   7.589 -0.1185 -0.5265  0.0551
 1147SOL    HW115077   1.973   2.677   7.640  1.4956  1.1474 -3.1762
 1147SOL    HW215078   1.849   2.582   7.636  0.2499 -0.8315 -0.0138
 1148SOL     OW15079   3.614   2.389  16.395  0.1999  0.3272  0.5399
 1148SOL    HW115080   3.579   2.465  16.347 -1.4347  0.2966  1.6919
 1148SOL    HW215081   3.705   2.389  16.364 -0.7119 -0.9441 -2.1453
 1149SOL     OW15082   0.564   2.771  10.751  0.1900 -0.6370 -0.5717
 1149SOL    HW115083   0.626   2.840  10.773  0.0012 -1.5777  2.8099
 1149SOL    HW215084   0.621   2.695  10.758 -0.7258 -1.0355  2.2747
 1150SOL     OW15085   2.096   1.499  11.156  0.2891 -0.2118 -0.2229
 1150SOL    HW115086   2.060   1.417  11.121  2.0343 -2.4235  3.0924
 1150SOL    HW215087   2.190   1.481  11.168  0.2725  0.5243  0.9795
 1151SOL     OW15088   1.929   4.278   3.496  0.4583 -0.1521  0.7260
 1151SOL    HW115089   2.014   4.321   3.497 -0.6931  2.1267  0.9952
 1151SOL    HW215090   1.953   4.199   3.448 -2.8700  0.7479 -2.4851
 1152SOL     OW15091   1.094   3.250   6.768  0.0415 -0.2837 -0.2097
 1152SOL    HW115092   1.066   3.166   6.804  0.7177  0.0131  1.0003
 1152SOL    HW215093   1.108   3.224   6.677 -0.5262  0.5323 -0.5272
 1153SOL     OW15094   4.459   2.559  17.135  0.1168 -0.1943 -0.4150
 1153SOL    HW115095   4.478   2.588  17.224  2.1502 -1.9315 -0.2981
 1153SOL    HW215096   4.517   2.617  17.085  0.1026 -0.9573 -1.3242
 1154SOL     OW15097   1.962   1.682  16.495  0.0246 -0.3038 -0.6415
 1154SOL    HW115098   1.982   1.677  16.401  2.8954 -0.3733 -0.0462
 1154SOL    HW215099   1.868   1.664  16.499 -0.0038  0.5700  2.1690
 1155SOL     OW15100   1.101   2.158   7.985 -0.2331 -0.6241  0.1230
 1155SOL    HW115101   1.142   2.122   7.907  0.2236  1.7576 -0.7500
 1155SOL    HW215102   1.017   2.192   7.953 -1.1906 -1.0846  2.1130
 1156SOL     OW15103   3.511   2.481  12.386 -0.4649  0.2512  0.4050
 1156SOL    HW115104   3.501   2.479  12.481 -0.1924 -3.4071  0.3532
 1156SOL    HW215105   3.593   2.433  12.372 -1.1951  0.1985 -3.8264
 1157SOL     OW15106   0.327   0.832  17.289 -0.0944  0.4201 -0.2390
 1157SOL    HW115107   0.322   0.926  17.271  0.4471  0.7999  1.5298
 1157SOL    HW215108   0.286   0.817  17.374 -0.0658  0.6133 -0.1911
 1158SOL     OW15109   1.500   0.251  12.302 -0.7218 -0.5720  0.5924
 1158SOL    HW115110   1.591   0.231  12.324 -0.1262  0.6458 -0.7749
 1158SOL    HW215111   1.497   0.209  12.216 -1.6000 -1.2544  0.9517
 1159SOL     OW15112   0.273   4.017  12.203 -0.1070  0.3697 -0.1667
 1159SOL    HW115113   0.225   4.029  12.120  0.5800  0.7856 -0.5033
 1159SOL    HW215114   0.277   3.921  12.209 -0.2367  0.2665 -1.6319
 1160SOL     OW15115   3.474   3.587   9.422 -0.1801 -0.0965  0.1477
 1160SOL    HW115116   3.459   3.620   9.333  1.9751 -0.1317 -0.2230
 1160SOL    HW215117   3.444   3.661   9.476 -2.1347 -1.5234  1.0385
 1161SOL     OW15118   4.696   1.289   3.043 -0.8179  0.1116 -0.0664
 1161SOL    HW115119   4.685   1.201   3.007 -2.1315  1.1048 -2.0826
 1161SOL    HW215120   0.049   1.299   3.037 -1.1267  2.4283 -1.2521
 1162SOL     OW15121   3.613   3.897   4.796  0.0593  0.2389  0.3828
 1162SOL    HW115122   3.634   3.805   4.813 -1.4417 -0.4436 -1.6241
 1162SOL    HW215123   3.688   3.948   4.828  0.7789 -0.3169 -0.4231
 1163SOL     OW15124   2.359   0.466   2.149 -0.3617  0.1270  0.3924
 1163SOL    HW115125   2.418   0.540   2.166  1.2036 -0.7354 -1.4020
 1163SOL    HW215126   2.343   0.430   2.236  0.6466 -2.3648 -0.4562
 1164SOL     OW15127   0.539   3.459   2.804  0.0748  0.3164  0.2185
 1164SOL    HW115128   0.519   3.405   2.727  0.4821 -1.2524  1.2218
 1164SOL    HW215129   0.463   3.448   2.861  2.6671  0.1360  3.6525
 1165SOL     OW15130   3.807   2.780   9.472 -0.1284  0.6611 -0.3737
 1165SOL    HW115131   3.844   2.859   9.510 -1.3825  0.6012  0.9410
 1165SOL    HW215132   3.725   2.808   9.432 -1.2115 -1.5492  0.2737
 1166SOL     OW15133   3.083   0.259  10.963  0.6349  0.0235 -0.0376
 1166SOL    HW115134   3.082   0.185  10.903 -0.8845  0.5819 -0.6940
 1166SOL    HW215135   3.093   0.337  10.908  0.4485 -0.0222 -0.1371
 1167SOL     OW15136   4.257   0.671   3.302 -1.0490 -0.6674  0.0222
 1167SOL    HW115137   4.237   0.685   3.394  1.2149  0.3107  0.3687
 1167SOL    HW215138   4.335   0.724   3.283  0.8553 -3.1165  1.0421
 1168SOL     OW15139   3.364   1.498  12.857  0.4558  0.0902 -0.1813
 1168SOL    HW115140   3.439   1.516  12.914 -0.6842 -0.2284  1.4229
 1168SOL    HW215141   3.384   1.556  12.784 -0.6279  0.7137  0.0208
 1169SOL     OW15142   2.103   1.788  13.334 -0.0967  0.2686 -0.0897
 1169SOL    HW115143   2.093   1.708  13.386 -2.7998  1.8788  1.8665
 1169SOL    HW215144   2.140   1.855  13.391 -0.0176 -0.1630  0.3609
 1170SOL     OW15145   2.733   1.881   0.292  0.0933  0.0932  0.3239
 1170SOL    HW115146   2.702   1.799   0.330 -1.8374  1.4807  1.7459
 1170SOL    HW215147   2.648   1.922   0.277 -0.4850 -1.0192  0.5754
 1171SOL     OW15148   2.648   0.336   2.505 -0.2542  0.2087 -0.1451
 1171SOL    HW115149   2.733   0.351   2.464 -0.8803 -0.8229 -1.8197
 1171SOL    HW215150   2.650   0.386   2.586 -0.0683  0.6503 -0.4202
 1172SOL     OW15151   4.620   4.232  12.956  0.6470  0.7721 -0.5986
 1172SOL    HW115152   4.624   4.310  12.901 -1.3013 -0.4796 -2.5465
 1172SOL    HW215153   4.621   4.271  13.043 -2.5954 -1.0475  0.2532
 1173SOL     OW15154   4.365   1.589  13.251 -0.2953 -0.1978 -0.1044
 1173SOL    HW115155   4.379   1.684  13.256 -0.7851 -0.1389  0.2025
 1173SOL    HW215156   4.271   1.596  13.230  0.3756  1.1979 -2.6378
 1174SOL     OW15157   2.034   3.141   7.725  0.0372 -0.3311 -0.0854
 1174SOL    HW115158   2.036   3.142   7.821 -1.0879 -0.9573 -0.0451
 1174SOL    HW215159   1.950   3.186   7.717 -0.1277 -0.9250 -1.6184
 1175SOL     OW15160   2.182   1.644   8.672  0.4711  0.0511  0.1327
 1175SOL    HW115161   2.106   1.589   8.694 -0.2229 -0.0865 -2.6448
 1175SOL    HW215162   2.195   1.635   8.578 -0.5536 -0.0089 -0.0124
 1176SOL     OW15163   0.756   2.257   6.669 -0.3861  0.2444  0.0233
 1176SOL    HW115164   0.713   2.331   6.712 -1.5108  0.0184 -0.7072
 1176SOL    HW215165   0.848   2.276   6.686 -0.5424  0.3877  0.6840
 1177SOL     OW15166   4.390   0.438   0.044  0.1336  0.0681 -0.4074
 1177SOL    HW115167   4.390   0.348   0.010 -0.0680  0.4633 -1.4772
 1177SOL    HW215168   4.299   0.463   0.029  0.0148  1.2985  2.4086
 1178SOL     OW15169   0.764   3.253   6.421 -0.0239  0.7502 -0.1434
 1178SOL    HW115170   0.778   3.199   6.499 -1.1488  0.6108 -0.0482
 1178SOL    HW215171   0.856   3.257   6.393  0.6181  0.0702  1.8140
 1179SOL     OW15172   2.551   1.345   1.454  0.5281  0.1637  0.3235
 1179SOL    HW115173   2.623   1.372   1.397  0.8063  0.0218  0.6030
 1179SOL    HW215174   2.473   1.374   1.407  0.3557  0.2710  0.6770
 1180SOL     OW15175   1.697   1.421  15.432 -0.1338 -0.1053  0.3760
 1180SOL    HW115176   1.717   1.332  15.462  0.6965  0.3184  1.0783
 1180SOL    HW215177   1.711   1.413  15.337  3.6640 -1.5201  1.0959
 1181SOL     OW15178   3.740   3.414   6.414 -0.4860  0.0895 -0.3963
 1181SOL    HW115179   3.746   3.344   6.348  1.1229  0.0697 -0.2320
 1181SOL    HW215180   3.650   3.443   6.404  0.0223  1.1594 -1.8458
 1182SOL     OW15181   1.610   2.599  14.669  0.1048  0.1139 -0.0882
 1182SOL    HW115182   1.558   2.647  14.735 -0.9665 -1.1542 -0.0129
 1182SOL    HW215183   1.549   2.530  14.643  1.3734 -0.5403 -1.2768
 1183SOL     OW15184   3.265   1.037  14.485 -0.3086 -0.3650  0.5778
 1183SOL    HW115185   3.258   1.040  14.389 -0.4370 -0.6060  0.5791
 1183SOL    HW215186   3.329   1.108  14.488  0.2799 -0.8719  0.0768
 1184SOL     OW15187   0.006   0.858   2.313 -0.2061  0.1744  0.2914
 1184SOL    HW115188   4.696   0.881   2.391 -0.6219  0.9402 -0.2169
 1184SOL    HW215189   4.696   0.786   2.278 -1.0657  1.2899 -0.6973
 1185SOL     OW15190   3.609   1.693   2.668  0.1449 -0.4981 -0.4059
 1185SOL    HW115191   3.573   1.610   2.701  2.7894 -2.1217 -1.6350
 1185SOL    HW215192   3.702   1.688   2.691  0.3155  0.0005 -1.0032
 1186SOL     OW15193   3.570   2.215   3.627  0.1445  0.0043 -0.4237
 1186SOL    HW115194   3.519   2.134   3.629 -0.8132  0.6206 -0.3285
 1186SOL    HW215195   3.544   2.282   3.690 -1.5464  0.1085 -1.2361
 1187SOL     OW15196   0.697   3.553  12.236 -0.1695  0.7239 -0.0800
 1187SOL    HW115197   0.785   3.591  12.228  0.1688 -0.3097 -1.1892
 1187SOL    HW215198   0.634   3.625  12.229 -1.0570  0.0886  1.3984
 1188SOL     OW15199   0.128   3.250   7.366 -0.3462  0.1668 -0.7420
 1188SOL    HW115200   0.097   3.160   7.371  0.2273  0.0536  0.8071
 1188SOL    HW215201   0.067   3.293   7.425 -1.4352 -0.8374 -1.1294
 1189SOL     OW15202   2.344   3.800   3.493  0.2400 -0.6114 -0.0416
 1189SOL    HW115203   2.297   3.879   3.466  0.2688 -0.8114 -0.6850
 1189SOL    HW215204   2.276   3.733   3.500  1.3017 -1.3184  3.2712
 1190SOL     OW15205   1.003   2.602   5.448  0.2738 -0.6044 -0.2975
 1190SOL    HW115206   0.994   2.529   5.387  3.7058 -1.0718 -0.2407
 1190SOL    HW215207   0.956   2.676   5.410 -0.4973 -0.5427  0.7665
 1191SOL     OW15208   2.073   1.319   6.150 -0.2638 -0.2132 -0.1719
 1191SOL    HW115209   2.112   1.393   6.103 -2.0341  0.0184 -1.2535
 1191SOL    HW215210   2.151   1.264   6.157 -1.0918 -1.5209 -1.1700
 1192SOL     OW15211   2.544   0.109   8.808  0.6598 -0.3750 -0.0774
 1192SOL    HW115212   2.532   0.162   8.729  0.0927 -1.9827 -1.0584
 1192SOL    HW215213   2.635   0.125   8.835  0.4516  0.6290  0.0083
 1193SOL     OW15214   0.990   2.517   2.731  0.7511 -0.3183 -0.0710
 1193SOL    HW115215   0.954   2.516   2.643 -0.2467  0.1494  0.3402
 1193SOL    HW215216   1.085   2.527   2.718  0.7136  2.7863  2.0161
 1194SOL     OW15217   4.461   2.719   6.222 -0.5602  0.1197 -0.3685
 1194SOL    HW115218   4.454   2.649   6.287  0.6390  0.6211  0.3112
 1194SOL    HW215219   4.399   2.779   6.263 -1.1320 -1.1394  0.5980
 1195SOL     OW15220   4.730   1.283  15.295 -0.2004  0.5362 -0.7872
 1195SOL    HW115221   0.078   1.311  15.281 -0.2992  2.5983  2.9619
 1195SOL    HW215222   0.014   1.195  15.323 -2.8845  0.6871  2.2085
 1196SOL     OW15223   3.291   4.477   8.814 -0.2777  0.1179  0.3867
 1196SOL    HW115224   3.355   4.544   8.792 -0.2216 -0.9885 -2.8036
 1196SOL    HW215225   3.291   4.407   8.749  2.1428 -1.0109  1.5810
 1197SOL     OW15226   0.028   3.665   9.274 -0.2060  0.0858 -0.1234
 1197SOL    HW115227   0.034   3.656   9.179  1.9841 -0.7621  0.0809
 1197SOL    HW215228   0.082   3.743   9.283 -1.1836  0.9818 -2.0911
 1198SOL     OW15229   1.713   0.413   4.475  0.3424  0.4612  0.0128
 1198SOL    HW115230   1.685   0.378   4.391  0.1120  0.4782  0.0830
 1198SOL    HW215231   1.787   0.468   4.451 -2.0127  2.7221 -1.8970
 1199SOL     OW15232   1.122   0.336   7.508 -0.3097 -0.1893 -0.0916
 1199SOL    HW115233   1.214   0.357   7.495 -0.3327  0.2194  0.4257
 1199SOL    HW215234   1.092   0.426   7.507 -1.1774 -0.4492  2.1919
 1200SOL     OW15235   2.032   2.412   2.366  0.2721 -0.0117  0.1796
 1200SOL    HW115236   2.120   2.448   2.352  0.5085 -0.6755 -0.0473
 1200SOL    HW215237   2.036   2.328   2.321  1.9742 -1.1482  2.4857
 1201SOL     OW15238   4.292   3.255   5.547  0.1184  0.1294  0.2803
 1201SOL    HW115239   4.288   3.183   5.484  0.4258  0.7730 -0.4859
 1201SOL    HW215240   4.324   3.322   5.486  2.8738 -0.2596  1.2796
 1202SOL     OW15241   0.052   3.533  15.277  0.0677  0.5265 -0.0360
 1202SOL    HW115242   0.104   3.477  15.335 -2.0351 -2.0291 -0.6340
 1202SOL    HW215243   0.110   3.607  15.261  1.5613 -0.9109 -1.2387
 1203SOL     OW15244   2.971   2.780   2.895 -0.3343 -0.3676 -0.5694
 1203SOL    HW115245   2.976   2.810   2.986  0.4649 -0.0524 -0.7184
 1203SOL    HW215246   3.051   2.728   2.890 -1.5080 -2.4200  1.6409
 1204SOL     OW15247   0.941   3.065  12.248  0.0765 -0.0831  0.4982
 1204SOL    HW115248   0.858   3.107  12.272  0.6085  0.4844  1.3411
 1204SOL    HW215249   0.905   2.977  12.258  0.5682 -0.2576  0.7036
 1205SOL     OW15250   4.258   2.096   5.939 -0.0746 -0.4313 -0.2329
 1205SOL    HW115251   4.165   2.096   5.918 -0.1855  3.4632  0.2521
 1205SOL    HW215252   4.273   2.189   5.958  0.8388 -0.4143 -1.0079
 1206SOL     OW15253   1.073   4.295  15.273  0.6035  0.2176  0.0824
 1206SOL    HW115254   1.153   4.254  15.304  1.4794  0.6712 -1.6022
 1206SOL    HW215255   1.006   4.233  15.302 -0.2046  0.3011 -1.6154
 1207SOL     OW15256   4.033   0.473  10.978  0.5967 -0.5930  0.6108
 1207SOL    HW115257   4.116   0.496  10.937  0.4794  1.4084  1.5018
 1207SOL    HW215258   3.974   0.507  10.911 -1.0315 -0.5839  2.0280
 1208SOL     OW15259   2.440   0.058   2.805  0.3343  0.0503 -0.5746
 1208SOL    HW115260   2.443   0.009   2.723  0.6357 -0.0484 -0.5041
 1208SOL    HW215261   2.464   4.725   2.858 -0.0965  1.1383  1.1755
 1209SOL     OW15262   3.070   0.172   3.221  0.1808  0.1814 -0.0769
 1209SOL    HW115263   3.047   0.220   3.141  0.4226 -0.4300 -0.5164
 1209SOL    HW215264   3.073   0.081   3.193 -0.1257 -0.3403  1.5816
 1210SOL     OW15265   3.578   3.803   2.594  0.6959 -0.2691  0.0311
 1210SOL    HW115266   3.496   3.836   2.631  0.0249 -0.8868 -0.9264
 1210SOL    HW215267   3.560   3.795   2.501 -0.6239  0.5088  0.2289
 1211SOL     OW15268   4.651   0.112   7.028 -0.4627  0.1012  0.4875
 1211SOL    HW115269   4.692   0.045   6.973  0.8585 -1.6494  3.6130
 1211SOL    HW215270   4.732   0.150   7.062 -1.1465  0.8260  1.2933
 1212SOL     OW15271   2.564   4.471   2.593  0.1361 -0.1289 -0.2493
 1212SOL    HW115272   2.560   4.395   2.536 -0.1660  1.3786 -2.2223
 1212SOL    HW215273   2.471   4.480   2.615 -0.4969 -1.5821 -2.4095
 1213SOL     OW15274   3.282   1.032   7.816  0.2871  0.2798 -0.1424
 1213SOL    HW115275   3.296   1.045   7.722  1.3964 -1.4213 -0.2127
 1213SOL    HW215276   3.203   0.977   7.815  0.6271 -0.2270  0.5729
 1214SOL     OW15277   4.661   2.916   8.766 -0.6990  0.0848 -0.3776
 1214SOL    HW115278   0.012   2.924   8.784 -0.7515 -0.7945  0.2842
 1214SOL    HW215279   4.629   2.959   8.846 -2.8277 -1.6255 -0.3138
 1215SOL     OW15280   3.187   1.019  11.754 -0.3829  0.3238 -0.3134
 1215SOL    HW115281   3.126   1.011  11.682  1.1571 -0.4120 -1.5358
 1215SOL    HW215282   3.266   0.990  11.708 -1.5626 -1.6935 -1.0455
 1216SOL     OW15283   3.223   3.709   6.509 -0.5679  0.2726 -0.3799
 1216SOL    HW115284   3.170   3.684   6.585  1.4981 -1.1293  0.6007
 1216SOL    HW215285   3.284   3.636   6.516  0.4003  1.1664  0.6536
 1217SOL     OW15286   0.948   0.891  14.206 -0.2182  0.3735  0.1567
 1217SOL    HW115287   0.934   0.952  14.133 -0.5559  0.3769  0.2246
 1217SOL    HW215288   0.994   0.827  14.150  2.9771  1.2420  1.8397
 1218SOL     OW15289   2.897   1.164   6.821 -0.0677 -0.5475 -0.7241
 1218SOL    HW115290   2.834   1.232   6.843  0.7786 -0.5609  1.7359
 1218SOL    HW215291   2.869   1.151   6.730  1.0591 -0.0540 -1.1512
 1219SOL     OW15292   1.736   4.244   8.757  0.2939 -0.2234  0.8861
 1219SOL    HW115293   1.777   4.328   8.777 -0.0951 -0.0396  0.8938
 1219SOL    HW215294   1.758   4.244   8.663 -2.7788 -0.9253  0.1684
 1220SOL     OW15295   2.291   1.425   6.000 -0.1151  0.1161 -0.2719
 1220SOL    HW115296   2.242   1.481   5.941 -0.2385  1.3473  1.0042
 1220SOL    HW215297   2.384   1.434   5.979 -0.2338 -0.3708 -0.9945
 1221SOL     OW15298   0.035   3.655   5.024  0.3270 -0.2381 -0.1758
 1221SOL    HW115299   4.737   3.685   5.105 -1.8578  0.7573 -1.6344
 1221SOL    HW215300   0.124   3.633   5.051  0.2758  1.7125  1.4964
 1222SOL     OW15301   2.379   2.507  11.324  0.0323 -1.0431 -0.2746
 1222SOL    HW115302   2.425   2.545  11.249 -0.0563 -0.5645 -0.0869
 1222SOL    HW215303   2.322   2.444  11.280  0.5434  0.3771 -2.9516
 1223SOL     OW15304   1.768   3.119  10.170  0.1915 -0.2291  0.0531
 1223SOL    HW115305   1.849   3.070  10.183 -0.1466 -1.0463 -0.8741
 1223SOL    HW215306   1.754   3.074  10.087  2.0648  2.6825 -1.8179
 1224SOL     OW15307   4.020   0.919   1.006 -0.2636  0.3885 -0.2976
 1224SOL    HW115308   4.062   0.987   1.059 -0.5626 -0.7507  1.4054
 1224SOL    HW215309   3.943   0.955   0.962 -1.3970 -0.6838  0.7867
 1225SOL     OW15310   0.514   4.639  10.945  0.1726 -0.4566 -0.1888
 1225SOL    HW115311   0.541   4.554  10.980 -0.1905 -0.2177  0.6826
 1225SOL    HW215312   0.572   4.683  11.007 -3.0924 -0.2180  2.7184
 1226SOL     OW15313   3.579   2.120  14.299 -0.6512 -0.3465  0.3656
 1226SOL    HW115314   3.671   2.145  14.310 -1.2866  1.4529  1.6926
 1226SOL    HW215315   3.557   2.078  14.382 -0.2654  2.4305  1.8606
 1227SOL     OW15316   3.806   3.803  10.417  0.3456 -0.1873  0.1754
 1227SOL    HW115317   3.805   3.712  10.447  2.9642  0.0369  0.9888
 1227SOL    HW215318   3.846   3.799  10.330  2.0868  0.6150  0.9347
 1228SOL     OW15319   0.979   2.268   3.295  0.0761  0.2075 -0.2817
 1228SOL    HW115320   1.063   2.224   3.283 -0.3219 -0.6237 -0.0350
 1228SOL    HW215321   0.981   2.318   3.376  0.3048 -0.5384  0.1710
 1229SOL     OW15322   0.446   4.180   3.542 -0.5542  0.4754  0.2530
 1229SOL    HW115323   0.433   4.238   3.467 -0.2010 -0.7398 -0.7554
 1229SOL    HW215324   0.542   4.172   3.547 -0.5047 -0.5291 -2.2725
 1230SOL     OW15325   0.685   2.231   5.667  0.5032  0.1964  0.2109
 1230SOL    HW115326   0.598   2.259   5.697  0.0224 -1.4217  0.3483
 1230SOL    HW215327   0.706   2.172   5.740  0.4024  1.7540  1.4916
 1231SOL     OW15328   0.087   0.736   8.832 -0.3576  0.0321  0.2599
 1231SOL    HW115329   0.177   0.714   8.855 -0.5004 -1.5114 -0.6214
 1231SOL    HW215330   0.072   0.709   8.741 -2.0068  0.2618  0.4609
 1232SOL     OW15331   4.395   3.854   6.120 -0.0339  0.0347 -0.3518
 1232SOL    HW115332   4.358   3.767   6.137 -0.5245  0.3864  0.4138
 1232SOL    HW215333   4.410   3.876   6.212 -1.8191 -1.3261  0.2717
 1233SOL     OW15334   1.707   1.184  14.808  0.0688 -0.2500  0.2738
 1233SOL    HW115335   1.694   1.253  14.873 -0.6772  0.3243 -0.4686
 1233SOL    HW215336   1.801   1.169  14.812 -0.1362 -2.3007 -2.4498
 1234SOL     OW15337   2.327   4.694   1.546  0.1286 -0.7828  0.5880
 1234SOL    HW115338   2.323   0.011   1.471  0.9167 -1.6523 -0.1372
 1234SOL    HW215339   2.317   0.007   1.623  1.7109  1.0725 -0.5499
 1235SOL     OW15340   4.102   4.013   3.296 -0.5330 -0.1491  0.5169
 1235SOL    HW115341   4.191   4.033   3.267 -0.9758  1.6219  0.3798
 1235SOL    HW215342   4.051   4.080   3.250  1.9336  0.6671 -1.0297
 1236SOL     OW15343   3.085   0.645   2.964 -0.3799  0.1229  0.1608
 1236SOL    HW115344   3.158   0.597   2.924  0.5387  2.9755 -1.5890
 1236SOL    HW215345   3.017   0.601   2.913 -0.4744  2.1426 -1.4911
 1237SOL     OW15346   0.724   4.692  12.366 -0.0953 -0.2548 -0.4272
 1237SOL    HW115347   0.708   0.011  12.295 -2.5670 -0.5729 -0.1316
 1237SOL    HW215348   0.730   0.016  12.435 -0.4665  1.3064 -1.9035
 1238SOL     OW15349   0.025   0.493   4.822 -0.5542 -0.1737  0.4738
 1238SOL    HW115350   0.005   0.493   4.916 -1.3102 -0.4974  0.3149
 1238SOL    HW215351   4.699   0.546   4.782  0.5900  0.1420 -1.0556
 1239SOL     OW15352   0.164   1.335   0.565  0.4908 -0.3910  0.3187
 1239SOL    HW115353   0.230   1.369   0.624 -0.4994 -2.5875  2.7089
 1239SOL    HW215354   0.097   1.393   0.600  1.2046  0.9639 -0.5896
 1240SOL     OW15355   1.988   1.040   1.933 -0.5360 -0.1286 -0.3670
 1240SOL    HW115356   1.973   1.119   1.882  1.8104 -0.1444 -1.0483
 1240SOL    HW215357   1.984   0.969   1.869  0.5914 -0.1653 -0.3887
 1241SOL     OW15358   3.692   4.738  12.793 -0.0931 -0.0068  0.1355
 1241SOL    HW115359   3.628   4.680  12.835  0.5435 -3.4150 -3.5980
 1241SOL    HW215360   3.734   4.675  12.735  1.1541  2.5353 -1.6909
 1242SOL     OW15361   1.936   3.994  11.319  0.1381  0.4224 -0.0037
 1242SOL    HW115362   1.893   4.046  11.252  0.4657  1.0256  0.2497
 1242SOL    HW215363   1.865   3.970  11.379  1.4844  0.4416  1.6163
 1243SOL     OW15364   2.529   4.627  13.555  0.2450 -0.2565 -0.4643
 1243SOL    HW115365   2.574   4.596  13.476 -0.8100  0.0163 -1.1677
 1243SOL    HW215366   2.473   4.688  13.508 -1.1259 -2.5361 -1.7889
 1244SOL     OW15367   0.055   2.875   5.879 -0.5259 -0.2366 -0.2293
 1244SOL    HW115368   0.080   2.951   5.932 -0.1497 -0.3312 -0.2707
 1244SOL    HW215369   0.093   2.895   5.794  0.8209 -1.3195  0.1195
 1245SOL     OW15370   1.817   0.461  13.230  0.7848  0.1043 -0.1042
 1245SOL    HW115371   1.808   0.461  13.325  0.0769 -1.4655 -0.1637
 1245SOL    HW215372   1.744   0.518  13.204  2.3281  1.7883 -0.7372
 1246SOL     OW15373   3.605   3.160   0.657  0.5738 -0.2363 -0.0191
 1246SOL    HW115374   3.587   3.067   0.654 -0.8703  0.0202  0.8983
 1246SOL    HW215375   3.602   3.175   0.751  1.0322 -0.9915  0.1131
 1247SOL     OW15376   0.915   4.422   3.402  0.2236 -0.3935  0.5228
 1247SOL    HW115377   1.002   4.385   3.385  0.2095  0.3937 -1.2613
 1247SOL    HW215378   0.865   4.344   3.424 -2.8524  1.3710 -0.1971
 1248SOL     OW15379   1.641   1.038   1.758 -0.5915 -0.0955 -0.1697
 1248SOL    HW115380   1.613   1.060   1.847  1.0778 -2.5028  0.9425
 1248SOL    HW215381   1.560   1.048   1.708 -0.9060  0.7204  0.5032
 1249SOL     OW15382   2.137   0.603   1.773  0.5230  0.5924 -0.2429
 1249SOL    HW115383   2.101   0.556   1.698  0.1979 -2.4381  1.8116
 1249SOL    HW215384   2.210   0.549   1.805 -0.4902 -1.3641 -1.2627
 1250SOL     OW15385   3.978   2.208   2.439  0.0567 -0.0696 -0.3054
 1250SOL    HW115386   3.900   2.264   2.445 -0.8710 -1.3772  0.0005
 1250SOL    HW215387   4.046   2.252   2.490 -1.5377  2.1744 -0.1327
 1251SOL     OW15388   3.855   3.606   4.171  0.1104  0.2796 -0.1308
 1251SOL    HW115389   3.815   3.521   4.192  0.8358 -0.6343 -2.4554
 1251SOL    HW215390   3.831   3.617   4.079 -0.5179 -1.3965 -0.1748
 1252SOL     OW15391   3.230   1.325   5.395  0.1900  0.0631 -0.1751
 1252SOL    HW115392   3.283   1.307   5.473 -1.1430  0.0093  0.7207
 1252SOL    HW215393   3.187   1.239   5.400  0.8429 -0.2951 -0.6986
 1253SOL     OW15394   3.196   3.377   5.849  0.2917  0.5400 -0.1655
 1253SOL    HW115395   3.270   3.427   5.885 -0.4299  0.1185  1.8785
 1253SOL    HW215396   3.244   3.304   5.809  0.9642  0.9881 -0.1812
 1254SOL     OW15397   3.539   3.946   9.075  0.9130  0.3846  0.3273
 1254SOL    HW115398   3.459   3.917   9.032  2.0067 -1.1957 -0.5930
 1254SOL    HW215399   3.595   3.870   9.060  0.1188 -0.1423  0.0515
 1255SOL     OW15400   1.005   0.233   4.920  0.1283 -0.2245  0.4835
 1255SOL    HW115401   1.013   0.324   4.892  0.8068 -0.3719  0.1844
 1255SOL    HW215402   1.097   0.208   4.914  0.2528  0.6982 -1.6948
 1256SOL     OW15403   4.607   3.480   7.140  0.4366  0.7782  0.1982
 1256SOL    HW115404   4.553   3.500   7.064 -0.4243 -0.3975  0.5145
 1256SOL    HW215405   4.677   3.430   7.097 -0.7793  1.1548 -2.2522
 1257SOL     OW15406   2.748   0.129   3.943 -0.1387 -0.1190 -0.3630
 1257SOL    HW115407   2.762   0.046   3.989 -1.0749 -0.0945 -0.0376
 1257SOL    HW215408   2.830   0.137   3.895 -0.2502 -0.6458 -0.6339
 1258SOL     OW15409   1.358   3.973   3.893  0.0815  0.5185  0.2065
 1258SOL    HW115410   1.406   3.891   3.883 -3.5526 -1.3384 -2.2493
 1258SOL    HW215411   1.384   3.977   3.985 -1.7318 -0.9296  0.7846
 1259SOL     OW15412   1.374   3.214   6.948 -0.9485  0.2226  0.4814
 1259SOL    HW115413   1.336   3.248   6.867  1.1552  0.2205 -0.5066
 1259SOL    HW215414   1.373   3.120   6.932  0.6395 -0.0018  1.7000
 1260SOL     OW15415   1.392   0.748   2.100 -0.3990  0.1967 -0.1156
 1260SOL    HW115416   1.325   0.787   2.043 -0.0235  2.0479  0.7184
 1260SOL    HW215417   1.340   0.684   2.148 -0.8236 -0.6622 -1.7351
 1261SOL     OW15418   4.718   3.670   2.601 -0.3081  0.2407 -0.5006
 1261SOL    HW115419   4.682   3.733   2.663  2.7483  0.4074  1.1174
 1261SOL    HW215420   4.680   3.591   2.640  0.4035  0.8647  1.4855
 1262SOL     OW15421   0.681   2.533  15.586 -0.2508  0.1868 -0.2921
 1262SOL    HW115422   0.601   2.582  15.607  0.2124  0.3998  0.9927
 1262SOL    HW215423   0.724   2.585  15.518 -0.1906 -0.0405 -0.4262
 1263SOL     OW15424   4.017   4.477   4.952  0.5491  0.1674 -0.1777
 1263SOL    HW115425   3.990   4.416   4.884  0.7462 -1.0130  0.8067
 1263SOL    HW215426   4.000   4.417   5.024  1.8268  0.8207  0.6762
 1264SOL     OW15427   3.064   2.787   8.136  0.1696  0.3910 -0.0876
 1264SOL    HW115428   3.043   2.697   8.158 -2.1484  1.0744  0.5098
 1264SOL    HW215429   3.005   2.800   8.062 -0.4190 -0.2909  0.2572
 1265SOL     OW15430   0.203   2.438   4.556  0.5369  0.3399  0.0176
 1265SOL    HW115431   0.142   2.472   4.490 -1.8641 -2.2551  0.9287
 1265SOL    HW215432   0.183   2.493   4.632 -0.6570  0.7054 -0.5689
 1266SOL     OW15433   3.038   2.245   0.845 -0.0493  0.0789 -0.0699
 1266SOL    HW115434   3.078   2.198   0.773 -1.3697 -0.1947 -0.6222
 1266SOL    HW215435   2.987   2.173   0.883 -0.8631  0.0629 -1.1843
 1267SOL     OW15436   3.249   0.479   8.036  0.6470  0.4783 -0.0218
 1267SOL    HW115437   3.331   0.470   7.987  0.6720  2.0648 -0.2499
 1267SOL    HW215438   3.229   0.387   8.053  1.5139  0.2853 -0.0198
 1268SOL     OW15439   3.694   1.733  12.201 -0.2974  0.0735 -0.3546
 1268SOL    HW115440   3.627   1.796  12.175  0.5885  1.1371 -0.0454
 1268SOL    HW215441   3.668   1.653  12.156  1.1213 -0.8511  0.4635
 1269SOL     OW15442   2.583   2.894   7.435  0.1853 -0.2619 -0.3210
 1269SOL    HW115443   2.662   2.847   7.410  0.1325 -1.2620  1.3724
 1269SOL    HW215444   2.609   2.985   7.419 -2.5748  0.6029 -0.0104
 1270SOL     OW15445   0.990   3.953   6.606  0.1559  0.2464 -0.0651
 1270SOL    HW115446   0.913   3.926   6.556  0.3567 -0.8515  0.2209
 1270SOL    HW215447   0.954   3.977   6.692  0.0541  0.1636 -0.0832
 1271SOL     OW15448   3.401   4.070   9.580 -0.6689 -0.3103 -0.5078
 1271SOL    HW115449   3.423   4.162   9.597 -2.3377  0.1577 -0.9098
 1271SOL    HW215450   3.490   4.046   9.552 -0.5823  0.8206 -1.1930
 1272SOL     OW15451   3.425   3.525  10.098  0.0967 -0.2830 -0.2567
 1272SOL    HW115452   3.378   3.606  10.117  0.1420 -0.1006 -0.9051
 1272SOL    HW215453   3.353   3.464  10.114 -2.3627  2.7570  0.2258
 1273SOL     OW15454   2.753   2.381  16.193  0.1573  0.2691  0.1875
 1273SOL    HW115455   2.673   2.342  16.158 -0.3781  1.8741 -0.3819
 1273SOL    HW215456   2.776   2.328  16.269  0.8460  2.3340  1.4041
 1274SOL     OW15457   2.055   3.779   5.454  0.8294 -0.2714  0.3978
 1274SOL    HW115458   1.976   3.831   5.464  0.5494 -0.2991 -1.7183
 1274SOL    HW215459   2.035   3.705   5.511 -0.4172  0.3316  0.7360
 1275SOL     OW15460   0.297   1.239   6.493  0.5991 -0.0146 -0.1256
 1275SOL    HW115461   0.284   1.322   6.447 -0.1604 -0.5106 -0.8041
 1275SOL    HW215462   0.225   1.225   6.554  1.2503  0.2520  0.6989
 1276SOL     OW15463   4.123   1.847   0.193 -0.1721 -0.1167  0.1989
 1276SOL    HW115464   4.044   1.800   0.166  0.9554 -0.1040 -3.1097
 1276SOL    HW215465   4.155   1.891   0.114 -0.5902 -1.9898 -1.0161
 1277SOL     OW15466   3.196   1.061  15.395  0.5016 -0.0241 -0.1397
 1277SOL    HW115467   3.148   1.144  15.395 -0.4914 -0.6110  1.7931
 1277SOL    HW215468   3.132   0.992  15.380  1.6302 -0.9164 -0.8633
 1278SOL     OW15469   0.826   1.857   5.715 -0.0487  0.3797 -0.1503
 1278SOL    HW115470   0.838   1.843   5.809 -2.7268 -0.5710  0.0379
 1278SOL    HW215471   0.759   1.924   5.703 -0.8094 -0.2638  0.5252
 1279SOL     OW15472   1.929   2.522  17.153  0.3293 -0.4329 -0.2367
 1279SOL    HW115473   1.877   2.597  17.182 -1.3892 -1.8378  0.3580
 1279SOL    HW215474   1.946   2.549  17.063 -0.8699 -1.1732 -0.6902
 1280SOL     OW15475   0.882   1.048   3.768  0.7395  0.1812  0.0534
 1280SOL    HW115476   0.878   1.089   3.855 -0.1951 -0.3354  0.2529
 1280SOL    HW215477   0.848   1.112   3.707  2.9624 -1.3077 -2.7566
 1281SOL     OW15478   3.736   0.255   3.002  0.7470  0.7382  0.5790
 1281SOL    HW115479   3.751   0.207   3.083 -1.7180 -1.9903 -0.5983
 1281SOL    HW215480   3.776   0.340   3.020  0.5747  0.8943  0.2301
 1282SOL     OW15481   3.045   4.233   4.977  0.3685  0.2601  0.1704
 1282SOL    HW115482   3.076   4.212   4.889  0.3260 -0.3997  0.3115
 1282SOL    HW215483   3.118   4.291   4.998  2.1670 -2.3533  1.1962
 1283SOL     OW15484   3.686   0.150   6.211  0.1927 -0.3181  0.2199
 1283SOL    HW115485   3.616   0.102   6.169 -1.0627 -0.0473  2.0086
 1283SOL    HW215486   3.694   0.100   6.293  3.1894  1.0946  0.8192
 1284SOL     OW15487   2.250   4.080   3.404 -0.1494  0.3772  0.0174
 1284SOL    HW115488   2.282   4.070   3.314  1.7184 -2.1818  0.9628
 1284SOL    HW215489   2.155   4.067   3.402  0.0512 -1.0133 -0.7711
 1285SOL     OW15490   0.157   0.853   1.005 -0.1608  0.0161  0.3549
 1285SOL    HW115491   0.144   0.824   1.095  0.0678  0.4824  0.5383
 1285SOL    HW215492   0.134   0.945   1.007  1.7797  0.5180 -0.0183
 1286SOL     OW15493   2.337   4.106   6.707  0.3204 -0.2189 -0.3481
 1286SOL    HW115494   2.358   4.197   6.727 -0.4247 -0.1551  0.1562
 1286SOL    HW215495   2.279   4.080   6.779 -0.8359  0.3814 -1.0640
 1287SOL     OW15496   0.207   2.453  14.003  0.0223 -0.2729 -0.2433
 1287SOL    HW115497   0.222   2.376  13.948 -1.0945 -0.7498  0.1094
 1287SOL    HW215498   0.286   2.449  14.057 -0.0896 -0.6775 -0.1087
 1288SOL     OW15499   3.063   1.038   8.540 -0.1248 -0.0432 -0.3405
 1288SOL    HW115500   3.063   1.085   8.624 -1.0432  1.9400 -1.4580
 1288SOL    HW215501   3.156   1.039   8.517  0.0066  0.2689  0.1761
 1289SOL     OW15502   1.152   3.542   6.178 -0.1733  0.4038 -0.5544
 1289SOL    HW115503   1.137   3.635   6.194  1.8321  1.1925 -3.1701
 1289SOL    HW215504   1.098   3.501   6.245  0.8808 -0.2351 -0.0854
 1290SOL     OW15505   0.182   3.967   2.828 -0.2434  0.2608 -0.4005
 1290SOL    HW115506   0.269   3.961   2.868  0.0286  0.8622 -0.8929
 1290SOL    HW215507   0.191   3.911   2.751  3.5120  0.1523  0.1088
 1291SOL     OW15508   1.728   3.174  14.941  0.3371  0.3195 -0.2582
 1291SOL    HW115509   1.651   3.223  14.914  0.2952  0.5313  0.2450
 1291SOL    HW215510   1.733   3.107  14.873  0.2342 -1.9946  1.9730
 1292SOL     OW15511   0.844   4.135   8.228  0.2356  0.7494 -0.1736
 1292SOL    HW115512   0.824   4.214   8.178  1.1579  0.9909 -0.1598
 1292SOL    HW215513   0.886   4.178   8.302 -0.6997  0.6013  0.4333
 1293SOL     OW15514   2.712   2.429  10.619  0.6418 -0.5530  0.2130
 1293SOL    HW115515   2.775   2.492  10.585  0.9499 -1.5187 -0.9997
 1293SOL    HW215516   2.630   2.479  10.615  1.3972  0.7237  0.9105
 1294SOL     OW15517   2.395   0.403   2.412  0.3117  0.1532 -0.3977
 1294SOL    HW115518   2.489   0.395   2.431  0.0047  1.5440  1.6699
 1294SOL    HW215519   2.368   0.318   2.447  1.3458  0.6109  1.4946
 1295SOL     OW15520   2.512   3.923   1.758  0.9129  0.5193  0.4581
 1295SOL    HW115521   2.546   3.884   1.677 -1.6039  1.1403 -0.9065
 1295SOL    HW215522   2.481   3.842   1.798  0.4078  0.5389  0.1124
 1296SOL     OW15523   1.556   3.353   5.982  0.1080 -0.1691  0.0058
 1296SOL    HW115524   1.600   3.388   5.904 -1.7595  1.2355 -0.4383
 1296SOL    HW215525   1.489   3.419   6.002  0.9286  0.1204  1.7791
 1297SOL     OW15526   1.056   1.669   5.058 -0.7548  0.2791  0.1590
 1297SOL    HW115527   1.114   1.609   5.011  0.4315  0.0127  1.9812
 1297SOL    HW215528   1.126   1.720   5.098 -0.8532  0.6570 -0.1423
 1298SOL     OW15529   3.807   0.970   8.641  0.2227 -0.3618  0.0141
 1298SOL    HW115530   3.758   1.046   8.672 -1.2519 -1.0736 -0.5783
 1298SOL    HW215531   3.869   1.002   8.575  0.1602  1.0856  0.6473
 1299SOL     OW15532   1.738   1.810   3.325  0.4358  0.1281 -0.1744
 1299SOL    HW115533   1.820   1.761   3.310  0.6694  0.7537 -0.8891
 1299SOL    HW215534   1.704   1.802   3.237  1.8857 -1.8031 -0.5631
 1300SOL     OW15535   2.280   0.959   9.410 -0.4247  0.9224  0.5541
 1300SOL    HW115536   2.276   1.020   9.336  1.9780 -1.2909 -1.4014
 1300SOL    HW215537   2.196   0.913   9.406  1.0757 -1.9867  2.3104
 1301SOL     OW15538   2.318   1.447   8.371  0.3501  0.1430  0.2262
 1301SOL    HW115539   2.345   1.428   8.460 -0.8771  2.5698  1.1041
 1301SOL    HW215540   2.292   1.538   8.384  1.5782  0.0349  3.3310
 1302SOL     OW15541   1.386   4.664   5.252  0.0163  0.1016  0.4240
 1302SOL    HW115542   1.375   4.570   5.262 -0.4091 -0.1148 -2.0208
 1302SOL    HW215543   1.384   4.689   5.345  1.2557 -0.0527  0.4883
 1303SOL     OW15544   3.370   0.284   8.503 -0.5477 -0.5722 -0.0723
 1303SOL    HW115545   3.437   0.327   8.449 -1.2774  0.0988 -0.4373
 1303SOL    HW215546   3.394   0.297   8.595 -0.5826  1.1002 -0.2973
 1304SOL     OW15547   2.765   2.684   1.928  0.3788  0.6901  0.1312
 1304SOL    HW115548   2.825   2.613   1.950  1.0538  0.5075 -2.2689
 1304SOL    HW215549   2.818   2.764   1.934  1.1183  0.2904 -1.1704
 1305SOL     OW15550   4.589   0.189   9.647 -0.5181  0.2523 -0.5067
 1305SOL    HW115551   4.640   0.189   9.728  3.4605 -1.5589 -2.9745
 1305SOL    HW215552   4.519   0.251   9.665  1.3997  2.5074 -0.6983
 1306SOL     OW15553   2.128   0.237  12.205 -0.2845 -0.3450 -0.1338
 1306SOL    HW115554   2.033   0.232  12.196 -0.4921  0.9888  1.1589
 1306SOL    HW215555   2.159   0.219  12.116 -0.2811 -1.1213  0.0305
 1307SOL     OW15556   0.060   2.164   2.561  0.1683 -0.5481  0.6097
 1307SOL    HW115557   0.068   2.134   2.652 -0.5518  0.1202  0.8934
 1307SOL    HW215558   4.710   2.169   2.538  1.0283  0.4906 -2.6855
 1308SOL     OW15559   2.770   2.295   1.376 -0.4906  0.0797 -0.0279
 1308SOL    HW115560   2.689   2.254   1.346  0.6061 -1.1141 -1.3697
 1308SOL    HW215561   2.804   2.306   1.287 -2.7040  0.6574 -0.7948
 1309SOL     OW15562   1.980   3.637   3.990  0.2725  0.5636  0.1750
 1309SOL    HW115563   1.899   3.642   3.940  0.1037 -2.5267  0.1575
 1309SOL    HW215564   2.042   3.626   3.918 -1.1647  0.9119 -1.1050
 1310SOL     OW15565   3.435   2.829   5.999  0.7225  0.2646  0.2648
 1310SOL    HW115566   3.436   2.763   6.069 -1.0086  0.0807  0.1268
 1310SOL    HW215567   3.344   2.816   5.972  1.5887 -0.4457 -2.2411
 1311SOL     OW15568   3.070   2.572  16.307  0.6570  0.0271 -0.3953
 1311SOL    HW115569   3.119   2.629  16.366 -2.6972  0.9483  1.4349
 1311SOL    HW215570   2.998   2.547  16.364  0.4145  0.4980 -0.5047
 1312SOL     OW15571   2.393   0.645   3.583 -0.2630 -0.4230  0.0124
 1312SOL    HW115572   2.436   0.572   3.539 -0.6892  0.0325 -1.1359
 1312SOL    HW215573   2.344   0.675   3.506  1.0783 -1.5406 -1.2623
 1313SOL     OW15574   2.783   0.414   6.411 -0.0952  0.2128  0.2778
 1313SOL    HW115575   2.699   0.427   6.457 -0.8939 -1.1674 -0.7780
 1313SOL    HW215576   2.829   0.361   6.477 -0.7225  2.7087  2.7507
 1314SOL     OW15577   2.428   3.590   8.188  0.4283 -0.2090 -0.6997
 1314SOL    HW115578   2.437   3.679   8.220 -3.8739 -0.5192  1.3572
 1314SOL    HW215579   2.517   3.554   8.198 -0.5802 -2.8156 -1.0433
 1315SOL     OW15580   2.226   3.173   8.916 -0.1544 -0.3304  0.3882
 1315SOL    HW115581   2.161   3.135   8.975  0.2332  1.8113  2.2356
 1315SOL    HW215582   2.170   3.236   8.871  1.6013 -0.8543 -2.5018
 1316SOL     OW15583   4.648   0.427  10.790 -0.1712  0.7871  0.2154
 1316SOL    HW115584   4.632   0.387  10.704  2.1129 -2.9333  1.5644
 1316SOL    HW215585   4.592   0.374  10.846 -0.2130 -0.1324 -0.7021
 1317SOL     OW15586   0.397   4.521   9.746  0.1560  0.3495  0.0204
 1317SOL    HW115587   0.394   4.521   9.842  0.8633 -2.6992  0.0429
 1317SOL    HW215588   0.305   4.518   9.718 -0.3317 -1.1158  1.8026
 1318SOL     OW15589   4.540   1.522   8.533  0.2845 -0.1605  0.1443
 1318SOL    HW115590   4.460   1.482   8.567  0.3875 -1.2668 -0.9361
 1318SOL    HW215591   4.513   1.577   8.460 -1.4309 -2.0443 -0.6189
 1319SOL     OW15592   2.994   1.426   2.898  0.0781  0.2819 -0.5050
 1319SOL    HW115593   3.019   1.334   2.899  1.9878  0.7932 -0.5408
 1319SOL    HW215594   3.004   1.441   2.992  0.9394 -1.4718 -0.3210
 1320SOL     OW15595   3.730   3.090   2.579 -0.6764 -0.1821 -0.2874
 1320SOL    HW115596   3.708   3.013   2.526  2.4818 -0.9507 -0.4524
 1320SOL    HW215597   3.641   3.121   2.596 -0.4684 -1.0786  2.4932
 1321SOL     OW15598   4.131   0.472   8.214 -0.1131  0.2116  0.2943
 1321SOL    HW115599   4.080   0.508   8.287  2.7583  0.7617  2.0399
 1321SOL    HW215600   4.071   0.411   8.172 -1.4336  0.5083  1.7622
 1322SOL     OW15601   1.379   4.456   1.632  0.2496  0.0791  0.0732
 1322SOL    HW115602   1.399   4.364   1.645 -2.2791 -0.8705 -2.6182
 1322SOL    HW215603   1.467   4.493   1.637  1.4746 -3.0456  1.6321
 1323SOL     OW15604   3.012   2.042   8.678  0.0662 -0.1303 -0.0594
 1323SOL    HW115605   2.950   2.086   8.736  0.4955  0.3666  0.0200
 1323SOL    HW215606   2.956   1.965   8.665 -0.5177 -0.1606  2.6266
 1324SOL     OW15607   2.872   2.510   0.342 -0.1455 -0.0064  0.3639
 1324SOL    HW115608   2.795   2.520   0.287  0.1324  1.0573  0.1677
 1324SOL    HW215609   2.923   2.449   0.289  0.0982 -0.9697  1.6897
 1325SOL     OW15610   0.205   0.866   9.361 -0.3563 -0.4260 -0.0080
 1325SOL    HW115611   0.229   0.791   9.308 -0.0233  1.5194 -2.5875
 1325SOL    HW215612   0.159   0.823   9.433 -1.0475  0.3446  0.0145
 1326SOL     OW15613   1.156   1.454   4.935  0.1730 -0.5207 -0.1488
 1326SOL    HW115614   1.178   1.461   4.842  1.4359  1.9901  0.3340
 1326SOL    HW215615   1.195   1.367   4.942  0.4498 -0.4647 -0.9474
 1327SOL     OW15616   3.399   2.146  17.066  0.4673  0.4711 -0.0701
 1327SOL    HW115617   3.440   2.228  17.096 -0.8730  0.6783  1.1905
 1327SOL    HW215618   3.325   2.141  17.126  2.1817  1.9810  2.1838
 1328SOL     OW15619   4.488   2.023  11.802  0.3249  0.0959 -0.3383
 1328SOL    HW115620   4.528   2.061  11.879 -1.4468  0.5356  0.3672
 1328SOL    HW215621   4.406   1.994  11.842  1.1158  0.2000  1.3427
 1329SOL     OW15622   3.890   1.432   7.781 -0.0042  0.1919 -0.3479
 1329SOL    HW115623   3.841   1.499   7.829  0.1128  0.2578 -0.3199
 1329SOL    HW215624   3.896   1.372   7.856 -1.7660 -0.8057 -0.9913
 1330SOL     OW15625   2.685   1.517  15.894 -0.0299 -0.3485  0.3624
 1330SOL    HW115626   2.757   1.455  15.882 -1.1903 -1.6657  0.2015
 1330SOL    HW215627   2.648   1.511  15.806  0.9780 -2.6564  0.0962
 1331SOL     OW15628   0.984   0.807   2.341 -0.9761 -0.1275 -0.4542
 1331SOL    HW115629   1.020   0.827   2.254  0.5929 -0.9642 -0.0020
 1331SOL    HW215630   1.053   0.852   2.391 -2.1475 -0.0575  1.0610
 1332SOL     OW15631   2.745   2.070   1.745  0.8080 -0.1532 -0.5687
 1332SOL    HW115632   2.767   2.086   1.837  1.2616  0.4224 -0.7778
 1332SOL    HW215633   2.793   2.137   1.696 -0.1520  0.4886 -0.6297
 1333SOL     OW15634   2.780   2.907   8.569  0.1078  0.7621  0.4320
 1333SOL    HW115635   2.809   2.820   8.542 -1.4085  0.2123  0.5655
 1333SOL    HW215636   2.692   2.913   8.532  0.3438  0.0599 -0.2516
 1334SOL     OW15637   4.133   0.051  13.427 -0.0773  0.2432  0.3030
 1334SOL    HW115638   4.064   4.727  13.418  0.8329 -0.7646  0.8008
 1334SOL    HW215639   4.150   0.055  13.333  1.1972 -1.4263  0.4558
 1335SOL     OW15640   1.934   0.133   3.780 -0.0004  0.2422 -0.1616
 1335SOL    HW115641   1.917   0.104   3.870  0.9380  0.9046  0.2279
 1335SOL    HW215642   2.028   0.117   3.776 -0.1530 -1.3926  2.5730
 1336SOL     OW15643   3.483   3.302  15.760 -0.5355 -0.3089 -0.0778
 1336SOL    HW115644   3.546   3.310  15.688  1.4134  1.1064  1.8043
 1336SOL    HW215645   3.484   3.388  15.801  0.1113 -0.9509  1.2461
 1337SOL     OW15646   4.138   2.424   3.656 -0.1405  0.4007 -0.0312
 1337SOL    HW115647   4.049   2.388   3.657  1.4068 -3.4308 -0.3954
 1337SOL    HW215648   4.136   2.503   3.709 -3.0091  0.8039 -0.7201
 1338SOL     OW15649   3.804   2.112  13.085  0.1325 -0.3077  0.0585
 1338SOL    HW115650   3.781   2.086  13.174  0.1265 -5.1549 -1.3548
 1338SOL    HW215651   3.824   2.205  13.098 -1.4895 -0.3655  2.9250
 1339SOL     OW15652   2.082   0.349   7.656  0.1376  0.4268 -0.1823
 1339SOL    HW115653   2.046   0.263   7.637 -0.4415  0.3717  1.2052
 1339SOL    HW215654   2.172   0.325   7.632 -0.2333 -2.5197  1.4002
 1340SOL     OW15655   1.612   1.244   3.695 -0.6821  0.4544  0.0370
 1340SOL    HW115656   1.620   1.203   3.781 -0.4190  1.0572  0.2994
 1340SOL    HW215657   1.536   1.212   3.646 -2.1703  1.1436  1.8847
 1341SOL     OW15658   4.281   1.561   1.401  0.1212 -0.0948  0.3904
 1341SOL    HW115659   4.251   1.645   1.436 -0.6361 -0.5235  0.7601
 1341SOL    HW215660   4.372   1.565   1.430  0.0316  1.6621  0.4383
 1342SOL     OW15661   1.964   4.686   2.890 -0.8335 -0.2751 -0.2538
 1342SOL    HW115662   2.002   0.029   2.913 -0.9563 -0.2739 -0.0593
 1342SOL    HW215663   1.975   4.638   2.972  1.1987  0.4276 -0.1213
 1343SOL     OW15664   0.423   0.257   2.272  0.1695 -0.2339  0.0601
 1343SOL    HW115665   0.442   0.173   2.230 -0.8582 -0.0553 -0.7750
 1343SOL    HW215666   0.330   0.254   2.248 -0.6002  1.0671  2.9146
 1344SOL     OW15667   0.423   4.694   9.326  0.1733  0.0697  0.1961
 1344SOL    HW115668   0.416   4.652   9.241 -1.4359  0.6654  0.0341
 1344SOL    HW215669   0.341   4.665   9.367  0.2529 -0.6988 -0.2072
 1345SOL     OW15670   3.914   1.948  17.696  0.2614 -0.3578 -0.4250
 1345SOL    HW115671   4.005   1.935  17.669  0.5707 -1.1385  0.9929
 1345SOL    HW215672   3.882   2.024  17.648 -0.8534  0.2101  1.2291
 1346SOL     OW15673   0.215   1.135   8.355 -1.1028 -0.8439 -0.8281
 1346SOL    HW115674   0.208   1.178   8.440  0.4050  0.1209 -1.1904
 1346SOL    HW215675   0.121   1.124   8.340 -0.7266 -1.0842 -2.9510
 1347SOL     OW15676   2.336   3.137   7.198 -0.0458  0.6409 -0.0352
 1347SOL    HW115677   2.297   3.107   7.280  0.5484  0.1774  0.0767
 1347SOL    HW215678   2.350   3.051   7.160  0.9764  0.4141  0.8621
 1348SOL     OW15679   4.042   3.468   9.306  0.0939 -0.1427  1.0301
 1348SOL    HW115680   4.097   3.435   9.376 -0.2183 -1.2294  0.7601
 1348SOL    HW215681   4.018   3.386   9.263 -0.3782  1.2318 -1.2970
 1349SOL     OW15682   3.794   0.145   3.258 -0.3193 -0.0222 -0.5413
 1349SOL    HW115683   3.800   0.202   3.335 -0.9521  0.4737 -0.8537
 1349SOL    HW215684   3.875   0.095   3.256  0.1691  0.7616 -0.7826
 1350SOL     OW15685   1.486   3.922   8.730  0.1149  0.1661  0.0020
 1350SOL    HW115686   1.529   3.968   8.802 -0.1700  1.0605 -0.3977
 1350SOL    HW215687   1.492   3.980   8.654  1.0602 -1.0531 -0.8549
 1351SOL     OW15688   4.528   3.029  11.823 -0.4166 -0.7662  0.0108
 1351SOL    HW115689   4.528   3.013  11.918 -2.4146  0.5880  0.2278
 1351SOL    HW215690   4.437   3.053  11.809 -1.3057 -4.1715 -0.0544
 1352SOL     OW15691   4.628   1.561   2.454 -0.1830 -0.2888 -0.7139
 1352SOL    HW115692   4.616   1.557   2.359  0.4978 -0.1129 -0.8047
 1352SOL    HW215693   4.564   1.503   2.495  2.0090 -1.2316  1.3673
 1353SOL     OW15694   0.702   3.749   5.158  0.6488  0.7265  0.0638
 1353SOL    HW115695   0.772   3.803   5.196  2.5584 -3.6794  2.8292
 1353SOL    HW215696   0.668   3.813   5.095 -0.5266  1.2348  1.1992
 1354SOL     OW15697   1.358   4.350   3.111  0.3571  0.0541 -0.2480
 1354SOL    HW115698   1.367   4.399   3.029  0.6185  2.6681  1.3460
 1354SOL    HW215699   1.416   4.407   3.162  1.5121  0.7045 -2.2730
 1355SOL     OW15700   1.993   1.256   0.900 -0.3956  0.5065 -0.7348
 1355SOL    HW115701   2.047   1.268   0.978 -1.0714 -1.3718  0.0127
 1355SOL    HW215702   1.918   1.314   0.917 -0.9691 -0.7614  1.0848
 1356SOL     OW15703   1.091   3.119   6.166 -0.0493 -0.3327 -0.1756
 1356SOL    HW115704   1.051   3.133   6.080  0.9729 -0.4409 -0.6685
 1356SOL    HW215705   1.130   3.032   6.161  0.7725  0.2656 -3.7275
 1357SOL     OW15706   1.504   3.716  16.123 -0.4351  0.4125 -0.4352
 1357SOL    HW115707   1.590   3.739  16.089  0.6097 -1.5930  0.8482
 1357SOL    HW215708   1.463   3.688  16.042 -1.3225 -1.8195  0.7771
 1358SOL     OW15709   1.827   1.032   3.902  0.0745  0.4016  0.6252
 1358SOL    HW115710   1.735   1.052   3.917 -0.6751 -2.9893  0.5094
 1358SOL    HW215711   1.819   0.937   3.896  0.0784  0.5535 -1.7657
 1359SOL     OW15712   2.940   4.076   8.337 -0.1174  0.2591  0.4308
 1359SOL    HW115713   2.868   4.058   8.276  0.1886 -0.7890  0.3818
 1359SOL    HW215714   3.015   4.027   8.303  0.2135  0.3640  1.0205
 1360SOL     OW15715   1.624   2.034   3.209 -0.1086  0.8608  0.0826
 1360SOL    HW115716   1.706   2.065   3.171  0.3153 -0.5000 -0.1196
 1360SOL    HW215717   1.651   1.986   3.287  0.8724 -0.9273 -1.3411
 1361SOL     OW15718   3.141   4.697   2.420  0.3817  0.1917  0.1091
 1361SOL    HW115719   3.115   0.028   2.476  1.1440  2.0718 -1.9839
 1361SOL    HW215720   3.232   4.691   2.446  0.8748 -0.0760 -1.6329
 1362SOL     OW15721   0.466   3.720   3.138  0.0851 -0.5541 -0.3476
 1362SOL    HW115722   0.548   3.704   3.091  0.4342 -0.5613  0.2570
 1362SOL    HW215723   0.505   3.710   3.225 -0.1777 -3.5587 -0.5712
 1363SOL     OW15724   3.728   3.657   6.908  0.1450 -0.2831  0.3211
 1363SOL    HW115725   3.660   3.632   6.971 -1.0262  2.9836  0.3021
 1363SOL    HW215726   3.684   3.644   6.824 -1.6423  2.6660  0.8060
 1364SOL     OW15727   0.572   1.096   4.777  0.3190  0.3897  0.0294
 1364SOL    HW115728   0.635   1.131   4.714 -0.5040  0.5529 -0.6942
 1364SOL    HW215729   0.529   1.178   4.803  2.7807  0.6784  3.2061
 1365SOL     OW15730   3.462   0.507   9.487  0.1902 -0.1378  0.0661
 1365SOL    HW115731   3.489   0.457   9.564  0.9115 -0.9584 -0.7164
 1365SOL    HW215732   3.381   0.545   9.520  1.0269  1.0018  0.8279
 1366SOL     OW15733   3.196   4.283   5.511  0.4063 -0.7129 -0.2718
 1366SOL    HW115734   3.266   4.328   5.559 -1.5407  2.8280 -0.7287
 1366SOL    HW215735   3.136   4.259   5.581 -0.2699 -0.6005 -0.8140
 1367SOL     OW15736   1.872   0.653   1.585 -0.0609 -0.1743 -0.4013
 1367SOL    HW115737   1.810   0.709   1.538 -0.1860  0.2841  0.3127
 1367SOL    HW215738   1.826   0.633   1.667  0.5566 -0.7099 -0.1817
 1368SOL     OW15739   3.827   0.154   9.149  0.3773 -0.0307 -0.0248
 1368SOL    HW115740   3.900   0.117   9.099  1.2917 -0.4420  1.6042
 1368SOL    HW215741   3.753   0.094   9.137  1.7987 -2.1039  1.5699
 1369SOL     OW15742   3.521   2.756   7.199 -0.3456 -0.3851 -0.3820
 1369SOL    HW115743   3.604   2.777   7.241 -1.2640 -0.8960  1.6916
 1369SOL    HW215744   3.463   2.763   7.274 -0.5905 -0.6206 -0.5473
 1370SOL     OW15745   1.324   2.841   7.696 -0.2835  0.0232  0.3070
 1370SOL    HW115746   1.365   2.927   7.705 -1.2153  0.4445  0.5491
 1370SOL    HW215747   1.391   2.780   7.726  1.0976  2.0563  1.2844
 1371SOL     OW15748   1.423   0.389   9.194 -0.3321  0.5000  0.3980
 1371SOL    HW115749   1.453   0.475   9.165 -0.6393  0.3697 -0.3019
 1371SOL    HW215750   1.429   0.410   9.288 -0.2211 -0.3031  0.5665
 1372SOL     OW15751   3.387   0.384   4.452 -0.1783  0.6271 -0.1793
 1372SOL    HW115752   3.377   0.439   4.374 -0.7305 -1.1048 -1.3355
 1372SOL    HW215753   3.311   0.326   4.443  0.0776  0.3100 -0.3166
 1373SOL     OW15754   4.490   3.261  15.787  0.0223 -0.4018  0.4446
 1373SOL    HW115755   4.520   3.176  15.819  1.1982  0.2501  1.0908
 1373SOL    HW215756   4.395   3.247  15.786 -0.0174  0.0469 -1.1046
 1374SOL     OW15757   4.174   3.017  14.681 -0.4437  0.8248 -0.3786
 1374SOL    HW115758   4.098   3.015  14.738  0.2498 -0.3324  0.5157
 1374SOL    HW215759   4.134   3.058  14.604 -0.5243 -0.0891 -0.8246
 1375SOL     OW15760   3.620   0.339   2.173 -0.5730  0.0658  0.3305
 1375SOL    HW115761   3.562   0.280   2.222  1.4232 -2.0804  0.0864
 1375SOL    HW215762   3.693   0.349   2.234 -0.0373  0.8198 -0.4312
 1376SOL     OW15763   3.775   3.077  13.770  0.1987  0.4372 -0.7591
 1376SOL    HW115764   3.686   3.106  13.793 -0.6073 -2.1847 -0.5136
 1376SOL    HW215765   3.743   2.992  13.739 -0.1984 -0.2976  1.6571
 1377SOL     OW15766   0.841   0.658  12.490 -0.1125  0.3026  0.4204
 1377SOL    HW115767   0.751   0.642  12.518 -1.0731  2.2690 -1.4856
 1377SOL    HW215768   0.850   0.594  12.419 -1.2326  0.1093  0.4592
 1378SOL     OW15769   1.619   2.823   3.216  0.3547  0.3357 -0.3800
 1378SOL    HW115770   1.651   2.825   3.306  1.1821  0.4716 -0.6775
 1378SOL    HW215771   1.572   2.740   3.207 -0.3932  0.6788  0.3232
 1379SOL     OW15772   3.577   4.220   3.044  0.3731  0.1730  0.7238
 1379SOL    HW115773   3.548   4.130   3.029 -0.5425  0.6861 -0.6290
 1379SOL    HW215774   3.524   4.269   2.982 -1.1058  0.2854  2.0874
 1380SOL     OW15775   0.173   4.054  16.598 -0.5853 -0.0893  0.3569
 1380SOL    HW115776   0.167   4.119  16.669 -1.3898 -0.0631  0.2621
 1380SOL    HW215777   0.180   3.974  16.650  1.5898 -1.1425 -1.5581
 1381SOL     OW15778   4.249   0.229   1.762  0.2477 -0.3949 -0.0745
 1381SOL    HW115779   4.184   0.236   1.693 -2.8393 -1.7806  2.7169
 1381SOL    HW215780   4.303   0.155   1.734  0.2605  0.4565 -2.2327
 1382SOL     OW15781   2.485   3.369   6.399 -0.8228  0.1591  0.2353
 1382SOL    HW115782   2.411   3.362   6.459 -1.0850 -1.1727 -0.2274
 1382SOL    HW215783   2.487   3.275   6.383  3.1986  0.3962 -0.4900
 1383SOL     OW15784   4.391   3.634  11.272  0.0465 -0.1625  0.1421
 1383SOL    HW115785   4.407   3.728  11.267  2.1205 -0.5982 -1.3370
 1383SOL    HW215786   4.476   3.605  11.305  0.8273  0.6240 -1.1820
 1384SOL     OW15787   2.804   4.056  16.890  0.2847  0.0892 -0.0809
 1384SOL    HW115788   2.838   3.988  16.831  1.8423 -0.9454  2.0231
 1384SOL    HW215789   2.775   4.111  16.817 -1.9937  1.2058  1.6648
 1385SOL     OW15790   3.251   0.753   5.698  0.3182  0.1942  0.3105
 1385SOL    HW115791   3.207   0.836   5.681  1.6004  0.7032 -0.4709
 1385SOL    HW215792   3.334   0.767   5.652  0.7679 -1.4725  0.6119
 1386SOL     OW15793   4.398   4.027  17.084 -0.2898 -0.0846 -0.0590
 1386SOL    HW115794   4.464   4.013  17.153  0.5001  1.6217 -0.4448
 1386SOL    HW215795   4.429   4.088  17.017  0.3980  1.1060  1.3223
 1387SOL     OW15796   1.791   2.302   1.365  0.2141  0.0580 -0.0005
 1387SOL    HW115797   1.729   2.245   1.410 -1.1556  1.6335  0.0915
 1387SOL    HW215798   1.825   2.356   1.437 -0.5107 -1.0227  1.1432
 1388SOL     OW15799   3.416   0.187   2.304  0.0735 -0.0395 -0.3398
 1388SOL    HW115800   3.330   0.202   2.264  1.2275  0.1951 -2.7161
 1388SOL    HW215801   3.419   0.091   2.308  1.5390  0.1148  1.8845
 1389SOL     OW15802   2.662   3.724   9.685 -0.1948  0.6041 -0.0023
 1389SOL    HW115803   2.584   3.691   9.641  0.2820 -1.2510  0.5346
 1389SOL    HW215804   2.687   3.804   9.639  0.5084 -0.3365 -1.2812
 1390SOL     OW15805   1.267   1.146   2.583 -0.2155  0.4497  0.0374
 1390SOL    HW115806   1.339   1.132   2.645  0.9876  1.0655 -1.2215
 1390SOL    HW215807   1.308   1.218   2.536  1.1568 -1.6163 -1.9133
 1391SOL     OW15808   3.840   0.235   0.484 -0.5963 -0.1893 -0.3362
 1391SOL    HW115809   3.851   0.141   0.495 -0.9463 -0.1871  0.0226
 1391SOL    HW215810   3.820   0.242   0.390  3.2476  2.8621 -0.9164
 1392SOL     OW15811   3.722   3.554  10.510  0.5814 -0.1174  0.1811
 1392SOL    HW115812   3.630   3.581  10.508  0.6815  0.2125  0.0029
 1392SOL    HW215813   3.738   3.562  10.605  0.9110 -0.0221  0.1172
 1393SOL     OW15814   2.027   4.307   7.284 -0.9928 -0.5966 -0.0074
 1393SOL    HW115815   1.998   4.398   7.287 -1.8712 -0.8299 -1.3332
 1393SOL    HW215816   2.007   4.273   7.196  0.7492  0.9533 -1.0129
 1394SOL     OW15817   0.387   1.917   2.222 -0.0440  0.1445 -0.1213
 1394SOL    HW115818   0.411   2.006   2.197 -1.3982  0.7451  0.7023
 1394SOL    HW215819   0.325   1.940   2.291  1.2205 -0.8272  1.3448
 1395SOL     OW15820   2.477   1.496  16.782 -0.1799 -0.4301 -0.1622
 1395SOL    HW115821   2.427   1.533  16.855 -1.6920 -1.8157 -0.5000
 1395SOL    HW215822   2.409   1.489  16.715  2.2030 -1.3403 -2.4669
 1396SOL     OW15823   1.313   0.916   5.701 -0.4295  0.9025  0.2818
 1396SOL    HW115824   1.299   0.992   5.758 -2.8256  1.2748 -0.7745
 1396SOL    HW215825   1.287   0.850   5.764  0.5720 -1.2630 -1.5825
 1397SOL     OW15826   0.981   1.210  17.590 -0.1088 -0.0926  0.0515
 1397SOL    HW115827   0.946   1.199  17.501  0.6413  4.2071 -0.7608
 1397SOL    HW215828   1.007   1.301  17.603  0.8638  0.0125 -2.4515
 1398SOL     OW15829   3.300   2.457   3.150  0.5498  0.0258  0.2033
 1398SOL    HW115830   3.373   2.519   3.152 -0.4967  1.3288 -2.7122
 1398SOL    HW215831   3.276   2.458   3.243 -0.6315  1.3043 -0.1032
 1399SOL     OW15832   3.754   3.801   9.924 -0.6125 -0.7785 -0.6445
 1399SOL    HW115833   3.819   3.790   9.855  0.7271  0.0218  0.4755
 1399SOL    HW215834   3.686   3.740   9.897  0.5217 -2.4567  0.2513
 1400SOL     OW15835   3.424   4.450   7.405  0.0895 -0.5111  0.1234
 1400SOL    HW115836   3.374   4.505   7.345 -0.1295 -1.1672 -0.3066
 1400SOL    HW215837   3.459   4.379   7.351  0.2780 -0.8088  0.6381
 1401SOL     OW15838   1.077   2.872   0.116  0.2584 -0.2067 -0.4044
 1401SOL    HW115839   1.058   2.959   0.152 -1.1447 -1.1995  1.2967
 1401SOL    HW215840   0.993   2.832   0.140  0.1758  1.2885  1.8356
 1402SOL     OW15841   4.489   0.866   3.310  0.2720  0.5982 -0.2519
 1402SOL    HW115842   4.517   0.800   3.246  0.6571  0.5846 -0.0693
 1402SOL    HW215843   4.511   0.949   3.269  1.5464 -0.8722 -2.5432
 1403SOL     OW15844   1.678   2.594   6.119 -0.9738  0.0112 -0.2202
 1403SOL    HW115845   1.701   2.505   6.090  0.7942  0.5375 -0.4362
 1403SOL    HW215846   1.760   2.637   6.144 -0.6863 -1.7100  1.7772
 1404SOL     OW15847   3.640   3.001  15.032 -0.2917  0.0445 -0.5053
 1404SOL    HW115848   3.672   3.086  15.002  0.6062  0.3315  1.2825
 1404SOL    HW215849   3.723   2.973  15.070  0.7644  1.6236 -1.6637
 1405SOL     OW15850   2.909   2.433   8.945 -0.5468 -0.1692 -0.4372
 1405SOL    HW115851   2.938   2.346   8.971 -0.5260 -0.4668 -1.4451
 1405SOL    HW215852   2.928   2.434   8.851 -1.3750 -3.1611 -0.6476
 1406SOL     OW15853   2.019   2.815   1.925  0.2431  0.0027  0.6276
 1406SOL    HW115854   1.972   2.803   1.842 -0.1336  0.0558  0.8361
 1406SOL    HW215855   2.109   2.817   1.891 -0.3847 -1.3560 -1.1628
 1407SOL     OW15856   2.813   4.601   8.698 -0.1464 -0.3871 -0.3037
 1407SOL    HW115857   2.898   4.644   8.698 -0.7088  0.7212  0.2528
 1407SOL    HW215858   2.767   4.671   8.653  0.7096  0.2155 -0.2370
 1408SOL     OW15859   2.823   3.948   5.419  0.6223  0.1139  0.3449
 1408SOL    HW115860   2.768   3.979   5.491  0.4807  0.1365  0.2270
 1408SOL    HW215861   2.759   3.904   5.364  2.4407 -3.0161  0.7084
 1409SOL     OW15862   4.635   1.534   2.793 -0.3918  0.5508 -0.4302
 1409SOL    HW115863   4.709   1.576   2.836 -0.2291  0.0965 -0.2682
 1409SOL    HW215864   4.670   1.458   2.747 -2.2443 -0.3288 -0.4060
 1410SOL     OW15865   1.107   3.652   2.383 -0.0489  0.3588 -0.3609
 1410SOL    HW115866   1.183   3.603   2.351 -0.4863 -1.5201  1.4456
 1410SOL    HW215867   1.045   3.597   2.335  0.3803  2.2550 -3.0816
 1411SOL     OW15868   0.057   0.674   4.179 -0.3650  0.6612  0.2379
 1411SOL    HW115869   0.096   0.738   4.238 -3.1713  1.4745  1.1945
 1411SOL    HW215870   0.042   0.720   4.097  2.6597 -0.5460 -0.9603
 1412SOL     OW15871   2.305   0.070   4.332 -0.3055  0.3187 -0.1912
 1412SOL    HW115872   2.379   0.042   4.386  1.8276  1.0557 -2.7494
 1412SOL    HW215873   2.277   0.146   4.383  1.9019  0.9852  0.0302
 1413SOL     OW15874   2.524   0.828  13.714  0.1677  0.0207 -0.0531
 1413SOL    HW115875   2.561   0.820  13.626 -2.0341  0.3006 -0.9988
 1413SOL    HW215876   2.579   0.902  13.737  0.3892 -0.3886  0.7386
 1414SOL     OW15877   2.673   0.796  15.457  0.4956  0.2206 -0.1225
 1414SOL    HW115878   2.738   0.817  15.525  0.6935 -0.2027 -0.1849
 1414SOL    HW215879   2.698   0.704  15.448 -0.9190 -0.3743  1.9589
 1415SOL     OW15880   1.749   3.568   6.305  0.2700 -0.1607  0.1019
 1415SOL    HW115881   1.761   3.542   6.397 -1.6772 -0.1113  0.3729
 1415SOL    HW215882   1.706   3.495   6.260  1.1550 -1.1653  0.8572
 1416SOL     OW15883   2.210   3.281  15.291 -0.3661  0.1353 -0.6268
 1416SOL    HW115884   2.284   3.227  15.266 -1.3274 -0.2732 -2.5628
 1416SOL    HW215885   2.192   3.322  15.206 -0.7940  1.9944  0.3565
 1417SOL     OW15886   1.055   1.570   2.632 -0.1477  0.4268  0.7511
 1417SOL    HW115887   1.054   1.485   2.675 -1.8023  0.6388  1.1546
 1417SOL    HW215888   0.978   1.563   2.575  2.2345  0.9212 -2.5365
 1418SOL     OW15889   4.583   0.285   6.365 -0.2077 -0.3196  0.2750
 1418SOL    HW115890   4.678   0.288   6.378 -0.4452  1.2537  1.6599
 1418SOL    HW215891   4.578   0.376   6.395  0.9954 -0.3369  0.5381
 1419SOL     OW15892   2.106   1.169   4.530 -0.1741 -0.2236 -0.1672
 1419SOL    HW115893   2.092   1.215   4.448 -0.1785  1.2101  0.6309
 1419SOL    HW215894   2.017   1.146   4.557 -0.8276  2.5318  0.0402
 1420SOL     OW15895   0.067   4.140  13.720  0.2607 -0.5541 -0.1125
 1420SOL    HW115896   0.055   4.052  13.755  1.5347  0.0586  1.7972
 1420SOL    HW215897   0.161   4.145  13.706  0.4034  2.2262  1.9512
 1421SOL     OW15898   4.000   1.848   2.152  0.1236 -0.2299 -0.1077
 1421SOL    HW115899   3.926   1.824   2.207  2.2402  1.2469  3.3736
 1421SOL    HW215900   4.058   1.897   2.211  2.5819 -1.8138 -1.2048
 1422SOL     OW15901   0.170   0.242  13.465 -0.4845 -0.1241 -0.1183
 1422SOL    HW115902   0.130   0.201  13.541 -0.7216  0.7844  0.2523
 1422SOL    HW215903   0.194   0.322  13.512  1.8498  0.1556 -1.7488
 1423SOL     OW15904   4.734   1.813   3.039 -0.2143 -0.3314  0.0262
 1423SOL    HW115905   0.025   1.743   2.984 -0.9024 -1.2305  0.7498
 1423SOL    HW215906   0.070   1.814   3.094 -1.5321 -2.3748  1.9417
 1424SOL     OW15907   4.253   2.606  17.552 -0.1421  0.1791 -0.0338
 1424SOL    HW115908   4.249   2.561  17.636 -0.6965  1.9046  0.8526
 1424SOL    HW215909   4.180   2.566  17.504  0.9958 -1.3728 -0.4734
 1425SOL     OW15910   0.596   2.516   2.054  0.5088 -0.3429 -0.4822
 1425SOL    HW115911   0.528   2.570   2.013 -0.1353 -0.8955 -0.1352
 1425SOL    HW215912   0.594   2.443   1.992  1.8207 -1.7098  1.0854
 1426SOL     OW15913   2.985   3.900  14.263  0.3126  0.0056 -0.0506
 1426SOL    HW115914   2.960   3.849  14.186  0.0583 -0.6621  0.4671
 1426SOL    HW215915   2.991   3.827  14.325  0.1314  1.2465  1.4496
 1427SOL     OW15916   1.159   2.170   5.633  0.0251 -0.4344 -0.4414
 1427SOL    HW115917   1.250   2.158   5.659  0.2274 -1.3879 -1.5786
 1427SOL    HW215918   1.126   2.081   5.643 -2.3586  0.3879 -0.9697
 1428SOL     OW15919   2.765   2.826   5.461 -0.3626  0.5431  0.4957
 1428SOL    HW115920   2.726   2.742   5.485 -0.6315  0.8122  1.0057
 1428SOL    HW215921   2.682   2.870   5.449  0.1218  0.9244 -1.4444
 1429SOL     OW15922   0.297   3.345  11.572 -0.2279 -0.3627 -0.1571
 1429SOL    HW115923   0.271   3.411  11.637 -1.3892 -0.8012 -0.1725
 1429SOL    HW215924   0.284   3.393  11.490  2.4339  0.3614 -0.1359
 1430SOL     OW15925   0.956   2.623   8.881  0.2758 -0.1221  0.1349
 1430SOL    HW115926   0.931   2.552   8.821  0.0558 -0.3165  0.4545
 1430SOL    HW215927   0.874   2.672   8.875  0.2870 -0.1968 -0.5615
 1431SOL     OW15928   3.455   3.389   4.103  0.1613  0.5002  0.0829
 1431SOL    HW115929   3.441   3.336   4.025  1.5516 -1.4850  1.1818
 1431SOL    HW215930   3.443   3.477   4.067  1.0698  0.7113  0.2951
 1432SOL     OW15931   2.805   0.973  16.891  0.5652  0.3276  0.0593
 1432SOL    HW115932   2.802   1.049  16.833  2.7705  1.1596  1.0335
 1432SOL    HW215933   2.728   0.930  16.852  0.2550  0.8416  0.1065
 1433SOL     OW15934   2.611   0.062   2.474  0.9073  0.3118 -0.0983
 1433SOL    HW115935   2.626   0.157   2.482  0.9695  0.4913 -2.2978
 1433SOL    HW215936   2.636   0.045   2.383 -2.0825 -2.3723 -0.4216
 1434SOL     OW15937   1.175   2.705   8.416 -0.5270 -0.3067 -0.1646
 1434SOL    HW115938   1.208   2.638   8.475 -0.8052  0.8218  1.2758
 1434SOL    HW215939   1.091   2.664   8.399 -1.2712  0.8762  0.6276
 1435SOL     OW15940   0.388   1.401   1.793  0.0671 -0.2221  0.9711
 1435SOL    HW115941   0.300   1.370   1.772 -0.5087  1.7419  0.5011
 1435SOL    HW215942   0.424   1.323   1.836  1.5272 -2.0752 -3.6248
 1436SOL     OW15943   0.245   2.794   4.955 -0.0345  0.9332  0.1103
 1436SOL    HW115944   0.302   2.788   5.031 -1.6674  1.1308  1.3564
 1436SOL    HW215945   0.268   2.879   4.919 -0.5273  1.4364  0.9930
 1437SOL     OW15946   0.133   1.095   2.616  0.1293 -0.1023  0.1308
 1437SOL    HW115947   0.220   1.089   2.657  1.5759  1.9260 -2.6323
 1437SOL    HW215948   0.078   1.041   2.672 -0.8153  0.2523 -0.4636
 1438SOL     OW15949   3.218   0.368  11.862 -0.5174  0.1862  0.4001
 1438SOL    HW115950   3.294   0.424  11.880 -1.3949  0.7537  2.3486
 1438SOL    HW215951   3.235   0.347  11.770  0.7029 -1.6295  1.0391
 1439SOL     OW15952   2.850   3.062   6.191 -0.1531  0.2486 -0.4571
 1439SOL    HW115953   2.803   3.077   6.273 -1.2889  0.4007 -1.1312
 1439SOL    HW215954   2.906   3.139   6.183  0.7527 -0.3914 -0.2408
 1440SOL     OW15955   1.474   1.349  11.873  0.3771  0.2054 -0.1499
 1440SOL    HW115956   1.558   1.378  11.910  0.4178 -2.2391  1.6724
 1440SOL    HW215957   1.491   1.341  11.779  1.2938 -0.5024  0.0688
 1441SOL     OW15958   4.610   1.783   2.664 -0.5948 -0.2741 -0.6762
 1441SOL    HW115959   4.598   1.690   2.684  2.5234 -0.3577  0.9156
 1441SOL    HW215960   4.689   1.784   2.609  0.7156 -1.8311  1.1559
 1442SOL     OW15961   1.734   0.337   3.994  0.1339  0.2300 -0.7153
 1442SOL    HW115962   1.813   0.282   3.994 -1.3042 -1.8235 -0.1463
 1442SOL    HW215963   1.728   0.338   3.898 -0.0436 -0.6530 -0.7141
 1443SOL     OW15964   3.916   2.454   0.226 -0.1404 -0.1434 -0.2158
 1443SOL    HW115965   3.852   2.386   0.248 -0.8605  0.1520 -1.3569
 1443SOL    HW215966   3.967   2.449   0.306  1.0982 -2.6734 -1.1695
 1444SOL     OW15967   4.643   0.232   7.601 -0.3816 -0.6293 -0.0774
 1444SOL    HW115968   4.622   0.283   7.523  2.4439  0.1729 -0.3175
 1444SOL    HW215969   4.610   0.297   7.664 -0.5507 -0.4092 -0.3946
 1445SOL     OW15970   2.191   2.101   3.469  0.3389 -0.2595  0.6704
 1445SOL    HW115971   2.198   2.024   3.526  0.9168 -0.7242 -0.0279
 1445SOL    HW215972   2.173   2.172   3.531  1.5188  1.1437 -0.6137
 1446SOL     OW15973   1.612   2.664   2.783 -0.3480  0.1146  0.2472
 1446SOL    HW115974   1.585   2.756   2.784 -0.3453  0.0987  1.6130
 1446SOL    HW215975   1.542   2.630   2.839 -1.1780  0.9303 -0.2949
 1447SOL     OW15976   3.031   4.623  12.709  0.1173  0.4902 -0.1674
 1447SOL    HW115977   3.004   4.683  12.640  0.1279  0.8603  0.1471
 1447SOL    HW215978   2.957   4.563  12.703  1.4049 -1.0501 -0.7407
 1448SOL     OW15979   1.070   4.126   0.277 -0.3196 -0.1120  0.1353
 1448SOL    HW115980   1.014   4.055   0.246 -1.0509  0.1716  0.8163
 1448SOL    HW215981   1.157   4.086   0.282  0.2917  1.0746 -1.0765
 1449SOL     OW15982   4.495   2.256   4.322 -0.8529  0.0498  0.3286
 1449SOL    HW115983   4.410   2.225   4.291 -1.5816  2.4505 -0.0968
 1449SOL    HW215984   4.548   2.234   4.246 -0.3953 -1.2969  1.0389
 1450SOL     OW15985   4.063   4.571  12.518 -0.1015 -0.0164 -0.3033
 1450SOL    HW115986   4.002   4.569  12.444  0.5373 -2.4463 -0.7565
 1450SOL    HW215987   4.052   4.485  12.558  0.0033  1.5093  3.0194
 1451SOL     OW15988   0.975   1.682   2.227  0.4417 -0.4187  0.8273
 1451SOL    HW115989   1.015   1.596   2.241 -0.8044 -1.0046  0.7616
 1451SOL    HW215990   0.996   1.713   2.139 -0.6002 -0.0304  0.7239
 1452SOL     OW15991   1.372   3.579   3.415  0.3128  0.2769  0.3206
 1452SOL    HW115992   1.424   3.561   3.336 -0.7820 -0.1236 -0.3154
 1452SOL    HW215993   1.286   3.538   3.402  0.6659 -0.5893  0.7293
 1453SOL     OW15994   4.336   1.846  14.654  0.1771  0.0528  0.5319
 1453SOL    HW115995   4.354   1.761  14.615  0.4774  0.3143  0.0987
 1453SOL    HW215996   4.413   1.895  14.625  0.0214  1.3178  2.3167
 1454SOL     OW15997   3.872   1.849  16.915  0.2580 -0.2990 -0.5423
 1454SOL    HW115998   3.877   1.755  16.927 -0.0486 -0.3427 -0.7635
 1454SOL    HW215999   3.935   1.887  16.977 -3.0216  1.4066  1.7344
 1455SOL     OW16000   1.598   2.785   4.031 -1.0876  0.1483 -0.3337
 1455SOL    HW116001   1.634   2.872   4.048 -0.5734  0.0711 -1.0078
 1455SOL    HW216002   1.641   2.766   3.947  1.2915 -0.3283  0.9904
 1456SOL     OW16003   4.422   0.209   7.010 -0.7604  0.5013 -0.0754
 1456SOL    HW116004   4.442   0.299   7.033  0.4591  0.0743  0.5238
 1456SOL    HW216005   4.510   0.172   7.006 -0.6585  0.8385 -0.8637
 1457SOL     OW16006   0.386   2.126   5.310 -0.4636  0.2289 -0.0896
 1457SOL    HW116007   0.462   2.068   5.307 -1.1514 -0.6005 -1.3486
 1457SOL    HW216008   0.317   2.063   5.334 -0.3286 -0.1924 -0.8171
 1458SOL     OW16009   0.183   0.129   2.465 -0.2395 -0.3196 -0.3542
 1458SOL    HW116010   0.199   0.224   2.463 -1.5212 -0.1140 -0.5304
 1458SOL    HW216011   0.096   0.131   2.503  0.4637 -0.5237  1.2705
 1459SOL     OW16012   2.151   3.488   4.809  0.1497 -0.1416  0.1531
 1459SOL    HW116013   2.144   3.394   4.825 -0.0436  0.1112  1.5988
 1459SOL    HW216014   2.176   3.524   4.894  1.6248  0.9055 -0.7426
 1460SOL     OW16015   3.439   1.900   1.896  0.0449  0.1514  0.5055
 1460SOL    HW116016   3.345   1.913   1.887 -0.1826 -2.3823 -0.8663
 1460SOL    HW216017   3.478   1.977   1.854 -1.5011  0.4544 -0.3758
 1461SOL     OW16018   3.761   2.203  10.827  0.0498 -0.2830 -0.5634
 1461SOL    HW116019   3.743   2.294  10.852  0.3649  0.2614 -2.2465
 1461SOL    HW216020   3.836   2.220  10.769  1.0913 -1.2202  0.5234
 1462SOL     OW16021   3.722   3.243   1.952  0.0380 -0.3170 -0.1354
 1462SOL    HW116022   3.716   3.268   2.044  0.1163  0.4317 -0.3365
 1462SOL    HW216023   3.764   3.157   1.954  0.9995  0.1634  0.0493
 1463SOL     OW16024   2.893   1.982  14.198  0.4548  0.1602  0.4552
 1463SOL    HW116025   2.975   2.030  14.189  1.8493 -2.1440  0.7767
 1463SOL    HW216026   2.919   1.901  14.155  0.6886  1.4088 -1.7403
 1464SOL     OW16027   4.338   3.493   7.453  0.0675 -0.0286 -0.6904
 1464SOL    HW116028   4.278   3.552   7.498  1.5968 -0.5722  2.0343
 1464SOL    HW216029   4.379   3.559   7.397  0.7406  0.5616  0.5039
 1465SOL     OW16030   4.202   3.888   4.556 -0.1580  0.7740  0.1013
 1465SOL    HW116031   4.170   3.806   4.519 -2.0880  1.3420  0.4955
 1465SOL    HW216032   4.297   3.881   4.548 -0.0997 -0.8320  2.3345
 1466SOL     OW16033   4.636   2.113   8.696  0.8015  0.4806 -0.1123
 1466SOL    HW116034   4.731   2.100   8.694  0.6041 -0.9362 -0.0133
 1466SOL    HW216035   4.624   2.168   8.619  1.0639  0.7704  0.0532
 1467SOL     OW16036   2.136   2.536   0.840 -0.3638  0.3578 -0.5803
 1467SOL    HW116037   2.069   2.496   0.895 -0.8608  1.0545 -0.6756
 1467SOL    HW216038   2.081   2.549   0.763  1.0826 -1.0076 -1.8407
 1468SOL     OW16039   3.882   0.588   6.090 -0.3038  0.3815  0.3739
 1468SOL    HW116040   3.871   0.495   6.110  2.9381  0.1215  0.9707
 1468SOL    HW216041   3.839   0.600   6.006 -0.9751 -1.7267  0.4189
 1469SOL     OW16042   0.019   0.142  17.496  0.1867 -0.0859  0.5796
 1469SOL    HW116043   4.682   0.103  17.460  1.2953 -0.4640 -1.4559
 1469SOL    HW216044   4.739   0.137  17.590 -0.9435 -1.2662  0.2485
 1470SOL     OW16045   2.052   1.341   3.836 -0.2547 -0.0130 -0.2323
 1470SOL    HW116046   2.090   1.277   3.776  0.9072  1.4530 -1.0640
 1470SOL    HW216047   2.017   1.281   3.902 -1.1427  0.2621 -0.4561
 1471SOL     OW16048   3.917   2.440   8.578 -0.2036 -0.7911  0.0260
 1471SOL    HW116049   3.841   2.471   8.530 -0.2452 -0.5627  0.2403
 1471SOL    HW216050   3.924   2.510   8.643 -0.2478 -0.1690 -0.6392
 1472SOL     OW16051   4.205   0.055   2.574  0.4644 -0.0545  0.2365
 1472SOL    HW116052   4.116   0.018   2.572  2.0940 -4.1798  2.6360
 1472SOL    HW216053   4.260   4.719   2.577  5.5895  3.5793  1.1208
 1473SOL     OW16054   4.727   4.147   5.429  0.0047 -0.1988  0.1323
 1473SOL    HW116055   4.698   4.145   5.338 -1.9798  1.2180  0.7322
 1473SOL    HW216056   0.078   4.131   5.416 -0.2546 -0.2702 -1.5883
 1474SOL     OW16057   2.682   2.048  13.816  0.0235  0.5092 -0.1655
 1474SOL    HW116058   2.602   2.099  13.817 -0.0256  0.4735 -1.6414
 1474SOL    HW216059   2.656   1.980  13.754 -0.3666  0.4015  0.1177
 1475SOL     OW16060   4.008   1.887   6.187  0.2623 -1.0265  0.2469
 1475SOL    HW116061   4.025   1.827   6.114  0.9048  1.4180 -1.6095
 1475SOL    HW216062   3.947   1.835   6.240 -1.5528  2.6695  1.8180
 1476SOL     OW16063   3.225   2.908   8.847  0.4378  0.0538 -0.1509
 1476SOL    HW116064   3.185   2.841   8.904  1.8059  0.6337  1.4951
 1476SOL    HW216065   3.157   2.974   8.835 -0.7584 -1.3839 -1.3364
 1477SOL     OW16066   2.053   0.179   6.774  0.4465  0.4431 -0.5219
 1477SOL    HW116067   2.085   0.095   6.807 -0.6653 -0.1189 -0.8959
 1477SOL    HW216068   2.121   0.196   6.709  2.8924 -0.2034  1.8129
 1478SOL     OW16069   1.359   1.586  13.172  0.0821 -0.0614 -0.0947
 1478SOL    HW116070   1.327   1.580  13.262 -0.2616  0.9198 -0.1507
 1478SOL    HW216071   1.306   1.661  13.145  3.6144  2.1285 -0.9855
 1479SOL     OW16072   1.607   1.757  12.247 -0.0087 -0.3854  0.0055
 1479SOL    HW116073   1.594   1.842  12.287 -1.9344 -0.0714 -1.3081
 1479SOL    HW216074   1.683   1.772  12.190 -0.9723  0.5683 -1.0225
 1480SOL     OW16075   3.274   3.258   8.191 -0.7905 -0.0635  0.6664
 1480SOL    HW116076   3.285   3.172   8.231 -0.5004 -0.6852 -0.7469
 1480SOL    HW216077   3.260   3.239   8.098 -0.9691 -1.0790  0.9016
 1481SOL     OW16078   2.029   4.164   2.480  0.0707 -0.1945  0.9481
 1481SOL    HW116079   2.047   4.072   2.497 -1.2772 -0.4518  0.9261
 1481SOL    HW216080   1.945   4.176   2.524 -0.1916  0.6318  0.2321
 1482SOL     OW16081   3.113   3.347  12.969 -0.1503  0.3545  0.2454
 1482SOL    HW116082   3.153   3.265  12.941 -0.6660 -0.7716  2.7658
 1482SOL    HW216083   3.186   3.387  13.015 -0.5843  0.3468  0.9509
 1483SOL     OW16084   2.821   2.129   3.287 -0.4123 -0.2693 -0.1686
 1483SOL    HW116085   2.874   2.135   3.367  0.0548  0.1424 -0.5117
 1483SOL    HW216086   2.883   2.079   3.235 -1.3826 -1.6262 -0.0050
 1484SOL     OW16087   4.637   4.108  11.448  0.3872  0.6799  0.1939
 1484SOL    HW116088   4.600   4.186  11.407  0.2079  0.9082  0.8026
 1484SOL    HW216089   4.723   4.136  11.479  1.7101  0.0938 -2.8775
 1485SOL     OW16090   1.652   4.568   1.616  0.6482  0.8323 -0.5075
 1485SOL    HW116091   1.649   4.521   1.533 -0.6856  1.0628 -0.6025
 1485SOL    HW216092   1.746   4.571   1.635  0.1718  1.5409  1.8087
 1486SOL     OW16093   4.421   0.073   8.747  0.4938 -0.2332 -0.0398
 1486SOL    HW116094   4.400   0.081   8.654  0.9228 -3.9926 -0.4678
 1486SOL    HW216095   4.348   0.022   8.779  0.0405  1.0779  1.0258
 1487SOL     OW16096   1.134   2.046  10.191  0.2882  0.3078 -0.4085
 1487SOL    HW116097   1.065   2.011  10.249  0.5517 -1.3309 -1.0837
 1487SOL    HW216098   1.215   2.008  10.225 -1.1779  0.1480  2.9216
 1488SOL     OW16099   2.788   3.752   7.773 -0.4641 -0.3255 -0.3516
 1488SOL    HW116100   2.864   3.771   7.829  0.7505 -1.1762 -1.6935
 1488SOL    HW216101   2.820   3.672   7.732 -0.8465 -0.7215  0.1168
 1489SOL     OW16102   1.947   1.675   3.205 -0.6256 -0.0947  0.1306
 1489SOL    HW116103   1.938   1.673   3.110  2.1228 -1.9467 -0.0889
 1489SOL    HW216104   2.040   1.663   3.223 -1.1701  0.7529  3.5327
 1490SOL     OW16105   2.830   1.999   0.891  0.1368 -0.1873 -0.5327
 1490SOL    HW116106   2.752   2.047   0.920  1.5679  0.7550  1.6862
 1490SOL    HW216107   2.813   2.019   0.799  1.1301 -1.2623 -0.9556
 1491SOL     OW16108   2.827   2.053   6.860  0.6692 -0.2537 -0.5087
 1491SOL    HW116109   2.897   2.001   6.822  1.6108 -0.9509  2.1292
 1491SOL    HW216110   2.754   1.992   6.855 -0.6408  1.2835 -0.1340
 1492SOL     OW16111   1.968   3.769   3.279 -0.0031 -0.6524 -0.2005
 1492SOL    HW116112   1.874   3.754   3.269  0.1705 -1.7480 -0.1811
 1492SOL    HW216113   2.001   3.767   3.190 -0.6765 -0.0488 -0.4646
 1493SOL     OW16114   1.040   0.198   4.560 -0.3991  0.2924 -0.0179
 1493SOL    HW116115   1.009   0.187   4.470 -2.9026 -2.1008  1.1631
 1493SOL    HW216116   1.046   0.105   4.580 -0.7693  0.3949  0.5684
 1494SOL     OW16117   4.735   2.008  14.750 -0.1102 -0.0713  0.0698
 1494SOL    HW116118   0.058   1.945  14.780 -0.5217 -0.8941 -0.7481
 1494SOL    HW216119   0.052   2.079  14.727  1.3879 -1.3800 -0.1234
 1495SOL     OW16120   4.653   2.337   8.512  0.1020 -0.0772  1.0378
 1495SOL    HW116121   4.584   2.380   8.562  0.3688  0.1243  1.2384
 1495SOL    HW216122   4.651   2.382   8.428  2.6414  0.5968  1.3170
 1496SOL     OW16123   1.714   3.964   1.176  0.5604 -0.1523  0.1181
 1496SOL    HW116124   1.763   3.992   1.099 -0.7135 -1.1281 -1.0431
 1496SOL    HW216125   1.634   3.940   1.129  0.5384 -0.8001  0.4904
 1497SOL     OW16126   2.364   4.109  12.890 -0.5728  0.1367  0.3986
 1497SOL    HW116127   2.323   4.155  12.964  1.7419 -0.2489  1.9075
 1497SOL    HW216128   2.429   4.171  12.858  0.9074 -0.4010  2.3843
 1498SOL     OW16129   4.444   2.940  10.982 -0.5510 -0.5875  0.2531
 1498SOL    HW116130   4.378   2.911  11.044 -1.5462 -1.5969 -1.2746
 1498SOL    HW216131   4.472   3.027  11.011  1.8771 -1.1600 -0.3423
 1499SOL     OW16132   4.631   0.037   9.118  0.4322  0.6653 -0.0620
 1499SOL    HW116133   4.575   4.702   9.117 -0.4267  1.2661  1.7814
 1499SOL    HW216134   4.634   0.044   9.213 -2.6915 -0.4336  0.1155
 1500SOL     OW16135   1.743   2.650   7.107  0.5740 -0.0560  0.0068
 1500SOL    HW116136   1.786   2.659   7.022  1.8741 -3.1194  0.3422
 1500SOL    HW216137   1.665   2.706   7.105  1.3618  0.9544 -2.1897
 1501SOL     OW16138   3.322   3.449   3.807  0.7980  0.6330  0.1970
 1501SOL    HW116139   3.228   3.434   3.805  1.2630 -2.0729 -1.3625
 1501SOL    HW216140   3.329   3.529   3.860 -2.1339 -0.1750  1.8294
 1502SOL     OW16141   0.901   4.477   4.467  0.6509 -0.0975  0.0501
 1502SOL    HW116142   0.930   4.533   4.394 -0.1352 -0.8574 -0.8497
 1502SOL    HW216143   0.950   4.508   4.543 -2.6320  2.5403  1.0999
 1503SOL     OW16144   1.464   4.041   6.223 -0.1717 -0.4518 -0.8326
 1503SOL    HW116145   1.499   3.960   6.260 -0.3268 -0.4644 -0.7181
 1503SOL    HW216146   1.506   4.110   6.275 -1.2416 -0.0871 -0.4637
 1504SOL     OW16147   4.209   1.884   3.040  0.2923  0.1090  0.6028
 1504SOL    HW116148   4.118   1.881   3.070 -0.1148  1.3536 -0.5474
 1504SOL    HW216149   4.233   1.963   3.088  0.4290  0.3345  0.1585
 1505SOL     OW16150   1.138   3.310   8.092  0.7831 -0.4511  0.4657
 1505SOL    HW116151   1.200   3.237   8.095 -0.3664 -1.5105 -1.4611
 1505SOL    HW216152   1.125   3.332   8.184 -0.5077 -0.8338  0.3782
 1506SOL     OW16153   4.118   3.333   7.766 -0.7341  0.3460 -0.7551
 1506SOL    HW116154   4.182   3.316   7.697 -0.4612  1.0100 -0.6609
 1506SOL    HW216155   4.111   3.249   7.812 -2.3004  0.7688 -0.2205
 1507SOL     OW16156   4.027   4.070   7.166  0.8901 -0.0237  0.4681
 1507SOL    HW116157   4.021   4.164   7.149  0.7596 -0.1942 -0.3867
 1507SOL    HW216158   4.073   4.033   7.091  1.8541 -0.2539  1.1644
 1508SOL     OW16159   0.191   3.551   8.637 -0.2128  0.1732  0.2463
 1508SOL    HW116160   0.207   3.459   8.658  0.6059  0.2544 -0.0470
 1508SOL    HW216161   0.275   3.595   8.650 -0.0850  0.2859 -0.9835
 1509SOL     OW16162   1.306   4.605   5.886  0.5015 -0.1279  0.1296
 1509SOL    HW116163   1.358   4.525   5.876 -2.7958 -2.0270 -1.8578
 1509SOL    HW216164   1.348   4.664   5.824  1.1875  0.7454  1.4189
 1510SOL     OW16165   1.795   0.691  16.238  0.3475  0.0047 -0.3979
 1510SOL    HW116166   1.881   0.723  16.210  1.0659  0.0184  1.8261
 1510SOL    HW216167   1.742   0.761  16.198 -0.4961 -1.0565 -1.1404
 1511SOL     OW16168   3.842   3.932   5.671  0.0879 -0.9264 -0.1969
 1511SOL    HW116169   3.932   3.937   5.641  0.4461  1.3536  1.2173
 1511SOL    HW216170   3.831   3.843   5.704  1.2618 -0.5179  1.2990
 1512SOL     OW16171   3.353   3.179   2.885  0.3193  0.0531  0.6187
 1512SOL    HW116172   3.272   3.213   2.924  0.8735  2.1801 -0.0889
 1512SOL    HW216173   3.419   3.231   2.929 -1.1052  1.4670  1.0914
 1513SOL     OW16174   4.136   2.263   9.137  0.1415  0.5662 -0.4503
 1513SOL    HW116175   4.197   2.192   9.117  0.2693  0.6494 -0.3575
 1513SOL    HW216176   4.115   2.294   9.049 -0.4930  0.8689 -0.1851
 1514SOL     OW16177   4.416   1.675   1.818  0.5335 -0.1414  0.1056
 1514SOL    HW116178   4.465   1.756   1.806  0.8344 -0.3402 -0.0047
 1514SOL    HW216179   4.353   1.700   1.885  0.1986  0.2210 -0.3469
 1515SOL     OW16180   2.889   4.523   9.876 -0.3403 -0.2290  0.5228
 1515SOL    HW116181   2.935   4.447   9.840 -1.3905 -0.8222  0.4374
 1515SOL    HW216182   2.811   4.528   9.821  2.6778  2.1775 -3.4847
 1516SOL     OW16183   2.730   2.254   9.926 -0.4286  0.1520 -0.1976
 1516SOL    HW116184   2.741   2.297   9.841  0.9922 -0.4195 -0.3057
 1516SOL    HW216185   2.638   2.226   9.933 -0.4124 -0.0367 -0.7614
 1517SOL     OW16186   2.307   1.685   5.888  0.0653 -0.5697  0.1708
 1517SOL    HW116187   2.316   1.720   5.799 -1.4955 -1.5489 -0.3582
 1517SOL    HW216188   2.402   1.679   5.899  0.1384  2.0078  0.9744
 1518SOL     OW16189   0.224   1.000   2.174  0.2218  0.5156 -0.5631
 1518SOL    HW116190   0.165   0.961   2.239 -0.5083  1.8072 -0.4313
 1518SOL    HW216191   0.173   1.078   2.150  0.0900  1.0304  1.4369
 1519SOL     OW16192   0.776   1.439   7.910 -0.1113  0.4714 -0.2218
 1519SOL    HW116193   0.799   1.514   7.855  0.7644  0.3619 -0.0086
 1519SOL    HW216194   0.704   1.405   7.856 -1.7589  2.0722  0.9680
 1520SOL     OW16195   4.515   0.572  10.177 -0.4725 -0.4944  0.9099
 1520SOL    HW116196   4.475   0.656  10.156 -0.0735 -0.3619  0.6966
 1520SOL    HW216197   4.577   0.596  10.246 -0.6775 -1.7230  1.5232
 1521SOL     OW16198   4.532   4.348  11.999 -0.4618 -0.3611  0.3884
 1521SOL    HW116199   4.532   4.312  12.088 -2.9135  0.5932  0.7799
 1521SOL    HW216200   4.498   4.437  12.004  1.1070  0.3812 -2.5671
 1522SOL     OW16201   2.274   4.531   2.300 -0.0328 -0.1689  0.3745
 1522SOL    HW116202   2.292   4.544   2.394  3.3104 -0.8152 -0.1663
 1522SOL    HW216203   2.282   4.436   2.296  0.2493 -0.2006  1.6285
 1523SOL     OW16204   3.924   3.890  17.357 -0.0629 -0.6113 -0.5013
 1523SOL    HW116205   3.856   3.873  17.423 -0.1284 -0.2624 -0.4812
 1523SOL    HW216206   3.958   3.978  17.370 -2.0178  0.3026 -1.5492
 1524SOL     OW16207   2.228   3.575   2.858  0.3595  0.2785 -0.0623
 1524SOL    HW116208   2.154   3.559   2.799  0.4690  0.6651 -0.3016
 1524SOL    HW216209   2.266   3.487   2.864 -0.3975  0.0324  1.1831
 1525SOL     OW16210   3.462   1.235  14.527 -0.1750  0.2960  0.5794
 1525SOL    HW116211   3.428   1.304  14.471 -0.6749  0.5464  1.1921
 1525SOL    HW216212   3.555   1.251  14.508 -0.1903 -2.4664 -1.8351
 1526SOL     OW16213   3.103   3.207   4.707  0.2363  0.1789  0.5055
 1526SOL    HW116214   3.159   3.140   4.747 -0.4406 -0.0574  1.0566
 1526SOL    HW216215   3.161   3.277   4.737  0.2078  0.2545  0.3862
 1527SOL     OW16216   1.225   1.032   3.173  0.2448 -0.0179  0.3516
 1527SOL    HW116217   1.270   1.113   3.196 -1.1338  0.6317  0.7568
 1527SOL    HW216218   1.165   1.061   3.105  1.1245  0.0126 -0.4144
 1528SOL     OW16219   3.580   4.203   6.995 -0.5059  0.4051  0.4415
 1528SOL    HW116220   3.640   4.161   7.058 -0.7224 -1.5198 -0.6461
 1528SOL    HW216221   3.527   4.254   7.056 -1.2587  1.0685 -0.7758
 1529SOL     OW16222   2.945   3.455  11.004 -0.1074 -0.3853  0.2269
 1529SOL    HW116223   2.897   3.415  10.932 -0.0478  0.7253 -0.4295
 1529SOL    HW216224   3.019   3.395  10.996  0.8944  0.9249 -0.2570
 1530SOL     OW16225   1.781   1.692   7.183 -0.6791  0.1840  0.0685
 1530SOL    HW116226   1.869   1.721   7.159 -0.7068 -0.3162 -0.6531
 1530SOL    HW216227   1.751   1.758   7.246 -0.5668  1.4026 -1.1570
 1531SOL     OW16228   4.708   3.396   0.565  0.3163 -0.1904  0.1517
 1531SOL    HW116229   4.721   3.301   0.562 -0.4104 -0.3107  0.8734
 1531SOL    HW216230   4.624   3.405   0.520  1.5721 -2.6859 -2.6830
 1532SOL     OW16231   0.617   1.146   6.266  0.4703  0.4188 -0.0485
 1532SOL    HW116232   0.609   1.202   6.343  1.6041  0.4368  0.0474
 1532SOL    HW216233   0.705   1.167   6.235 -0.6000  1.7904 -2.1697
 1533SOL     OW16234   2.067   4.395   4.783 -0.2351 -0.5224 -0.3003
 1533SOL    HW116235   2.081   4.434   4.869  0.1383  1.2325 -1.1636
 1533SOL    HW216236   1.996   4.332   4.798 -0.7374  0.6335  2.0226
 1534SOL     OW16237   0.954   0.287   6.530  0.1673  0.1009 -0.5544
 1534SOL    HW116238   1.026   0.226   6.514  2.1874  2.6554 -1.2146
 1534SOL    HW216239   0.906   0.229   6.589 -0.6269 -0.1683 -1.4809
 1535SOL     OW16240   2.286   1.157   7.547 -0.3375  0.3429  0.1267
 1535SOL    HW116241   2.320   1.139   7.635  0.5014  2.9627  0.3607
 1535SOL    HW216242   2.336   1.098   7.491  0.3292  1.5021 -0.5108
 1536SOL     OW16243   0.559   2.501   5.027 -0.3274 -0.6930  0.1851
 1536SOL    HW116244   0.527   2.421   5.068 -2.3005  0.2246  0.4245
 1536SOL    HW216245   0.642   2.476   4.987  0.5803  0.4895  1.3059
 1537SOL     OW16246   0.572   1.757   2.487 -0.0749 -0.2442  0.4592
 1537SOL    HW116247   0.634   1.790   2.423  1.1386  0.7286  2.1678
 1537SOL    HW216248   0.508   1.703   2.440  0.4831  0.5254 -1.1717
 1538SOL     OW16249   2.551   0.022   7.845 -0.3148 -0.2752 -0.4459
 1538SOL    HW116250   2.557   0.081   7.919  0.1233 -2.2181  1.0618
 1538SOL    HW216251   2.613   0.072   7.791 -0.8624 -0.5298 -1.3177
 1539SOL     OW16252   2.764   4.179   3.727  0.2429 -0.1234 -0.2462
 1539SOL    HW116253   2.792   4.090   3.749 -0.1579  0.6934  3.4490
 1539SOL    HW216254   2.739   4.204   3.816 -0.1008  0.8094 -0.6045
 1540SOL     OW16255   3.284   2.612  15.574 -0.2738 -0.0789  0.1739
 1540SOL    HW116256   3.318   2.678  15.633  0.5756 -1.9542  1.7955
 1540SOL    HW216257   3.323   2.530  15.604  0.1223  0.1694  0.3305
 1541SOL     OW16258   1.705   1.396  16.802 -0.4959 -0.1993 -0.5833
 1541SOL    HW116259   1.751   1.383  16.885 -0.9735 -2.6517 -0.6970
 1541SOL    HW216260   1.637   1.329  16.793 -0.3279 -0.6075  1.0419
 1542SOL     OW16261   2.187   2.062   7.071 -0.4012  0.1047  0.6282
 1542SOL    HW116262   2.223   2.017   7.147  1.1649 -0.5572 -0.4881
 1542SOL    HW216263   2.197   2.150   7.107  1.6926  0.9670 -2.0611
 1543SOL     OW16264   2.231   4.529   5.698  0.1838 -0.1573 -0.1714
 1543SOL    HW116265   2.208   4.463   5.764  1.6719 -0.9173 -0.4232
 1543SOL    HW216266   2.151   4.537   5.646  0.7350  0.5033 -0.9015
 1544SOL     OW16267   0.008   0.586   8.127  0.2232 -0.3432  0.5951
 1544SOL    HW116268   4.679   0.621   8.074  0.9816 -2.1524 -1.6492
 1544SOL    HW216269   0.030   0.645   8.198  0.9930  0.7875 -0.5852
 1545SOL     OW16270   4.519   3.689   5.832  0.1633 -0.2411 -0.4148
 1545SOL    HW116271   4.574   3.742   5.890  0.4443 -3.9330  2.6829
 1545SOL    HW216272   4.458   3.657   5.898  0.5638 -1.0686 -0.4419
 1546SOL     OW16273   2.603   1.500   5.298  0.2182 -0.3181  0.1492
 1546SOL    HW116274   2.683   1.462   5.261  0.3352 -0.1726  0.2542
 1546SOL    HW216275   2.641   1.544   5.374 -2.6605  2.0691  0.1644
 1547SOL     OW16276   4.163   4.699  10.989  0.1296  0.1063 -0.1767
 1547SOL    HW116277   4.167   4.702  10.894 -0.0943  1.4887 -0.1447
 1547SOL    HW216278   4.165   0.049  11.013 -1.5215 -0.1009  0.8185
 1548SOL     OW16279   2.205   2.406  14.267 -0.2435 -0.1651 -0.4625
 1548SOL    HW116280   2.240   2.326  14.306 -0.4134 -0.1864 -0.3501
 1548SOL    HW216281   2.137   2.370  14.210 -0.3164  2.5179 -2.0484
 1549SOL     OW16282   2.706   1.243   3.820  0.4799 -0.6845 -0.1036
 1549SOL    HW116283   2.794   1.259   3.787 -0.0796  0.0500 -1.2511
 1549SOL    HW216284   2.673   1.332   3.837  2.0340 -0.2940  0.9233
 1550SOL     OW16285   4.491   1.957   3.295  0.6396  0.1995 -0.0246
 1550SOL    HW116286   4.430   1.894   3.335 -0.5602  2.2697  1.3825
 1550SOL    HW216287   4.576   1.918   3.315  0.7894  2.2843  3.4005
 1551SOL     OW16288   3.637   2.297   4.242 -0.2323 -0.1823  0.3529
 1551SOL    HW116289   3.663   2.272   4.331  0.4827 -1.2634 -0.1516
 1551SOL    HW216290   3.608   2.387   4.251  1.5813  0.5572 -1.0365
 1552SOL     OW16291   1.179   2.255   7.602  0.5083 -0.6443  0.3283
 1552SOL    HW116292   1.273   2.241   7.594  0.5260  0.0298 -0.5941
 1552SOL    HW216293   1.143   2.168   7.619  0.6307 -1.1116 -1.8206
 1553SOL     OW16294   3.798   0.714  16.009 -0.2570  0.3775 -0.4426
 1553SOL    HW116295   3.734   0.678  16.070 -0.0887  0.9668  0.0729
 1553SOL    HW216296   3.817   0.796  16.053 -1.7947  0.5136 -0.0265
 1554SOL     OW16297   3.069   0.777   2.590  0.5135 -0.7482  0.0688
 1554SOL    HW116298   3.162   0.797   2.600 -0.4094  2.6953  1.9658
 1554SOL    HW216299   3.048   0.825   2.510  0.4170 -1.4179 -0.3034
 1555SOL     OW16300   3.862   4.039  16.142 -0.5683 -0.1204  0.1855
 1555SOL    HW116301   3.839   4.056  16.050 -0.4255 -2.4891 -0.3015
 1555SOL    HW216302   3.860   4.125  16.182 -1.0000 -0.3085  0.5730
 1556SOL     OW16303   1.907   1.367   5.080 -0.0964  0.6708  0.2575
 1556SOL    HW116304   1.928   1.372   5.173 -3.0108 -0.5224  0.9766
 1556SOL    HW216305   1.849   1.290   5.077  0.7628  0.0037  0.8520
 1557SOL     OW16306   0.984   4.040  11.642 -0.1326  0.3436 -0.2107
 1557SOL    HW116307   1.038   4.106  11.598  1.7952 -1.0169  0.1331
 1557SOL    HW216308   1.045   4.005  11.707 -0.5467 -1.3953 -0.7552
 1558SOL     OW16309   1.253   1.509  13.413 -0.6417  0.3546  0.0767
 1558SOL    HW116310   1.171   1.481  13.452 -1.2599  2.6986  0.4805
 1558SOL    HW216311   1.293   1.426  13.437 -1.9894  0.4949  2.8125
 1559SOL     OW16312   1.806   0.224   5.583 -0.5260  0.3912  0.1367
 1559SOL    HW116313   1.889   0.205   5.626 -0.5679 -0.1996 -0.0352
 1559SOL    HW216314   1.761   0.146   5.550 -1.3108  0.6913  0.4794
 1560SOL     OW16315   4.710   0.079   8.784 -0.5575  0.3308 -0.6857
 1560SOL    HW116316   4.675   0.098   8.871  0.2373  0.0413 -0.3091
 1560SOL    HW216317   4.629   0.080   8.733 -0.2034  1.4575 -1.2303
 1561SOL     OW16318   3.192   3.151   2.236 -0.3888  0.1541  0.0933
 1561SOL    HW116319   3.263   3.123   2.294 -1.2518 -1.2192  0.4846
 1561SOL    HW216320   3.243   3.196   2.168  0.7057  1.2880  1.6619
 1562SOL     OW16321   4.177   3.392   6.815 -0.0865  0.3020  0.5085
 1562SOL    HW116322   4.191   3.305   6.853  0.5632  1.1447  2.2036
 1562SOL    HW216323   4.086   3.409   6.841 -0.1324  0.7598  0.0307
 1563SOL     OW16324   2.351   1.287  15.555 -0.1738  0.0590 -0.0124
 1563SOL    HW116325   2.311   1.258  15.473 -1.4894 -0.4361  0.7877
 1563SOL    HW216326   2.267   1.322  15.587  1.2338  2.3992  1.1514
 1564SOL     OW16327   3.567   3.070   6.525 -0.3303 -0.2505  0.1264
 1564SOL    HW116328   3.562   3.067   6.430  2.4195  0.8796 -0.0512
 1564SOL    HW216329   3.506   3.143   6.535 -0.5896 -0.3687 -0.6659
 1565SOL     OW16330   0.340   3.176   3.731  0.2384 -0.3848 -0.0585
 1565SOL    HW116331   0.261   3.230   3.720  0.6598  0.3682  0.6192
 1565SOL    HW216332   0.360   3.204   3.820  0.3182  1.7984 -0.7489
 1566SOL     OW16333   3.188   0.391   7.046 -0.4190 -0.1651 -0.5142
 1566SOL    HW116334   3.238   0.327   6.996 -1.0494 -0.0324 -1.3122
 1566SOL    HW216335   3.183   0.334   7.123  1.9164 -1.5951 -1.4100
 1567SOL     OW16336   2.295   2.137   8.289  0.3845  0.3190  0.1158
 1567SOL    HW116337   2.272   2.081   8.363 -2.8802  0.7992 -0.5333
 1567SOL    HW216338   2.211   2.132   8.245  0.3515 -0.1545  0.2301
 1568SOL     OW16339   3.051   2.730   7.032 -0.2282  0.0689  0.2248
 1568SOL    HW116340   3.032   2.790   6.960 -1.5513  0.0490  0.5651
 1568SOL    HW216341   3.124   2.677   7.002 -0.4759 -0.2664  0.2193
 1569SOL     OW16342   0.123   0.694   6.498 -0.3235  0.4109  0.4565
 1569SOL    HW116343   0.117   0.631   6.426 -1.1144  1.4196 -0.3574
 1569SOL    HW216344   0.117   0.777   6.451  0.5229  0.1848 -0.0572
 1570SOL     OW16345   3.383   1.473  17.041  0.1580  0.8434 -0.1734
 1570SOL    HW116346   3.289   1.462  17.057 -0.1185  3.1474 -0.2651
 1570SOL    HW216347   3.385   1.549  16.984  3.9373  2.3059  1.9195
 1571SOL     OW16348   3.679   0.239  10.936  0.0901  0.1737  0.0100
 1571SOL    HW116349   3.751   0.198  10.887  0.4385 -0.0170  0.6892
 1571SOL    HW216350   3.729   0.287  11.002 -3.3794 -0.2025  2.9149
 1572SOL     OW16351   4.027   4.151   7.681 -0.2350 -0.8809 -0.5253
 1572SOL    HW116352   4.030   4.124   7.773 -1.5443  0.9209  0.0546
 1572SOL    HW216353   3.989   4.239   7.687  1.8287  0.0606 -1.5316
 1573SOL     OW16354   1.500   0.724   3.002 -0.2291 -0.2874  0.4793
 1573SOL    HW116355   1.405   0.722   2.990  0.0676 -1.4433 -1.7526
 1573SOL    HW216356   1.510   0.677   3.085 -1.6379  1.1623  1.4772
 1574SOL     OW16357   2.337   1.537   4.717 -0.3931  0.2389 -0.6833
 1574SOL    HW116358   2.346   1.467   4.653  0.5495  0.4370 -0.7623
 1574SOL    HW216359   2.375   1.499   4.796 -0.3483 -3.7972 -2.6763
 1575SOL     OW16360   0.618   4.570   8.587  0.8613 -0.1087  0.3561
 1575SOL    HW116361   0.617   4.474   8.593  1.9748 -0.1759 -0.4566
 1575SOL    HW216362   0.598   4.579   8.681 -1.3165 -0.7444 -0.0500
 1576SOL     OW16363   2.551   1.805  13.466  0.1961  0.2055  0.0370
 1576SOL    HW116364   2.590   1.722  13.439 -0.4521  0.4993 -1.7444
 1576SOL    HW216365   2.558   1.792  13.561 -0.5089  0.1784  0.0823
 1577SOL     OW16366   1.924   3.810  15.091  0.3634  1.0298  0.0171
 1577SOL    HW116367   1.929   3.739  15.027 -0.3269  1.0817 -0.0940
 1577SOL    HW216368   1.962   3.883  15.041  0.5583  1.0822  0.2399
 1578SOL     OW16369   3.767   2.721   3.436  0.2037 -0.2954 -0.5455
 1578SOL    HW116370   3.797   2.802   3.394 -1.0343  0.1186 -0.6142
 1578SOL    HW216371   3.848   2.672   3.454  0.0555 -0.6132 -0.7403
 1579SOL     OW16372   1.720   4.519  11.842  0.1227 -0.1080  0.2830
 1579SOL    HW116373   1.698   4.443  11.895  3.1450 -0.4435  1.0478
 1579SOL    HW216374   1.746   4.579  11.912 -1.1623 -0.0944  0.7566
 1580SOL     OW16375   2.079   3.297   6.515 -0.3334 -0.1314 -0.3036
 1580SOL    HW116376   2.090   3.362   6.585  0.2079  0.4015 -0.8828
 1580SOL    HW216377   2.045   3.349   6.442  0.6970 -0.7665 -1.2282
 1581SOL     OW16378   1.749   0.808  11.342 -0.1358 -0.3611 -0.2693
 1581SOL    HW116379   1.824   0.854  11.379  0.7324 -1.7746 -0.2460
 1581SOL    HW216380   1.765   0.810  11.248  0.0112 -0.6979 -0.2543
 1582SOL     OW16381   1.432   1.117   1.585  0.6323  0.3333  0.1986
 1582SOL    HW116382   1.339   1.129   1.599  0.6375 -1.9109  2.1969
 1582SOL    HW216383   1.422   1.053   1.514  2.0791  0.7485 -0.3888
 1583SOL     OW16384   2.673   0.551  17.473  0.1485 -0.0412  0.1773
 1583SOL    HW116385   2.717   0.491  17.533 -0.2309 -0.5945 -0.0967
 1583SOL    HW216386   2.739   0.620  17.477  0.1522 -0.0806  0.7473
 1584SOL     OW16387   4.724   2.967   2.372  0.4627 -0.2998  0.6738
 1584SOL    HW116388   4.655   2.903   2.357  1.2676 -0.8139 -0.8425
 1584SOL    HW216389   4.708   2.979   2.466  1.7539  2.3341  0.5725
 1585SOL     OW16390   4.266   2.558   7.298  0.0342 -0.2606  0.5167
 1585SOL    HW116391   4.311   2.642   7.303 -1.9771  0.7251  2.2062
 1585SOL    HW216392   4.209   2.580   7.224 -1.3788 -1.5749  1.2022
 1586SOL     OW16393   1.303   2.432   0.360 -0.1583  0.4539 -0.0720
 1586SOL    HW116394   1.219   2.388   0.357  0.1458 -0.2434  1.9207
 1586SOL    HW216395   1.282   2.525   0.349 -2.1683 -0.1762 -1.6101
 1587SOL     OW16396   1.089   0.467   7.807  0.6420 -0.1367 -0.1455
 1587SOL    HW116397   1.007   0.516   7.814  0.3333 -0.9155  1.8764
 1587SOL    HW216398   1.137   0.522   7.745  2.6768 -0.7203  0.9054
 1588SOL     OW16399   1.643   2.339   1.020 -0.0733  0.3249  0.0509
 1588SOL    HW116400   1.699   2.261   1.018  2.3079  1.9391  2.3448
 1588SOL    HW216401   1.677   2.389   0.946  0.0779 -2.1587 -1.5685
 1589SOL     OW16402   2.926   1.045   2.760 -0.2517  0.0079 -0.3486
 1589SOL    HW116403   2.983   0.991   2.814  0.6376 -0.8614 -2.1503
 1589SOL    HW216404   2.844   1.050   2.809 -0.5150  0.8067 -0.8587
 1590SOL     OW16405   0.330   2.886   3.979  0.8477  0.5287  0.1300
 1590SOL    HW116406   0.263   2.873   3.912 -0.0822  2.5491  0.6765
 1590SOL    HW216407   0.309   2.973   4.011 -2.3850 -0.1042 -0.2855
 1591SOL     OW16408   0.303   2.434   7.262 -0.3446  0.4604  0.4504
 1591SOL    HW116409   0.245   2.473   7.196 -0.3466  1.1407  0.8574
 1591SOL    HW216410   0.336   2.508   7.312 -0.5304 -1.5085  3.4512
 1592SOL     OW16411   2.937   4.723  10.064 -0.0163 -0.2599 -1.0982
 1592SOL    HW116412   2.862   0.014  10.114  0.6823 -0.8256  0.3374
 1592SOL    HW216413   2.889   4.708   9.982 -0.6561  1.9971 -1.1622
 1593SOL     OW16414   3.462   2.436   5.226 -0.4600  0.2223  0.2092
 1593SOL    HW116415   3.534   2.453   5.287 -0.1705 -1.0106  0.2018
 1593SOL    HW216416   3.442   2.527   5.205 -0.8059  0.8210  3.0666
 1594SOL     OW16417   1.988   1.226  14.877 -0.5043  0.0461 -0.4258
 1594SOL    HW116418   2.083   1.215  14.869 -0.2070  0.7928  2.1526
 1594SOL    HW216419   1.972   1.255  14.966  0.6466  0.9035 -0.4947
 1595SOL     OW16420   3.560   2.242  14.616  0.7057 -0.0983 -0.1165
 1595SOL    HW116421   3.586   2.153  14.637  0.1380 -0.4936 -1.1031
 1595SOL    HW216422   3.467   2.224  14.627  0.4284  1.2276 -0.2418
 1596SOL     OW16423   2.549   2.397   6.764 -0.1819 -0.4301  0.3703
 1596SOL    HW116424   2.559   2.475   6.708 -3.1773  0.8681  1.6677
 1596SOL    HW216425   2.454   2.406   6.766 -0.3891 -1.6381 -4.5951
 1597SOL     OW16426   2.898   0.297   8.578 -0.3989  0.1660 -0.3199
 1597SOL    HW116427   2.962   0.319   8.511  0.0845 -0.3127 -0.0141
 1597SOL    HW216428   2.911   0.371   8.637 -0.1450 -1.5435  1.7854
 1598SOL     OW16429   3.303   1.584  17.479  0.5136  0.1786 -0.6286
 1598SOL    HW116430   3.226   1.641  17.475  1.3921  1.3211 -1.1064
 1598SOL    HW216431   3.344   1.615  17.398 -1.4740  0.8920 -1.3655
 1599SOL     OW16432   1.311   0.732   5.888 -0.2509  0.3270  0.3636
 1599SOL    HW116433   1.268   0.730   5.973 -1.9681  2.2264 -0.4587
 1599SOL    HW216434   1.302   0.639   5.865 -1.1525  0.1204  1.5730
 1600SOL     OW16435   0.841   2.822   2.638 -0.5163  0.3614  0.3579
 1600SOL    HW116436   0.904   2.876   2.591 -0.5246 -0.8928 -1.1019
 1600SOL    HW216437   0.893   2.796   2.714 -2.0488 -1.2022  0.8754
 1601SOL     OW16438   1.502   4.371  13.424 -0.3982  0.1655 -0.3103
 1601SOL    HW116439   1.593   4.372  13.397 -0.1922  2.7366  0.4398
 1601SOL    HW216440   1.449   4.352  13.347  1.0016 -0.2960 -1.1375
 1602SOL     OW16441   4.229   0.201   2.347 -0.1193  0.4398  0.3060
 1602SOL    HW116442   4.295   0.157   2.294 -0.1394 -2.1842  2.4295
 1602SOL    HW216443   4.227   0.145   2.425  1.3874 -2.5005 -1.7611
 1603SOL     OW16444   0.575   1.278   9.140 -0.0284  0.0666  0.2817
 1603SOL    HW116445   0.601   1.190   9.110  2.9826  0.4739  1.6518
 1603SOL    HW216446   0.502   1.302   9.083 -1.7243 -1.9376  1.6069
 1604SOL     OW16447   2.914   0.622   7.107  0.6017 -0.1083  0.0240
 1604SOL    HW116448   2.990   0.654   7.058 -1.6213  1.0200 -2.6260
 1604SOL    HW216449   2.860   0.701   7.101  1.3057  0.3909  0.2725
 1605SOL     OW16450   3.121   3.341   5.348  0.3784 -0.1129  0.2092
 1605SOL    HW116451   3.064   3.418   5.341  0.1588 -0.1231  1.9260
 1605SOL    HW216452   3.206   3.384   5.358 -0.5808  1.4614  1.6224
 1606SOL     OW16453   1.655   4.254   8.318 -0.5319 -0.1287  0.7984
 1606SOL    HW116454   1.690   4.228   8.233  1.0863 -0.7424  1.6577
 1606SOL    HW216455   1.638   4.347   8.300 -2.1481 -0.2298  1.7480
 1607SOL     OW16456   0.152   3.466   5.881 -0.1682 -0.0820 -0.1683
 1607SOL    HW116457   0.232   3.421   5.907 -0.2586  1.0785  2.1610
 1607SOL    HW216458   0.152   3.549   5.930  0.4322 -0.0489 -0.2238
 1608SOL     OW16459   1.089   3.410  15.963  0.2247 -0.3971 -0.2927
 1608SOL    HW116460   1.047   3.475  15.907  0.6941 -0.1085 -0.3070
 1608SOL    HW216461   1.090   3.326  15.917  1.3056 -0.5302 -0.0218
 1609SOL     OW16462   4.083   3.400  16.299  0.4721  0.8416 -0.3545
 1609SOL    HW116463   4.008   3.342  16.312  1.3446  0.3733  2.4984
 1609SOL    HW216464   4.043   3.486  16.308  0.9834  1.2120 -1.5326
 1610SOL     OW16465   1.307   3.989  11.556 -0.2720 -0.2745 -0.0108
 1610SOL    HW116466   1.396   4.023  11.551 -0.3254 -0.1385 -0.0553
 1610SOL    HW216467   1.243   4.058  11.537  0.9546  0.9359  0.2674
 1611SOL     OW16468   0.833   3.085   0.608 -0.2651  0.2134  0.4068
 1611SOL    HW116469   0.815   3.165   0.658  1.0438  0.6904  0.1053
 1611SOL    HW216470   0.855   3.118   0.521 -0.9754  1.1866  0.5952
 1612SOL     OW16471   3.688   2.717   5.423 -0.4146  0.4061 -0.6281
 1612SOL    HW116472   3.708   2.631   5.385  2.7641  1.4052 -1.1652
 1612SOL    HW216473   3.774   2.758   5.418  0.3270 -1.1864 -1.2127
 1613SOL     OW16474   0.867   0.967   7.206 -0.0404 -0.0430  0.1391
 1613SOL    HW116475   0.898   0.881   7.178 -0.8049  0.3947 -2.0538
 1613SOL    HW216476   0.930   1.027   7.167 -1.5034  0.7189 -1.0403
 1614SOL     OW16477   1.956   0.559   3.879  0.0004 -0.0687  0.1131
 1614SOL    HW116478   1.906   0.641   3.878 -1.4038 -0.9270 -0.5361
 1614SOL    HW216479   2.032   0.613   3.856 -0.2644 -0.3844 -1.5097
 1615SOL     OW16480   3.010   4.381  12.382 -0.5317  0.2231 -0.7274
 1615SOL    HW116481   2.997   4.392  12.288  2.3271 -1.1014 -1.2576
 1615SOL    HW216482   3.104   4.366  12.380 -0.1404  1.9670  4.0570
 1616SOL     OW16483   2.737   2.658   2.526 -0.4450  0.1610 -0.3089
 1616SOL    HW116484   2.752   2.563   2.529  2.0577  0.5827  0.4649
 1616SOL    HW216485   2.830   2.680   2.518  0.0480 -0.4811  3.7000
 1617SOL     OW16486   2.510   0.189   3.360  0.2634 -0.0738 -0.5256
 1617SOL    HW116487   2.554   0.106   3.340 -1.5796 -0.9658 -0.8700
 1617SOL    HW216488   2.486   0.167   3.450  1.3502 -1.7242 -0.6356
 1618SOL     OW16489   4.427   2.848   4.985 -0.4149  0.3231  0.0418
 1618SOL    HW116490   4.518   2.821   5.001 -0.5855  1.5742  3.0535
 1618SOL    HW216491   4.383   2.791   5.048  1.4280 -1.2865 -0.1211
 1619SOL     OW16492   2.575   4.518  13.817 -0.3497 -0.3171  0.5507
 1619SOL    HW116493   2.591   4.594  13.874  0.9475 -0.1772 -0.0015
 1619SOL    HW216494   2.565   4.551  13.728 -2.0298  0.8959  1.1710
 1620SOL     OW16495   3.421   2.416  15.759 -0.0147 -0.1625  0.0873
 1620SOL    HW116496   3.351   2.392  15.820  0.5164 -0.9869  0.3759
 1620SOL    HW216497   3.480   2.451  15.826 -2.0577  2.5613  0.4502
 1621SOL     OW16498   1.811   1.606   7.526  0.4537  0.2485  0.0140
 1621SOL    HW116499   1.734   1.601   7.469 -0.9082 -1.5552  2.0067
 1621SOL    HW216500   1.769   1.640   7.605 -0.5212  0.4257 -0.5803
 1622SOL     OW16501   1.256   2.722   8.829 -0.5106 -0.5967 -0.2401
 1622SOL    HW116502   1.283   2.674   8.908 -1.1639 -0.4768  0.0610
 1622SOL    HW216503   1.168   2.685   8.826 -1.3521  1.3738  0.5811
 1623SOL     OW16504   4.004   2.470   6.321  0.1606 -0.3885 -0.2131
 1623SOL    HW116505   3.985   2.454   6.414 -0.0517  3.4812  0.4110
 1623SOL    HW216506   4.043   2.384   6.308  4.6015  1.5075  0.5682
 1624SOL     OW16507   4.039   0.735   4.492 -0.8110 -0.1839  0.2211
 1624SOL    HW116508   3.993   0.651   4.493 -1.4308  0.1626  0.3486
 1624SOL    HW216509   3.985   0.801   4.534 -0.0760  0.0709  0.7702
 1625SOL     OW16510   0.219   2.431   2.001  0.7239  0.2111  0.2560
 1625SOL    HW116511   0.295   2.386   1.963 -0.5221 -0.0759 -1.8695
 1625SOL    HW216512   0.252   2.521   2.007  2.4629 -0.4552  0.9418
 1626SOL     OW16513   0.258   0.068   3.575  0.5892 -0.1195 -0.1361
 1626SOL    HW116514   0.294   0.101   3.657 -1.4782  0.3500  0.5967
 1626SOL    HW216515   0.218   4.726   3.597  0.6183  0.9384  4.0775
 1627SOL     OW16516   2.108   4.259   3.184  0.0775 -0.7759  0.1521
 1627SOL    HW116517   2.187   4.310   3.201  1.2138 -2.1258 -1.2122
 1627SOL    HW216518   2.134   4.167   3.193  0.4024 -0.5918  1.1245
 1628SOL     OW16519   3.862   3.005   8.708 -0.4922 -0.3508  0.4221
 1628SOL    HW116520   3.833   3.092   8.681 -0.2105  0.4261  2.6335
 1628SOL    HW216521   3.887   3.029   8.797  0.9830 -0.1101 -0.0750
 1629SOL     OW16522   4.545   1.993  14.562 -0.2435 -0.2509 -0.8471
 1629SOL    HW116523   4.612   2.013  14.628 -0.1154  2.5539 -1.8390
 1629SOL    HW216524   4.599   1.944  14.502  0.9705 -0.0913  0.1170
 1630SOL     OW16525   0.460   1.826  16.094  0.0803 -0.5017 -0.3081
 1630SOL    HW116526   0.392   1.881  16.054  1.6872  1.9667  0.3074
 1630SOL    HW216527   0.400   1.753  16.105  0.4770 -0.8829 -0.6536
 1631SOL     OW16528   1.468   3.940  15.217  0.2336  0.1966  0.2314
 1631SOL    HW116529   1.454   4.012  15.278 -3.0556 -1.4484  1.4124
 1631SOL    HW216530   1.562   3.923  15.224  0.4772  0.9849 -1.0705
 1632SOL     OW16531   2.542   2.753   3.456 -0.1457  0.7987 -0.0217
 1632SOL    HW116532   2.552   2.789   3.368 -1.7662  1.6263  0.1232
 1632SOL    HW216533   2.600   2.807   3.509  1.8177  0.4151 -1.7841
 1633SOL     OW16534   2.289   2.456   6.769  0.4228 -0.6091  0.4799
 1633SOL    HW116535   2.199   2.424   6.778  0.6695 -0.8192  2.2837
 1633SOL    HW216536   2.276   2.535   6.717 -0.4932 -1.2366 -0.2337
 1634SOL     OW16537   2.043   1.733   1.257  0.1769  0.0616 -0.1116
 1634SOL    HW116538   1.961   1.772   1.288  1.7162  1.6467  1.9408
 1634SOL    HW216539   2.108   1.802   1.266  1.4156 -1.0841 -0.2726
 1635SOL     OW16540   4.024   4.018   9.601  0.6353  0.7710 -0.7880
 1635SOL    HW116541   4.077   4.029   9.680 -0.9815  0.8056  0.2724
 1635SOL    HW216542   3.939   4.052   9.629  0.8011  0.7721 -0.2790
 1636SOL     OW16543   2.021   2.834   6.408 -0.2544  0.6976 -0.0963
 1636SOL    HW116544   2.063   2.921   6.411 -1.2940  1.1191  2.3678
 1636SOL    HW216545   1.944   2.861   6.359 -0.6380 -0.2639 -0.0088
 1637SOL     OW16546   1.555   0.894   5.568 -0.7689  0.0380  0.8751
 1637SOL    HW116547   1.528   0.814   5.524  0.1572  0.0916  0.2209
 1637SOL    HW216548   1.479   0.920   5.621 -1.4694  0.3206 -0.2650
 1638SOL     OW16549   4.026   3.797   6.230  0.1205 -0.4843  0.5008
 1638SOL    HW116550   4.109   3.801   6.277  0.2438  1.2514  0.1379
 1638SOL    HW216551   4.054   3.762   6.145  1.3546 -1.0789  1.1608
 1639SOL     OW16552   0.342   2.099   7.348 -0.5989  0.1817  0.3347
 1639SOL    HW116553   0.407   2.153   7.393 -1.4908  0.0703  1.7769
 1639SOL    HW216554   0.301   2.060   7.425 -0.1883  0.2530  0.5890
 1640SOL     OW16555   4.518   1.458   3.785 -0.7309  0.1420  0.0736
 1640SOL    HW116556   4.597   1.406   3.771  0.1822  1.8418 -0.9833
 1640SOL    HW216557   4.501   1.499   3.701  1.8603  1.2550  0.1215
 1641SOL     OW16558   1.945   2.138   4.462 -0.1507 -0.0901  0.6050
 1641SOL    HW116559   2.009   2.193   4.415 -1.8705  1.1599 -0.2655
 1641SOL    HW216560   1.975   2.048   4.448  3.0597  1.1153 -0.3228
 1642SOL     OW16561   1.077   3.396  12.385  0.0140 -0.4917 -0.1700
 1642SOL    HW116562   1.136   3.457  12.339  1.1136 -1.2512  0.2335
 1642SOL    HW216563   1.012   3.458  12.417 -0.8810 -0.4244 -2.1372
 1643SOL     OW16564   3.550   0.667   2.914  0.4135 -0.1951 -0.0195
 1643SOL    HW116565   3.523   0.754   2.943  3.1598  1.1377 -1.4806
 1643SOL    HW216566   3.526   0.661   2.822  1.3696  0.3730 -0.3089
 1644SOL     OW16567   0.798   1.175   7.976  0.0604 -0.9401  0.5077
 1644SOL    HW116568   0.716   1.129   7.957 -0.2060  0.1351 -0.9245
 1644SOL    HW216569   0.786   1.260   7.933  1.8813 -0.6706  0.5558
 1645SOL     OW16570   2.492   4.563  10.963 -0.1028 -0.5028 -0.3338
 1645SOL    HW116571   2.489   4.530  11.053 -0.3346  0.9585  0.1830
 1645SOL    HW216572   2.577   4.606  10.963 -1.7048  2.6262  0.3880
 1646SOL     OW16573   4.697   3.937   6.517 -0.6200 -0.5510  0.4510
 1646SOL    HW116574   4.655   3.925   6.603 -0.3053 -2.0648  0.3923
 1646SOL    HW216575   0.044   3.932   6.550 -0.9566  0.6218  1.5321
 1647SOL     OW16576   4.400   0.357  12.740  0.2339  0.0006  0.0966
 1647SOL    HW116577   4.433   0.315  12.661 -1.4683 -0.6705 -0.2466
 1647SOL    HW216578   4.465   0.425  12.758  0.6002 -0.5631  0.9342
 1648SOL     OW16579   3.069   4.427  14.488 -0.1534  0.2285  0.5923
 1648SOL    HW116580   3.163   4.418  14.500 -0.5057  0.2739  3.3509
 1648SOL    HW216581   3.074   4.436  14.393  0.2199  4.7991  1.0491
 1649SOL     OW16582   0.077   3.371   8.404 -0.2409  0.0807 -0.1535
 1649SOL    HW116583   0.160   3.336   8.372  0.4175  0.2825  1.3079
 1649SOL    HW216584   0.054   3.440   8.341 -3.0590  0.5268  1.3815
 1650SOL     OW16585   1.015   3.150   9.890 -0.1889  0.1194  0.0129
 1650SOL    HW116586   0.990   3.095   9.816 -1.2046  0.8684 -0.1967
 1650SOL    HW216587   1.060   3.084   9.944  2.5408  0.0201 -2.4074
 1651SOL     OW16588   4.579   3.064   9.246  0.2895  0.0576  0.4658
 1651SOL    HW116589   4.484   3.059   9.256  0.1820  1.7832  0.2718
 1651SOL    HW216590   4.587   3.145   9.295 -1.9714  2.0786 -2.4929
 1652SOL     OW16591   2.531   1.561   0.805 -0.1051 -0.6143 -0.6067
 1652SOL    HW116592   2.500   1.597   0.722 -0.7807  0.9603  0.3412
 1652SOL    HW216593   2.603   1.623   0.812 -1.5282  0.8213  1.2680
 1653SOL     OW16594   0.453   0.666   6.211 -0.0246 -0.3107 -0.2007
 1653SOL    HW116595   0.519   0.649   6.278  0.7518  0.2203 -0.8118
 1653SOL    HW216596   0.498   0.606   6.151  1.7553 -1.1287  1.9884
 1654SOL     OW16597   1.433   0.844  17.566  0.6901  0.1586 -0.5208
 1654SOL    HW116598   1.470   0.787  17.634  0.9719  1.3068  0.2891
 1654SOL    HW216599   1.342   0.837  17.593  0.0109 -1.4304 -3.2420
 1655SOL     OW16600   1.801   3.237   0.251  0.2970 -0.7886 -0.0751
 1655SOL    HW116601   1.893   3.252   0.273  0.5095 -1.2264 -0.6581
 1655SOL    HW216602   1.766   3.326   0.251  0.5381 -0.6941 -0.1087
 1656SOL     OW16603   1.059   1.414  17.147 -0.1020  0.2556 -0.2148
 1656SOL    HW116604   1.135   1.421  17.088  0.7560 -0.8135  0.7751
 1656SOL    HW216605   1.104   1.431  17.230  0.3839 -0.1024 -0.4043
 1657SOL     OW16606   0.866   4.298   8.447 -0.0468 -0.4209 -0.3512
 1657SOL    HW116607   0.896   4.346   8.525 -2.0831 -0.0867  0.2410
 1657SOL    HW216608   0.818   4.369   8.403  0.0574  0.5443  1.0712
 1658SOL     OW16609   3.193   2.281   4.451  0.3499 -0.7736  0.4254
 1658SOL    HW116610   3.238   2.248   4.373  1.7574 -3.0784  2.2109
 1658SOL    HW216611   3.249   2.357   4.467 -0.1319 -0.4453  0.5587
 1659SOL     OW16612   1.304   4.630   1.864 -0.4381 -0.1069  0.2337
 1659SOL    HW116613   1.284   4.537   1.858 -1.1906 -0.0604  1.8308
 1659SOL    HW216614   1.394   4.613   1.891 -1.0208 -2.9402  0.3681
 1660SOL     OW16615   1.901   3.293  12.385 -0.3903  0.1846  0.0071
 1660SOL    HW116616   1.828   3.232  12.387 -0.1020 -0.0882  1.7048
 1660SOL    HW216617   1.952   3.247  12.317  0.7312 -1.6122  2.0673
 1661SOL     OW16618   3.206   3.074  12.922  0.5490  0.2286 -0.1445
 1661SOL    HW116619   3.191   2.984  12.953 -1.1985  0.0703 -1.4637
 1661SOL    HW216620   3.278   3.075  12.860  1.9056 -2.2433  1.3579
 1662SOL     OW16621   0.808   3.561   6.350  0.2390 -0.6543  0.5127
 1662SOL    HW116622   0.782   3.477   6.388 -0.8546 -0.4946  0.1321
 1662SOL    HW216623   0.851   3.601   6.425  1.5825  0.7897 -1.0401
 1663SOL     OW16624   1.997   0.951   8.599 -0.1227  0.3541  0.0648
 1663SOL    HW116625   2.056   1.020   8.569 -0.4851  0.7578  0.2916
 1663SOL    HW216626   1.948   0.940   8.518  2.2399 -1.8911 -1.0675
 1664SOL     OW16627   4.026   0.987   5.822 -1.3283 -0.4115 -0.2165
 1664SOL    HW116628   3.939   0.999   5.861 -0.9632 -2.8687  1.3780
 1664SOL    HW216629   4.037   0.892   5.833 -0.2912 -0.0618  1.7462
 1665SOL     OW16630   0.916   3.189   4.067 -0.8293  0.2688  0.0341
 1665SOL    HW116631   0.981   3.135   4.112 -1.9625 -1.7016 -0.7071
 1665SOL    HW216632   0.870   3.126   4.012  0.4818  0.3757 -1.1626
 1666SOL     OW16633   3.309   3.998   5.496  0.0815 -0.0161 -0.3792
 1666SOL    HW116634   3.237   3.958   5.447  0.7632 -0.4783 -1.0097
 1666SOL    HW216635   3.262   4.081   5.496  1.8674  0.9953  0.3676
 1667SOL     OW16636   4.545   1.746  10.576 -0.7529 -0.4720  0.2129
 1667SOL    HW116637   4.510   1.665  10.539  2.6313 -2.0487  0.4807
 1667SOL    HW216638   4.463   1.776  10.616 -0.1161 -1.2025  2.0992
 1668SOL     OW16639   4.053   0.508   2.648 -0.0033  0.1176  0.1836
 1668SOL    HW116640   4.040   0.541   2.559 -2.0854 -1.0339  0.0642
 1668SOL    HW216641   4.018   0.419   2.645 -0.7225  0.4091 -0.1263
 1669SOL     OW16642   4.335   0.059   8.484 -0.4861  0.3646 -0.2030
 1669SOL    HW116643   4.257   0.015   8.517  0.7087 -1.4459  0.2327
 1669SOL    HW216644   4.314   0.077   8.392 -1.5726 -1.4989 -0.3205
 1670SOL     OW16645   3.985   0.499   8.790  0.5292  0.0390 -0.3109
 1670SOL    HW116646   3.950   0.412   8.769  1.4893  0.6103 -4.4322
 1670SOL    HW216647   3.987   0.497   8.885  0.5288 -0.0007 -0.3117
 1671SOL     OW16648   2.918   3.517   6.367 -0.3036  0.3433  0.3360
 1671SOL    HW116649   2.929   3.612   6.367  3.5914 -0.0993 -0.7902
 1671SOL    HW216650   2.833   3.507   6.410 -0.0975 -0.2550  0.5930
 1672SOL     OW16651   4.701   4.335  11.790 -0.5173 -0.0130  0.2346
 1672SOL    HW116652   0.005   4.408  11.832 -1.4076 -0.4099  1.8932
 1672SOL    HW216653   4.629   4.332  11.853 -0.0541 -0.3374  0.7446
 1673SOL     OW16654   3.467   2.899   0.119 -0.5478 -0.0563  0.9503
 1673SOL    HW116655   3.550   2.920   0.162  0.3743 -0.7249 -0.4871
 1673SOL    HW216656   3.405   2.885   0.189 -2.5872  0.5203 -0.7360
 1674SOL     OW16657   2.602   2.127   0.968  0.1739  0.0582  0.1302
 1674SOL    HW116658   2.539   2.187   0.929 -0.1513 -1.0806 -1.1079
 1674SOL    HW216659   2.544   2.075   1.024 -0.3352 -0.5227 -0.9350
 1675SOL     OW16660   2.991   4.181   0.444 -0.1019  0.0696 -0.5741
 1675SOL    HW116661   2.896   4.173   0.430  0.0912 -0.1480 -1.7351
 1675SOL    HW216662   2.997   4.222   0.530  1.5774 -0.1242 -0.6020
 1676SOL     OW16663   2.151   1.937  11.845  0.9008  0.6122 -0.5000
 1676SOL    HW116664   2.068   1.892  11.862  2.5069 -1.9495  0.5319
 1676SOL    HW216665   2.210   1.875  11.888  1.6141  1.0184 -0.8966
 1677SOL     OW16666   4.559   4.014  15.926 -0.3855  0.1434 -0.4405
 1677SOL    HW116667   4.612   4.083  15.886 -0.4938  0.4447 -0.0702
 1677SOL    HW216668   4.598   3.934  15.891 -0.5474 -0.6747  1.2222
 1678SOL     OW16669   3.747   4.301   3.946  0.0156  0.2021  0.0431
 1678SOL    HW116670   3.666   4.251   3.938 -0.2926  0.4150  1.9696
 1678SOL    HW216671   3.775   4.323   3.857  0.0359  0.0800  0.0184
 1679SOL     OW16672   1.843   2.175   0.005 -0.0799  0.1971  0.2969
 1679SOL    HW116673   1.874   2.195  17.684 -2.5048  1.6200 -0.2184
 1679SOL    HW216674   1.914   2.118   0.035  0.2920 -0.4974 -1.8725
 1680SOL     OW16675   1.702   2.260   4.405 -0.1025 -0.1468  0.5622
 1680SOL    HW116676   1.745   2.317   4.341 -0.6099 -1.3909 -0.8852
 1680SOL    HW216677   1.780   2.217   4.439  0.2587 -0.8778 -1.1697
 1681SOL     OW16678   3.124   4.098   9.480  0.1375 -0.0175  0.3926
 1681SOL    HW116679   3.208   4.083   9.524  0.4313  1.2707  0.2737
 1681SOL    HW216680   3.145   4.156   9.406  1.6853 -1.7492 -0.5121
 1682SOL     OW16681   1.115   4.233   4.585 -0.0915  0.0900  0.2944
 1682SOL    HW116682   1.187   4.176   4.559 -0.1221 -0.4873  1.4552
 1682SOL    HW216683   1.145   4.286   4.659 -1.3792  0.7997  0.3205
 1683SOL     OW16684   2.440   1.337   3.045 -0.2183 -0.0131  0.9978
 1683SOL    HW116685   2.408   1.284   3.118  1.0258  1.3418  2.5094
 1683SOL    HW216686   2.359   1.384   3.021 -0.4725  0.0889  2.0647
 1684SOL     OW16687   3.507   3.344   7.913  0.4554 -0.0393 -0.3098
 1684SOL    HW116688   3.429   3.290   7.926 -0.4025  1.1251 -0.6844
 1684SOL    HW216689   3.570   3.273   7.927 -0.4028 -0.8653 -0.5993
 1685SOL     OW16690   0.780   1.922   0.355  0.1872  0.1998 -0.1471
 1685SOL    HW116691   0.854   1.866   0.376  0.9593  1.7563  1.3113
 1685SOL    HW216692   0.708   1.859   0.353 -0.2930  0.6998  1.4415
 1686SOL     OW16693   1.429   4.627   6.634 -0.0712  0.3713 -0.7465
 1686SOL    HW116694   1.365   4.556   6.643  0.8493 -0.6403 -2.0947
 1686SOL    HW216695   1.401   4.672   6.554 -1.5102  0.9508  0.0972
 1687SOL     OW16696   0.531   3.752  12.203  0.2142  0.2848  1.0009
 1687SOL    HW116697   0.537   3.835  12.155  0.9972 -0.4044 -0.0830
 1687SOL    HW216698   0.440   3.725  12.195  0.0055  0.4401  2.7930
 1688SOL     OW16699   4.366   3.593   3.484 -0.1634 -0.3690 -0.5396
 1688SOL    HW116700   4.328   3.537   3.415 -0.6531 -1.1765  0.3758
 1688SOL    HW216701   4.370   3.529   3.556 -0.2169 -0.8049 -0.9214
 1689SOL     OW16702   3.984   4.256  11.236  0.2603 -0.4049  0.1248
 1689SOL    HW116703   3.936   4.274  11.155  0.3921 -0.3573  0.0579
 1689SOL    HW216704   3.920   4.299  11.293 -1.4139 -2.3933 -0.2350
 1690SOL     OW16705   3.248   0.722   7.455  0.0820 -0.9029  0.1210
 1690SOL    HW116706   3.271   0.700   7.365 -0.7941 -1.8093  0.1140
 1690SOL    HW216707   3.328   0.695   7.499  0.5777 -0.2382 -0.3571
 1691SOL     OW16708   0.343   1.885   4.177 -0.0971 -0.5319 -0.3258
 1691SOL    HW116709   0.294   1.804   4.163 -2.4130  0.6280  1.0157
 1691SOL    HW216710   0.404   1.854   4.244  0.0691  0.2352 -0.1217
 1692SOL     OW16711   0.850   0.656   5.764  0.1544  0.7865 -0.6123
 1692SOL    HW116712   0.902   0.610   5.829  1.2532 -1.1931 -2.8909
 1692SOL    HW216713   0.913   0.679   5.695  0.5639  2.0638  0.1903
 1693SOL     OW16714   1.675   3.234   4.039  0.1577 -0.3202  0.2819
 1693SOL    HW116715   1.698   3.300   4.105  0.4812  2.0911 -2.2501
 1693SOL    HW216716   1.685   3.147   4.079  1.3161 -0.6657 -0.7441
 1694SOL     OW16717   4.363   0.455   6.011 -0.4781 -0.1186  0.7932
 1694SOL    HW116718   4.291   0.478   6.070  1.3032  3.1373  1.6937
 1694SOL    HW216719   4.379   0.366   6.042  0.7802  0.3708  1.5295
 1695SOL     OW16720   0.742   4.585   0.784  0.4484 -0.0862 -0.1809
 1695SOL    HW116721   0.743   4.610   0.877  0.2733 -1.2265  0.1316
 1695SOL    HW216722   0.786   4.660   0.745 -1.1499  0.6193 -0.6206
 1696SOL     OW16723   2.797   0.724   6.598  0.1075 -0.0355  0.2261
 1696SOL    HW116724   2.776   0.657   6.663  0.1299 -0.0911  0.1754
 1696SOL    HW216725   2.829   0.787   6.662 -3.0148  3.2811 -1.3742
 1697SOL     OW16726   0.222   4.543   6.197 -0.1499 -0.2440  0.0268
 1697SOL    HW116727   0.232   4.551   6.292  0.9235 -2.0940  0.0668
 1697SOL    HW216728   0.227   4.635   6.170  0.0162 -1.4238 -3.9451
 1698SOL     OW16729   2.661   4.321   5.326 -0.3893  0.2147  0.5529
 1698SOL    HW116730   2.625   4.408   5.343  1.1116  0.7635  0.9191
 1698SOL    HW216731   2.726   4.312   5.395  1.1864 -3.1414 -1.3519
 1699SOL     OW16732   1.733   0.576   8.621 -0.3099 -0.1167 -0.5180
 1699SOL    HW116733   1.663   0.626   8.579 -0.0785  0.8035  0.1936
 1699SOL    HW216734   1.685   0.528   8.689  0.8826  0.0174  0.4230
 1700SOL     OW16735   2.742   4.702   3.701  0.3806 -0.2408  0.1186
 1700SOL    HW116736   2.790   4.728   3.779 -0.4923  2.1218 -0.1238
 1700SOL    HW216737   2.745   4.607   3.690 -0.1927 -0.5473  2.6296
 1701SOL     OW16738   1.182   3.833   0.540  0.3402 -0.2721 -0.4447
 1701SOL    HW116739   1.218   3.843   0.628 -1.5778 -1.3640  0.4713
 1701SOL    HW216740   1.226   3.900   0.488  0.9707 -0.2861  0.0716
 1702SOL     OW16741   2.774   3.548  11.642 -0.0576 -0.1086  0.4884
 1702SOL    HW116742   2.698   3.541  11.700  1.5247 -2.1250  2.3494
 1702SOL    HW216743   2.741   3.605  11.573  0.9861  0.4106  0.4259
 1703SOL     OW16744   4.496   1.735   0.864  0.5771  0.4758  0.4670
 1703SOL    HW116745   4.466   1.826   0.869 -0.5783  0.0251  1.8328
 1703SOL    HW216746   4.438   1.697   0.798  0.4967  0.8373  0.3245
 1704SOL     OW16747   0.843   1.873   4.058  0.0713  0.3902 -0.0643
 1704SOL    HW116748   0.894   1.947   4.025 -1.4626  0.2838 -2.6650
 1704SOL    HW216749   0.898   1.834   4.126  1.4410  0.0600 -1.3665
 1705SOL     OW16750   2.932   0.884   5.895  0.2696  0.2470  0.2144
 1705SOL    HW116751   2.887   0.812   5.939  0.2621  0.6484  0.8752
 1705SOL    HW216752   2.934   0.867   5.801 -3.8836  0.5727  0.0731
 1706SOL     OW16753   3.289   2.933  11.334 -0.0981  0.8137 -0.7156
 1706SOL    HW116754   3.209   2.883  11.349  0.0098  0.4960 -1.2068
 1706SOL    HW216755   3.334   2.871  11.277  1.0191 -0.1290  1.1624
 1707SOL     OW16756   3.253   3.455   4.314  0.6408 -0.0564  0.2959
 1707SOL    HW116757   3.198   3.387   4.353  0.3760  0.8555  1.5183
 1707SOL    HW216758   3.322   3.421   4.258  0.6955  1.2844 -0.4467
 1708SOL     OW16759   3.625   1.680   9.102 -0.4602 -0.0907 -0.2786
 1708SOL    HW116760   3.603   1.760   9.150 -0.1665 -1.2080  1.7366
 1708SOL    HW216761   3.718   1.676   9.124 -0.8224  1.2248  1.4559
 1709SOL     OW16762   0.205   2.209   1.475 -0.4184  0.3520 -0.3147
 1709SOL    HW116763   0.237   2.120   1.488 -1.6463  0.0228  0.3558
 1709SOL    HW216764   0.226   2.230   1.384  1.7439  1.9560  0.5245
 1710SOL     OW16765   4.491   1.596   6.696 -0.0699  0.2120  0.7573
 1710SOL    HW116766   4.505   1.669   6.635  1.9466 -0.7520  0.0634
 1710SOL    HW216767   4.493   1.530   6.627 -2.1284  0.4122  0.5102
 1711SOL     OW16768   4.594   3.170  13.533  0.1025  0.2784 -0.2449
 1711SOL    HW116769   4.590   3.117  13.453  1.9397  1.1889 -0.9496
 1711SOL    HW216770   4.511   3.138  13.570  1.1583  0.1713  2.0101
 1712SOL     OW16771   0.917   0.015   7.843 -0.0373  0.0934  0.0280
 1712SOL    HW116772   0.959   0.078   7.783  0.2779 -0.5046 -0.3844
 1712SOL    HW216773   0.916   0.069   7.922  0.8825 -1.8896  1.3771
 1713SOL     OW16774   3.094   0.223  13.452 -0.1803  0.0545 -0.0158
 1713SOL    HW116775   3.153   0.159  13.493  0.2637  0.3968 -0.1183
 1713SOL    HW216776   3.094   0.297  13.513  0.6513  0.9128 -1.0851
 1714SOL     OW16777   3.850   1.419   8.621  0.3279 -0.1923 -0.1721
 1714SOL    HW116778   3.799   1.480   8.674  0.8845  0.1517 -0.0275
 1714SOL    HW216779   3.935   1.465   8.621 -1.0284  2.2848  1.1272
 1715SOL     OW16780   1.641   0.676  11.575  0.4605  0.3583  0.1556
 1715SOL    HW116781   1.605   0.727  11.503 -1.5915 -1.6939 -0.2684
 1715SOL    HW216782   1.711   0.628  11.531  0.5966  1.7473 -1.1467
 1716SOL     OW16783   0.426   4.643   6.926  0.6262 -0.1220 -0.2799
 1716SOL    HW116784   0.331   4.652   6.930  0.6363 -0.4887  0.8009
 1716SOL    HW216785   0.447   4.640   7.019 -0.1810  1.1409 -0.0617
 1717SOL     OW16786   1.673   4.326  15.896 -0.3367  0.2113  0.4355
 1717SOL    HW116787   1.656   4.238  15.931 -0.6610  0.0370 -0.1562
 1717SOL    HW216788   1.592   4.343  15.849 -0.2067  2.5174  1.0453
 1718SOL     OW16789   2.005   3.474   7.724 -0.3670 -0.1912  0.5400
 1718SOL    HW116790   2.062   3.451   7.650  0.8646  4.7366  0.0040
 1718SOL    HW216791   1.930   3.415   7.716 -0.1005 -0.4372 -0.2141
 1719SOL     OW16792   3.591   2.548   7.533  0.0043 -0.1114 -0.7945
 1719SOL    HW116793   3.568   2.471   7.481  0.0435  1.5404 -3.2604
 1719SOL    HW216794   3.663   2.573   7.475  1.3476  0.1423  0.9749
 1720SOL     OW16795   3.378   4.634   2.545 -0.1988  0.1782  0.1239
 1720SOL    HW116796   3.401   4.657   2.635 -1.1754  2.1289 -0.1189
 1720SOL    HW216797   3.462   4.633   2.499 -0.6448  2.3678 -0.7612
 1721SOL     OW16798   3.128   4.040   2.546 -0.0236 -0.1700 -0.3056
 1721SOL    HW116799   3.045   3.995   2.562 -1.7089  2.1739 -2.4560
 1721SOL    HW216800   3.109   4.114   2.489  1.8187  0.5574  0.0256
 1722SOL     OW16801   2.970   2.492   5.620  0.1260  0.2422 -0.5753
 1722SOL    HW116802   2.971   2.445   5.703  2.5575 -2.0518 -1.9083
 1722SOL    HW216803   3.051   2.456   5.583  1.7331  1.9406  1.2799
 1723SOL     OW16804   3.244   4.412  14.012 -0.1362  0.2952 -0.2328
 1723SOL    HW116805   3.190   4.419  14.091  0.4961  1.0076  0.1313
 1723SOL    HW216806   3.175   4.428  13.948  0.6535 -2.7087 -1.8258
 1724SOL     OW16807   1.640   0.753   2.037  0.0462  0.8344  0.2091
 1724SOL    HW116808   1.552   0.775   2.069  0.1542  1.3633  0.1360
 1724SOL    HW216809   1.676   0.841   2.046 -1.1803  1.4990 -1.3945
 1725SOL     OW16810   1.438   3.279   7.588 -0.5826  0.1327 -0.9124
 1725SOL    HW116811   1.490   3.217   7.535 -1.7771 -1.4730 -0.1901
 1725SOL    HW216812   1.371   3.219   7.620  0.2061  1.2757  2.7878
 1726SOL     OW16813   4.524   4.539   3.228  0.6186 -0.2176 -0.3105
 1726SOL    HW116814   4.566   4.582   3.302 -0.0764  0.1040 -0.1038
 1726SOL    HW216815   4.570   4.455   3.229  1.3113  0.1909  3.0263
 1727SOL     OW16816   0.239   3.082   7.747  0.0953 -0.2187 -0.3657
 1727SOL    HW116817   0.224   3.166   7.791  1.2976  0.5517 -1.4157
 1727SOL    HW216818   0.158   3.072   7.697 -1.2189  2.1011  1.3226
 1728SOL     OW16819   3.062   2.615   5.259 -0.4286 -0.0916 -0.0529
 1728SOL    HW116820   3.078   2.702   5.296  0.9486 -0.0856 -0.6699
 1728SOL    HW216821   2.967   2.628   5.260 -0.3332  0.2238  2.9719
 1729SOL     OW16822   3.373   0.252  13.709 -0.2819  0.3008 -0.1980
 1729SOL    HW116823   3.299   0.192  13.720  0.6367 -0.7964 -0.0336
 1729SOL    HW216824   3.326   0.333  13.691 -1.5600  0.2758  2.9782
 1730SOL     OW16825   0.209   2.188  13.906  0.3535 -0.1163 -0.6034
 1730SOL    HW116826   0.227   2.105  13.862 -0.6300 -1.7314  2.0484
 1730SOL    HW216827   0.213   2.146  13.992 -0.1064 -0.5098 -0.7717
 1731SOL     OW16828   2.055   3.827   2.383  0.4863  0.2282 -0.7878
 1731SOL    HW116829   2.065   3.883   2.305  3.6123 -0.2185 -0.7164
 1731SOL    HW216830   1.983   3.772   2.353  0.8062  0.2191 -1.5553
 1732SOL     OW16831   2.305   0.534   4.409 -0.3284  0.0271  0.2324
 1732SOL    HW116832   2.277   0.550   4.499 -4.0406  0.8472 -1.0646
 1732SOL    HW216833   2.346   0.620   4.406  2.0382 -1.1395 -0.3125
 1733SOL     OW16834   3.056   1.092   4.902 -0.1142 -0.0882  0.1268
 1733SOL    HW116835   3.083   1.121   4.989 -0.2233 -0.5280  0.3095
 1733SOL    HW216836   3.134   1.113   4.851  1.3208 -2.0884  1.5252
 1734SOL     OW16837   4.173   4.276   2.267 -0.5726 -0.3194 -0.0385
 1734SOL    HW116838   4.129   4.345   2.218 -1.1644 -0.0973  0.8055
 1734SOL    HW216839   4.125   4.266   2.349  0.9112 -0.3769  0.8173
 1735SOL     OW16840   3.534   2.460   1.954  0.1799  0.4579 -0.0546
 1735SOL    HW116841   3.500   2.434   2.040 -0.0788  0.4116 -0.1706
 1735SOL    HW216842   3.616   2.412   1.963  1.0483  1.8393 -0.6131
 1736SOL     OW16843   3.674   3.340   7.545  0.4871 -0.2717 -0.4043
 1736SOL    HW116844   3.737   3.344   7.617 -0.2893 -0.2568  0.2731
 1736SOL    HW216845   3.640   3.250   7.548  1.4559 -0.5105  3.0885
 1737SOL     OW16846   1.198   0.342   6.277 -0.2706 -0.0765 -0.4506
 1737SOL    HW116847   1.215   0.425   6.322 -0.7757  0.4593 -1.2426
 1737SOL    HW216848   1.230   0.286   6.347  0.0703  2.4129  1.3768
 1738SOL     OW16849   4.030   0.641   7.007 -0.4848 -0.0271 -0.1984
 1738SOL    HW116850   3.941   0.615   6.981 -0.2733 -1.6253  0.6554
 1738SOL    HW216851   4.080   0.601   6.936  1.7244  1.0465  0.7440
 1739SOL     OW16852   2.260   0.859   8.670  0.3707  0.1383 -0.2641
 1739SOL    HW116853   2.295   0.925   8.731  1.3113 -0.5751 -0.0312
 1739SOL    HW216854   2.171   0.893   8.665  0.8836  1.4334 -0.6828
 1740SOL     OW16855   2.035   0.270  16.226 -0.2247 -0.2454 -0.4711
 1740SOL    HW116856   2.088   0.226  16.293  1.8626  3.2339  0.1655
 1740SOL    HW216857   1.995   0.345  16.271 -2.2977 -1.1965 -0.7244
 1741SOL     OW16858   0.037   3.557   7.329 -0.7656 -0.1534 -0.0090
 1741SOL    HW116859   4.722   3.533   7.256  2.3267  0.3833 -2.6609
 1741SOL    HW216860   4.722   3.546   7.404  1.0185  1.1116  1.5467
 1742SOL     OW16861   1.616   2.326  14.226 -0.1757 -0.1774  0.0848
 1742SOL    HW116862   1.550   2.396  14.217  0.9041  0.7569 -0.5793
 1742SOL    HW216863   1.683   2.374  14.275  0.6285  1.4587 -2.5678
 1743SOL     OW16864   4.334   4.116   2.123  0.2434 -0.2510  0.1935
 1743SOL    HW116865   4.331   4.038   2.179  0.1724  0.5778  1.3446
 1743SOL    HW216866   4.281   4.177   2.173 -3.0442 -2.5246 -0.4902
 1744SOL     OW16867   1.766   3.472   8.145 -0.0086 -0.0725  0.0771
 1744SOL    HW116868   1.686   3.451   8.097  0.1804 -3.1591  1.1529
 1744SOL    HW216869   1.736   3.469   8.235  1.0483  2.6326  0.5276
 1745SOL     OW16870   0.500   3.912   2.513  0.9827  0.2073 -0.0119
 1745SOL    HW116871   0.500   3.833   2.568  2.7773  0.4385  0.3204
 1745SOL    HW216872   0.414   3.915   2.471  1.2573 -1.5502 -0.7300
 1746SOL     OW16873   3.358   3.847   1.263  0.2625  0.4852  0.0366
 1746SOL    HW116874   3.297   3.900   1.313 -3.2041 -0.6185 -3.0502
 1746SOL    HW216875   3.440   3.876   1.304 -0.2081  1.2317  0.4440
 1747SOL     OW16876   2.340   3.653  10.254  0.2178  0.1265 -1.1958
 1747SOL    HW116877   2.349   3.567  10.213  0.7264 -0.4787  0.1926
 1747SOL    HW216878   2.428   3.685  10.234  0.1365 -0.0136 -1.7834
 1748SOL     OW16879   3.030   4.438   2.533 -0.1279  0.0336 -0.3042
 1748SOL    HW116880   2.966   4.420   2.603  0.4340 -0.4967  0.0779
 1748SOL    HW216881   3.031   4.534   2.534 -1.1443  0.0377  0.8862
 1749SOL     OW16882   3.628   0.719   7.942  0.4657  0.0778 -0.3584
 1749SOL    HW116883   3.695   0.723   7.874  0.4469  0.9069 -0.3245
 1749SOL    HW216884   3.669   0.767   8.014  2.9755 -0.9234 -1.1344
 1750SOL     OW16885   4.407   2.518   6.375 -0.2108 -0.3270  0.4059
 1750SOL    HW116886   4.327   2.513   6.428  0.3599  1.2876  1.4316
 1750SOL    HW216887   4.479   2.517   6.438  0.3962 -0.6019 -0.2935
 1751SOL     OW16888   3.347   2.652  16.705  0.5486 -0.4666  0.6932
 1751SOL    HW116889   3.357   2.714  16.777  1.7940 -0.0893  0.1965
 1751SOL    HW216890   3.436   2.620  16.691  0.7717  0.5385 -0.2268
 1752SOL     OW16891   0.884   3.057  14.455  0.5823  0.0284  0.1913
 1752SOL    HW116892   0.901   3.086  14.544 -2.6699 -0.0135  0.8536
 1752SOL    HW216893   0.872   3.143  14.414  2.2945 -0.1377 -0.6540
 1753SOL     OW16894   3.131   3.881   9.283  0.7271  0.1262 -0.0736
 1753SOL    HW116895   3.082   3.932   9.219  0.1490 -1.6939 -1.0826
 1753SOL    HW216896   3.121   3.930   9.365 -1.5414  2.0934 -1.5368
 1754SOL     OW16897   2.963   1.938   4.939  0.1483  0.0618 -0.0365
 1754SOL    HW116898   3.022   1.865   4.919 -1.8434 -1.3670 -0.6689
 1754SOL    HW216899   2.888   1.917   4.885  0.7037  0.8792 -1.1232
 1755SOL     OW16900   3.919   4.521  10.575 -0.2319 -0.3592 -0.4472
 1755SOL    HW116901   3.849   4.492  10.634  0.4025 -1.8731 -0.4399
 1755SOL    HW216902   3.884   4.586  10.513  0.5697 -0.8928 -1.4668
 1756SOL     OW16903   1.752   2.925  11.372 -0.0055  0.1806 -0.0557
 1756SOL    HW116904   1.667   2.958  11.343  0.7570  2.2544  0.0554
 1756SOL    HW216905   1.799   3.008  11.361  2.1667 -0.9428  0.5685
 1757SOL     OW16906   0.017   2.846   9.324 -0.3970 -0.0633  0.1083
 1757SOL    HW116907   4.735   2.840   9.416  0.6364  1.0834  0.4637
 1757SOL    HW216908   4.713   2.928   9.304  1.3940  0.9302  0.0336
 1758SOL     OW16909   3.590   1.710  17.017 -0.4150 -0.2180  0.2508
 1758SOL    HW116910   3.541   1.660  16.952 -1.1243 -0.5976  1.0842
 1758SOL    HW216911   3.683   1.686  17.009  0.1696  1.6020  1.6275
 1759SOL     OW16912   1.108   2.926   4.573 -0.3756  0.6196 -0.0228
 1759SOL    HW116913   1.129   2.993   4.639 -3.3797 -0.2155  1.7864
 1759SOL    HW216914   1.018   2.940   4.543  0.0317  0.8559 -1.1141
 1760SOL     OW16915   1.728   4.641   5.314 -0.1854 -0.2013 -0.1818
 1760SOL    HW116916   1.661   4.665   5.251 -1.4178 -0.1214  1.1454
 1760SOL    HW216917   1.709   4.698   5.389  1.5073 -0.9739  0.8425
 1761SOL     OW16918   0.786   3.301   2.135 -0.2526 -0.1734 -0.9180
 1761SOL    HW116919   0.777   3.235   2.066  0.5256 -1.2816  0.0441
 1761SOL    HW216920   0.872   3.296   2.177  1.1157  1.9125 -3.4629
 1762SOL     OW16921   2.773   3.548   5.876  0.6853 -0.3124 -0.5096
 1762SOL    HW116922   2.861   3.551   5.839  1.6497  0.8953  1.9626
 1762SOL    HW216923   2.751   3.640   5.885 -1.3565 -0.8937  0.5130
 1763SOL     OW16924   3.393   2.376   2.163  0.0333 -0.7245  0.1477
 1763SOL    HW116925   3.338   2.299   2.178  0.7152 -0.9103  1.7527
 1763SOL    HW216926   3.378   2.427   2.243 -0.2489  0.5558 -0.7190
 1764SOL     OW16927   3.876   3.350  17.591 -0.3180  0.1527  0.5997
 1764SOL    HW116928   3.933   3.385  17.522 -0.8315  0.6906  0.4490
 1764SOL    HW216929   3.914   3.263  17.602 -1.6359 -0.3053  1.4255
 1765SOL     OW16930   0.733   3.169  10.980 -0.6077  0.5697  0.1456
 1765SOL    HW116931   0.807   3.128  11.025 -1.0234 -0.1611  0.1599
 1765SOL    HW216932   0.784   3.216  10.914  0.5382 -1.8349 -0.7023
 1766SOL     OW16933   1.524   0.517   1.729 -0.9924  0.7048  0.3993
 1766SOL    HW116934   1.573   0.435   1.734 -1.2924  0.3577 -2.2884
 1766SOL    HW216935   1.598   0.573   1.755 -1.5893  1.2986  0.8153
 1767SOL     OW16936   2.891   0.661   3.178 -0.1024 -0.0153  0.5991
 1767SOL    HW116937   2.955   0.650   3.107 -0.9050 -0.1549 -0.0916
 1767SOL    HW216938   2.817   0.602   3.168 -0.2108  0.2573 -0.2300
 1768SOL     OW16939   2.160   2.824   3.627  0.2845 -0.1317 -0.4664
 1768SOL    HW116940   2.239   2.769   3.632  0.1523 -0.0573  2.0281
 1768SOL    HW216941   2.195   2.901   3.581  0.4869 -0.0723 -0.2120
 1769SOL     OW16942   3.171   3.355   9.422  0.4815 -0.4223 -0.4404
 1769SOL    HW116943   3.184   3.260   9.422  3.7075  0.0084 -0.5029
 1769SOL    HW216944   3.222   3.374   9.500  0.2823 -1.2938 -0.0936
 1770SOL     OW16945   3.972   4.463  14.472 -0.4159  0.0500 -0.1614
 1770SOL    HW116946   4.037   4.400  14.439 -1.6709 -0.2980 -1.9990
 1770SOL    HW216947   3.899   4.402  14.463  1.5689 -2.0727 -1.9435
 1771SOL     OW16948   4.282   3.075   3.782  0.0759  0.5014 -0.3847
 1771SOL    HW116949   4.231   2.999   3.756  0.5848  0.8849 -2.4786
 1771SOL    HW216950   4.250   3.101   3.868 -2.3040 -1.2203 -0.7569
 1772SOL     OW16951   0.922   3.925   7.173 -1.0321  0.1945 -0.2095
 1772SOL    HW116952   0.845   3.940   7.229 -0.7300  0.6680  0.0776
 1772SOL    HW216953   0.918   3.829   7.168  1.5231 -0.0206  1.6842
 1773SOL     OW16954   2.782   3.140   1.523  0.8211  0.2607  0.1379
 1773SOL    HW116955   2.787   3.066   1.584  0.5210  0.7346  0.7419
 1773SOL    HW216956   2.871   3.175   1.527  0.8277  0.3591 -0.9166
 1774SOL     OW16957   3.764   4.739  14.691 -0.3245 -0.4196  0.4408
 1774SOL    HW116958   3.811   0.053  14.752  0.9465 -0.4557 -0.5054
 1774SOL    HW216959   3.680   0.043  14.691 -0.5639 -0.8680 -1.7125
 1775SOL     OW16960   2.023   3.597   1.538  0.0124  0.0068  0.3545
 1775SOL    HW116961   1.952   3.533   1.543 -1.8160  1.8796 -1.3279
 1775SOL    HW216962   2.016   3.614   1.445 -1.9372  0.7755  0.6377
 1776SOL     OW16963   1.469   2.643   4.572 -0.3706  0.6489  0.1389
 1776SOL    HW116964   1.455   2.661   4.479  0.4837  0.6631  0.0155
 1776SOL    HW216965   1.476   2.548   4.567  1.2832  0.8754 -1.7210
 1777SOL     OW16966   0.170   1.290  13.944  0.0802  0.4046  0.3160
 1777SOL    HW116967   0.221   1.235  13.885  0.6308  0.8296  0.3951
 1777SOL    HW216968   0.084   1.282  13.904  0.3811  1.9140 -0.6144
 1778SOL     OW16969   0.880   1.701   4.813 -0.4188 -0.0702 -0.0952
 1778SOL    HW116970   0.962   1.733   4.774 -2.5568  2.0694 -2.7719
 1778SOL    HW216971   0.904   1.621   4.861 -0.1481  0.6404  0.9504
 1779SOL     OW16972   4.226   0.951   7.283  0.2320  0.1569 -0.1238
 1779SOL    HW116973   4.221   0.868   7.235  0.8848  0.3835 -0.5750
 1779SOL    HW216974   4.155   1.008   7.255  1.4726  1.5444 -0.4259
 1780SOL     OW16975   3.037   4.062  10.054  0.0965  0.8381 -0.1624
 1780SOL    HW116976   2.962   4.037  10.109  1.6320 -2.1618  0.5260
 1780SOL    HW216977   3.102   4.060  10.124  0.8046 -1.9287 -0.9113
 1781SOL     OW16978   2.444   2.880   5.072  0.5364 -0.4364  0.5520
 1781SOL    HW116979   2.406   2.967   5.057 -0.7153 -0.7999  1.6153
 1781SOL    HW216980   2.425   2.847   4.985  1.7373  1.7212 -0.5156
 1782SOL     OW16981   1.750   3.528   5.032  0.3273 -1.0555 -0.7666
 1782SOL    HW116982   1.681   3.545   5.096  0.5896 -0.7321 -0.5673
 1782SOL    HW216983   1.711   3.462   4.976 -1.1305  0.1910 -1.2101
 1783SOL     OW16984   2.235   4.621  14.474 -0.5368 -0.6693  0.3633
 1783SOL    HW116985   2.253   4.711  14.499 -0.8994  0.7187 -4.3331
 1783SOL    HW216986   2.239   4.624  14.378  0.0263 -1.2794  0.3652
 1784SOL     OW16987   0.472   3.417   4.844  0.1170  0.0764  0.1499
 1784SOL    HW116988   0.566   3.431   4.833  0.0821  0.6973  0.6594
 1784SOL    HW216989   0.448   3.386   4.756 -2.3742 -0.6017  1.0676
 1785SOL     OW16990   2.864   3.270  15.148  0.4337 -0.2059 -0.2743
 1785SOL    HW116991   2.940   3.327  15.153 -0.6982  1.1220  1.7347
 1785SOL    HW216992   2.896   3.182  15.127  1.3448 -0.2444  1.2953
 1786SOL     OW16993   4.582   1.553   4.774 -0.3883 -0.6807  0.6944
 1786SOL    HW116994   4.538   1.599   4.845 -0.8663 -0.6318  0.3657
 1786SOL    HW216995   4.632   1.625   4.736  0.9039 -2.1133 -0.3134
 1787SOL     OW16996   1.282   0.844   9.253 -0.0581  0.0810 -0.1394
 1787SOL    HW116997   1.267   0.903   9.179  0.5824 -1.2642 -1.3412
 1787SOL    HW216998   1.194   0.849   9.291 -0.2641 -3.8383 -0.0281
 1788SOL     OW16999   0.156   3.573  12.471  0.0878 -0.1309  0.1767
 1788SOL    HW117000   0.069   3.613  12.464 -0.4986 -1.3083  0.5953
 1788SOL    HW217001   0.183   3.622  12.548  0.7031  0.3671 -0.3555
 1789SOL     OW17002   2.892   2.152   4.738  0.2997  0.3221  0.3825
 1789SOL    HW117003   2.932   2.157   4.825  1.2082  0.1406 -0.0273
 1789SOL    HW217004   2.807   2.118   4.764  0.8036 -1.1264  0.1329
 1790SOL     OW17005   1.004   4.687   5.594  0.4692 -0.1044 -0.0050
 1790SOL    HW117006   0.943   4.649   5.530  1.5827 -0.8930 -0.5876
 1790SOL    HW217007   1.009   0.037   5.570  0.8433 -0.3252 -0.7463
 1791SOL     OW17008   2.186   2.892   5.509  0.1328 -0.3694 -0.4314
 1791SOL    HW117009   2.198   2.940   5.426 -0.0931 -0.6858 -0.6444
 1791SOL    HW217010   2.253   2.828   5.487  0.4678 -0.0743 -0.2679
 1792SOL     OW17011   3.098   0.372   8.405 -0.9528 -0.4025 -0.2024
 1792SOL    HW117012   3.180   0.338   8.440 -0.1941 -1.3897 -2.9138
 1792SOL    HW217013   3.129   0.462   8.392  0.7350 -0.7684  1.2914
 1793SOL     OW17014   3.980   3.021   3.902  0.1438 -0.7630 -0.5482
 1793SOL    HW117015   3.931   3.091   3.859  2.5232  1.8508  1.0043
 1793SOL    HW217016   4.021   3.064   3.976 -0.0181 -0.8879 -0.3849
 1794SOL     OW17017   0.026   3.101  15.357 -0.2557 -0.7402 -0.1420
 1794SOL    HW117018   0.078   3.062  15.286 -0.0355 -1.2736  0.3044
 1794SOL    HW217019   4.681   3.084  15.322 -0.7214 -0.2903  0.8103
 1795SOL     OW17020   2.503   2.687   1.856  0.3672 -0.4669 -0.0867
 1795SOL    HW117021   2.590   2.715   1.885  0.7851 -0.9869 -0.8366
 1795SOL    HW217022   2.533   2.685   1.765  0.8198 -0.3310  0.0587
 1796SOL     OW17023   4.741   3.323   0.090  0.1717  0.2777 -0.6332
 1796SOL    HW117024   0.024   3.404   0.047  0.0090  0.3106 -0.6686
 1796SOL    HW217025   0.085   3.298   0.124 -0.5118  1.8519  2.2781
 1797SOL     OW17026   2.631   1.535   8.452 -0.0228  0.2413  0.3087
 1797SOL    HW117027   2.647   1.628   8.437  0.8006 -0.4522 -3.1051
 1797SOL    HW217028   2.653   1.496   8.367  0.9306 -1.9453  1.5490
 1798SOL     OW17029   2.568   0.406  16.233 -0.4664  0.1635  0.2174
 1798SOL    HW117030   2.593   0.322  16.194 -1.2549 -0.7037  1.5716
 1798SOL    HW217031   2.649   0.441  16.270  0.0724 -2.0096  1.0769
 1799SOL     OW17032   0.404   0.803  14.910 -0.5039 -0.1889  0.7060
 1799SOL    HW117033   0.449   0.807  14.826 -0.6351  2.8045  0.7778
 1799SOL    HW217034   0.318   0.766  14.889  0.0524  0.1513 -2.1592
 1800SOL     OW17035   3.991   4.447   8.560 -0.4571 -0.0599 -0.1470
 1800SOL    HW117036   3.897   4.429   8.559 -0.0515 -2.1150 -2.0834
 1800SOL    HW217037   4.024   4.372   8.509  1.3720  1.3904 -1.1054
 1801SOL     OW17038   3.349   2.055  17.508  0.4094 -0.2249  0.3152
 1801SOL    HW117039   3.342   1.961  17.487 -1.2480 -0.0802  0.2238
 1801SOL    HW217040   3.298   2.103  17.444  1.6353  1.6629  0.7621
 1802SOL     OW17041   0.847   2.776   5.313 -0.2845  0.3223  0.6250
 1802SOL    HW117042   0.923   2.778   5.255 -2.1777 -0.2215 -1.8300
 1802SOL    HW217043   0.857   2.864   5.349 -1.5542  0.7355 -0.0443
 1803SOL     OW17044   4.079   4.269   9.959  0.2976  1.0185 -0.3300
 1803SOL    HW117045   4.111   4.359   9.952 -0.3779  1.3198  0.4703
 1803SOL    HW217046   4.085   4.252  10.053  0.4218  0.1009 -0.5038
 1804SOL     OW17047   1.538   0.926  11.456  0.7424 -0.8873  0.2398
 1804SOL    HW117048   1.605   0.893  11.396  1.6160  0.4465  0.4806
 1804SOL    HW217049   1.594   0.971  11.520  0.6208 -0.5379  0.0995
 1805SOL     OW17050   0.389   3.164  15.334 -0.3415  0.3029 -0.0325
 1805SOL    HW117051   0.380   3.205  15.248 -0.1186 -0.9853 -0.6660
 1805SOL    HW217052   0.484   3.154  15.334 -0.3039  0.5524  1.1903
 1806SOL     OW17053   0.189   3.547   7.778  0.2121  0.1260  0.4529
 1806SOL    HW117054   0.167   3.631   7.737 -2.4497  0.0903  1.8401
 1806SOL    HW217055   0.246   3.508   7.711 -0.1195  0.2949  0.0683
 1807SOL     OW17056   1.191   2.011  13.240  0.0392  0.5844 -0.0791
 1807SOL    HW117057   1.150   1.928  13.264 -2.9880  2.6225  1.7676
 1807SOL    HW217058   1.206   1.996  13.147  1.8624  2.0435 -0.0188
 1808SOL     OW17059   4.013   3.578   8.151  0.9510  0.4183  0.1458
 1808SOL    HW117060   3.982   3.656   8.197  0.4255  0.0894  0.3465
 1808SOL    HW217061   4.035   3.517   8.221  1.1203 -1.0639 -1.2009
 1809SOL     OW17062   1.189   3.532   9.011  0.1548 -0.0642  0.2472
 1809SOL    HW117063   1.268   3.587   9.002  1.0838 -1.3587  0.5266
 1809SOL    HW217064   1.144   3.571   9.086 -0.9575 -0.7585 -0.0682
 1810SOL     OW17065   3.248   1.726   1.240  0.1747 -0.4384 -0.1372
 1810SOL    HW117066   3.177   1.664   1.255  0.1065 -0.3527 -0.1056
 1810SOL    HW217067   3.303   1.715   1.318 -0.9731  1.3216  0.9177
 1811SOL     OW17068   1.912   2.721   3.178  0.2795  0.4690  0.0220
 1811SOL    HW117069   1.838   2.683   3.226  0.5257  0.7370  0.6157
 1811SOL    HW217070   1.990   2.690   3.225 -0.7591  0.1493  1.5592
 1812SOL     OW17071   0.183   1.010   5.530 -0.0050  0.0201  0.5638
 1812SOL    HW117072   0.138   1.037   5.450  0.7964  1.3992  0.5748
 1812SOL    HW217073   0.136   0.928   5.543  0.2502 -0.5142 -1.8863
 1813SOL     OW17074   4.094   4.359   3.393  0.0981 -0.0189 -0.3010
 1813SOL    HW117075   4.131   4.333   3.308  1.2078 -1.1564  0.5318
 1813SOL    HW217076   4.167   4.417   3.417  1.1424 -1.0337 -1.0069
 1814SOL     OW17077   1.235   4.031  16.296 -0.2101 -0.1926  0.3445
 1814SOL    HW117078   1.185   4.110  16.276  1.6175  0.5129 -1.4175
 1814SOL    HW217079   1.249   4.033  16.391  0.1111 -0.7253  0.3112
 1815SOL     OW17080   4.369   0.929   8.563  0.2546  0.7063  0.3788
 1815SOL    HW117081   4.422   0.850   8.553 -0.4998  0.0822  1.3716
 1815SOL    HW217082   4.330   0.913   8.649  0.6733 -0.9603  0.2514
 1816SOL     OW17083   3.210   3.390  11.083  0.3437  0.5138 -0.0519
 1816SOL    HW117084   3.222   3.469  11.136  0.7975  1.2857 -1.3063
 1816SOL    HW217085   3.281   3.339  11.122  0.8530  1.6873  0.5556
 1817SOL     OW17086   1.157   3.699   8.269  0.2009  0.3199 -0.1872
 1817SOL    HW117087   1.227   3.688   8.333  1.1756  1.7312 -1.0031
 1817SOL    HW217088   1.139   3.793   8.268  2.1714  0.6900 -2.1482
 1818SOL     OW17089   0.657   2.607   9.025  0.2535 -0.3466  0.5962
 1818SOL    HW117090   0.576   2.614   9.075 -0.8501 -1.6076 -1.0386
 1818SOL    HW217091   0.702   2.550   9.088  2.2257  0.8357  0.2669
 1819SOL     OW17092   1.787   2.253   6.275 -0.2104 -0.9404  0.2784
 1819SOL    HW117093   1.822   2.330   6.230 -0.3447 -0.6144  0.7314
 1819SOL    HW217094   1.825   2.175   6.234 -0.3299 -0.6455 -0.4019
 1820SOL     OW17095   0.585   2.766  16.194  0.0611 -0.0752  0.0514
 1820SOL    HW117096   0.563   2.673  16.196  0.8724 -0.2460  1.3141
 1820SOL    HW217097   0.498   2.803  16.202 -0.5845 -0.9638 -2.6675
 1821SOL     OW17098   0.273   2.033   2.436  0.6648  0.1561 -0.0018
 1821SOL    HW117099   0.329   2.108   2.454  2.5232 -1.1240 -0.4466
 1821SOL    HW217100   0.192   2.062   2.477 -0.8401 -0.2685 -2.7536
 1822SOL     OW17101   1.963   1.912   8.673 -0.0008 -0.2597 -0.1616
 1822SOL    HW117102   1.898   1.843   8.686  1.6783 -1.8860 -0.4540
 1822SOL    HW217103   1.928   1.977   8.734  0.2376 -0.8561  0.6189
 1823SOL     OW17104   4.569   0.146   0.269  0.2433  0.7600 -0.2215
 1823SOL    HW117105   4.561   0.138   0.364 -0.6035  0.8780 -0.2912
 1823SOL    HW217106   4.540   0.236   0.257  0.1034  0.7107 -0.2456
 1824SOL     OW17107   1.479   3.401  12.413 -0.2950 -0.1083 -0.9856
 1824SOL    HW117108   1.489   3.445  12.329 -0.9023  2.0783  0.1020
 1824SOL    HW217109   1.389   3.427  12.434  0.0618 -0.0271  0.4741
 1825SOL     OW17110   3.836   2.997   9.271  0.1636 -0.3175  0.0457
 1825SOL    HW117111   3.762   2.949   9.308 -0.0609  0.0279  0.0384
 1825SOL    HW217112   3.797   3.041   9.195  0.4516 -0.9811 -0.4937
 1826SOL     OW17113   2.328   2.420   1.319 -0.2496  0.0805  0.1645
 1826SOL    HW117114   2.402   2.453   1.268 -0.2854 -0.7509 -0.4409
 1826SOL    HW217115   2.285   2.358   1.260 -1.1926 -0.4580  1.4173
 1827SOL     OW17116   2.168   3.483   6.698  0.4728  0.7949 -0.3605
 1827SOL    HW117117   2.126   3.504   6.782 -0.9513  0.8497 -1.0827
 1827SOL    HW217118   2.154   3.565   6.650 -3.3553  1.4372  1.8573
 1828SOL     OW17119   2.736   3.562   0.523  0.1123  0.0899  0.4326
 1828SOL    HW117120   2.830   3.561   0.539  0.2363  1.6845 -0.2461
 1828SOL    HW217121   2.704   3.549   0.613 -2.9151  0.9122 -0.5315
 1829SOL     OW17122   4.494   3.081   1.772  0.3257 -0.1631 -0.3827
 1829SOL    HW117123   4.494   3.142   1.845  1.7968  1.0016 -1.3673
 1829SOL    HW217124   4.404   3.051   1.760  0.1414 -0.8119  2.6319
 1830SOL     OW17125   1.850   1.140   1.591  0.5293  0.2140  0.3878
 1830SOL    HW117126   1.797   1.068   1.625 -0.4595  0.8258  0.1475
 1830SOL    HW217127   1.849   1.192   1.672  4.0036 -1.1200  1.2982
 1831SOL     OW17128   0.644   4.398   3.193 -0.0499 -0.0719 -0.4812
 1831SOL    HW117129   0.640   4.484   3.234 -1.5859 -0.2237 -0.3179
 1831SOL    HW217130   0.724   4.398   3.140  0.9816  1.5018  1.0898
 1832SOL     OW17131   2.983   2.031   2.801  0.0554  0.6354 -0.4286
 1832SOL    HW117132   2.906   1.977   2.821  1.3635 -0.4890  1.6533
 1832SOL    HW217133   2.951   2.116   2.831 -0.8967 -0.1908  0.9190
 1833SOL     OW17134   1.385   2.252   8.410 -0.6092  0.3737 -0.1950
 1833SOL    HW117135   1.373   2.248   8.315 -1.7864 -1.3373  0.0321
 1833SOL    HW217136   1.402   2.160   8.432 -2.7109  0.4004  1.5164
 1834SOL     OW17137   2.149   3.833   0.276  0.0643 -0.3186 -0.1566
 1834SOL    HW117138   2.244   3.825   0.288 -0.3495 -1.2980  2.4410
 1834SOL    HW217139   2.140   3.911   0.332 -0.0601 -0.9251  0.6613
 1835SOL     OW17140   2.442   2.737   5.610 -0.0648  0.1213  0.4120
 1835SOL    HW117141   2.451   2.752   5.516 -2.2665 -1.9267 -0.1229
 1835SOL    HW217142   2.490   2.811   5.647 -0.4208  0.6201 -0.1400
 1836SOL     OW17143   3.808   2.077   3.803 -0.0632 -0.0219 -0.3329
 1836SOL    HW117144   3.758   2.011   3.755 -2.2035 -0.6548  2.8101
 1836SOL    HW217145   3.864   2.022   3.858  0.5909 -2.0203 -3.0066
 1837SOL     OW17146   4.666   1.855   8.324  0.3096  0.1349  0.1256
 1837SOL    HW117147   4.715   1.854   8.242  1.3903  0.2723  0.7633
 1837SOL    HW217148   4.600   1.918   8.297 -1.1959 -0.8093  1.6090
 1838SOL     OW17149   0.502   1.126  12.769 -0.7368 -0.0975  0.9404
 1838SOL    HW117150   0.557   1.171  12.833 -1.0160  0.3854  0.8346
 1838SOL    HW217151   0.547   1.044  12.749 -0.0785  0.6156 -0.5068
 1839SOL     OW17152   2.626   2.048   9.679 -0.1768  0.0566  0.2338
 1839SOL    HW117153   2.577   2.065   9.760 -0.9893 -1.9366  0.1484
 1839SOL    HW217154   2.560   1.998   9.632 -0.4724  1.4324 -0.8123
 1840SOL     OW17155   3.248   1.129   7.305  0.9678 -0.5648  0.7672
 1840SOL    HW117156   3.201   1.151   7.385  0.5500 -0.2086  0.4282
 1840SOL    HW217157   3.178   1.112   7.242  1.7717  0.1075 -0.3158
 1841SOL     OW17158   0.216   3.732   4.266 -0.1334 -0.2582 -0.0012
 1841SOL    HW117159   0.132   3.686   4.267 -0.0471 -0.4129  0.0071
 1841SOL    HW217160   0.249   3.686   4.343 -0.4121  0.2836  0.4393
 1842SOL     OW17161   0.706   4.038   0.135  0.2776  0.2633  0.4822
 1842SOL    HW117162   0.655   4.024   0.055 -0.9600  1.1287  1.1171
 1842SOL    HW217163   0.753   3.955   0.142 -0.1352 -0.2883 -3.5915
 1843SOL     OW17164   3.828   1.068  16.514  0.0413 -0.5033 -0.1687
 1843SOL    HW117165   3.845   0.974  16.514 -0.5125 -0.6044 -1.2845
 1843SOL    HW217166   3.762   1.078  16.583  0.4063  1.0237 -0.0337
 1844SOL     OW17167   0.326   2.936  15.456 -0.3292  0.1182 -0.7423
 1844SOL    HW117168   0.292   2.908  15.371 -1.5462  3.3039 -1.3106
 1844SOL    HW217169   0.362   3.022  15.434 -0.8405 -0.1395 -2.6016
 1845SOL     OW17170   4.453   1.147   2.473 -0.0254 -0.1815 -0.7239
 1845SOL    HW117171   4.489   1.170   2.558  0.2198 -3.3791  0.0319
 1845SOL    HW217172   4.428   1.056   2.493  1.1876 -0.6237 -1.2449
 1846SOL     OW17173   4.573   3.788   7.715  0.1733 -0.2872  0.6673
 1846SOL    HW117174   4.660   3.763   7.747 -0.0807 -2.6008 -0.4553
 1846SOL    HW217175   4.516   3.784   7.792  0.7260  0.2915  1.1039
 1847SOL     OW17176   2.746   1.549   8.832 -0.3738  0.4736  0.4350
 1847SOL    HW117177   2.784   1.551   8.920 -0.6987  2.7816  0.5260
 1847SOL    HW217178   2.798   1.489   8.779 -1.2175 -1.5564  1.8463
 1848SOL     OW17179   0.267   1.375   7.854  0.2114  0.4828  0.0006
 1848SOL    HW117180   0.226   1.428   7.922 -0.3478  0.7137 -0.5179
 1848SOL    HW217181   0.339   1.431   7.826  1.0102 -0.9887 -0.9112
 1849SOL     OW17182   1.151   4.011  17.238 -0.2408 -0.7742 -0.0080
 1849SOL    HW117183   1.080   3.986  17.180  0.3807 -1.4918 -0.4553
 1849SOL    HW217184   1.226   3.972  17.194 -0.7245 -0.9477 -0.6840
 1850SOL     OW17185   2.428   3.826   0.290 -0.4374  0.4421 -0.3522
 1850SOL    HW117186   2.476   3.855   0.212  2.6041  2.0579  2.1413
 1850SOL    HW217187   2.448   3.888   0.360  1.0540 -0.3627 -0.0541
 1851SOL     OW17188   4.458   3.447   8.052  0.0924  0.4835 -0.4528
 1851SOL    HW117189   4.368   3.439   8.021  0.4319  0.0121 -1.3208
 1851SOL    HW217190   4.516   3.442   7.976 -2.2172 -1.1585 -2.1075
 1852SOL     OW17191   2.107   0.632   7.082 -0.2687  0.0037 -0.1827
 1852SOL    HW117192   2.041   0.694   7.052 -0.7166 -1.1672 -1.6604
 1852SOL    HW217193   2.111   0.568   7.011  0.9103  0.3543 -0.4464
 1853SOL     OW17194   3.317   3.690   9.191 -0.2164 -0.5511 -0.4544
 1853SOL    HW117195   3.365   3.735   9.123 -0.8586  1.4069  0.4006
 1853SOL    HW217196   3.242   3.749   9.201 -1.2449 -2.0800  0.9300
 1854SOL     OW17197   4.317   2.170  15.351  0.0080 -0.1076  0.1015
 1854SOL    HW117198   4.248   2.121  15.397 -0.6966 -1.0854 -2.0263
 1854SOL    HW217199   4.335   2.120  15.272 -0.6208  0.8761 -0.6589
 1855SOL     OW17200   4.197   2.782   9.086  0.8125 -0.1147  0.3359
 1855SOL    HW117201   4.242   2.710   9.044 -0.0704  0.5676 -1.7996
 1855SOL    HW217202   4.160   2.732   9.159 -0.5255  0.1826 -0.1428
 1856SOL     OW17203   3.529   0.048  17.349 -0.5334 -0.1906 -0.9173
 1856SOL    HW117204   3.503   4.730  17.280 -1.8280 -1.0537  0.3206
 1856SOL    HW217205   3.611   0.081  17.311  0.6963 -0.3687  1.5732
 1857SOL     OW17206   2.894   3.973   5.783 -0.4538  0.0673 -0.3852
 1857SOL    HW117207   2.834   4.007   5.716  1.0007  2.3507 -0.5432
 1857SOL    HW217208   2.838   3.914   5.833 -1.1528  0.5522 -0.5987
 1858SOL     OW17209   2.228   0.692   3.360  0.0025  0.6307 -0.0899
 1858SOL    HW117210   2.173   0.767   3.384  0.8616  0.5793  2.0589
 1858SOL    HW217211   2.229   0.704   3.265 -0.4463 -1.1084 -0.3044
 1859SOL     OW17212   0.723   1.197   5.540  0.2119  0.1304  0.2356
 1859SOL    HW117213   0.738   1.130   5.473 -0.8757  1.3860 -1.2411
 1859SOL    HW217214   0.634   1.170   5.559  0.2657  0.6888  1.2692
 1860SOL     OW17215   4.659   1.501  16.018 -0.4659 -0.2279  0.0308
 1860SOL    HW117216   4.664   1.406  16.021 -1.8664 -0.2961  0.5515
 1860SOL    HW217217   4.643   1.517  15.925  1.0348  1.0629  0.0017
 1861SOL     OW17218   3.974   2.702   8.098  0.0686  0.1023  0.0744
 1861SOL    HW117219   4.055   2.747   8.076  0.8314 -0.6446  1.3425
 1861SOL    HW217220   3.975   2.620   8.048  0.3882  0.5397 -0.6257
 1862SOL     OW17221   4.054   3.904  10.644 -0.8336  0.1198  0.1655
 1862SOL    HW117222   4.000   3.975  10.611 -2.3532 -1.4498 -0.7557
 1862SOL    HW217223   3.992   3.833  10.625 -2.1049  0.9484  1.2620
 1863SOL     OW17224   0.688   2.264   2.882 -0.1453 -0.2190 -0.1922
 1863SOL    HW117225   0.707   2.316   2.960 -0.3143 -0.2111 -0.1560
 1863SOL    HW217226   0.594   2.259   2.897 -0.4011 -2.4873 -2.5472
 1864SOL     OW17227   4.497   1.364   4.202  0.0370  0.6066 -0.0593
 1864SOL    HW117228   4.425   1.370   4.266  1.1172 -1.2247  1.3139
 1864SOL    HW217229   4.556   1.423   4.249 -0.4412  0.0251  1.2934
 1865SOL     OW17230   2.578   0.261   2.939 -0.2688  0.0771  0.2442
 1865SOL    HW117231   2.530   0.188   2.901 -1.5412  0.5351  0.9354
 1865SOL    HW217232   2.556   0.331   2.877 -3.4028  0.2314  1.5014
 1866SOL     OW17233   2.390   0.045   6.442  0.4896  0.3622  0.3948
 1866SOL    HW117234   2.451   0.079   6.376  2.0007  1.2483  2.2763
 1866SOL    HW217235   2.448   0.017   6.512  0.1058 -1.0527  0.1398
 1867SOL     OW17236   0.001   2.144   6.917 -0.1840 -0.6716  0.0022
 1867SOL    HW117237   4.663   2.105   6.951 -0.4104 -1.5167 -1.4928
 1867SOL    HW217238   0.062   2.127   6.990  0.2069 -0.8735 -0.3703
 1868SOL     OW17239   2.234   4.064   6.966 -0.3090 -0.2251  0.3442
 1868SOL    HW117240   2.205   3.987   7.016 -0.7219 -1.3560 -1.6441
 1868SOL    HW217241   2.167   4.124   6.999  0.5303  0.2860  1.1024
 1869SOL     OW17242   4.542   3.829   7.084 -0.5128  0.3411  0.0388
 1869SOL    HW117243   4.554   3.767   7.012 -0.3968  2.0356 -1.4031
 1869SOL    HW217244   4.506   3.770   7.150  0.3044 -1.2249 -0.9261
 1870SOL     OW17245   1.892   3.146   4.652 -0.5769 -0.3108 -0.4591
 1870SOL    HW117246   1.980   3.132   4.615 -0.5528  2.2961 -1.3895
 1870SOL    HW217247   1.848   3.094   4.585 -1.1084 -0.7320  0.2198
 1871SOL     OW17248   2.266   3.410  14.087  0.0921  0.1323 -0.1031
 1871SOL    HW117249   2.174   3.437  14.084  0.4001  1.1121 -0.6349
 1871SOL    HW217250   2.267   3.346  14.158 -0.6364  0.1276 -0.0995
 1872SOL     OW17251   3.166   1.674  14.042 -0.5376  0.2567 -0.1697
 1872SOL    HW117252   3.077   1.707  14.052 -0.4708 -0.2809  2.0562
 1872SOL    HW217253   3.199   1.688  14.130  0.2588  0.4090 -0.4910
 1873SOL     OW17254   3.433   2.463   3.787  0.2611 -0.5304  0.7447
 1873SOL    HW117255   3.491   2.507   3.849 -0.6765  3.2348 -1.0191
 1873SOL    HW217256   3.353   2.514   3.796  0.8133  0.2925  1.0039
 1874SOL     OW17257   3.928   4.333  16.696 -0.7017 -0.4772  0.6841
 1874SOL    HW117258   3.967   4.410  16.736  0.1419 -0.3686 -0.3257
 1874SOL    HW217259   3.903   4.277  16.769 -0.4758 -0.4759  0.7622
 1875SOL     OW17260   1.161   1.580   9.221  0.2850 -0.2002  0.5337
 1875SOL    HW117261   1.121   1.510   9.273  0.2231 -0.5763 -0.0171
 1875SOL    HW217262   1.155   1.651   9.284  0.0121  0.2545 -0.0105
 1876SOL     OW17263   4.454   2.383  12.617 -0.0771  0.2529  0.3075
 1876SOL    HW117264   4.535   2.408  12.660 -0.2538 -1.6294  1.7458
 1876SOL    HW217265   4.448   2.295  12.654 -1.7226 -0.3298 -1.3326
 1877SOL     OW17266   4.451   3.337   6.782 -0.0677  0.0086  0.0461
 1877SOL    HW117267   4.383   3.378   6.729  1.5926  0.3196 -1.8469
 1877SOL    HW217268   4.394   3.295   6.847 -2.1984  0.3868 -1.5705
 1878SOL     OW17269   2.997   3.554   4.980 -0.5067  1.3840  0.1757
 1878SOL    HW117270   2.909   3.591   4.976 -0.1492  2.0402 -2.1095
 1878SOL    HW217271   2.980   3.463   5.004 -0.3581  0.7528 -2.1122
 1879SOL     OW17272   0.420   0.271   0.992  0.1458 -0.0849 -0.2023
 1879SOL    HW117273   0.338   0.244   1.033  1.6390 -2.6413  1.1340
 1879SOL    HW217274   0.388   0.312   0.912  0.0323 -0.0645 -0.1461
 1880SOL     OW17275   1.886   0.594  16.625  0.4918 -0.2323  0.0034
 1880SOL    HW117276   1.868   0.574  16.717  0.5932 -1.7647 -0.3114
 1880SOL    HW217277   1.885   0.690  16.625  1.6456 -0.2199 -1.6142
 1881SOL     OW17278   2.756   4.656   2.651  1.1977 -0.5845 -0.4579
 1881SOL    HW117279   2.692   4.584   2.648  0.4335  0.0042  1.3249
 1881SOL    HW217280   2.707   4.714   2.593 -0.3611 -1.3474  0.0763
 1882SOL     OW17281   1.366   2.514   1.547  0.7092 -0.4248  0.6027
 1882SOL    HW117282   1.396   2.562   1.470 -1.4566 -0.2119 -0.1096
 1882SOL    HW217283   1.424   2.548   1.615 -0.0864  1.7872  0.1638
 1883SOL     OW17284   3.191   1.396   7.955  0.1001 -0.4975  0.3902
 1883SOL    HW117285   3.134   1.472   7.941  2.7989  1.1991 -1.4818
 1883SOL    HW217286   3.202   1.374   7.862 -1.8663  0.1663  0.0116
 1884SOL     OW17287   4.424   1.990  12.139  0.0086  0.0616 -0.1713
 1884SOL    HW117288   4.511   2.003  12.102  0.1600 -0.2930  0.0572
 1884SOL    HW217289   4.439   1.990  12.233 -1.2851  0.9810  0.0297
 1885SOL     OW17290   1.858   2.394  14.510 -0.0081 -0.5711  0.1533
 1885SOL    HW117291   1.905   2.341  14.575 -0.4198 -0.9080  0.1735
 1885SOL    HW217292   1.856   2.322  14.446 -0.1685  0.1939 -0.6913
 1886SOL     OW17293   2.038   4.147   5.106  0.1209  0.0313 -0.1021
 1886SOL    HW117294   1.945   4.126   5.108  0.3932 -1.1931  0.2320
 1886SOL    HW217295   2.034   4.200   5.027 -3.4190  0.6597  0.5124
 1887SOL     OW17296   3.406   1.193  17.048 -0.1878 -0.1927 -0.0441
 1887SOL    HW117297   3.435   1.159  17.133 -1.4157  1.7537  1.1430
 1887SOL    HW217298   3.423   1.287  17.059  0.6388 -0.0971 -2.0813
 1888SOL     OW17299   1.292   0.133   2.708  0.6657 -0.3158 -0.2597
 1888SOL    HW117300   1.365   0.164   2.654  1.9030 -2.3309  0.2696
 1888SOL    HW217301   1.317   0.185   2.785 -0.9774  0.2453 -0.1216
 1889SOL     OW17302   0.976   2.432   7.968 -0.0434 -0.3788 -0.0130
 1889SOL    HW117303   0.996   2.420   8.061 -3.1627  0.5236  0.7706
 1889SOL    HW217304   1.060   2.436   7.923 -0.3764  0.2123 -0.5809
 1890SOL     OW17305   4.122   4.699   8.596  0.6271 -0.3383  0.8280
 1890SOL    HW117306   4.098   4.609   8.575 -0.4288 -0.0056  0.6455
 1890SOL    HW217307   4.151   4.678   8.685 -0.6146  0.3647  1.3984
 1891SOL     OW17308   3.806   2.634   6.802 -0.3097  0.1872 -0.0140
 1891SOL    HW117309   3.782   2.704   6.741  0.6138 -1.4104 -2.1871
 1891SOL    HW217310   3.722   2.614   6.843  1.0100  2.7330  3.9425
 1892SOL     OW17311   0.161   4.701   9.018  0.0362  0.5619 -0.0058
 1892SOL    HW117312   0.077   0.003   9.026  1.5433  3.2836  0.8643
 1892SOL    HW217313   0.129   4.611   9.022 -1.2057  1.0586  0.9103
 1893SOL     OW17314   2.695   4.035   6.812 -0.0095 -0.1425  0.3724
 1893SOL    HW117315   2.787   4.046   6.837  1.1174 -2.3360 -2.8225
 1893SOL    HW217316   2.665   3.964   6.868  1.9909  0.2615  1.9429
 1894SOL     OW17317   2.045   0.660   2.640 -0.2575 -0.0343  0.2999
 1894SOL    HW117318   2.038   0.598   2.567  0.9169  0.7417 -0.4750
 1894SOL    HW217319   2.132   0.631   2.670  0.8796  0.2668 -2.7218
 1895SOL     OW17320   3.559   0.213   1.939  0.0755  0.4788  0.4250
 1895SOL    HW117321   3.637   0.165   1.965  0.3919  0.7593 -0.0049
 1895SOL    HW217322   3.549   0.260   2.021 -0.9772 -0.4425  0.8190
 1896SOL     OW17323   4.668   1.006  17.319 -0.1870  0.3205  0.1192
 1896SOL    HW117324   4.700   1.078  17.373  2.6175 -1.2092  0.5013
 1896SOL    HW217325   4.608   0.969  17.384  0.3761  2.3494  1.7914
 1897SOL     OW17326   0.679   2.789  11.707  0.5503 -0.0603  0.4260
 1897SOL    HW117327   0.639   2.747  11.783  0.6818 -0.9558 -0.0009
 1897SOL    HW217328   0.682   2.880  11.736  0.3394 -0.5420  2.0094
 1898SOL     OW17329   2.782   1.862   6.604 -0.1294  0.2959 -0.1378
 1898SOL    HW117330   2.806   1.779   6.564 -2.4128 -1.2639  1.6878
 1898SOL    HW217331   2.869   1.897   6.622  0.0028 -0.9403  1.5716
 1899SOL     OW17332   3.712   2.276   7.049  0.2644 -0.3032  0.0733
 1899SOL    HW117333   3.677   2.361   7.076  0.9515  0.4648 -1.4773
 1899SOL    HW217334   3.648   2.261   6.979  0.2157 -2.1728  0.5092
 1900SOL     OW17335   3.073   1.708   6.547 -0.7968  0.3397  0.3105
 1900SOL    HW117336   3.146   1.649   6.530 -1.2598 -0.2681  0.4299
 1900SOL    HW217337   2.998   1.654   6.571 -0.5468 -0.8489 -1.5823
 1901SOL     OW17338   3.436   4.699   8.763 -0.3439 -1.3478 -0.3118
 1901SOL    HW117339   3.376   0.030   8.752  2.2298  0.9724  1.2834
 1901SOL    HW217340   3.507   4.729   8.707 -1.4019 -1.0737 -1.5162
 1902SOL     OW17341   1.124   3.420   8.587  0.2048 -0.0056 -0.2299
 1902SOL    HW117342   1.058   3.445   8.652 -0.3705 -1.1074 -0.3927
 1902SOL    HW217343   1.197   3.401   8.647  0.3411  0.4029 -0.2614
 1903SOL     OW17344   4.071   4.413   2.546 -0.6057 -0.0071  0.3767
 1903SOL    HW117345   4.152   4.459   2.567  0.2313 -0.7799 -1.1391
 1903SOL    HW217346   4.012   4.486   2.567 -2.0631 -0.3870 -2.3224
 1904SOL     OW17347   0.377   1.542   6.018  0.0122  0.1271 -0.3686
 1904SOL    HW117348   0.466   1.574   6.036 -0.3691  0.6146  0.6378
 1904SOL    HW217349   0.400   1.449   6.020  0.2414  0.2303  2.2186
 1905SOL     OW17350   2.123   1.151  17.214 -0.3723 -0.0753  0.6250
 1905SOL    HW117351   2.063   1.204  17.267 -1.3294 -0.5126 -0.0256
 1905SOL    HW217352   2.071   1.131  17.136  0.1571  1.7621 -0.1925
 1906SOL     OW17353   1.411   1.662   4.519 -0.1546 -0.6465  0.2173
 1906SOL    HW117354   1.434   1.679   4.427 -0.4293  3.0015  0.8181
 1906SOL    HW217355   1.494   1.622   4.546 -1.2338 -1.9555  1.5416
 1907SOL     OW17356   2.652   3.312   1.335  0.2723 -0.2080 -0.2157
 1907SOL    HW117357   2.700   3.243   1.382 -1.8604 -0.9860  0.8098
 1907SOL    HW217358   2.620   3.267   1.257  1.0152  0.2254 -0.7646
 1908SOL     OW17359   1.685   2.133  15.101  0.2807  0.0141  0.9614
 1908SOL    HW117360   1.724   2.220  15.102 -1.5749  0.8820 -1.0368
 1908SOL    HW217361   1.662   2.115  15.192 -1.4315 -0.5802  0.4295
 1909SOL     OW17362   4.420   4.373   2.330 -0.0096 -0.2851  0.0798
 1909SOL    HW117363   4.471   4.296   2.305 -0.2419 -0.1584 -0.7739
 1909SOL    HW217364   4.361   4.319   2.383  1.1454 -1.1525  0.4918
 1910SOL     OW17365   2.881   0.537  16.608  0.5281 -1.1021  0.1971
 1910SOL    HW117366   2.829   0.571  16.681 -1.4942  0.5115 -2.0126
 1910SOL    HW217367   2.935   0.473  16.654  0.7929 -1.2068 -0.2613
 1911SOL     OW17368   1.477   2.327   5.285  0.6515  0.5086  0.1994
 1911SOL    HW117369   1.401   2.314   5.229  0.1848 -0.7794  1.1252
 1911SOL    HW217370   1.458   2.415   5.316 -1.9517  0.3075 -0.8187
 1912SOL     OW17371   2.960   1.435   3.867  0.2935  0.0545  0.1570
 1912SOL    HW117372   3.037   1.444   3.811 -0.2941  1.3344 -0.4653
 1912SOL    HW217373   2.927   1.525   3.870 -2.3583 -0.8758 -0.9496
 1913SOL     OW17374   1.418   0.115   5.797  0.2773  0.2889 -0.3248
 1913SOL    HW117375   1.447   0.167   5.872  0.3476 -0.2189  0.0034
 1913SOL    HW217376   1.334   0.154   5.771 -0.3902  0.8235  2.5732
 1914SOL     OW17377   2.686   1.664   3.641 -0.0868  0.2212 -0.3248
 1914SOL    HW117378   2.759   1.611   3.608  1.1932  1.0982  1.0611
 1914SOL    HW217379   2.733   1.744   3.668 -0.3828  0.1742  0.3442
 1915SOL     OW17380   0.809   4.278   5.138 -0.1365 -0.5432 -0.6317
 1915SOL    HW117381   0.864   4.224   5.082 -0.3617  1.3758 -2.6746
 1915SOL    HW217382   0.726   4.270   5.091 -1.0963 -1.2737  1.1762
 1916SOL     OW17383   4.224   1.939   9.300  0.4748  0.1753 -0.1897
 1916SOL    HW117384   4.292   1.992   9.342  2.0142 -0.6374 -1.6647
 1916SOL    HW217385   4.230   1.975   9.211 -0.3601  1.5981  0.3244
 1917SOL     OW17386   0.002   4.434   9.036 -0.1235 -0.1052  0.2355
 1917SOL    HW117387   4.676   4.394   8.983 -0.7627 -0.7503  1.5327
 1917SOL    HW217388   4.730   4.411   9.128  1.6466 -0.0677  0.5155
 1918SOL     OW17389   0.561   2.880   8.378 -0.2252  0.6635  0.4222
 1918SOL    HW117390   0.614   2.821   8.326 -1.3139  0.0529  0.0039
 1918SOL    HW217391   0.515   2.820   8.436  1.4367  0.0061  1.0617
 1919SOL     OW17392   3.056   1.946   5.557 -0.4490 -0.3880  0.2640
 1919SOL    HW117393   3.014   1.952   5.643 -0.6239  0.8144  0.0986
 1919SOL    HW217394   3.070   2.039   5.538 -0.2629 -0.5096 -0.2009
 1920SOL     OW17395   1.512   4.638   9.749  0.0161  0.5788  0.1478
 1920SOL    HW117396   1.493   4.657   9.841 -0.7114  0.2289  0.0689
 1920SOL    HW217397   1.541   4.547   9.755 -0.3764  0.6669  3.4298
 1921SOL     OW17398   3.197   1.336   6.185  0.5967 -0.7482 -0.1137
 1921SOL    HW117399   3.175   1.427   6.163 -2.5341 -1.2619  0.9763
 1921SOL    HW217400   3.258   1.342   6.260  0.1769 -1.3339  0.2771
 1922SOL     OW17401   1.694   4.316   5.868 -0.0059  0.1206 -0.2664
 1922SOL    HW117402   1.739   4.299   5.951  1.2557 -2.1012 -1.3852
 1922SOL    HW217403   1.744   4.264   5.805  1.0128 -0.7130  1.2317
 1923SOL     OW17404   3.375   3.187   6.767 -0.1396  0.3714 -0.4122
 1923SOL    HW117405   3.288   3.202   6.804  1.3958 -0.3721  3.5172
 1923SOL    HW217406   3.410   3.271   6.797 -0.7751 -0.2343  2.0271
 1924SOL     OW17407   0.492   2.144  16.405 -0.0172  0.1685  0.0207
 1924SOL    HW117408   0.535   2.118  16.487 -0.3099 -3.2587 -0.9376
 1924SOL    HW217409   0.484   2.057  16.366 -2.8019  0.7067 -0.6083
 1925SOL     OW17410   0.473   0.891   6.064  0.0863 -0.3373 -0.4748
 1925SOL    HW117411   0.402   0.927   6.116 -0.7062 -2.7897  0.1213
 1925SOL    HW217412   0.468   0.801   6.094  2.9071 -0.3957 -0.1784
 1926SOL     OW17413   0.324   2.451  14.312 -0.1015  0.3681 -0.0735
 1926SOL    HW117414   0.333   2.468  14.406  0.5078  0.5222 -0.1629
 1926SOL    HW217415   0.368   2.517  14.259  1.2154  0.3025  0.9574
 1927SOL     OW17416   1.892   4.316   3.773  0.0659 -0.3165 -0.0676
 1927SOL    HW117417   1.884   4.306   3.678  0.8855  1.8190 -0.3790
 1927SOL    HW217418   1.810   4.276   3.803  0.3168 -0.7838 -0.0122
 1928SOL     OW17419   2.829   2.256  16.432 -0.0124 -0.4259  0.4508
 1928SOL    HW117420   2.922   2.258  16.454  0.6197 -1.2759 -2.1568
 1928SOL    HW217421   2.791   2.197  16.497  2.4018 -0.0196  2.2605
 1929SOL     OW17422   1.923   2.844   8.766 -0.3494 -0.0252  0.4400
 1929SOL    HW117423   1.846   2.870   8.716  0.6463  0.8147 -0.6843
 1929SOL    HW217424   1.888   2.828   8.853  1.6611  2.6170  1.7485
 1930SOL     OW17425   0.321   3.420   1.692  0.1216 -0.2476  0.0217
 1930SOL    HW117426   0.243   3.373   1.664 -0.6411  0.7839  0.4163
 1930SOL    HW217427   0.326   3.473   1.612  0.3605 -1.1705 -0.5737
 1931SOL     OW17428   1.192   1.461   2.951  0.2111 -0.0154 -0.6383
 1931SOL    HW117429   1.156   1.408   2.880  0.0543 -2.3751  1.2209
 1931SOL    HW217430   1.247   1.393   2.991 -0.6091  0.3746  1.1579
 1932SOL     OW17431   2.643   4.461   6.436  0.1754 -0.1668  0.3632
 1932SOL    HW117432   2.646   4.368   6.462 -0.0180 -0.1177  0.5588
 1932SOL    HW217433   2.738   4.474   6.439  0.1977  0.0330 -1.4738
 1933SOL     OW17434   3.463   2.915   4.414 -0.2045 -0.1501 -0.7277
 1933SOL    HW117435   3.489   2.992   4.466 -1.8933 -0.2213  0.2305
 1933SOL    HW217436   3.513   2.850   4.463 -0.4144 -0.6199 -1.1530
 1934SOL     OW17437   1.205   3.493   3.809 -0.5968  0.1432 -0.7227
 1934SOL    HW117438   1.152   3.573   3.805 -1.0344 -0.1126 -0.0268
 1934SOL    HW217439   1.150   3.421   3.777  0.0542 -1.6823  2.2760
 1935SOL     OW17440   3.502   4.422   9.857 -0.1645 -0.1153 -0.4449
 1935SOL    HW117441   3.468   4.493   9.912  0.8327  0.6295 -0.8000
 1935SOL    HW217442   3.419   4.384   9.828 -0.1130 -0.6799  0.1427
 1936SOL     OW17443   2.583   3.208   4.724 -0.4042  0.2451 -0.0840
 1936SOL    HW117444   2.671   3.171   4.732  0.2198  1.7021 -0.1698
 1936SOL    HW217445   2.592   3.277   4.790 -1.3992  0.2072  0.0827
 1937SOL     OW17446   1.253   2.362   6.442  0.0446 -0.3793  0.3191
 1937SOL    HW117447   1.319   2.423   6.477  1.5136 -1.8454  0.1083
 1937SOL    HW217448   1.246   2.295   6.509 -0.5566 -0.1936  0.4421
 1938SOL     OW17449   1.754   1.893   0.576  0.7241  0.3349  0.1248
 1938SOL    HW117450   1.708   1.965   0.619 -0.2563  0.8252 -1.7379
 1938SOL    HW217451   1.783   1.928   0.492  0.1032  2.0804  0.6427
 1939SOL     OW17452   1.465   1.098   6.134  0.6802 -0.3811  0.2165
 1939SOL    HW117453   1.486   1.039   6.206  0.1389  1.2199  1.6893
 1939SOL    HW217454   1.408   1.158   6.182  1.9618 -1.0854  2.5970
 1940SOL     OW17455   4.298   3.486   1.437  0.3889  0.1591  0.1522
 1940SOL    HW117456   4.344   3.473   1.354 -0.1054  0.2933 -0.1382
 1940SOL    HW217457   4.215   3.516   1.400  0.6248 -0.2330 -0.7039
 1941SOL     OW17458   2.636   1.550  10.355 -0.0381 -0.2730 -0.1575
 1941SOL    HW117459   2.730   1.563  10.341  0.6483 -2.5137  2.3688
 1941SOL    HW217460   2.637   1.462  10.392 -0.6277  1.7484  4.6120
 1942SOL     OW17461   1.965   3.145  16.082 -0.2023  0.0540  0.0867
 1942SOL    HW117462   1.913   3.098  16.017 -1.4670 -0.3123  1.3548
 1942SOL    HW217463   1.940   3.104  16.165 -0.7788  1.8206  0.7968
 1943SOL     OW17464   3.945   3.438   2.447  0.1715 -0.0333  0.1105
 1943SOL    HW117465   3.927   3.450   2.540  1.4964  0.3389  0.3259
 1943SOL    HW217466   3.860   3.461   2.411  0.9810 -0.5911 -2.1745
 1944SOL     OW17467   1.520   1.069   4.547 -0.2192  0.2461  0.0732
 1944SOL    HW117468   1.558   1.048   4.462  0.8463  1.4667  0.2481
 1944SOL    HW217469   1.449   1.123   4.513  0.9039  0.8346 -1.3584
 1945SOL     OW17470   3.529   3.131   0.916 -0.4329  0.2110 -0.1184
 1945SOL    HW117471   3.495   3.123   1.005 -0.1932 -1.4825 -0.1944
 1945SOL    HW217472   3.445   3.158   0.877  1.3107  2.9223 -1.9907
 1946SOL     OW17473   2.298   2.464  14.678  0.7252  0.2546 -0.0693
 1946SOL    HW117474   2.273   2.551  14.645 -0.3447 -0.3813 -0.9135
 1946SOL    HW217475   2.310   2.477  14.772 -0.1549  1.3679 -0.1060
 1947SOL     OW17476   3.385   0.749   6.334  0.2352  0.5198  0.2483
 1947SOL    HW117477   3.307   0.694   6.331  0.6678 -0.1155  0.8292
 1947SOL    HW217478   3.433   0.687   6.389  1.3400  0.1387 -1.1597
 1948SOL     OW17479   3.961   1.296   9.295  0.1367  0.1672 -0.1820
 1948SOL    HW117480   3.907   1.227   9.332 -1.1276  0.2056 -1.9958
 1948SOL    HW217481   4.048   1.280   9.333  0.3791 -2.4640 -1.8639
 1949SOL     OW17482   1.949   4.022   8.349  0.0188  0.5269  0.4204
 1949SOL    HW117483   1.918   4.046   8.261 -0.1300 -0.4238  0.2126
 1949SOL    HW217484   2.027   3.969   8.332 -0.3460  0.1924 -0.2379
 1950SOL     OW17485   4.379   1.291   8.304  0.0615 -0.2193 -0.1172
 1950SOL    HW117486   4.320   1.290   8.380 -1.9591 -0.5624 -1.6907
 1950SOL    HW217487   4.327   1.343   8.243  0.2267 -0.3879 -0.4046
 1951SOL     OW17488   4.081   4.469   3.706 -0.1469 -0.0807 -0.1782
 1951SOL    HW117489   3.996   4.457   3.665 -0.9838  2.2352  0.8583
 1951SOL    HW217490   4.123   4.389   3.675  1.3639  0.0289  1.5499
 1952SOL     OW17491   1.244   1.068   1.205 -0.7342 -0.3163  0.3122
 1952SOL    HW117492   1.264   1.110   1.122  2.3186  1.3704  1.9044
 1952SOL    HW217493   1.187   0.996   1.181 -1.7718  0.1860  1.2430
 1953SOL     OW17494   0.484   4.567   3.884 -0.3613  0.0231 -0.1272
 1953SOL    HW117495   0.399   4.531   3.860 -0.2596  0.7122 -1.5242
 1953SOL    HW217496   0.477   4.568   3.979  0.8108  1.4695 -0.0509
 1954SOL     OW17497   3.477   1.244  13.439 -0.2341  0.5293  0.0589
 1954SOL    HW117498   3.553   1.235  13.497  0.5377 -0.1327 -1.0641
 1954SOL    HW217499   3.404   1.230  13.500  0.2328 -0.0307  0.4965
 1955SOL     OW17500   0.158   1.631  12.623  0.5025  0.8754 -0.0949
 1955SOL    HW117501   0.104   1.707  12.646 -2.2936 -1.5481  1.2164
 1955SOL    HW217502   0.243   1.664  12.654 -0.3482  3.0252 -0.0458
 1956SOL     OW17503   3.504   2.135  12.134  0.1371  0.0565  0.7284
 1956SOL    HW117504   3.466   2.063  12.185  1.0109 -0.3056  0.8785
 1956SOL    HW217505   3.432   2.197  12.138 -0.3861 -0.5051 -0.0012
 1957SOL     OW17506   2.834   4.056  16.216 -0.1030 -0.4943 -0.2396
 1957SOL    HW117507   2.801   4.124  16.275 -0.2041  0.2429 -1.1499
 1957SOL    HW217508   2.920   4.077  16.181 -0.4116 -1.1483 -1.3968
 1958SOL     OW17509   3.319   3.436   3.271 -0.1745 -0.2752  0.5352
 1958SOL    HW117510   3.336   3.530   3.272  0.0002 -0.2679 -1.6221
 1958SOL    HW217511   3.373   3.415   3.195  1.4013 -1.9582  2.1508
 1959SOL     OW17512   1.032   0.310   8.614  0.4658 -0.2430  0.0556
 1959SOL    HW117513   0.954   0.263   8.584  1.3769 -0.1475 -2.4605
 1959SOL    HW217514   1.091   0.235   8.603  0.6869  0.1030 -1.1378
 1960SOL     OW17515   0.031   0.808   3.945 -0.2005 -0.4581  0.2886
 1960SOL    HW117516   0.046   0.897   3.913 -2.1996 -1.6232 -3.9029
 1960SOL    HW217517   4.679   0.798   3.952 -0.4831  0.1686 -2.4556
 1961SOL     OW17518   3.476   3.230   2.662  0.7626  0.8279 -0.2331
 1961SOL    HW117519   3.473   3.326   2.661 -1.8418  0.7574 -1.2820
 1961SOL    HW217520   3.427   3.210   2.742 -0.1306  0.5172 -0.8507
 1962SOL     OW17521   4.489   0.565   4.017 -0.2616 -0.3339 -0.2359
 1962SOL    HW117522   4.395   0.571   4.032 -0.0550 -0.4030  1.0201
 1962SOL    HW217523   4.496   0.652   3.978  2.5214  0.3741  1.8380
 1963SOL     OW17524   2.411   4.240  16.019  0.2742  0.6020 -0.1801
 1963SOL    HW117525   2.452   4.291  16.089  0.7662  1.6200 -1.2025
 1963SOL    HW217526   2.494   4.208  15.983  1.5220  0.9272  2.3408
 1964SOL     OW17527   0.309   4.266   1.568 -0.2237 -0.5008 -0.1237
 1964SOL    HW117528   0.396   4.293   1.597 -0.0646  1.4349 -2.4590
 1964SOL    HW217529   0.293   4.206   1.641  2.5027 -2.1515 -0.8920
 1965SOL     OW17530   2.843   1.478   4.403 -0.3186  0.8147 -0.1023
 1965SOL    HW117531   2.927   1.435   4.393 -0.3204  1.2476 -1.9467
 1965SOL    HW217532   2.795   1.455   4.324  0.9021  1.5492 -1.0381
 1966SOL     OW17533   4.422   4.500   4.407 -0.2727 -0.2500 -0.4461
 1966SOL    HW117534   4.342   4.447   4.400 -1.8913  2.1170 -0.1445
 1966SOL    HW217535   4.484   4.428   4.397  2.4466  2.0144  0.1462
 1967SOL     OW17536   2.184   1.646  11.707  0.0459 -0.1657 -0.2228
 1967SOL    HW117537   2.098   1.683  11.728 -0.2472  0.2841 -2.2484
 1967SOL    HW217538   2.188   1.645  11.612 -1.2001 -1.2115 -0.2594
 1968SOL     OW17539   0.231   1.365   3.049  0.0715 -0.0380  0.5627
 1968SOL    HW117540   0.312   1.378   2.998  0.0456 -1.8481  0.0417
 1968SOL    HW217541   0.239   1.433   3.115 -0.5985  1.1720 -0.5999
 1969SOL     OW17542   3.708   2.907   4.844  0.1763  0.6841 -0.1546
 1969SOL    HW117543   3.723   2.969   4.916  2.5101  0.7680 -0.7365
 1969SOL    HW217544   3.728   2.823   4.885 -1.4859  0.6184  0.5565
 1970SOL     OW17545   3.543   1.612  15.966 -0.1570 -0.4969  0.8890
 1970SOL    HW117546   3.627   1.595  16.009  1.4085  2.9228 -0.7495
 1970SOL    HW217547   3.498   1.531  15.990  0.4323 -1.2843 -0.6806
 1971SOL     OW17548   3.871   4.201   3.160  0.0730  0.6076 -0.1598
 1971SOL    HW117549   3.899   4.210   3.068  1.7661 -2.8459  0.0500
 1971SOL    HW217550   3.790   4.157   3.135 -1.0900  2.0511  1.0633
 1972SOL     OW17551   3.669   2.497   3.267  0.0566 -0.5646 -0.1319
 1972SOL    HW117552   3.672   2.587   3.300  1.3508  0.2929 -2.6062
 1972SOL    HW217553   3.727   2.451   3.328 -0.9554 -1.6885 -0.0335
 1973SOL     OW17554   2.292   2.616  12.344  0.2429  0.5077 -0.1352
 1973SOL    HW117555   2.368   2.568  12.376 -0.2568 -0.5030 -0.4617
 1973SOL    HW217556   2.258   2.567  12.269  1.5611 -2.0448  0.9610
 1974SOL     OW17557   2.076   3.207   0.736  0.1747  0.0386 -0.2900
 1974SOL    HW117558   2.099   3.279   0.676 -1.0653 -1.0333 -2.0459
 1974SOL    HW217559   1.986   3.223   0.763 -0.5923 -1.6156 -1.8776
 1975SOL     OW17560   0.566   4.698   9.567 -0.3891 -0.5966  0.5527
 1975SOL    HW117561   0.520   4.706   9.484 -0.5840  0.4311  0.7654
 1975SOL    HW217562   0.490   4.678   9.622 -0.9401 -0.8664 -0.3150
 1976SOL     OW17563   1.493   2.586  14.054 -0.1515 -0.1369  1.2444
 1976SOL    HW117564   1.541   2.583  14.137  1.1063 -1.6807  0.4714
 1976SOL    HW217565   1.466   2.677  14.043 -1.9987 -1.0716 -1.8837
 1977SOL     OW17566   0.185   0.070   6.099  0.4260 -0.1761  0.0534
 1977SOL    HW117567   0.161   0.153   6.139  3.3698  0.2953  0.8644
 1977SOL    HW217568   0.124   0.053   6.027  0.3073 -0.5398  0.2410
 1978SOL     OW17569   4.465   2.847   2.360 -0.0789 -0.3221 -0.0660
 1978SOL    HW117570   4.407   2.902   2.307 -1.3310 -0.6290  0.9822
 1978SOL    HW217571   4.473   2.767   2.308 -0.2870 -1.8217  2.2184
 1979SOL     OW17572   4.670   2.292   8.187  0.3159 -0.6992  0.0933
 1979SOL    HW117573   4.683   2.378   8.227  1.7487 -0.2503 -1.3629
 1979SOL    HW217574   4.731   2.282   8.114 -1.2045 -2.3061 -0.9795
 1980SOL     OW17575   1.719   4.155   2.396 -0.7765  0.1762 -0.5273
 1980SOL    HW117576   1.653   4.170   2.464  0.0572 -0.3370  0.3961
 1980SOL    HW217577   1.688   4.219   2.332  0.0545 -0.8822 -2.0067
 1981SOL     OW17578   0.303   1.751   9.024  0.4500 -0.9007 -0.5452
 1981SOL    HW117579   0.280   1.843   9.010  1.7646 -0.3749  0.7951
 1981SOL    HW217580   0.251   1.717   8.952  1.3911 -1.5743 -0.9076
 1982SOL     OW17581   3.988   1.118  11.731  0.2936 -0.2451  0.3926
 1982SOL    HW117582   3.908   1.069  11.714  0.6893 -0.9848  0.6592
 1982SOL    HW217583   3.981   1.173  11.652  0.5593  1.0387  1.2565
 1983SOL     OW17584   0.129   0.920  11.485  0.2775 -0.7077 -0.2083
 1983SOL    HW117585   0.115   0.883  11.398 -0.5805  1.6172 -1.0513
 1983SOL    HW217586   0.057   0.882  11.536 -0.5228 -0.4889 -1.1833
 1984SOL     OW17587   2.285   4.143  16.267 -0.1683  0.2982  0.2400
 1984SOL    HW117588   2.364   4.109  16.309 -0.1670 -0.4700 -0.3955
 1984SOL    HW217589   2.312   4.121  16.177  1.4775 -0.9464  1.0286
 1985SOL     OW17590   0.713   2.811  10.422  0.2912 -0.1259 -0.6562
 1985SOL    HW117591   0.774   2.776  10.486 -0.7755  3.3032  2.2390
 1985SOL    HW217592   0.629   2.791  10.462  1.0317 -0.4781  0.7340
 1986SOL     OW17593   3.568   1.415   7.106 -0.5037 -0.1751 -0.4818
 1986SOL    HW117594   3.601   1.391   7.193  4.1878 -2.0771 -2.7873
 1986SOL    HW217595   3.498   1.479   7.121 -1.3946 -1.9317  2.7380
 1987SOL     OW17596   1.542   4.562   1.951 -0.2465  0.0351  0.0279
 1987SOL    HW117597   1.573   4.652   1.942  1.0516 -0.6750 -2.5596
 1987SOL    HW217598   1.604   4.510   1.901  1.1408  3.1513 -1.5000
 1988SOL     OW17599   0.172   3.411   9.237  0.4489 -0.1141  0.3735
 1988SOL    HW117600   0.184   3.398   9.143 -0.4172  0.7808  0.1449
 1988SOL    HW217601   0.082   3.442   9.234 -0.0971 -1.6817  0.4799
 1989SOL     OW17602   2.114   1.555   4.032  0.4802  0.3757  0.2616
 1989SOL    HW117603   2.172   1.479   4.038  1.5594  1.1082 -0.8378
 1989SOL    HW217604   2.036   1.509   4.000 -0.0887  1.6396 -0.1644
 1990SOL     OW17605   0.848   4.202   7.781  0.3614 -0.0465  0.0682
 1990SOL    HW117606   0.834   4.292   7.809  1.0742 -0.5903  2.1590
 1990SOL    HW217607   0.918   4.160   7.830  0.4521  1.8775  1.5739
 1991SOL     OW17608   0.993   3.894  16.363 -0.3018 -0.0089 -0.1708
 1991SOL    HW117609   1.072   3.922  16.316  0.5373 -0.9819  0.6595
 1991SOL    HW217610   0.934   3.950  16.313 -1.6095 -0.9443  0.3470
 1992SOL     OW17611   0.300   1.573   0.486  0.6142  0.2634 -0.0728
 1992SOL    HW117612   0.283   1.622   0.567 -1.7135  0.1512 -0.5021
 1992SOL    HW217613   0.357   1.503   0.520 -2.1632 -0.4018  3.3200
 1993SOL     OW17614   1.017   0.567   9.119  0.1645 -0.4171  0.2006
 1993SOL    HW117615   1.053   0.538   9.203  0.4376  3.7429  1.5000
 1993SOL    HW217616   1.013   0.482   9.075 -1.6414 -1.6638  2.7917
 1994SOL     OW17617   4.534   2.120   5.857 -0.4276 -0.2252  0.4054
 1994SOL    HW117618   4.560   2.040   5.904  0.0204 -1.1981 -1.5318
 1994SOL    HW217619   4.443   2.122   5.885 -0.8856 -0.5372 -1.1056
 1995SOL     OW17620   3.992   2.829   4.378  0.3884 -0.2064  0.2115
 1995SOL    HW117621   3.914   2.774   4.373  1.6625 -1.8380 -1.7450
 1995SOL    HW217622   3.978   2.885   4.454  3.0350  1.0874 -0.2303
 1996SOL     OW17623   3.445   0.153   5.851  0.0122  0.0157  0.7300
 1996SOL    HW117624   3.524   0.207   5.846 -0.5882  0.9743  1.4629
 1996SOL    HW217625   3.398   0.184   5.773 -1.0141  0.1037  1.3870
 1997SOL     OW17626   1.530   2.306  17.710 -0.1346 -0.7275  0.0221
 1997SOL    HW117627   1.454   2.352  17.745  1.2576  0.7721  1.0663
 1997SOL    HW217628   1.579   2.386  17.689 -0.0580 -0.4691  1.1878
 1998SOL     OW17629   0.704   3.180   6.051 -0.0370  0.3313  0.0511
 1998SOL    HW117630   0.611   3.160   6.046  0.1445 -0.5073 -0.0157
 1998SOL    HW217631   0.714   3.275   6.046  0.3439  0.2964  0.1210
 1999SOL     OW17632   0.155   1.707   5.570  0.6151 -0.4275  0.3912
 1999SOL    HW117633   0.173   1.677   5.481 -3.7091 -1.9634  0.0432
 1999SOL    HW217634   0.195   1.640   5.625  1.1412 -0.9791 -0.6915
 2000SOL     OW17635   1.085   4.238   6.045 -0.3954 -0.3823 -0.0748
 2000SOL    HW117636   1.055   4.317   6.090  1.5767 -0.6511  1.7098
 2000SOL    HW217637   1.142   4.203   6.113  1.8376 -0.1070 -1.7977
 2001SOL     OW17638   0.837   4.400  17.248  0.3335  0.2680  0.3450
 2001SOL    HW117639   0.875   4.430  17.165 -0.4846  2.0071  0.5820
 2001SOL    HW217640   0.845   4.306  17.234  2.1220  0.4877 -0.1093
 2002SOL     OW17641   4.645   3.715  11.705  0.3340  0.4599  0.0970
 2002SOL    HW117642   4.636   3.809  11.720  1.0985  0.5112  0.2367
 2002SOL    HW217643   4.707   3.720  11.633 -0.2657  1.9121 -0.3263
 2003SOL     OW17644   1.590   3.660   9.965 -0.4362 -0.0523 -0.4320
 2003SOL    HW117645   1.609   3.587   9.907 -0.3677  0.6036 -1.2344
 2003SOL    HW217646   1.596   3.612  10.048  3.0236  1.4220  0.1551
 2004SOL     OW17647   1.173   1.133  13.369  0.1418 -0.0279 -0.2775
 2004SOL    HW117648   1.214   1.084  13.298 -0.4873 -2.2600  0.8910
 2004SOL    HW217649   1.249   1.176  13.409  1.5554 -0.9734 -1.9811
 2005SOL     OW17650   0.999   1.105  13.596 -0.2608 -0.0216 -0.3687
 2005SOL    HW117651   1.048   1.184  13.618 -0.5802  0.2561 -0.6565
 2005SOL    HW217652   1.055   1.082  13.521  2.0058 -0.3000  1.4245
 2006SOL     OW17653   2.911   4.213   4.686 -0.4242  0.1408  0.5594
 2006SOL    HW117654   2.926   4.254   4.601  0.5664 -2.9444 -0.7844
 2006SOL    HW217655   2.993   4.164   4.700  0.5683  1.0765 -2.0455
 2007SOL     OW17656   1.984   3.572   2.183  0.0200 -0.0898  0.1271
 2007SOL    HW117657   2.003   3.518   2.259 -2.8667 -0.5541  0.5469
 2007SOL    HW217658   2.034   3.515   2.125 -1.5405 -0.0349 -1.2987
 2008SOL     OW17659   0.791   3.400   8.980  0.5976  1.0999  0.4872
 2008SOL    HW117660   0.791   3.466   9.049 -0.8236  1.1183  0.4782
 2008SOL    HW217661   0.713   3.419   8.928 -0.8787 -1.3316  1.7927
 2009SOL     OW17662   0.160   0.424   9.710  0.1150  0.0812  0.6701
 2009SOL    HW117663   0.086   0.484   9.716  0.5916  0.5582  1.6780
 2009SOL    HW217664   0.128   0.361   9.774  0.8270 -1.2450 -0.2668
 2010SOL     OW17665   3.486   3.947  11.066  0.1819  0.1180  0.3954
 2010SOL    HW117666   3.411   3.981  11.114  0.8083  0.7099  0.9553
 2010SOL    HW217667   3.545   3.926  11.138  0.3799 -2.4077 -0.5088
 2011SOL     OW17668   0.199   2.638   5.906  0.0250 -0.8266  0.0550
 2011SOL    HW117669   0.147   2.718   5.897  0.7945 -0.3192  0.2080
 2011SOL    HW217670   0.168   2.592   5.984 -0.8754 -0.1120  0.1271
 2012SOL     OW17671   3.865   3.989   4.903  0.1302 -0.1992 -0.1416
 2012SOL    HW117672   3.881   3.954   4.991 -3.6281 -1.5469 -0.0216
 2012SOL    HW217673   3.896   3.917   4.848 -0.7063 -0.3836 -0.3732
 2013SOL     OW17674   0.658   2.941   2.808 -0.2730 -0.1077 -0.2908
 2013SOL    HW117675   0.723   2.906   2.749  0.4027  0.2355  0.2493
 2013SOL    HW217676   0.582   2.902   2.765  0.7437  0.2435 -2.4015
 2014SOL     OW17677   4.037   0.018   3.277  0.1277  0.0202 -0.0827
 2014SOL    HW117678   4.115   4.735   3.327  0.3736 -0.4522 -0.7011
 2014SOL    HW217679   4.059   0.110   3.290  1.3314 -0.2324 -0.3387
 2015SOL     OW17680   0.856   1.591   7.688 -0.8083  0.5101  0.3523
 2015SOL    HW117681   0.949   1.590   7.711 -1.8453 -0.7117  4.4318
 2015SOL    HW217682   0.855   1.651   7.613 -0.9023  0.0122 -0.0423
 2016SOL     OW17683   1.393   1.831   6.981  0.0941  0.7016 -0.0302
 2016SOL    HW117684   1.387   1.849   7.075  1.7921  1.5324 -0.0779
 2016SOL    HW217685   1.303   1.848   6.955 -0.0992 -0.4297 -0.0766
 2017SOL     OW17686   2.728   3.363   4.904 -0.7759  0.3582 -0.0253
 2017SOL    HW117687   2.791   3.300   4.939 -1.9158 -0.8979 -0.2230
 2017SOL    HW217688   2.783   3.393   4.832  0.0425 -0.3196  0.3232
 2018SOL     OW17689   2.510   0.685   1.433  0.3542 -0.2889  0.0265
 2018SOL    HW117690   2.520   0.669   1.339 -1.4518 -0.6087 -0.1030
 2018SOL    HW217691   2.536   0.603   1.476 -1.7916 -0.4020  1.0802
 2019SOL     OW17692   0.782   1.366   6.467  0.4569 -0.2287 -0.1271
 2019SOL    HW117693   0.732   1.292   6.502  0.5297 -1.8666 -3.4719
 2019SOL    HW217694   0.762   1.439   6.526 -0.7131  0.3587 -1.2445
 2020SOL     OW17695   4.176   2.839   9.527 -0.0497  0.4018  0.1785
 2020SOL    HW117696   4.095   2.888   9.542 -0.9706 -1.0862  0.0543
 2020SOL    HW217697   4.231   2.881   9.593  0.0247  0.9444 -0.2320
 2021SOL     OW17698   2.754   4.725   9.054  0.0807 -0.4105 -0.3988
 2021SOL    HW117699   2.770   0.046   8.983 -3.4490  0.0460 -0.7557
 2021SOL    HW217700   2.836   4.733   9.103  0.9797  2.3215 -2.3036
 2022SOL     OW17701   1.505   3.687   7.798 -0.2585 -0.0696 -0.7498
 2022SOL    HW117702   1.580   3.741   7.774 -0.4451 -0.2758 -1.7833
 2022SOL    HW217703   1.430   3.743   7.782 -0.8126 -1.0105 -1.4347
 2023SOL     OW17704   2.505   3.220   0.040  0.4219 -0.5163  0.4986
 2023SOL    HW117705   2.515   3.127   0.020  1.1677 -0.3406  0.0698
 2023SOL    HW217706   2.554   3.247  17.729 -0.1023  0.4649  0.5051
 2024SOL     OW17707   3.618   2.226  11.753 -0.9399  0.0606 -0.1686
 2024SOL    HW117708   3.589   2.317  11.744 -0.5830  0.2101  0.2190
 2024SOL    HW217709   3.554   2.180  11.808 -1.0336  0.1905 -0.1709
 2025SOL     OW17710   4.139   1.342   3.714  0.3643 -0.4729  0.2083
 2025SOL    HW117711   4.231   1.333   3.690  0.3565 -1.3137  0.5035
 2025SOL    HW217712   4.102   1.404   3.650  0.1910  0.6031  1.3409
 2026SOL     OW17713   1.267   2.918  16.632 -0.2916 -0.0617  0.3794
 2026SOL    HW117714   1.190   2.933  16.686  0.8388 -1.3136  2.3395
 2026SOL    HW217715   1.242   2.855  16.565 -0.3096 -0.1108  0.4325
 2027SOL     OW17716   1.916   0.888   2.350 -0.4225  0.2751 -0.2520
 2027SOL    HW117717   1.959   0.946   2.286 -2.1681  2.6391  0.7450
 2027SOL    HW217718   1.980   0.900   2.420 -2.5971  1.0523  1.5945
 2028SOL     OW17719   3.155   0.455   2.667  0.3525  0.5758  0.6838
 2028SOL    HW117720   3.196   0.457   2.753  3.3967  1.6250 -0.7916
 2028SOL    HW217721   3.232   0.478   2.616 -1.1685 -1.4695 -2.5619
 2029SOL     OW17722   1.119   0.848   0.819 -0.1784 -0.0480  0.6945
 2029SOL    HW117723   1.054   0.780   0.802 -0.4986  0.0101  1.6995
 2029SOL    HW217724   1.063   0.918   0.852 -1.2241 -0.9096  0.7395
 2030SOL     OW17725   0.203   1.098   8.831 -0.1001  0.7600 -0.3712
 2030SOL    HW117726   0.212   1.040   8.755 -0.6570 -1.0496  0.9311
 2030SOL    HW217727   0.194   1.031   8.899 -1.3653 -1.3632 -2.5795
 2031SOL     OW17728   1.784   3.068   1.285  0.5567 -0.5806 -0.0018
 2031SOL    HW117729   1.873   3.096   1.261  0.6065  0.3576  1.2520
 2031SOL    HW217730   1.749   3.156   1.284 -1.9115 -1.6022 -1.7233
 2032SOL     OW17731   4.379   0.547  14.493  0.2711  0.0674 -0.8937
 2032SOL    HW117732   4.389   0.600  14.414 -0.2403  1.2888 -0.1508
 2032SOL    HW217733   4.322   0.476  14.466 -0.3248  1.2767 -2.8272
 2033SOL     OW17734   2.934   3.683  10.406  0.1374 -0.1291  0.0756
 2033SOL    HW117735   2.857   3.639  10.443 -0.2277  0.4807  0.0501
 2033SOL    HW217736   2.995   3.615  10.377  1.9506  0.9870  1.2677
 2034SOL     OW17737   3.302   1.695  14.310 -0.2757  0.1249 -0.4207
 2034SOL    HW117738   3.343   1.747  14.380 -2.1544 -0.6133  1.2315
 2034SOL    HW217739   3.211   1.688  14.338  0.0531  0.3588  0.7028
 2035SOL     OW17740   2.273   3.789   6.843  0.5839 -0.4389 -0.3390
 2035SOL    HW117741   2.314   3.846   6.907  2.0143 -1.6240 -0.2110
 2035SOL    HW217742   2.342   3.785   6.777  0.7084  1.4066 -0.3086
 2036SOL     OW17743   2.829   1.438   8.123 -0.8608 -0.5215  0.0909
 2036SOL    HW117744   2.866   1.451   8.210 -0.7424 -0.7557  0.0751
 2036SOL    HW217745   2.856   1.349   8.101  0.8143  0.1174 -0.4718
 2037SOL     OW17746   0.689   1.620  13.848 -0.3203  0.0058  0.0063
 2037SOL    HW117747   0.756   1.565  13.807 -0.3632  0.9919 -1.4101
 2037SOL    HW217748   0.662   1.564  13.920 -0.4987 -0.7065 -0.6161
 2038SOL     OW17749   3.261   2.675  16.144  0.4315 -0.2571 -0.2302
 2038SOL    HW117750   3.217   2.750  16.105  0.1601 -0.9925 -1.3464
 2038SOL    HW217751   3.184   2.634  16.185  0.2336  1.4879  1.1646
 2039SOL     OW17752   3.536   4.345   9.583 -0.1707 -0.2199  0.8886
 2039SOL    HW117753   3.471   4.411   9.563 -0.2605 -1.4131 -2.9263
 2039SOL    HW217754   3.580   4.375   9.662  2.9511 -1.9750 -0.1727
 2040SOL     OW17755   2.614   3.398  16.093 -1.0726 -0.1378  0.2894
 2040SOL    HW117756   2.560   3.330  16.054 -0.2153 -0.3946 -0.4531
 2040SOL    HW217757   2.643   3.358  16.175  1.2453  0.3980 -0.2625
 2041SOL     OW17758   4.612   4.117   9.067 -0.0535  0.5550  0.9361
 2041SOL    HW117759   4.603   4.036   9.018 -1.8441  0.1963  1.8451
 2041SOL    HW217760   4.582   4.183   9.004  0.7238  0.3459  0.3462
 2042SOL     OW17761   1.261   3.583   4.431  0.2416  0.5255 -0.0308
 2042SOL    HW117762   1.195   3.514   4.442 -0.0213  0.7696 -0.0800
 2042SOL    HW217763   1.322   3.554   4.499  0.6593 -0.0818 -0.6525
 2043SOL     OW17764   3.608   0.871   7.009 -0.1426  0.4119 -0.6865
 2043SOL    HW117765   3.634   0.789   7.050  0.4118  0.8556 -0.1509
 2043SOL    HW217766   3.685   0.926   7.022 -0.1165 -0.2024  1.7138
 2044SOL     OW17767   0.277   2.529  12.261 -0.2879 -0.0887  1.0980
 2044SOL    HW117768   0.205   2.582  12.294  1.2068  2.6793 -0.1272
 2044SOL    HW217769   0.240   2.497  12.178 -1.1874  1.3356  0.9521
 2045SOL     OW17770   4.581   3.780   3.309 -0.9800  0.4495 -0.5287
 2045SOL    HW117771   4.675   3.770   3.324 -1.4432  0.0634  2.1650
 2045SOL    HW217772   4.556   3.725   3.383 -0.7148  1.1890  0.1070
 2046SOL     OW17773   3.514   0.762   5.582 -0.2543  0.1608  0.2403
 2046SOL    HW117774   3.608   0.780   5.590 -0.8440  2.6381  1.4178
 2046SOL    HW217775   3.514   0.685   5.524  4.0962  0.5079 -0.2069
 2047SOL     OW17776   0.800   2.088   4.657  0.3102  0.7363 -0.1277
 2047SOL    HW117777   0.742   2.012   4.654  1.5795 -0.2303  0.1039
 2047SOL    HW217778   0.842   2.094   4.743  1.8846 -1.1751 -0.7792
 2048SOL     OW17779   1.964   3.881  15.662 -0.2517 -0.9902 -0.0996
 2048SOL    HW117780   1.875   3.847  15.657 -0.9530  0.8047  0.4036
 2048SOL    HW217781   2.017   3.817  15.710 -1.7111 -1.5139  0.7874
 2049SOL     OW17782   4.737   0.226   9.877  0.4807  0.2924 -0.5364
 2049SOL    HW117783   0.045   0.182   9.944 -0.3255  1.4494  0.8413
 2049SOL    HW217784   4.675   0.279   9.928  0.4906 -0.9960  0.8109
 2050SOL     OW17785   1.024   0.933   2.103  0.2554 -0.0585 -0.3788
 2050SOL    HW117786   0.997   1.025   2.098 -0.9927 -0.3480  1.1470
 2050SOL    HW217787   0.957   0.897   2.045  1.7137  0.0308 -2.1607
 2051SOL     OW17788   1.830   2.314  15.622 -0.0700 -0.0068  0.0270
 2051SOL    HW117789   1.761   2.258  15.658 -0.0165  0.0510  0.2197
 2051SOL    HW217790   1.906   2.257  15.615 -0.2875 -0.2805 -0.1052
 2052SOL     OW17791   3.281   2.521  13.242  1.0018 -0.0870 -0.0451
 2052SOL    HW117792   3.240   2.502  13.157 -1.8856 -0.9400  1.5489
 2052SOL    HW217793   3.362   2.567  13.220  0.7273  0.0640 -0.7530
 2053SOL     OW17794   4.405   4.242   9.722  0.6257 -0.1487 -0.5324
 2053SOL    HW117795   4.465   4.287   9.663  0.6036  0.2998 -0.2109
 2053SOL    HW217796   4.442   4.280   9.801  1.2090 -0.1411 -0.8054
 2054SOL     OW17797   0.713   0.389   6.130 -0.1722  0.5879 -0.1897
 2054SOL    HW117798   0.680   0.387   6.220 -1.5923 -0.3458 -0.7252
 2054SOL    HW217799   0.801   0.352   6.124 -1.5062 -2.3768 -1.4613
 2055SOL     OW17800   0.854   1.873  14.926 -0.3418 -0.2872  0.0096
 2055SOL    HW117801   0.787   1.934  14.892  1.0508  0.6524 -1.0517
 2055SOL    HW217802   0.903   1.940  14.973  0.0414 -0.0690 -0.6930
 2056SOL     OW17803   2.026   1.885   7.445  0.2278 -0.4099 -0.2677
 2056SOL    HW117804   2.028   1.849   7.534  1.1385  0.7181  0.1649
 2056SOL    HW217805   1.933   1.890   7.421  0.8211  2.0985 -2.0156
 2057SOL     OW17806   3.657   1.795   5.244 -0.0192  0.0553  0.4892
 2057SOL    HW117807   3.653   1.800   5.339  2.1376  2.3720  0.4409
 2057SOL    HW217808   3.744   1.761   5.224  0.3355  0.7847  0.8188
 2058SOL     OW17809   0.453   2.582  16.492 -0.0156  0.0171  0.1795
 2058SOL    HW117810   0.460   2.673  16.522  0.6780 -0.2506  0.8333
 2058SOL    HW217811   0.358   2.576  16.495  0.0173 -0.5356  0.0740
 2059SOL     OW17812   0.760   4.524   1.595  0.1412 -1.0986 -0.3202
 2059SOL    HW117813   0.815   4.527   1.517  0.1788  1.2542 -0.1827
 2059SOL    HW217814   0.779   4.607   1.639  0.1539 -0.7830 -0.9325
 2060SOL     OW17815   3.784   1.403  14.800 -0.5711 -0.3167  0.3784
 2060SOL    HW117816   3.863   1.359  14.768 -0.1459  0.5801  0.1990
 2060SOL    HW217817   3.760   1.344  14.872 -1.6951 -1.0909 -0.6189
 2061SOL     OW17818   1.622   4.428   6.946 -0.0566 -0.1783  0.1329
 2061SOL    HW117819   1.689   4.474   6.895 -1.4407  2.0488  0.3508
 2061SOL    HW217820   1.639   4.340   6.914  2.1103  0.3291 -0.1478
 2062SOL     OW17821   3.992   2.577  16.901  0.3315 -0.5711 -0.5327
 2062SOL    HW117822   4.032   2.625  16.975  0.4426  0.0466 -0.9913
 2062SOL    HW217823   3.994   2.641  16.830  0.3671 -0.3192 -0.3046
 2063SOL     OW17824   2.401   2.549   4.418  0.1828  0.3580 -0.2523
 2063SOL    HW117825   2.306   2.555   4.409  0.0475 -0.2417  0.8112
 2063SOL    HW217826   2.419   2.621   4.358 -0.7136  0.4065 -0.4637
 2064SOL     OW17827   4.685   1.621   0.468  0.4747 -0.2033 -0.2972
 2064SOL    HW117828   0.015   1.630   0.406  0.2440 -1.2335 -0.7160
 2064SOL    HW217829   4.699   1.705   0.512 -1.5778  0.1449 -0.3265
 2065SOL     OW17830   4.457   3.695   2.964  0.5152  0.3538  0.1799
 2065SOL    HW117831   4.425   3.774   3.008 -1.1398 -0.9999  1.3960
 2065SOL    HW217832   4.372   3.663   2.933  0.2021  1.2103  0.1605
 2066SOL     OW17833   4.440   1.290   6.751 -0.0532 -0.0139 -0.1676
 2066SOL    HW117834   4.526   1.251   6.769  0.1790  0.5056 -0.1524
 2066SOL    HW217835   4.439   1.360   6.816 -2.5477  1.2794 -1.5803
 2067SOL     OW17836   1.215   4.619   1.468  0.2446  0.5438  0.1197
 2067SOL    HW117837   1.277   4.675   1.421 -0.3901  1.2891  0.1652
 2067SOL    HW217838   1.276   4.565   1.518  1.6947 -0.2100 -2.4641
 2068SOL     OW17839   3.928   4.173   5.283  0.0402  0.2199  0.9791
 2068SOL    HW117840   3.924   4.264   5.256 -3.3914 -1.1300 -3.0348
 2068SOL    HW217841   4.005   4.159   5.338 -0.7175  0.5720  2.1345
 2069SOL     OW17842   4.234   0.523   0.395 -0.0877 -0.2872  0.4842
 2069SOL    HW117843   4.180   0.556   0.323  1.2908 -0.8755 -0.8316
 2069SOL    HW217844   4.171   0.500   0.463  0.4332  1.9630  1.7580
 2070SOL     OW17845   0.503   4.167   0.277 -0.2048  0.2163 -0.4265
 2070SOL    HW117846   0.537   4.248   0.314 -1.3293 -0.4670  2.0906
 2070SOL    HW217847   0.579   4.130   0.232  1.1920 -0.1219  2.1965
 2071SOL     OW17848   2.671   4.462   4.621  0.6369 -0.5715  0.4966
 2071SOL    HW117849   2.602   4.399   4.601  0.4691  0.3968 -2.0033
 2071SOL    HW217850   2.674   4.438   4.713  0.5906 -0.1684  0.6023
 2072SOL     OW17851   3.294   2.559   4.442  0.5727  0.5010  0.6948
 2072SOL    HW117852   3.373   2.581   4.491  1.5847  0.9746 -1.1331
 2072SOL    HW217853   3.326   2.572   4.353 -1.2113 -0.6101 -0.1156
 2073SOL     OW17854   3.867   0.394  13.975 -0.3489  0.1796  0.3344
 2073SOL    HW117855   3.917   0.469  13.943  0.8901 -0.4426  0.8166
 2073SOL    HW217856   3.786   0.436  14.004  0.6099  2.1561  0.1306
 2074SOL     OW17857   4.012   0.965  15.891  0.1020 -0.1960 -0.0687
 2074SOL    HW117858   4.007   1.008  15.976 -1.7555 -0.7394  0.0895
 2074SOL    HW217859   3.944   1.015  15.844  0.0401 -0.3004 -0.0903
 2075SOL     OW17860   0.578   2.683   5.360 -0.2137 -0.1193  0.1019
 2075SOL    HW117861   0.614   2.616   5.418 -1.0055 -0.5671  0.0830
 2075SOL    HW217862   0.661   2.714   5.325  0.2450 -0.9095  0.4846
 2076SOL     OW17863   0.025   0.314   9.432  0.6279 -0.2588  0.3667
 2076SOL    HW117864   0.086   0.328   9.505  3.1510 -2.0879 -1.4229
 2076SOL    HW217865   4.724   0.239   9.473  0.2992 -0.5612 -0.5575
 2077SOL     OW17866   1.266   4.027   1.692  0.1852 -0.2254  0.0883
 2077SOL    HW117867   1.242   3.965   1.623 -0.5885  0.6012 -0.3911
 2077SOL    HW217868   1.239   4.110   1.651 -1.0484 -1.4614 -1.6077
 2078SOL     OW17869   3.701   0.511   3.642  0.2447  0.0954 -0.2664
 2078SOL    HW117870   3.610   0.498   3.666 -0.2069 -1.6858 -2.8680
 2078SOL    HW217871   3.737   0.553   3.720 -1.7401 -0.0176  0.7021
 2079SOL     OW17872   3.852   2.377   5.047 -0.5917 -0.4212 -0.1001
 2079SOL    HW117873   3.896   2.381   4.962  2.2876  4.8056  1.6619
 2079SOL    HW217874   3.768   2.418   5.030 -0.7400 -0.5761  0.2441
 2080SOL     OW17875   0.950   4.153   1.044 -0.7159 -0.6507 -0.0290
 2080SOL    HW117876   0.880   4.143   1.109 -1.4547 -1.9805 -1.0294
 2080SOL    HW217877   0.901   4.209   0.984 -0.5359 -1.0847 -0.5783
 2081SOL     OW17878   3.749   2.948   0.961  0.3501  0.1921 -0.6380
 2081SOL    HW117879   3.710   2.885   1.022 -3.7110  4.0453  0.7757
 2081SOL    HW217880   3.690   3.024   0.963 -0.5510 -0.6126  2.4853
 2082SOL     OW17881   4.633   3.123   1.541  0.4216 -0.2837 -0.8342
 2082SOL    HW117882   4.590   3.061   1.482  0.3140 -1.1086  0.1029
 2082SOL    HW217883   4.580   3.111   1.620 -1.3603  1.0311 -1.8231
 2083SOL     OW17884   1.779   3.668   1.864  0.1439  0.7261  0.0077
 2083SOL    HW117885   1.748   3.715   1.941 -0.9856  0.3255 -0.1905
 2083SOL    HW217886   1.824   3.734   1.812  0.7518  0.8756  0.7255
 2084SOL     OW17887   4.501   0.854   4.972  0.3784 -0.3219 -0.5271
 2084SOL    HW117888   4.505   0.948   4.951 -1.0704  0.1247  1.2151
 2084SOL    HW217889   4.588   0.842   5.010 -0.5909  0.0466  1.8442
 2085SOL     OW17890   3.400   1.152  13.761 -0.3303 -0.1840  0.3124
 2085SOL    HW117891   3.491   1.180  13.768 -0.1276 -0.1695 -2.4466
 2085SOL    HW217892   3.406   1.064  13.724 -0.5440  0.5075 -1.3889
 2086SOL     OW17893   2.706   3.140   5.535 -0.1399 -0.7037 -0.0354
 2086SOL    HW117894   2.772   3.207   5.554 -1.6321  1.0683 -1.0463
 2086SOL    HW217895   2.716   3.129   5.441  0.1716  1.9078 -0.3291
 2087SOL     OW17896   4.141   4.462   0.695 -0.2315  0.3744  0.0591
 2087SOL    HW117897   4.202   4.389   0.687 -1.1569 -0.3269 -0.5448
 2087SOL    HW217898   4.211   4.526   0.684 -1.2652  1.1029 -2.2152
 2088SOL     OW17899   2.755   3.561   1.278  0.1957  0.7405 -0.0098
 2088SOL    HW117900   2.730   3.470   1.289 -0.3514  1.4465  4.2763
 2088SOL    HW217901   2.711   3.571   1.193  0.0359 -0.1467 -0.0354
 2089SOL     OW17902   3.190   4.555  13.338 -0.4187  0.3554 -0.3791
 2089SOL    HW117903   3.165   4.503  13.414  0.4435  0.3754 -0.0867
 2089SOL    HW217904   3.190   4.489  13.269 -0.3267  1.4412 -1.4371
 2090SOL     OW17905   3.757   1.282   4.768 -0.3363  0.1745  0.3368
 2090SOL    HW117906   3.807   1.220   4.821 -0.2905 -1.0993 -1.2091
 2090SOL    HW217907   3.691   1.308   4.833 -1.0493 -0.2976 -0.2078
 2091SOL     OW17908   4.084   0.499   5.890 -0.1086  0.1584  0.0998
 2091SOL    HW117909   4.085   0.483   5.985 -1.0644  0.4567  0.1589
 2091SOL    HW217910   4.089   0.593   5.906  0.2311  0.3365 -1.0373
 2092SOL     OW17911   4.414   2.362   1.995  0.0782 -0.0318 -0.0007
 2092SOL    HW117912   4.490   2.350   2.053  0.9444 -2.4143 -1.6454
 2092SOL    HW217913   4.436   2.431   1.933  2.4059 -0.5016  0.2989
 2093SOL     OW17914   4.382   1.298   3.549 -0.3263  0.2908  0.3381
 2093SOL    HW117915   4.384   1.388   3.517 -1.4682  0.4739  0.7764
 2093SOL    HW217916   4.332   1.255   3.479  1.8490 -2.1672  0.3110
 2094SOL     OW17917   2.262   4.609   7.390 -0.2142 -0.4965 -0.0848
 2094SOL    HW117918   2.253   4.693   7.435 -0.7797 -0.0997 -0.9385
 2094SOL    HW217919   2.229   4.561   7.466  2.3026  2.1380  2.6946
 2095SOL     OW17920   0.751   4.006   0.416  0.2495  0.4386 -0.2865
 2095SOL    HW117921   0.720   4.013   0.326 -0.7781 -0.0468  0.0259
 2095SOL    HW217922   0.797   3.922   0.421  1.6077  1.1961 -0.1711
 2096SOL     OW17923   2.009   0.122  15.988 -0.3354  0.0775  0.4189
 2096SOL    HW117924   2.009   0.176  16.068  0.3301  1.5017 -0.5372
 2096SOL    HW217925   2.026   0.036  16.025  0.3495 -0.8199 -2.0374
 2097SOL     OW17926   0.915   1.664   9.089  0.0914  0.1191  0.0109
 2097SOL    HW117927   1.007   1.643   9.103 -0.3861 -2.5409 -0.7932
 2097SOL    HW217928   0.872   1.647   9.173 -0.9882  0.4679 -0.4646
 2098SOL     OW17929   0.647   2.058  16.641  0.2949  0.4856 -0.0324
 2098SOL    HW117930   0.724   2.106  16.671  0.0478 -0.0584  1.4496
 2098SOL    HW217931   0.602   2.063  16.725 -0.3411 -4.0811 -0.0641
 2099SOL     OW17932   4.633   4.409  16.588 -0.0558 -0.5574 -0.1228
 2099SOL    HW117933   4.655   4.486  16.536  0.8206 -1.1736 -0.6719
 2099SOL    HW217934   4.561   4.373  16.537 -0.2407  1.1539 -1.0667
 2100SOL     OW17935   2.773   1.103   7.441  0.0848  0.3297  0.2047
 2100SOL    HW117936   2.768   1.007   7.448  2.8848  0.1168 -0.5789
 2100SOL    HW217937   2.751   1.114   7.349 -1.9553 -3.2198  0.2550
 2101SOL     OW17938   4.157   0.761  15.473  0.3503  0.4882 -0.2969
 2101SOL    HW117939   4.187   0.670  15.467  2.3494  1.2463 -1.5207
 2101SOL    HW217940   4.121   0.767  15.561  2.6278 -0.8531  0.7267
 2102SOL     OW17941   0.399   1.621   4.267  0.0293  0.3971  0.6020
 2102SOL    HW117942   0.380   1.656   4.354  2.2681 -0.5682  1.4722
 2102SOL    HW217943   0.413   1.528   4.285 -1.0020 -0.0612 -0.9251
 2103SOL     OW17944   0.502   4.305  10.687  0.1328 -0.2155 -0.1972
 2103SOL    HW117945   0.525   4.305  10.594 -1.1945  1.2449 -0.5341
 2103SOL    HW217946   0.592   4.316  10.718  0.4068  0.1418 -1.0924
 2104SOL     OW17947   0.311   2.691   8.431 -0.4923  0.2332  0.0364
 2104SOL    HW117948   0.254   2.674   8.506 -0.3691 -0.0705  0.0600
 2104SOL    HW217949   0.386   2.668   8.486  0.4855  1.4536 -0.7807
 2105SOL     OW17950   3.063   0.249   6.349 -0.0418  0.7212 -0.2041
 2105SOL    HW117951   3.148   0.291   6.365  0.8518 -1.0588 -0.2331
 2105SOL    HW217952   3.031   0.284   6.266 -0.8324 -1.8701 -0.9965
 2106SOL     OW17953   2.190   1.726   4.823 -0.7319 -0.3069  0.4750
 2106SOL    HW117954   2.102   1.693   4.841 -0.6980  1.2601  3.5940
 2106SOL    HW217955   2.224   1.652   4.773 -2.3199 -0.1298 -0.8547
 2107SOL     OW17956   2.335   3.787   2.476  0.0779  0.2133 -0.1198
 2107SOL    HW117957   2.241   3.807   2.476  0.3250  1.3321  1.7356
 2107SOL    HW217958   2.341   3.747   2.389  0.7798  0.6976 -0.2888
 2108SOL     OW17959   2.877   3.949  10.246  0.1498 -0.4913 -0.4764
 2108SOL    HW117960   2.878   3.875  10.307 -0.0985 -0.2754 -0.2123
 2108SOL    HW217961   2.828   4.009  10.302  0.4755 -0.4957 -0.1845
 2109SOL     OW17962   2.875   1.770   7.100  0.1038 -0.3301  0.0877
 2109SOL    HW117963   2.790   1.794   7.138  0.7778  2.8526 -0.4894
 2109SOL    HW217964   2.897   1.691   7.149 -1.6401 -0.3096  0.9085
 2110SOL     OW17965   3.183   1.818   3.341  0.5983 -1.1431  0.2140
 2110SOL    HW117966   3.131   1.848   3.415  2.6780  1.0126  0.8041
 2110SOL    HW217967   3.127   1.789   3.268  1.4626 -0.8374 -0.5722
 2111SOL     OW17968   0.132   1.948   5.693  0.0222  0.5401  0.1656
 2111SOL    HW117969   0.055   1.914   5.739 -0.8101 -1.2353 -2.5531
 2111SOL    HW217970   0.157   1.868   5.648  2.1775  0.8751  0.8069
 2112SOL     OW17971   0.117   3.758  14.484 -0.1953  0.0908 -0.1237
 2112SOL    HW117972   0.100   3.669  14.452 -0.1793  0.8827 -2.3280
 2112SOL    HW217973   0.102   3.741  14.577  0.5920  0.0463 -0.0044
 2113SOL     OW17974   1.075   1.819   8.551  0.6742 -0.3580  0.3947
 2113SOL    HW117975   1.066   1.729   8.580  0.3452 -0.5079 -0.1686
 2113SOL    HW217976   1.063   1.859   8.638  1.0582 -0.1658  0.3575
 2114SOL     OW17977   1.983   2.366   2.633 -0.5328 -0.4672 -0.4277
 2114SOL    HW117978   2.011   2.389   2.544  0.1057  0.4543  0.0039
 2114SOL    HW217979   2.001   2.272   2.631 -2.0365 -0.7180 -2.8905
 2115SOL     OW17980   3.942   3.910   3.953 -0.3511 -0.9318  0.2005
 2115SOL    HW117981   3.872   3.963   3.992  0.6133  0.9107 -0.5882
 2115SOL    HW217982   3.971   3.968   3.882  1.0680 -3.6999 -1.4770
 2116SOL     OW17983   3.803   2.020   2.607  0.3591  0.1802  0.2394
 2116SOL    HW117984   3.746   1.972   2.547  2.4317 -2.4544  0.3881
 2116SOL    HW217985   3.861   2.060   2.542 -0.0680  1.0201  0.3833
 2117SOL     OW17986   2.418   2.370   8.171  0.0717  0.6088  0.2208
 2117SOL    HW117987   2.343   2.426   8.191 -0.5207 -1.1873  3.0454
 2117SOL    HW217988   2.403   2.292   8.225 -1.3937  2.0811  1.9254
 2118SOL     OW17989   4.048   4.737   4.317  0.3812  0.7525  0.2557
 2118SOL    HW117990   4.115   4.738   4.249  0.8648  1.4486  0.7409
 2118SOL    HW217991   3.967   4.730   4.266 -0.3101  0.9565  1.3249
 2119SOL     OW17992   2.734   2.043   7.521  0.3506  0.4921 -0.5374
 2119SOL    HW117993   2.707   2.061   7.431 -4.3774 -1.1513  0.5874
 2119SOL    HW217994   2.829   2.042   7.506  0.5842 -2.2615  1.1109
 2120SOL     OW17995   1.341   1.440   9.052  0.1217 -0.4869 -0.0319
 2120SOL    HW117996   1.397   1.448   9.129 -0.2415 -0.1259  0.1881
 2120SOL    HW217997   1.258   1.444   9.099  0.4972 -1.9957  0.7682
 2121SOL     OW17998   4.613   4.629   7.300 -0.2794 -0.4103 -0.4645
 2121SOL    HW117999   4.586   4.539   7.320 -1.6901 -1.0354 -5.1994
 2121SOL    HW218000   4.625   4.665   7.388  0.3731 -0.8128 -0.3897
 2122SOL     OW18001   3.009   1.682  17.167  0.5013  0.0204  0.1396
 2122SOL    HW118002   3.082   1.702  17.107 -0.3228  0.0989 -0.8409
 2122SOL    HW218003   2.960   1.625  17.109 -1.5224  1.6702  0.2273
 2123SOL     OW18004   3.924   3.543   1.929 -0.4620 -0.5491 -0.2555
 2123SOL    HW118005   4.003   3.527   1.981 -1.3376  0.9077  1.5317
 2123SOL    HW218006   3.928   3.637   1.913  0.1850 -0.9094 -2.1702
 2124SOL     OW18007   1.065   4.697  16.433  0.2546 -0.1036 -0.5232
 2124SOL    HW118008   1.051   0.040  16.472 -2.9496 -0.8025 -0.1485
 2124SOL    HW218009   1.095   4.712  16.343 -1.3944 -1.6510 -1.3454
 2125SOL     OW18010   4.456   3.649   6.477 -0.4750  0.1074  0.2428
 2125SOL    HW118011   4.446   3.619   6.567 -0.6306 -0.3291  0.0838
 2125SOL    HW218012   4.433   3.741   6.486 -3.2959 -0.2396 -3.0408
 2126SOL     OW18013   4.128   1.052  16.119  0.2329  0.6352  0.9006
 2126SOL    HW118014   4.151   1.027  16.208 -0.9749 -0.2325  0.9693
 2126SOL    HW218015   4.043   1.090  16.143 -0.7666 -0.1371 -1.3643
 2127SOL     OW18016   2.326   0.203   8.958  0.1693 -0.1314  0.3645
 2127SOL    HW118017   2.382   0.155   8.896 -1.5775 -0.6492 -0.8363
 2127SOL    HW218018   2.355   0.157   9.037 -0.9712 -1.1562  0.1847
 2128SOL     OW18019   3.149   0.979  16.659  0.0106  0.3592  0.0678
 2128SOL    HW118020   3.226   1.020  16.620  0.0175 -0.9141 -1.2607
 2128SOL    HW218021   3.131   0.909  16.597 -1.6206 -0.4720  1.4649
 2129SOL     OW18022   2.411   1.244  16.575  0.2495  0.1378 -0.4540
 2129SOL    HW118023   2.410   1.215  16.666 -0.5481 -1.7835 -1.0683
 2129SOL    HW218024   2.353   1.320  16.575  0.9510  0.6694 -0.3912
 2130SOL     OW18025   2.688   1.119  11.477  0.3149 -0.7548 -0.3384
 2130SOL    HW118026   2.703   1.031  11.444 -1.1147 -1.2277  0.2610
 2130SOL    HW218027   2.777   1.142  11.503  0.5062  0.5648 -2.1252
 2131SOL     OW18028   1.518   4.505   2.636  0.0510 -0.3800  0.1315
 2131SOL    HW118029   1.527   4.467   2.549  2.6475 -0.9334  0.6675
 2131SOL    HW218030   1.585   4.573   2.635 -1.0007  0.6728  0.1497
 2132SOL     OW18031   0.268   3.625  10.089  0.3972 -0.3480  0.1273
 2132SOL    HW118032   0.285   3.533  10.068  1.9408  0.1222 -0.7237
 2132SOL    HW218033   0.328   3.629  10.164 -0.3144 -0.7164  0.7077
 2133SOL     OW18034   3.387   0.332  10.137  0.3245  0.3214 -0.2860
 2133SOL    HW118035   3.297   0.300  10.135  0.3229  0.2350  0.9891
 2133SOL    HW218036   3.369   0.425  10.128  0.2773  0.2318 -1.1737
 2134SOL     OW18037   1.269   3.391   4.055  0.2225 -0.1258  0.2305
 2134SOL    HW118038   1.257   3.411   3.962  1.0590 -1.1492 -0.0994
 2134SOL    HW218039   1.282   3.296   4.053 -1.6022 -0.3572 -0.8135
 2135SOL     OW18040   3.622   2.473   4.969  0.0395 -0.2904 -0.7551
 2135SOL    HW118041   3.574   2.548   5.003 -2.6256 -1.7865 -1.2225
 2135SOL    HW218042   3.545   2.416   4.969 -1.5973  1.9354  0.7775
 2136SOL     OW18043   0.057   2.682   7.283 -0.5008  0.7682 -0.4154
 2136SOL    HW118044   0.101   2.636   7.211 -1.3964 -0.0670 -0.4325
 2136SOL    HW218045   4.716   2.635   7.277 -0.3230  0.5551 -1.2725
 2137SOL     OW18046   0.258   2.458   8.257  0.0179  0.2222 -0.0659
 2137SOL    HW118047   0.290   2.512   8.330 -0.1986  1.3290 -0.7958
 2137SOL    HW218048   0.314   2.380   8.261 -0.4110 -0.0978 -0.3585
 2138SOL     OW18049   4.265   1.618   8.809  0.4230 -0.1546 -0.4872
 2138SOL    HW118050   4.360   1.618   8.823  0.5480 -0.3425 -1.3287
 2138SOL    HW218051   4.225   1.656   8.887 -0.9626 -1.8235 -0.3880
 2139SOL     OW18052   3.406   2.197   7.858 -0.0805 -0.4185  0.0733
 2139SOL    HW118053   3.328   2.200   7.801 -0.2307  1.1251  0.3568
 2139SOL    HW218054   3.413   2.291   7.871  1.0845 -0.2116 -2.0870
 2140SOL     OW18055   0.210   2.106   7.603 -0.9468 -0.0357  0.1199
 2140SOL    HW118056   0.224   2.041   7.672  0.5929 -0.1407 -0.3030
 2140SOL    HW218057   0.276   2.173   7.624 -1.2545  0.8523 -1.7057
 2141SOL     OW18058   4.680   1.622   9.031 -0.2700 -0.0469 -0.4489
 2141SOL    HW118059   4.713   1.637   9.120 -1.9157 -3.3478  0.7338
 2141SOL    HW218060   4.698   1.528   9.025  0.6926  0.2295 -1.6704
 2142SOL     OW18061   0.053   1.886  14.055 -0.2183  0.5680 -0.1969
 2142SOL    HW118062   4.728   1.819  14.053 -0.5028  0.8629 -0.3711
 2142SOL    HW218063   0.007   1.960  14.094  0.5071  0.6857  0.4362
 2143SOL     OW18064   0.409   2.497   6.953  0.0147 -0.1074 -0.7300
 2143SOL    HW118065   0.481   2.522   7.010  0.2981 -2.2213 -0.1639
 2143SOL    HW218066   0.423   2.403   6.944 -0.1923 -0.0940 -1.2191
 2144SOL     OW18067   3.104   1.518   2.663 -0.2744  0.4251 -0.6175
 2144SOL    HW118068   3.139   1.601   2.695  0.2869 -0.8812  2.1803
 2144SOL    HW218069   3.053   1.484   2.736  0.1232 -0.7475 -0.8806
 2145SOL     OW18070   4.470   0.810   5.838 -0.5311 -0.7732  0.6847
 2145SOL    HW118071   4.559   0.807   5.804 -0.8417 -1.1192 -0.0983
 2145SOL    HW218072   4.470   0.901   5.869  0.9576 -0.1227 -1.2559
 2146SOL     OW18073   4.565   3.092   5.650 -0.0245  0.5174 -0.1202
 2146SOL    HW118074   4.531   3.167   5.601 -3.0874  0.4121  1.8381
 2146SOL    HW218075   4.631   3.129   5.707 -1.8062  2.3204  0.7655
 2147SOL     OW18076   3.364   4.685   5.391 -0.2348  0.0455  0.1689
 2147SOL    HW118077   3.274   4.663   5.368 -0.3002 -0.2022  0.6603
 2147SOL    HW218078   3.413   4.604   5.377  1.5818  1.4641 -1.6358
 2148SOL     OW18079   1.500   4.381  16.368 -0.0088 -0.1066 -0.1647
 2148SOL    HW118080   1.427   4.376  16.430 -0.6998  1.4326 -0.8526
 2148SOL    HW218081   1.460   4.426  16.293 -1.1052 -1.3867 -0.3657
 2149SOL     OW18082   2.178   2.780   8.663  0.2322  0.0274  0.3939
 2149SOL    HW118083   2.191   2.796   8.570 -0.6105 -0.5330  0.1787
 2149SOL    HW218084   2.085   2.799   8.676  0.2047  1.5814 -1.9962
 2150SOL     OW18085   0.667   0.441  16.614  0.1456 -0.7478 -0.1686
 2150SOL    HW118086   0.584   0.406  16.647 -0.4625 -0.3675 -1.2792
 2150SOL    HW218087   0.696   0.490  16.691 -1.1606 -2.5979  1.4959
 2151SOL     OW18088   1.078   4.419   0.291 -0.2046  0.2533  0.0017
 2151SOL    HW118089   1.150   4.456   0.343 -2.5136  1.3226  2.4102
 2151SOL    HW218090   1.096   4.325   0.282  1.4360  0.8117 -2.4407
 2152SOL     OW18091   0.885   1.257  17.311 -0.1957  0.2154 -0.1082
 2152SOL    HW118092   0.803   1.295  17.279 -0.2606  2.4963  2.7555
 2152SOL    HW218093   0.947   1.297  17.251 -0.4110  0.5516 -0.1063
 2153SOL     OW18094   0.199   4.619   5.775  0.0704  0.5160  0.0347
 2153SOL    HW118095   0.258   4.681   5.732 -2.1700  2.1816 -0.6886
 2153SOL    HW218096   0.137   4.675   5.821 -1.0066  0.0578 -0.8467
 2154SOL     OW18097   4.409   0.252   5.633  0.9379  0.6122 -0.3033
 2154SOL    HW118098   4.368   0.338   5.624 -2.4304 -0.7345  2.0693
 2154SOL    HW218099   4.383   0.196   5.560 -0.8541 -1.3899  1.9032
 2155SOL     OW18100   1.950   1.351   6.818  0.4031  0.2476  0.0590
 2155SOL    HW118101   1.879   1.412   6.798 -1.6747 -1.2141  3.0100
 2155SOL    HW218102   2.017   1.373   6.753 -0.8819  1.3303 -0.9115
 2156SOL     OW18103   2.666   4.448   4.910 -0.4514 -0.4113 -0.0141
 2156SOL    HW118104   2.690   4.363   4.948 -1.5510 -0.8596 -0.2971
 2156SOL    HW218105   2.747   4.497   4.920 -1.5009  1.4294 -0.6304
 2157SOL     OW18106   4.476   4.152   7.197 -0.0977  0.0890 -0.1065
 2157SOL    HW118107   4.545   4.111   7.145 -0.3443  0.2093 -0.5284
 2157SOL    HW218108   4.464   4.231   7.145 -0.5175  0.3041  0.3213
 2158SOL     OW18109   0.761   1.250   3.631  0.0897 -0.1156 -0.2587
 2158SOL    HW118110   0.781   1.334   3.588 -1.6133 -0.0914 -0.9867
 2158SOL    HW218111   0.783   1.196   3.556  0.1456 -0.9292  0.3501
 2159SOL     OW18112   1.034   3.323   6.350  0.3238 -0.6319 -0.6214
 2159SOL    HW118113   1.049   3.256   6.283  1.3505 -1.3854  0.3715
 2159SOL    HW218114   1.093   3.289   6.416  0.5471  0.0808 -0.4524
 2160SOL     OW18115   2.965   4.028   4.420 -0.4319  0.3237 -0.2166
 2160SOL    HW118116   2.960   4.097   4.353  0.4328  0.7456  0.1668
 2160SOL    HW218117   3.044   4.045   4.470 -1.6412 -0.4082  1.9423
 2161SOL     OW18118   1.219   1.081   7.171  0.0369 -0.2743  1.0521
 2161SOL    HW118119   1.161   1.074   7.095  1.2464  1.1152  0.0230
 2161SOL    HW218120   1.279   1.009   7.155  1.7026  1.8899 -2.3096
 2162SOL     OW18121   0.433   3.695   5.232  0.1995  0.4606 -0.2310
 2162SOL    HW118122   0.402   3.659   5.148  0.6482  0.2555 -0.3062
 2162SOL    HW218123   0.518   3.735   5.217  1.2896 -0.7334  2.8872
 2163SOL     OW18124   1.898   0.101   4.046 -0.3273 -0.5228  0.2615
 2163SOL    HW118125   1.815   0.059   4.069 -0.2593 -1.5601 -1.4190
 2163SOL    HW218126   1.934   0.119   4.133  0.9965 -0.8569 -0.2128
 2164SOL     OW18127   3.779   0.194  12.620 -0.2458 -0.1958  0.2968
 2164SOL    HW118128   3.866   0.166  12.650 -0.9900 -1.8970  0.8598
 2164SOL    HW218129   3.724   0.137  12.674 -1.4353 -0.5416 -1.2973
 2165SOL     OW18130   2.173   1.957   4.118 -0.2983  0.7434 -0.3448
 2165SOL    HW118131   2.086   1.919   4.130 -0.6529  0.7856 -2.7493
 2165SOL    HW218132   2.131   2.036   4.083 -2.8640 -0.0005  1.0551
 2166SOL     OW18133   2.418   3.750  16.344 -0.7611  0.8238  0.4345
 2166SOL    HW118134   2.504   3.763  16.384  0.0340  0.4992 -1.1577
 2166SOL    HW218135   2.410   3.816  16.275 -0.4623  0.1056 -0.2848
 2167SOL     OW18136   4.538   2.123  12.700  0.4087  0.1578 -0.4645
 2167SOL    HW118137   4.501   2.121  12.788  1.3315 -0.7702 -0.1030
 2167SOL    HW218138   4.626   2.153  12.720  0.0608 -1.4678  3.5796
 2168SOL     OW18139   4.597   4.099   3.449  0.3011 -0.0940 -0.5470
 2168SOL    HW118140   4.652   4.021   3.437 -2.0973 -1.1637 -4.3703
 2168SOL    HW218141   4.666   4.164   3.433  0.0775  0.3187  0.1305
 2169SOL     OW18142   3.740   0.313   7.845 -0.1975  0.3500 -0.8615
 2169SOL    HW118143   3.676   0.253   7.882 -0.6842  1.1897 -0.3440
 2169SOL    HW218144   3.689   0.336   7.768  0.7713  1.9724 -1.0123
 2170SOL     OW18145   0.708   2.980   6.858  0.2894  0.4630  0.1243
 2170SOL    HW118146   0.794   2.978   6.899  0.5328 -1.0265 -0.4675
 2170SOL    HW218147   0.653   2.995   6.935  1.6665  0.7927  1.0490
 2171SOL     OW18148   0.269   3.505   7.522 -0.4931  0.1962 -0.5593
 2171SOL    HW118149   0.324   3.429   7.501 -0.7218  0.1333 -0.9266
 2171SOL    HW218150   0.207   3.503   7.449  1.3308 -3.0253 -2.0354
 2172SOL     OW18151   2.556   0.203   4.886  0.2632  0.2692  0.0887
 2172SOL    HW118152   2.474   0.166   4.854 -1.2877  0.9870  3.2339
 2172SOL    HW218153   2.585   0.264   4.818  0.3307 -0.2772 -0.3708
 2173SOL     OW18154   0.163   4.140   0.410  0.3581 -0.2601 -0.1348
 2173SOL    HW118155   0.237   4.115   0.466  1.2092  0.3974 -0.9670
 2173SOL    HW218156   0.209   4.121   0.329 -2.6116 -0.6472 -1.7426
 2174SOL     OW18157   3.615   3.264  17.643  0.5051  0.4707  0.2317
 2174SOL    HW118158   3.563   3.295  17.568  1.4308 -2.2089 -1.5252
 2174SOL    HW218159   3.685   3.329  17.643 -0.3024  1.3370  0.9766
 2175SOL     OW18160   4.230   2.089   3.189 -0.0157 -0.5504  0.5818
 2175SOL    HW118161   4.252   2.062   3.278 -0.7103 -0.1304  0.8849
 2175SOL    HW218162   4.257   2.181   3.183  2.0141 -1.0727  1.8347
 2176SOL     OW18163   3.067   1.784  11.089  0.1861 -0.5761  0.1631
 2176SOL    HW118164   3.104   1.836  11.018 -1.1252  2.1763  1.4840
 2176SOL    HW218165   2.999   1.730  11.048 -0.0389 -0.0208 -0.1990
 2177SOL     OW18166   3.048   0.688   7.982  0.0003  0.1863  0.1985
 2177SOL    HW118167   3.057   0.730   8.068 -0.0715 -0.8647  0.7195
 2177SOL    HW218168   3.127   0.633   7.989  0.0236 -0.0983 -2.1571
 2178SOL     OW18169   1.972   1.962   0.737  0.6846 -0.8455  0.4965
 2178SOL    HW118170   1.923   1.900   0.684 -0.4752  0.8217 -0.3827
 2178SOL    HW218171   1.940   2.038   0.688 -2.2022 -1.4656  1.4474
 2179SOL     OW18172   1.691   2.420   8.739  0.0801 -0.4945 -0.3253
 2179SOL    HW118173   1.759   2.426   8.806 -0.2663 -1.5433  0.1266
 2179SOL    HW218174   1.664   2.328   8.742  0.2916 -0.5626 -0.4746
 2180SOL     OW18175   2.774   1.298   5.131 -0.6531 -0.0252  0.1039
 2180SOL    HW118176   2.744   1.339   5.050  1.6142 -2.9217 -2.2051
 2180SOL    HW218177   2.764   1.205   5.111  0.3277  0.0900 -0.8715
 2181SOL     OW18178   3.132   2.233   9.487 -0.7622 -0.2274  0.2795
 2181SOL    HW118179   3.166   2.299   9.547  0.2217  0.2572 -0.8258
 2181SOL    HW218180   3.039   2.218   9.507 -0.0920 -2.4231  1.8781
 2182SOL     OW18181   0.178   2.433   2.518 -0.2030 -0.2965 -0.7417
 2182SOL    HW118182   0.234   2.357   2.536  0.1798  0.2147  0.2340
 2182SOL    HW218183   0.093   2.390   2.514  0.4223 -1.6467  0.3404
 2183SOL     OW18184   3.785   3.901   9.426 -0.0276  0.2716 -0.2646
 2183SOL    HW118185   3.732   3.895   9.506  0.3940 -0.4142 -0.0341
 2183SOL    HW218186   3.811   3.809   9.416 -1.4132 -0.1771  0.1827
 2184SOL     OW18187   2.691   2.510   4.433 -0.0759 -0.0122  0.1024
 2184SOL    HW118188   2.597   2.528   4.429  0.3395  2.4302  1.6164
 2184SOL    HW218189   2.711   2.517   4.340 -2.5224  0.2822 -0.3958
 2185SOL     OW18190   2.758   0.531   6.780  0.6815 -0.4378 -0.4664
 2185SOL    HW118191   2.702   0.499   6.851  1.9166  0.9391  1.1275
 2185SOL    HW218192   2.841   0.495   6.809  0.3508 -0.7838  0.0466
 2186SOL     OW18193   0.347   0.404  13.667  0.0986  0.0132 -0.1874
 2186SOL    HW118194   0.434   0.432  13.639  0.2458  0.5033  0.7722
 2186SOL    HW218195   0.374   0.421  13.757  0.0594  1.2835 -0.4108
 2187SOL     OW18196   0.094   0.151   7.230 -0.3341 -0.4165 -0.5591
 2187SOL    HW118197   0.104   0.105   7.313 -1.3041 -0.2714 -0.3711
 2187SOL    HW218198   0.165   0.215   7.236 -0.1150 -0.6360 -0.8085
 2188SOL     OW18199   0.668   3.207   3.861  0.0197  0.4398 -0.7671
 2188SOL    HW118200   0.646   3.288   3.908  1.4898 -0.6640  1.7922
 2188SOL    HW218201   0.675   3.137   3.926  1.0989  1.0571 -0.2025
 2189SOL     OW18202   4.338   1.113   6.976  0.8512  0.1402 -0.0772
 2189SOL    HW118203   4.279   1.160   6.917  0.5379  0.1603  0.2525
 2189SOL    HW218204   4.304   1.028   6.950  1.0744 -1.0375  3.4692
 2190SOL     OW18205   0.161   2.068  15.420 -0.3788  0.3426  0.5613
 2190SOL    HW118206   0.164   2.083  15.515 -1.2172  0.1839  0.6158
 2190SOL    HW218207   0.151   2.158  15.391  2.6148  0.9524  1.4266
 2191SOL     OW18208   4.404   0.076   1.989  0.0539  0.2123  0.4702
 2191SOL    HW118209   4.380   0.039   1.904  0.7180 -1.0713  0.8371
 2191SOL    HW218210   4.354   0.157   1.986 -0.2242 -0.0294 -1.6878
 2192SOL     OW18211   1.370   0.744  10.996 -0.5507 -1.3307 -0.1879
 2192SOL    HW118212   1.296   0.685  11.011 -0.2420 -1.2848  1.5856
 2192SOL    HW218213   1.395   0.771  11.084 -3.0680  1.2676 -0.2801
 2193SOL     OW18214   0.388   3.309   7.373  0.2073 -0.1760  0.0085
 2193SOL    HW118215   0.434   3.225   7.363 -2.3802 -1.4509 -0.9874
 2193SOL    HW218216   0.297   3.283   7.384  0.3970 -0.8003  0.1158
 2194SOL     OW18217   4.545   0.685   2.246 -0.4044  0.7810 -0.0599
 2194SOL    HW118218   4.590   0.612   2.289  1.1562  1.4440 -0.5834
 2194SOL    HW218219   4.473   0.633   2.211 -0.5805 -0.2401  1.8071
 2195SOL     OW18220   2.591   3.043  15.786 -0.3879 -0.4921  0.2063
 2195SOL    HW118221   2.674   3.089  15.801 -1.0332  1.0674 -1.0664
 2195SOL    HW218222   2.541   3.077  15.860  0.0452 -0.7497  0.6223
 2196SOL     OW18223   3.993   0.721   5.569  0.0813 -0.0422 -0.4301
 2196SOL    HW118224   4.023   0.652   5.628 -1.2804  0.6519  1.0733
 2196SOL    HW218225   3.984   0.677   5.484  0.5393  1.5786 -1.3256
 2197SOL     OW18226   3.390   0.077   6.106 -0.0089  0.0714  0.4693
 2197SOL    HW118227   3.406   0.095   6.014  0.0679 -1.4777  0.1849
 2197SOL    HW218228   3.432   4.734   6.110 -0.8306 -0.3741 -0.5043
 2198SOL     OW18229   0.621   3.031   5.594  0.1342 -0.0045  0.2731
 2198SOL    HW118230   0.534   3.059   5.624 -0.3819 -0.8703 -0.3780
 2198SOL    HW218231   0.618   2.935   5.589 -2.7774  0.0493  0.6384
 2199SOL     OW18232   2.308   3.288   4.177  0.6653 -0.4467 -0.2453
 2199SOL    HW118233   2.309   3.224   4.106 -1.1250 -1.6820  0.8652
 2199SOL    HW218234   2.216   3.306   4.191  0.1291 -2.8089 -0.7268
 2200SOL     OW18235   1.605   3.012   4.956  0.4473  0.2434  0.4353
 2200SOL    HW118236   1.592   2.951   4.883  0.5550  1.7317 -0.8197
 2200SOL    HW218237   1.695   3.038   4.938  0.3889  0.0662 -0.1063
 2201SOL     OW18238   3.675   0.016  15.070  0.1323  0.1148 -0.8952
 2201SOL    HW118239   3.633   0.097  15.041 -0.4982  0.2635  0.4286
 2201SOL    HW218240   3.757   0.025  15.021  0.9752  0.0827  0.5114
 2202SOL     OW18241   4.212   1.965  12.499  0.1213 -0.3714 -0.2722
 2202SOL    HW118242   4.123   1.987  12.470 -0.5609 -2.1304  0.4697
 2202SOL    HW218243   4.184   1.935  12.585  0.8072  0.1078  0.1199
 2203SOL     OW18244   1.655   2.444  15.849  0.4917  0.2564  0.0109
 2203SOL    HW118245   1.640   2.411  15.761 -0.2884 -0.3271  0.3596
 2203SOL    HW218246   1.704   2.526  15.838  0.6441  0.2477  0.5879
 2204SOL     OW18247   1.917   0.944  15.177 -0.6249 -0.1432 -0.2550
 2204SOL    HW118248   1.896   0.862  15.221 -0.7407 -0.3178 -0.6270
 2204SOL    HW218249   1.912   0.929  15.082 -1.2683 -0.7762 -0.1254
 2205SOL     OW18250   3.548   1.245   8.510  0.5371 -0.2629  0.8046
 2205SOL    HW118251   3.516   1.238   8.420 -0.6492  0.4257  1.1774
 2205SOL    HW218252   3.638   1.264   8.486 -0.3665  0.0542 -2.4463
 2206SOL     OW18253   2.985   3.221   5.078  0.3031 -0.2549 -0.3039
 2206SOL    HW118254   3.080   3.226   5.085  0.4628 -0.8927 -2.1291
 2206SOL    HW218255   2.975   3.143   5.024 -1.3817 -0.2856  0.0660
 2207SOL     OW18256   4.551   0.798   6.371 -0.0122 -0.1058 -0.2147
 2207SOL    HW118257   4.640   0.830   6.354  0.1795 -0.2544  0.5122
 2207SOL    HW218258   4.507   0.878   6.399 -1.6731 -1.4178  0.9484
 2208SOL     OW18259   4.597   4.150   0.996  0.1223 -0.4551  1.0140
 2208SOL    HW118260   4.573   4.241   1.008  0.8724 -0.1553  0.2727
 2208SOL    HW218261   4.517   4.116   0.955 -0.0127  0.9499  0.1128
 2209SOL     OW18262   1.766   1.596   1.812  0.7974  0.1739 -0.4367
 2209SOL    HW118263   1.761   1.659   1.740 -2.2790 -0.2641 -0.5953
 2209SOL    HW218264   1.744   1.658   1.880  0.7609  0.5820 -0.8227
 2210SOL     OW18265   3.564   2.060   8.017  0.0282  0.0803 -1.1206
 2210SOL    HW118266   3.516   2.120   7.959 -2.7053 -1.9352 -0.9393
 2210SOL    HW218267   3.505   1.986   8.034  2.6422 -1.8920 -0.5927
 2211SOL     OW18268   3.158   1.958  16.845  0.2760  0.1406  0.2213
 2211SOL    HW118269   3.146   2.051  16.824  0.3210  0.1140  0.0730
 2211SOL    HW218270   3.224   1.939  16.778  1.1062  1.0790  0.7810
 2212SOL     OW18271   1.842   2.518  15.432  0.5565  0.4544 -0.4518
 2212SOL    HW118272   1.923   2.552  15.470  2.1478 -1.7781 -1.8522
 2212SOL    HW218273   1.816   2.476  15.515  1.8859 -0.6350 -0.5798
 2213SOL     OW18274   1.722   3.260   2.089  0.0579  0.2318 -0.4210
 2213SOL    HW118275   1.742   3.174   2.053  1.2179  0.9718 -1.5351
 2213SOL    HW218276   1.716   3.240   2.182 -0.1554  0.5848 -0.3554
 2214SOL     OW18277   0.706   3.194   4.329  0.6816 -0.0074  0.0496
 2214SOL    HW118278   0.708   3.125   4.263  1.6792 -0.1418  0.2120
 2214SOL    HW218279   0.722   3.277   4.286 -0.2500  0.4382  0.5621
 2215SOL     OW18280   2.974   0.381   5.089 -0.4027  0.1402  0.5733
 2215SOL    HW118281   2.903   0.326   5.122 -0.7632 -0.6675 -1.5793
 2215SOL    HW218282   2.928   0.465   5.086  1.1535  0.8659 -2.1804
 2216SOL     OW18283   4.130   3.081  14.404 -0.1204  0.2610 -0.3054
 2216SOL    HW118284   4.058   3.019  14.389  0.1433  0.0212 -0.5744
 2216SOL    HW218285   4.206   3.023  14.396 -1.0690 -1.2266  1.1257
 2217SOL     OW18286   3.510   1.213   7.703 -0.3732  0.2241 -0.1461
 2217SOL    HW118287   3.496   1.224   7.797 -0.1177  2.6988 -0.4008
 2217SOL    HW218288   3.601   1.184   7.694 -1.4693 -3.3553  0.4363
 2218SOL     OW18289   3.859   3.240   9.491  0.0796  0.4705  0.0291
 2218SOL    HW118290   3.788   3.293   9.454 -0.7857 -1.6462 -1.3350
 2218SOL    HW218291   3.910   3.223   9.412  2.8215 -2.1245  2.3474
 2219SOL     OW18292   3.909   1.860   8.067  0.0015  0.0095  0.5361
 2219SOL    HW118293   3.850   1.789   8.040 -2.4060  1.4938  1.8568
 2219SOL    HW218294   3.882   1.880   8.157 -0.7556  0.2800  0.2461
 2220SOL     OW18295   4.118   2.233   5.584 -0.2767  0.1069 -0.1066
 2220SOL    HW118296   4.086   2.192   5.665  1.4561 -0.1267  0.4729
 2220SOL    HW218297   4.212   2.251   5.594 -0.7638  1.2374  2.5867
 2221SOL     OW18298   4.579   4.286   4.356  0.1677 -0.1696 -0.0468
 2221SOL    HW118299   4.615   4.314   4.272  1.2415  0.4677  0.6393
 2221SOL    HW218300   4.642   4.218   4.379 -0.4997 -0.8915 -0.3659
 2222SOL     OW18301   0.948   0.234   1.369  0.0668  0.3643 -0.0366
 2222SOL    HW118302   1.022   0.215   1.427  0.3828 -0.6388 -0.7907
 2222SOL    HW218303   0.966   0.165   1.306  1.1673  1.7670 -1.2526
 2223SOL     OW18304   3.826   2.928   3.263 -0.1457  0.3773 -0.3289
 2223SOL    HW118305   3.838   2.881   3.180  1.7406  3.1821 -1.6186
 2223SOL    HW218306   3.887   3.002   3.261  0.7241 -0.2404  2.3324
 2224SOL     OW18307   2.591   1.008   8.605  0.0758 -0.1613 -0.1855
 2224SOL    HW118308   2.526   1.076   8.623  1.3974  1.2197 -0.6420
 2224SOL    HW218309   2.669   1.059   8.583 -0.1451  0.4985  0.5414
 2225SOL     OW18310   2.840   4.501   8.418  0.4003 -0.1567  0.0510
 2225SOL    HW118311   2.897   4.575   8.439 -0.5399  0.9105 -1.1588
 2225SOL    HW218312   2.834   4.513   8.323  1.5682 -0.6113 -0.0834
 2226SOL     OW18313   2.600   1.630   4.702  0.6117  0.3962 -0.0879
 2226SOL    HW118314   2.507   1.647   4.718 -0.0217 -3.9007  0.8853
 2226SOL    HW218315   2.583   1.612   4.609  1.6768 -1.1108  0.0083
 2227SOL     OW18316   3.617   1.883   7.616 -0.1791 -0.2790  0.0150
 2227SOL    HW118317   3.621   1.977   7.634  1.5397 -0.7455  2.0869
 2227SOL    HW218318   3.540   1.880   7.559 -0.2818  3.6602 -0.0483
 2228SOL     OW18319   2.233   4.655   9.977 -0.0819 -0.2262 -0.3441
 2228SOL    HW118320   2.269   4.680   9.892 -1.2499  1.6775 -0.2683
 2228SOL    HW218321   2.287   4.577   9.991 -0.5426 -0.4535  0.1456
 2229SOL     OW18322   1.183   1.041   6.482  0.1453 -0.4262  0.7592
 2229SOL    HW118323   1.218   1.006   6.564  0.5875 -2.1135 -0.1740
 2229SOL    HW218324   1.117   1.099   6.521  0.0235  0.4490 -0.7561
 2230SOL     OW18325   1.900   0.589  13.847 -0.3170  0.1549  0.4274
 2230SOL    HW118326   1.922   0.638  13.927  1.2850  1.7475 -0.9760
 2230SOL    HW218327   1.990   0.578  13.818 -0.2985 -1.7750  1.2170
 2231SOL     OW18328   3.618   0.992   4.073 -0.5368  0.3333  0.3710
 2231SOL    HW118329   3.675   0.935   4.021 -1.0837  1.2709 -1.2485
 2231SOL    HW218330   3.672   0.993   4.153 -0.5152  0.7015  0.3524
 2232SOL     OW18331   1.911   0.376   6.585  0.6331  0.6027 -0.4184
 2232SOL    HW118332   1.966   0.339   6.654 -0.8725 -1.2218 -0.2010
 2232SOL    HW218333   1.919   0.305   6.521  2.4926  2.3081 -2.0748
 2233SOL     OW18334   0.417   0.818   2.445 -0.1466  0.2444  0.0576
 2233SOL    HW118335   0.397   0.784   2.532 -0.7565  1.0484  0.2321
 2233SOL    HW218336   0.337   0.864   2.418 -0.6878 -0.6082  0.1920
 2234SOL     OW18337   1.217   0.537   3.100 -0.6652  0.0453  0.4562
 2234SOL    HW118338   1.191   0.529   3.008  0.2092 -3.1056  0.5055
 2234SOL    HW218339   1.205   0.632   3.108 -0.5836 -0.1118  2.2908
 2235SOL     OW18340   3.623   2.115  16.414 -0.2708  0.3586 -0.0389
 2235SOL    HW118341   3.623   2.205  16.447  1.9227  0.5293 -0.5425
 2235SOL    HW218342   3.576   2.130  16.332  1.1175  1.6936 -0.5849
 2236SOL     OW18343   1.706   3.373   7.411  0.0308 -0.5009 -0.5281
 2236SOL    HW118344   1.658   3.431   7.353  1.6864  3.6282  2.1985
 2236SOL    HW218345   1.754   3.327   7.342 -0.4663 -0.7661 -0.6886
 2237SOL     OW18346   4.423   2.060   2.032 -0.0855  0.2782 -0.0011
 2237SOL    HW118347   4.369   2.048   2.110  0.3446  1.3349  0.4570
 2237SOL    HW218348   4.383   2.143   2.006 -0.8425  0.5373  1.9503
 2238SOL     OW18349   2.882   3.317   1.917  0.1285  0.1750  0.1895
 2238SOL    HW118350   2.815   3.272   1.968  0.0728  0.1665  0.1097
 2238SOL    HW218351   2.892   3.270   1.834  0.3260  2.2068 -0.9425
 2239SOL     OW18352   2.824   2.408   6.908 -0.9416  0.2843 -0.3356
 2239SOL    HW118353   2.750   2.374   6.960 -0.7642  0.1508 -0.1683
 2239SOL    HW218354   2.791   2.463   6.837  0.6489  1.9998  0.2414
 2240SOL     OW18355   1.072   1.581   6.703  0.3144  0.5201  0.0227
 2240SOL    HW118356   1.159   1.598   6.668 -0.0152 -0.3765 -1.2417
 2240SOL    HW218357   1.082   1.504   6.760  3.5750 -0.8038 -2.3669
 2241SOL     OW18358   4.409   3.710   9.396 -0.3343 -0.2945  0.0680
 2241SOL    HW118359   4.356   3.679   9.323 -2.5052  0.6584  1.2445
 2241SOL    HW218360   4.425   3.633   9.451  0.3242  0.4699  0.9515
 2242SOL     OW18361   1.502   3.751  16.405  0.2157  0.8018  0.7885
 2242SOL    HW118362   1.479   3.712  16.320 -0.3959 -1.1905  1.8888
 2242SOL    HW218363   1.587   3.792  16.390  0.4266  0.4353  0.9916
 2243SOL     OW18364   3.513   1.062   5.621  0.0351  0.6952 -0.2807
 2243SOL    HW118365   3.497   0.973   5.592  0.7514  0.8928 -1.2868
 2243SOL    HW218366   3.493   1.042   5.713  2.8820 -1.0050 -0.0386
 2244SOL     OW18367   2.935   2.168   5.314 -0.1699 -0.3607  0.0286
 2244SOL    HW118368   3.013   2.128   5.351 -0.3436 -1.5359 -0.8954
 2244SOL    HW218369   2.884   2.196   5.391 -1.7311 -0.7228 -0.8784
 2245SOL     OW18370   0.179   1.929  16.007  0.9329  0.1382  0.1438
 2245SOL    HW118371   0.157   1.844  16.045 -0.7626  1.3792  1.9093
 2245SOL    HW218372   0.143   1.917  15.919  0.9713  2.4007 -0.1949
 2246SOL     OW18373   0.508   2.496   2.353 -0.2254  0.3846  0.4078
 2246SOL    HW118374   0.576   2.498   2.285 -0.5054 -0.4302  0.1038
 2246SOL    HW218375   0.538   2.546   2.428 -1.4108  1.6687  0.0153
 2247SOL     OW18376   4.293   0.445   7.915 -0.9030  0.2228  0.6258
 2247SOL    HW118377   4.216   0.389   7.929 -0.0842 -0.7802  1.1076
 2247SOL    HW218378   4.244   0.524   7.890 -0.8558  0.2168  0.5170
 2248SOL     OW18379   2.100   2.548   3.313 -0.0173  0.1056 -0.1541
 2248SOL    HW118380   2.165   2.618   3.304  0.7266 -0.5628  0.0320
 2248SOL    HW218381   2.130   2.496   3.387 -0.1531 -0.5347 -0.5490
 2249SOL     OW18382   0.913   2.714  17.569 -0.1524  0.1667  0.0365
 2249SOL    HW118383   0.836   2.659  17.578  0.0439 -0.1143 -0.0039
 2249SOL    HW218384   0.871   2.799  17.558  1.3675  0.8286 -0.7476
 2250SOL     OW18385   1.928   3.717  17.082 -0.1255  0.1747  0.2839
 2250SOL    HW118386   1.968   3.675  17.159 -0.6199 -0.0926  0.3916
 2250SOL    HW218387   1.956   3.807  17.097 -0.7269  0.6738 -1.7147
 2251SOL     OW18388   0.668   2.319   2.616 -0.2278  0.0454  1.1305
 2251SOL    HW118389   0.658   2.406   2.654 -0.1218  0.2652  0.6483
 2251SOL    HW218390   0.699   2.275   2.696  0.6714  1.5577  1.6144
 2252SOL     OW18391   2.854   0.775  17.138 -0.1528  0.4682 -0.6011
 2252SOL    HW118392   2.824   0.866  17.144 -1.1366  0.1284 -0.3866
 2252SOL    HW218393   2.831   0.753  17.048  2.6908 -1.7684 -0.7726
 2253SOL     OW18394   0.268   0.540   1.877 -0.0584 -0.3772  0.2009
 2253SOL    HW118395   0.356   0.553   1.914  1.1735  0.9155 -3.2222
 2253SOL    HW218396   0.234   0.629   1.889 -3.2414 -1.3840 -1.3471
 2254SOL     OW18397   2.310   4.342   7.214 -0.2028 -0.0293 -0.1354
 2254SOL    HW118398   2.215   4.342   7.223 -0.0290 -0.0560  1.6765
 2254SOL    HW218399   2.342   4.306   7.296 -1.6727 -0.8107  0.0821
 2255SOL     OW18400   3.751   1.548   4.615 -0.2402 -0.1972  0.7841
 2255SOL    HW118401   3.760   1.470   4.669 -0.6040 -1.5167 -1.0621
 2255SOL    HW218402   3.681   1.519   4.555  1.8004 -3.1510 -0.1541
 2256SOL     OW18403   2.991   4.685   0.064  0.9836  0.7074 -0.0341
 2256SOL    HW118404   3.080   4.657   0.043  0.9079  0.5765 -0.1834
 2256SOL    HW218405   2.974   0.009  17.764  0.8234  0.0173 -0.6781
 2257SOL     OW18406   2.744   4.349   7.865  0.0462 -1.2603  0.2557
 2257SOL    HW118407   2.778   4.319   7.781 -0.1803  1.4029 -0.7917
 2257SOL    HW218408   2.669   4.400   7.834  1.5284 -0.3794 -1.9114
 2258SOL     OW18409   1.900   2.420   6.080  0.5720  0.2738  0.3939
 2258SOL    HW118410   1.899   2.437   5.986  0.4887 -1.3392  0.1161
 2258SOL    HW218411   1.963   2.348   6.083  1.5417  1.1371  0.6940
 2259SOL     OW18412   0.393   0.498  14.842  0.0512 -0.2263 -0.6449
 2259SOL    HW118413   0.325   0.566  14.839 -0.2041 -0.4633 -0.1207
 2259SOL    HW218414   0.351   0.424  14.798 -0.9035 -1.5600  2.5656
 2260SOL     OW18415   4.686   2.283   1.480  0.2494 -0.3465 -0.1069
 2260SOL    HW118416   0.037   2.292   1.461  0.2708  1.1104  0.6971
 2260SOL    HW218417   4.666   2.194   1.450  0.6981 -0.4991  0.0447
 2261SOL     OW18418   1.089   1.901   5.675 -0.1821  0.4216  0.0830
 2261SOL    HW118419   0.994   1.890   5.685  0.0102  0.6386  1.9998
 2261SOL    HW218420   1.115   1.824   5.725 -2.1628 -1.1436 -1.2726
 2262SOL     OW18421   1.761   0.144  12.347 -0.1807  0.8003  0.1405
 2262SOL    HW118422   1.830   0.193  12.391 -0.2874  0.0344  1.1510
 2262SOL    HW218423   1.778   0.055  12.377  0.6820  0.8030 -0.3485
 2263SOL     OW18424   2.802   2.475   3.205  0.5554 -0.9345 -0.5456
 2263SOL    HW118425   2.740   2.454   3.274 -1.7765  4.7182 -0.8630
 2263SOL    HW218426   2.759   2.422   3.138 -1.2334  0.5311 -0.5741
 2264SOL     OW18427   2.221   0.294   8.301  0.5471  0.0174  0.4263
 2264SOL    HW118428   2.255   0.262   8.218 -1.2984  1.1427 -0.7530
 2264SOL    HW218429   2.284   0.259   8.364  3.1282 -0.3472 -2.4049
 2265SOL     OW18430   2.293   0.277   4.863 -0.1837 -0.7768  0.3085
 2265SOL    HW118431   2.203   0.300   4.840  0.3197  0.7485 -0.1043
 2265SOL    HW218432   2.317   0.342   4.929  0.3131  0.3920 -1.0094
 2266SOL     OW18433   0.586   4.649   5.319 -0.0733  0.2597  0.3282
 2266SOL    HW118434   0.528   4.576   5.336  2.0915 -0.9352  2.5813
 2266SOL    HW218435   0.527   4.723   5.335 -0.4433  0.4656 -2.0148
 2267SOL     OW18436   2.530   0.291   3.857 -0.4042  0.0341 -0.5098
 2267SOL    HW118437   2.454   0.261   3.906 -0.1807  1.6152  0.7764
 2267SOL    HW218438   2.601   0.245   3.902  2.8940  3.5993 -2.0984
 2268SOL     OW18439   3.502   4.352  16.744  0.0646 -0.3916 -0.1333
 2268SOL    HW118440   3.568   4.315  16.686 -0.7033 -1.7339 -0.1477
 2268SOL    HW218441   3.494   4.277  16.802 -1.0583  0.3511  0.6743
 2269SOL     OW18442   2.007   0.852   1.736  0.7355  0.0356 -0.0659
 2269SOL    HW118443   1.932   0.808   1.696  0.8562  0.4360 -0.7377
 2269SOL    HW218444   2.071   0.783   1.755 -0.8411 -1.3154  0.3327
 2270SOL     OW18445   3.725   3.511   8.732  0.3679  0.0488 -0.0337
 2270SOL    HW118446   3.773   3.518   8.649 -1.4167 -0.6298 -1.1252
 2270SOL    HW218447   3.650   3.454   8.714 -0.2446  0.1732  2.1201
 2271SOL     OW18448   0.341   0.148   2.867 -0.1648 -0.5847 -0.0434
 2271SOL    HW118449   0.357   0.095   2.945  0.4527  0.2644  0.4073
 2271SOL    HW218450   0.417   0.206   2.859 -0.4048 -0.1475  0.8738
 2272SOL     OW18451   1.315   4.398  13.201 -0.2171 -0.3348  0.4202
 2272SOL    HW118452   1.227   4.370  13.227 -1.7430  3.0694 -1.1129
 2272SOL    HW218453   1.313   4.360  13.114  1.2910  1.2992 -0.3290
 2273SOL     OW18454   3.361   1.618   2.379 -0.2637  0.2140  0.3160
 2273SOL    HW118455   3.284   1.597   2.326  1.9669 -1.2513 -2.3107
 2273SOL    HW218456   3.324   1.681   2.442  0.4244 -0.1788  1.1026
 2274SOL     OW18457   1.904   1.169   2.889  0.1173 -0.0674  0.0839
 2274SOL    HW118458   1.957   1.102   2.932  1.9023  0.9497 -0.5283
 2274SOL    HW218459   1.905   1.143   2.797  0.7522 -2.1734  0.6866
 2275SOL     OW18460   3.207   1.430   4.698  0.2530  0.0039  1.0773
 2275SOL    HW118461   3.271   1.497   4.720 -2.4797  3.6916 -2.2690
 2275SOL    HW218462   3.124   1.474   4.719 -0.7618 -1.1132 -0.5561
 2276SOL     OW18463   0.359   2.663   8.999 -0.5347 -0.4329  0.4670
 2276SOL    HW118464   0.336   2.625   9.084  1.8192 -2.2766  0.2770
 2276SOL    HW218465   0.307   2.742   8.986 -0.8517 -0.7031  0.0820
 2277SOL     OW18466   0.804   4.334   5.537 -0.3372 -0.0794 -0.5514
 2277SOL    HW118467   0.887   4.287   5.530 -0.0990  0.2905 -0.2488
 2277SOL    HW218468   0.743   4.269   5.502 -0.4453  0.2227 -0.9349
 2278SOL     OW18469   2.009   3.473   5.874  0.7328 -0.0874  0.5958
 2278SOL    HW118470   2.079   3.411   5.852  0.6189  0.3894 -1.0736
 2278SOL    HW218471   2.047   3.512   5.953  1.4363 -0.1966  0.3150
 2279SOL     OW18472   1.332   4.119   3.289  0.0337 -0.0844 -0.0075
 2279SOL    HW118473   1.321   4.180   3.217 -1.8175 -1.7650 -1.1580
 2279SOL    HW218474   1.253   4.070   3.265 -0.8967  0.5840  1.7038
 2280SOL     OW18475   0.336   4.008  11.525  0.2103 -0.0674 -0.6129
 2280SOL    HW118476   0.312   3.937  11.465  0.2393 -0.8354  0.2777
 2280SOL    HW218477   0.430   3.990  11.523  0.5235  1.2877  2.3311
 2281SOL     OW18478   4.061   2.766   2.687 -0.9279  0.0081 -0.0348
 2281SOL    HW118479   4.105   2.833   2.636 -0.6754 -0.3230 -0.2569
 2281SOL    HW218480   4.050   2.814   2.769  0.2106 -0.3478  0.3300
 2282SOL     OW18481   0.724   1.849  16.155 -0.1535  0.2955  0.0949
 2282SOL    HW118482   0.705   1.880  16.244 -0.1271  1.6200 -0.3749
 2282SOL    HW218483   0.632   1.849  16.129  0.8221  2.5913 -3.2940
 2283SOL     OW18484   0.159   3.943  15.714 -0.3611  0.5335  0.6193
 2283SOL    HW118485   0.067   3.970  15.708  0.0850  1.5621 -1.5262
 2283SOL    HW218486   0.189   3.991  15.792 -1.7148  1.4581  0.5716
 2284SOL     OW18487   0.686   1.820   2.963  0.8073 -0.4369 -0.1187
 2284SOL    HW118488   0.738   1.805   2.884  1.7231  1.6693  0.0700
 2284SOL    HW218489   0.607   1.838   2.913 -0.0158  2.0074  2.0241
 2285SOL     OW18490   4.638   0.740   3.117 -0.0235 -0.4580 -1.1347
 2285SOL    HW118491   4.713   0.800   3.118  0.6797 -1.3696  0.4497
 2285SOL    HW218492   4.629   0.716   3.025 -0.3500  0.1979 -1.2788
 2286SOL     OW18493   2.726   0.937   6.195  0.1184  0.4926 -0.0085
 2286SOL    HW118494   2.684   1.020   6.172 -1.4029 -0.0974  0.6089
 2286SOL    HW218495   2.654   0.874   6.187 -0.7309  1.7005 -1.8829
 2287SOL     OW18496   3.049   4.048   9.082  0.1689 -0.4263 -0.0530
 2287SOL    HW118497   3.137   4.070   9.051  0.9578 -1.5100  1.4561
 2287SOL    HW218498   3.008   4.035   8.996  0.4773 -1.9814  0.0291
 2288SOL     OW18499   3.764   2.601   2.150 -0.1013  0.5841 -0.1725
 2288SOL    HW118500   3.694   2.659   2.182 -0.6700 -0.0861 -0.2242
 2288SOL    HW218501   3.752   2.532   2.215  1.3328  1.4561  1.0217
 2289SOL     OW18502   1.509   2.807   7.096  0.4323 -0.0716 -0.4766
 2289SOL    HW118503   1.450   2.823   7.022 -1.0445 -1.3549  0.4393
 2289SOL    HW218504   1.448   2.812   7.170  1.3632  0.3303  0.2606
 2290SOL     OW18505   4.255   2.829  11.909 -0.3347 -0.2688  0.2706
 2290SOL    HW118506   4.299   2.775  11.975  0.5924 -0.5134 -0.5486
 2290SOL    HW218507   4.237   2.909  11.958  1.5062 -0.2670  0.9368
 2291SOL     OW18508   0.594   0.077   9.001  0.1503  0.1813  0.1961
 2291SOL    HW118509   0.544   0.068   8.920 -1.8472  1.2485  1.3139
 2291SOL    HW218510   0.527   0.046   9.062  0.8116 -0.5353  0.5600
 2292SOL     OW18511   2.074   1.579   7.347 -0.1942  0.2777 -0.0159
 2292SOL    HW118512   1.997   1.562   7.402  1.0145 -0.4096  1.4620
 2292SOL    HW218513   2.070   1.675   7.350  1.1525  0.3906 -2.7872
 2293SOL     OW18514   0.771   1.931   1.515  0.1548 -0.4465 -0.3302
 2293SOL    HW118515   0.738   1.843   1.493 -2.3665 -0.2390  2.5810
 2293SOL    HW218516   0.840   1.943   1.450 -0.2314 -1.9623 -1.0502
 2294SOL     OW18517   0.289   3.703   8.332 -0.4876 -0.1046  0.4725
 2294SOL    HW118518   0.377   3.741   8.327 -0.7812  0.8892  2.6900
 2294SOL    HW218519   0.276   3.656   8.250 -0.6045 -0.4485  0.6911
 2295SOL     OW18520   1.707   1.113   6.821 -0.0507 -0.0323 -0.4451
 2295SOL    HW118521   1.790   1.065   6.830 -0.2749 -0.1333  1.0179
 2295SOL    HW218522   1.691   1.133   6.913  0.7784  1.5719 -0.6486
 2296SOL     OW18523   1.271   4.375   6.563 -0.3876 -0.4639  0.2205
 2296SOL    HW118524   1.216   4.296   6.555 -2.6401  0.9173  1.9053
 2296SOL    HW218525   1.336   4.345   6.627 -0.1698  0.8211  0.5913
 2297SOL     OW18526   0.149   2.337   8.641  0.1091  0.3694  0.3137
 2297SOL    HW118527   0.113   2.394   8.710 -1.4401 -0.3552  0.1110
 2297SOL    HW218528   0.077   2.347   8.579  0.3992  0.4929  0.0013
 2298SOL     OW18529   0.064   1.410  11.877  0.0707 -0.6784  0.0004
 2298SOL    HW118530   0.081   1.321  11.847 -0.8639 -0.9653  0.3281
 2298SOL    HW218531   4.711   1.402  11.871  0.0015  0.8618 -1.0397
 2299SOL     OW18532   0.465   0.649   5.237 -0.8147 -0.0219 -0.1395
 2299SOL    HW118533   0.439   0.572   5.187  1.3401 -1.1851  0.5758
 2299SOL    HW218534   0.527   0.609   5.297  0.9284  1.2217 -1.1308
 2300SOL     OW18535   2.132   0.755   0.492  0.4765 -0.0540 -0.2633
 2300SOL    HW118536   2.212   0.776   0.542 -0.5408  0.3126  1.2167
 2300SOL    HW218537   2.122   0.660   0.486 -1.6910  0.1429  0.2329
 2301SOL     OW18538   2.237   1.854   9.307 -0.4696  0.1270 -0.1190
 2301SOL    HW118539   2.142   1.850   9.308 -0.4329 -0.7449 -0.2846
 2301SOL    HW218540   2.269   1.764   9.305 -0.7285  0.0376 -0.1730
 2302SOL     OW18541   4.215   4.650   9.556 -0.3263  0.1469  0.4573
 2302SOL    HW118542   4.165   4.627   9.477  1.6856  0.1342 -0.8208
 2302SOL    HW218543   4.282   4.582   9.553  0.9485  1.4843 -1.5608
 2303SOL     OW18544   3.563   1.985  16.924  0.1764 -0.6236 -0.1116
 2303SOL    HW118545   3.559   1.897  16.963  0.6418 -1.1489 -1.2511
 2303SOL    HW218546   3.492   2.035  16.964  1.3946  0.5596  0.5601
 2304SOL     OW18547   4.462   2.062  12.404 -0.3574 -0.4313  0.0358
 2304SOL    HW118548   4.493   2.063  12.494  0.2721  0.9947 -0.2076
 2304SOL    HW218549   4.369   2.060  12.428 -0.2782 -1.8428  0.2633
 2305SOL     OW18550   2.490   3.871  14.435 -0.2729 -0.0088 -0.1405
 2305SOL    HW118551   2.532   3.786  14.424  0.3757  0.2072  0.6311
 2305SOL    HW218552   2.557   3.926  14.475 -1.7927  1.0910  0.9480
 2306SOL     OW18553   0.654   1.652  15.924 -0.3090  0.7082  0.3969
 2306SOL    HW118554   0.623   1.734  15.962 -1.6661 -0.4756  1.8356
 2306SOL    HW218555   0.569   1.614  15.905  0.4993  0.2213 -2.1998
 2307SOL     OW18556   3.305   0.184   6.907 -0.2790 -0.1049  0.6221
 2307SOL    HW118557   3.297   0.107   6.851  1.6035  1.5720 -1.9240
 2307SOL    HW218558   3.374   0.231   6.862 -1.6172 -0.9443 -2.3196
 2308SOL     OW18559   0.732   1.297   1.991  0.4532 -0.6232 -0.0075
 2308SOL    HW118560   0.680   1.377   1.981  1.4599 -0.0100 -0.3942
 2308SOL    HW218561   0.684   1.243   2.054 -1.0600  0.1980 -0.4650
 2309SOL     OW18562   0.194   0.579   6.272  0.0037  0.0058  0.2034
 2309SOL    HW118563   0.282   0.601   6.241 -0.6012  1.1865 -0.6719
 2309SOL    HW218564   0.146   0.640   6.216 -0.7820 -1.5174 -0.7859
 2310SOL     OW18565   2.832   0.283   3.271  0.5066  0.1050 -0.9294
 2310SOL    HW118566   2.919   0.243   3.277 -0.1578 -1.0067  1.3121
 2310SOL    HW218567   2.776   0.214   3.235 -1.5384  1.8728 -1.1632
 2311SOL     OW18568   1.983   2.055   2.673  0.1200  0.2484 -0.2081
 2311SOL    HW118569   1.963   1.968   2.637 -0.3106 -0.2756  1.2808
 2311SOL    HW218570   2.066   2.069   2.628  0.2220 -0.1001 -0.1329
 2312SOL     OW18571   2.396   3.358   8.440 -0.2737  0.2752  0.0060
 2312SOL    HW118572   2.331   3.415   8.480 -0.5806  1.6869 -2.5442
 2312SOL    HW218573   2.435   3.325   8.521  0.9008  1.4663 -0.0658
 2313SOL     OW18574   3.322   4.043  11.301  1.2230  0.2181 -0.4276
 2313SOL    HW118575   3.391   4.108  11.309  0.1396  1.3910 -0.5587
 2313SOL    HW218576   3.302   4.010  11.388  1.3562 -0.4450 -0.6455
 2314SOL     OW18577   2.354   2.298  11.838 -0.1560  0.2726  0.5653
 2314SOL    HW118578   2.389   2.348  11.765  0.9065 -0.2256  0.7402
 2314SOL    HW218579   2.380   2.355  11.910 -3.5427  2.6575 -0.0893
 2315SOL     OW18580   0.309   2.360  13.478  0.6455  0.7805  0.0239
 2315SOL    HW118581   0.403   2.376  13.494  1.4578 -0.7679 -3.1639
 2315SOL    HW218582   0.308   2.269  13.506  0.7771  0.5807 -0.6188
 2316SOL     OW18583   4.239   0.818  15.967  0.0983  0.3425 -0.4337
 2316SOL    HW118584   4.284   0.891  16.010  1.5034 -0.8925  0.1982
 2316SOL    HW218585   4.153   0.856  15.950 -0.0130  0.4308  0.2974
 2317SOL     OW18586   3.645   1.818   8.789  0.5699  0.1871 -0.3392
 2317SOL    HW118587   3.556   1.822   8.754  0.2922  1.5028  0.4900
 2317SOL    HW218588   3.635   1.880   8.862  1.2615  1.0306 -0.9681
 2318SOL     OW18589   2.260   0.525   6.740 -0.4162 -0.5232  0.2448
 2318SOL    HW118590   2.321   0.452   6.750 -0.7281 -0.6396  1.2588
 2318SOL    HW218591   2.185   0.506   6.795 -1.2322  1.6670 -0.0990
 2319SOL     OW18592   1.202   2.201   8.821  0.0060 -0.4391  0.1004
 2319SOL    HW118593   1.191   2.115   8.862  0.7773 -1.7894 -2.5629
 2319SOL    HW218594   1.297   2.215   8.823 -0.0456 -0.1204  0.3082
 2320SOL     OW18595   0.631   0.339   1.843 -0.4526  0.1020 -0.2118
 2320SOL    HW118596   0.569   0.351   1.914 -0.7019 -1.9087 -0.0864
 2320SOL    HW218597   0.579   0.334   1.763 -0.1878  2.3184 -0.5231
 2321SOL     OW18598   2.573   2.916   9.683 -0.3216 -0.3399 -0.1346
 2321SOL    HW118599   2.586   2.870   9.600  1.8027  1.1702 -0.6685
 2321SOL    HW218600   2.535   2.999   9.656  0.7440  0.6967  1.5172
 2322SOL     OW18601   1.551   2.415   1.270  0.4007  0.3656 -0.1155
 2322SOL    HW118602   1.641   2.391   1.295  1.0204 -0.1255 -2.8810
 2322SOL    HW218603   1.555   2.383   1.180  1.1064  0.2138 -0.0321
 2323SOL     OW18604   0.616   0.010   6.104 -0.4167  0.0865 -0.5425
 2323SOL    HW118605   0.699   4.726   6.143 -0.1498 -0.2159 -1.3153
 2323SOL    HW218606   0.572   4.670   6.122  0.7502 -0.0192  1.7333
 2324SOL     OW18607   0.170   3.194   1.907  0.3749 -0.0879 -0.0471
 2324SOL    HW118608   0.260   3.179   1.936 -0.2769 -3.7666 -0.0397
 2324SOL    HW218609   0.137   3.184   1.997 -0.2199  0.6527 -0.1807
 2325SOL     OW18610   4.415   0.112  11.551 -0.2854  0.1252 -0.3726
 2325SOL    HW118611   4.377   0.130  11.465 -0.5993 -0.9527 -0.4625
 2325SOL    HW218612   4.464   0.030  11.541  0.6387  0.8853 -1.9942
 2326SOL     OW18613   1.388   3.766   5.068  0.0504 -0.0554  0.0172
 2326SOL    HW118614   1.298   3.748   5.096  0.1985 -3.3480 -1.6092
 2326SOL    HW218615   1.439   3.703   5.118 -0.2761  0.6186  1.1890
 2327SOL     OW18616   4.495   4.459   7.681 -0.3852  0.8813  0.3903
 2327SOL    HW118617   4.485   4.363   7.683 -1.9635  1.0135 -0.7638
 2327SOL    HW218618   4.586   4.476   7.706 -0.4606  5.5183 -2.5829
 2328SOL     OW18619   4.550   3.965   4.945  0.6394 -0.0944  0.3719
 2328SOL    HW118620   4.584   4.039   4.894  2.8130 -1.8507 -0.7437
 2328SOL    HW218621   4.636   3.924   4.954 -0.8682 -3.1466  0.6991
 2329SOL     OW18622   2.101   2.221  10.485  0.0220  0.0902 -0.2825
 2329SOL    HW118623   2.155   2.178  10.419 -0.7100  1.7775 -1.9817
 2329SOL    HW218624   2.152   2.210  10.565 -3.0384  3.1526  2.1111
 2330SOL     OW18625   2.855   3.952   0.641  0.2526 -0.6397 -0.0453
 2330SOL    HW118626   2.799   3.889   0.595 -0.7539  0.3079 -0.1162
 2330SOL    HW218627   2.864   4.014   0.569  1.1489 -1.4950 -0.6650
 2331SOL     OW18628   0.141   4.292   7.111 -0.4072 -0.3560 -0.1266
 2331SOL    HW118629   0.139   4.316   7.203  4.0655  2.3255 -0.6830
 2331SOL    HW218630   0.174   4.203   7.126 -1.8986 -0.8733 -0.0000
 2332SOL     OW18631   3.401   2.963  12.458  1.4485  0.2628 -0.2653
 2332SOL    HW118632   3.346   2.888  12.435  0.2923  1.8456 -2.6533
 2332SOL    HW218633   3.440   2.986  12.374 -0.8124 -0.2753 -1.4766
 2333SOL     OW18634   2.981   3.181   7.397 -0.5544 -0.1050 -0.6638
 2333SOL    HW118635   2.956   3.103   7.446  1.0396 -0.8412 -1.0113
 2333SOL    HW218636   3.036   3.148   7.326  3.0624 -2.0210  3.0633
 2334SOL     OW18637   4.631   2.830  13.436  0.1101  0.1424  0.1690
 2334SOL    HW118638   4.644   2.754  13.378 -2.5739 -1.4044  1.5559
 2334SOL    HW218639   4.569   2.887  13.390  0.7884  2.0585  1.6707
 2335SOL     OW18640   3.098   1.777   4.605  0.1764  0.3111  0.3117
 2335SOL    HW118641   3.084   1.783   4.510 -0.7943 -0.2410  0.4226
 2335SOL    HW218642   3.117   1.869   4.625  1.7553  0.2488 -0.8757
 2336SOL     OW18643   3.635   0.416   4.876  0.3520  0.4004 -0.5503
 2336SOL    HW118644   3.604   0.330   4.845 -0.9189  0.1713  1.3846
 2336SOL    HW218645   3.570   0.430   4.945  0.1608 -2.7709 -0.0859
 2337SOL     OW18646   3.516   1.738  14.797 -0.3308 -0.6075 -0.0983
 2337SOL    HW118647   3.479   1.652  14.816 -2.6349  0.4356  0.0802
 2337SOL    HW218648   3.575   1.713  14.725 -0.7305 -5.7505  1.3526
 2338SOL     OW18649   3.073   2.085   3.844 -0.3149  0.2176  0.0136
 2338SOL    HW118650   3.076   2.041   3.759  0.8562  1.3627 -0.5375
 2338SOL    HW218651   3.160   2.123   3.835 -0.9002  1.3841 -0.8045
 2339SOL     OW18652   1.593   2.265  12.458  0.2506 -0.3056  0.5034
 2339SOL    HW118653   1.601   2.266  12.554 -1.8015 -3.1442  0.7051
 2339SOL    HW218654   1.670   2.320  12.440 -0.1507  0.0485 -0.1327
 2340SOL     OW18655   1.887   3.829   7.098 -0.2887  0.1991  0.3527
 2340SOL    HW118656   1.805   3.852   7.142 -0.6945 -2.4457  0.9889
 2340SOL    HW218657   1.856   3.788   7.018  0.1279 -2.0349  1.3267
 2341SOL     OW18658   3.310   4.687   7.819 -0.3914  0.8347  0.6711
 2341SOL    HW118659   3.374   4.619   7.840 -1.9514 -1.1064 -0.7934
 2341SOL    HW218660   3.231   4.676   7.872 -0.9996 -0.6214 -0.5198
 2342SOL     OW18661   1.082   4.170   7.935  0.3210 -0.0471  0.1946
 2342SOL    HW118662   1.113   4.157   8.025  1.2823 -2.8280 -0.5373
 2342SOL    HW218663   1.131   4.099   7.895 -0.3061 -0.0963 -0.4877
 2343SOL     OW18664   4.103   1.944   6.448 -0.1851  1.0595 -0.0556
 2343SOL    HW118665   4.183   1.995   6.443  1.2954 -1.4369 -1.7148
 2343SOL    HW218666   4.086   1.922   6.357 -0.6769  2.8211 -0.3778
 2344SOL     OW18667   1.199   3.457   5.128  0.1014 -0.1159  0.2282
 2344SOL    HW118668   1.134   3.480   5.195  1.2388 -1.6763  1.8607
 2344SOL    HW218669   1.271   3.451   5.190 -0.2976  0.6872  0.7834
 2345SOL     OW18670   4.207   3.402   6.232  0.7020  0.0254  0.5232
 2345SOL    HW118671   4.122   3.363   6.255  0.5093  0.5514  0.7057
 2345SOL    HW218672   4.268   3.364   6.295  2.3183 -1.2217 -1.7800
 2346SOL     OW18673   1.358   0.249   8.540  0.0732  0.0281  0.2599
 2346SOL    HW118674   1.317   0.168   8.570  1.0807 -0.8135 -0.5910
 2346SOL    HW218675   1.305   0.274   8.465  0.8929 -0.6200 -0.5417
 2347SOL     OW18676   3.059   3.747   7.875  0.1724 -0.6982  0.8544
 2347SOL    HW118677   3.077   3.821   7.818 -1.5887 -0.6439  0.3807
 2347SOL    HW218678   3.061   3.795   7.958  1.8272 -2.5746  1.9182
 2348SOL     OW18679   0.897   4.297   1.627 -0.8875 -0.1963 -0.0642
 2348SOL    HW118680   0.829   4.365   1.619  1.7339  2.5667  1.4462
 2348SOL    HW218681   0.869   4.253   1.708  1.1765  2.2339  1.9513
 2349SOL     OW18682   2.422   4.096   5.003 -0.2383  0.2250 -0.0128
 2349SOL    HW118683   2.378   4.149   5.070 -0.8149  1.0357 -1.0500
 2349SOL    HW218684   2.496   4.053   5.046 -1.7036  0.7838  3.0863
 2350SOL     OW18685   4.025   2.180  12.146  0.1413 -0.2246 -0.5780
 2350SOL    HW118686   3.939   2.143  12.126 -0.3460  0.1944  0.6875
 2350SOL    HW218687   4.006   2.162  12.239 -2.7245  0.5096 -1.0133
 2351SOL     OW18688   0.121   2.638  13.624  0.4188  0.2556 -0.1515
 2351SOL    HW118689   0.035   2.643  13.666 -0.0700  0.5729 -1.1881
 2351SOL    HW218690   0.169   2.707  13.670  0.1011  0.6593 -0.4302
 2352SOL     OW18691   1.163   1.241   4.708 -0.0461  0.4019 -0.1870
 2352SOL    HW118692   1.173   1.332   4.683 -0.8540  0.3631 -0.6601
 2352SOL    HW218693   1.224   1.235   4.781  0.4379  1.8545 -0.4756
 2353SOL     OW18694   0.267   4.007   7.145 -0.1727 -0.5031  0.3912
 2353SOL    HW118695   0.348   3.981   7.188  0.1405 -0.3791 -0.1280
 2353SOL    HW218696   0.204   3.955   7.195  0.1735  1.0647  2.4637
 2354SOL     OW18697   2.630   4.268  11.501  0.0574 -0.0341 -0.6385
 2354SOL    HW118698   2.567   4.228  11.441  0.9365  1.4353 -2.5401
 2354SOL    HW218699   2.621   4.201  11.568 -1.9356  0.9901  0.0994
 2355SOL     OW18700   4.482   4.427   6.567  0.4537  0.3139  0.2124
 2355SOL    HW118701   4.456   4.402   6.479  0.1719 -0.6364  0.5575
 2355SOL    HW218702   4.526   4.511   6.558  1.4294 -0.3877 -1.6980
 2356SOL     OW18703   3.219   0.664   9.057 -0.2577  0.0765 -0.0582
 2356SOL    HW118704   3.171   0.681   9.138 -0.3795 -1.1317  0.1124
 2356SOL    HW218705   3.310   0.686   9.081  0.4034 -1.5925 -1.0743
 2357SOL     OW18706   0.683   2.479   3.055 -0.4707  0.2523  0.2661
 2357SOL    HW118707   0.772   2.515   3.063  0.4063 -1.6188 -0.8483
 2357SOL    HW218708   0.636   2.536   3.115 -0.3264  1.1715 -0.4982
 2358SOL     OW18709   0.859   0.985   1.641  0.0009  0.5389 -0.5269
 2358SOL    HW118710   0.794   1.004   1.708  0.5820  3.7383 -0.8474
 2358SOL    HW218711   0.906   0.905   1.663  1.3841  1.5060  0.0501
 2359SOL     OW18712   1.970   0.305   8.738  0.8980 -0.4284 -0.6691
 2359SOL    HW118713   2.029   0.369   8.699  0.3810  0.3307 -0.2065
 2359SOL    HW218714   2.003   0.292   8.827  0.0930  3.3267  0.1702
 2360SOL     OW18715   0.626   0.934   3.287  0.2253  0.7579  0.4121
 2360SOL    HW118716   0.654   0.952   3.376  1.4078  1.0237 -0.0151
 2360SOL    HW218717   0.532   0.945   3.300 -0.3083 -1.0056 -2.1154
 2361SOL     OW18718   2.484   3.164  14.122 -0.6773 -0.1485 -0.0090
 2361SOL    HW118719   2.449   3.109  14.052 -5.0126  1.4737  0.8969
 2361SOL    HW218720   2.439   3.124  14.196  0.3777  1.3705  1.4579
 2362SOL     OW18721   3.068   2.721   4.437 -0.0924  0.4204 -0.1783
 2362SOL    HW118722   3.016   2.690   4.512  1.9123 -0.7217  0.7250
 2362SOL    HW218723   3.127   2.647   4.440 -2.5784 -1.5824 -0.4164
 2363SOL     OW18724   2.745   2.448   7.853  0.3653  0.8711 -0.5571
 2363SOL    HW118725   2.802   2.377   7.827  0.0204  0.3851  0.0088
 2363SOL    HW218726   2.664   2.398   7.863  0.9935  0.3037  1.7928
 2364SOL     OW18727   1.247   1.685   8.072 -0.2724 -0.0792  0.0134
 2364SOL    HW118728   1.195   1.615   8.112  0.0812  0.3866  1.2845
 2364SOL    HW218729   1.178   1.747   8.050 -0.0168 -0.2924 -1.3734
 2365SOL     OW18730   1.804   3.444   8.881 -0.3126  0.2267 -0.4911
 2365SOL    HW118731   1.873   3.425   8.945  0.1743 -0.7239 -1.3116
 2365SOL    HW218732   1.832   3.387   8.811  1.0591  1.1695 -0.7155
 2366SOL     OW18733   4.060   1.185   7.179 -0.6183 -0.5536  0.1341
 2366SOL    HW118734   4.103   1.256   7.227 -0.4014 -1.4865  1.3274
 2366SOL    HW218735   4.043   1.222   7.093  0.4580  0.8123  0.4998
 2367SOL     OW18736   3.147   4.485   6.234  0.4903  0.0106  0.3284
 2367SOL    HW118737   3.196   4.499   6.153  1.4761 -1.0353  0.7576
 2367SOL    HW218738   3.149   4.390   6.245 -0.7927 -0.4121 -2.8765
 2368SOL     OW18739   3.286   0.205   7.199 -0.4103  0.3938  0.1337
 2368SOL    HW118740   3.340   0.269   7.245  0.0099  0.6380 -0.7014
 2368SOL    HW218741   3.362   0.160   7.162 -2.1972 -0.7309 -2.1772
 2369SOL     OW18742   1.169   2.749  17.673  0.0369 -0.0381  0.3059
 2369SOL    HW118743   1.091   2.744  17.617  0.9789 -0.6680 -0.9528
 2369SOL    HW218744   1.157   2.818  17.737  1.0664 -1.8902  2.5064
 2370SOL     OW18745   1.676   4.694  11.602 -0.2211 -0.3473  0.8712
 2370SOL    HW118746   1.713   0.039  11.607  0.6247 -0.6187 -0.7219
 2370SOL    HW218747   1.699   4.655  11.687  1.0862 -0.6382  0.3863
 2371SOL     OW18748   3.574   4.645   8.031  0.3147 -0.4187 -0.4797
 2371SOL    HW118749   3.592   4.563   8.078  0.3481  1.5046  2.8651
 2371SOL    HW218750   3.646   4.644   7.969  1.0657  0.2755  0.3869
 2372SOL     OW18751   2.130   0.076   4.719 -0.2169 -0.3536 -0.0208
 2372SOL    HW118752   2.083   0.129   4.784  1.2990  1.2804 -0.2369
 2372SOL    HW218753   2.073   0.072   4.642 -1.1642 -1.7928  0.7692
 2373SOL     OW18754   0.463   1.319  15.815  0.1341  0.0746 -0.1004
 2373SOL    HW118755   0.493   1.275  15.736 -0.5757 -0.6297  0.0285
 2373SOL    HW218756   0.370   1.324  15.792  0.1147 -0.4950 -0.1331
 2374SOL     OW18757   0.066   1.350   8.042 -0.2866 -0.2401  0.3156
 2374SOL    HW118758   0.022   1.285   8.097 -1.4641  1.0982  0.9542
 2374SOL    HW218759   4.742   1.339   7.974 -0.8426 -0.9279  0.9657
 2375SOL     OW18760   4.168   1.175   8.946  0.0453 -0.4485  0.2470
 2375SOL    HW118761   4.140   1.101   8.891  1.6157 -1.0361  0.2269
 2375SOL    HW218762   4.085   1.199   8.986 -1.3544 -2.1834 -1.6366
 2376SOL     OW18763   2.117   0.934   3.457 -0.3663  0.1800 -0.3558
 2376SOL    HW118764   2.212   0.946   3.464 -0.0813 -1.2750 -1.5933
 2376SOL    HW218765   2.096   0.971   3.542  0.1156  0.9111 -0.5508
 2377SOL     OW18766   3.846   1.585  16.989 -0.0755  0.1360  0.1362
 2377SOL    HW118767   3.795   1.522  16.936  1.9732 -1.5541  0.1649
 2377SOL    HW218768   3.866   1.531  17.066  2.0825  1.3778  0.4274
 2378SOL     OW18769   3.360   1.048   0.333  0.4342  0.5746 -0.0207
 2378SOL    HW118770   3.313   0.983   0.280 -0.6184  1.6059 -0.3481
 2378SOL    HW218771   3.346   1.127   0.282  0.0356 -0.3182 -1.3000
 2379SOL     OW18772   1.398   4.262   9.233 -0.3716 -0.1209  0.2743
 2379SOL    HW118773   1.449   4.242   9.311 -0.4931  1.1544  0.6746
 2379SOL    HW218774   1.311   4.273   9.272 -1.1833  0.7340 -1.7657
 2380SOL     OW18775   4.656   2.630   9.175 -0.5309 -0.1292  0.1159
 2380SOL    HW118776   4.702   2.704   9.215  2.1597 -1.5719 -0.3226
 2380SOL    HW218777   4.606   2.675   9.106  1.9509  1.1592 -0.8409
 2381SOL     OW18778   2.620   3.803   5.299  0.3363  0.3532 -0.3130
 2381SOL    HW118779   2.575   3.868   5.353 -2.0668 -1.1479 -0.5010
 2381SOL    HW218780   2.552   3.788   5.233 -0.1432  0.9300  0.0508
 2382SOL     OW18781   4.286   0.301   5.233 -0.0477 -0.3490 -0.4073
 2382SOL    HW118782   4.197   0.303   5.197  0.5418  0.1784 -1.8376
 2382SOL    HW218783   4.323   0.384   5.205  0.5524 -0.6965 -0.6551
 2383SOL     OW18784   0.914   2.320   8.415 -0.1852  0.5157 -0.2790
 2383SOL    HW118785   0.964   2.296   8.494  2.0086  3.9234 -0.6049
 2383SOL    HW218786   0.954   2.261   8.351  1.8169  2.3270 -0.7067
 2384SOL     OW18787   4.281   2.182   8.001  0.0688  0.0444  0.1308
 2384SOL    HW118788   4.336   2.245   8.048 -0.3383 -1.2202  2.2942
 2384SOL    HW218789   4.198   2.176   8.048  0.1218 -0.8062  0.1084
 2385SOL     OW18790   1.268   1.508  11.994 -0.1659 -0.0766  0.3415
 2385SOL    HW118791   1.311   1.538  12.074  1.8718  1.5396 -1.3691
 2385SOL    HW218792   1.339   1.486  11.934 -0.6385 -1.0223  0.1375
 2386SOL     OW18793   0.660   4.628   3.676 -0.5360 -1.0532 -0.5287
 2386SOL    HW118794   0.585   4.589   3.721 -1.1207 -1.6574 -2.0311
 2386SOL    HW218795   0.722   4.649   3.746 -0.6669 -0.4417 -0.5931
 2387SOL     OW18796   2.026   3.119   6.854 -0.2364 -0.4589 -0.5220
 2387SOL    HW118797   2.070   3.189   6.903 -1.0043 -0.7643  0.5970
 2387SOL    HW218798   1.969   3.090   6.925  1.7242 -3.4480 -0.1546
 2388SOL     OW18799   2.134   4.488   7.580  0.7102  0.1635 -0.2641
 2388SOL    HW118800   2.100   4.402   7.555  0.3100  1.1088 -3.0525
 2388SOL    HW218801   2.092   4.499   7.665 -0.2366 -1.8401 -0.4583
 2389SOL     OW18802   3.096   4.731   6.822 -0.1200  0.0021 -0.2105
 2389SOL    HW118803   3.085   0.053   6.752  0.0622 -0.2124 -0.4346
 2389SOL    HW218804   3.104   4.646   6.780  0.4858  0.3607 -0.8184
 2390SOL     OW18805   4.540   0.508   3.600 -0.0433 -0.5903  0.1205
 2390SOL    HW118806   4.632   0.526   3.622 -0.3377  0.4591  0.5191
 2390SOL    HW218807   4.548   0.504   3.505 -0.3601  0.7414  0.0445
 2391SOL     OW18808   1.357   1.354   8.788 -0.1470 -0.0985 -0.0364
 2391SOL    HW118809   1.354   1.341   8.882  0.5451  1.2520  0.1723
 2391SOL    HW218810   1.344   1.261   8.766 -0.3796  0.3024 -1.6239
 2392SOL     OW18811   3.029   1.932  17.577 -0.2867  0.0063  0.1890
 2392SOL    HW118812   2.974   1.911  17.652  1.3686  0.0122  1.3892
 2392SOL    HW218813   3.052   1.846  17.541  0.7163  0.6322 -0.6710
 2393SOL     OW18814   1.939   2.322   4.655  0.2249 -0.4761  0.2419
 2393SOL    HW118815   1.964   2.241   4.610 -0.2427  0.0865 -1.0344
 2393SOL    HW218816   1.898   2.291   4.736  1.2144 -0.3019  0.8095
 2394SOL     OW18817   4.563   0.530   4.293  0.1439 -0.1604  0.0071
 2394SOL    HW118818   4.542   0.521   4.199  1.4261 -1.5385 -0.1377
 2394SOL    HW218819   4.647   0.573   4.281  0.0460 -0.1193 -0.5824
 2395SOL     OW18820   3.467   0.403   9.742 -0.1790  0.3949 -0.4589
 2395SOL    HW118821   3.459   0.311   9.765  2.0910 -0.1058 -1.6224
 2395SOL    HW218822   3.506   0.442   9.820 -0.7811 -1.2025  0.6327
 2396SOL     OW18823   0.319   2.689   2.278  0.1164  0.6541 -0.4429
 2396SOL    HW118824   0.389   2.754   2.284 -0.0388  0.9543 -1.7633
 2396SOL    HW218825   0.369   2.609   2.291 -2.0425 -0.7208 -0.6585
 2397SOL     OW18826   1.885   3.241   8.709 -0.8615  0.4965  0.5700
 2397SOL    HW118827   1.841   3.157   8.721  1.5474 -0.9026 -0.3776
 2397SOL    HW218828   1.902   3.238   8.615 -0.0197 -0.1366  0.7371
 2398SOL     OW18829   0.416   1.461  16.476 -0.1589 -0.1423  0.4323
 2398SOL    HW118830   0.365   1.386  16.506 -1.8307  0.5564 -0.6875
 2398SOL    HW218831   0.505   1.428  16.488 -0.2597 -0.0970  1.3560
 2399SOL     OW18832   0.762   2.604   6.210  0.2976  0.0284  0.2248
 2399SOL    HW118833   0.788   2.550   6.135  0.1665  1.0533 -0.5491
 2399SOL    HW218834   0.702   2.668   6.172  1.2218 -0.6943 -2.4798
 2400SOL     OW18835   3.883   2.108   6.018  0.1105 -0.1557 -0.4593
 2400SOL    HW118836   3.924   2.187   6.052  0.7692 -0.3856 -0.7207
 2400SOL    HW218837   3.916   2.040   6.078 -1.3897  0.3444  0.9282
 2401SOL     OW18838   2.601   1.668  16.995  0.0058 -0.6492 -0.2514
 2401SOL    HW118839   2.613   1.649  16.902 -0.4952 -0.0517 -0.4362
 2401SOL    HW218840   2.638   1.756  17.005 -0.1003 -0.4997 -1.2097
 2402SOL     OW18841   2.262   2.772   1.812  0.0004 -0.7978  0.3060
 2402SOL    HW118842   2.335   2.715   1.838  1.2994 -0.2296 -2.0713
 2402SOL    HW218843   2.303   2.855   1.835  0.8114 -0.3747 -2.7869
 2403SOL     OW18844   0.125   0.434   2.152  0.2572  0.5494  0.1637
 2403SOL    HW118845   0.180   0.511   2.161  0.1561  0.7247 -0.6531
 2403SOL    HW218846   0.062   0.448   2.223 -0.3035  2.2176 -0.6644
 2404SOL     OW18847   1.414   2.782  10.127  0.2797 -0.4521 -0.3998
 2404SOL    HW118848   1.354   2.814  10.194  0.1083 -0.9883 -0.2985
 2404SOL    HW218849   1.492   2.837  10.122  0.7244 -1.1631 -1.3818
 2405SOL     OW18850   0.589   0.662   2.304 -0.0214  0.1382  0.1218
 2405SOL    HW118851   0.566   0.593   2.366  0.0275 -0.4392 -0.4946
 2405SOL    HW218852   0.560   0.736   2.357 -0.7061  1.2031 -1.7483
 2406SOL     OW18853   1.385   0.395   7.511 -0.6433  0.1935  0.3720
 2406SOL    HW118854   1.409   0.375   7.601  1.8020  0.2837 -0.2720
 2406SOL    HW218855   1.359   0.486   7.523 -1.3767 -0.1966  1.7155
 2407SOL     OW18856   3.039   4.203   2.370 -0.2473 -0.2910  0.2636
 2407SOL    HW118857   3.048   4.289   2.411 -0.9823  0.1664 -0.5073
 2407SOL    HW218858   3.030   4.230   2.278  0.6039  0.5211  0.4232
 2408SOL     OW18859   1.466   3.114  13.201 -0.3002  0.0371 -0.3027
 2408SOL    HW118860   1.532   3.089  13.265 -0.2133  0.5561 -0.1884
 2408SOL    HW218861   1.414   3.188  13.233 -0.9793  0.0229 -1.3714
 2409SOL     OW18862   4.456   1.264   5.658 -0.3936 -0.0672  0.1475
 2409SOL    HW118863   4.366   1.240   5.637 -0.4921 -0.2771  0.8119
 2409SOL    HW218864   4.481   1.295   5.571  1.5208  1.7795  1.3371
 2410SOL     OW18865   3.277   2.774   2.621 -0.2439  0.2777 -0.0606
 2410SOL    HW118866   3.367   2.802   2.636  0.2648 -0.2462 -2.1063
 2410SOL    HW218867   3.265   2.716   2.697  0.7319 -0.3161 -0.3481
 2411SOL     OW18868   1.639   0.134   7.696 -0.2165 -0.1598  0.5240
 2411SOL    HW118869   1.606   0.049   7.725  1.7344 -1.0889  0.0261
 2411SOL    HW218870   1.585   0.193   7.749 -1.0652  0.9269 -1.5553
 2412SOL     OW18871   0.567   2.436   4.098 -0.1972  0.1524  0.4062
 2412SOL    HW118872   0.553   2.394   4.183 -1.2679 -0.8657 -0.2628
 2412SOL    HW218873   0.525   2.519   4.118  0.4333  0.1012  1.8907
 2413SOL     OW18874   0.500   3.624  15.150  0.1583 -0.1508 -0.0385
 2413SOL    HW118875   0.465   3.592  15.234  2.9346  3.1820  2.3800
 2413SOL    HW218876   0.584   3.647  15.190  0.0394 -1.0524  0.7461
 2414SOL     OW18877   4.567   4.099   1.272  0.5703  0.4201  0.3634
 2414SOL    HW118878   4.584   4.142   1.189  1.3719 -0.7127 -0.0641
 2414SOL    HW218879   4.550   4.008   1.245 -0.5981  0.4658  0.9557
 2415SOL     OW18880   3.284   1.211   0.840  0.8800 -0.0548  0.1417
 2415SOL    HW118881   3.340   1.234   0.765 -0.2048  2.7964  0.2173
 2415SOL    HW218882   3.317   1.122   0.850  0.9677  0.0761  0.9978
 2416SOL     OW18883   2.562   3.569   1.098 -0.3553  0.3377 -0.2969
 2416SOL    HW118884   2.487   3.512   1.115 -1.1814  1.4903 -0.0629
 2416SOL    HW218885   2.519   3.648   1.066 -0.8050  0.8724  1.6276
 2417SOL     OW18886   2.682   2.161  15.321 -0.5192  0.3192 -0.6702
 2417SOL    HW118887   2.721   2.244  15.346 -1.6668  0.1164  1.7424
 2417SOL    HW218888   2.734   2.111  15.383 -1.8869 -0.1851  0.0865
 2418SOL     OW18889   0.012   1.214   6.300  0.2308  0.1393 -0.0865
 2418SOL    HW118890   4.666   1.207   6.263  0.0919  0.1177  0.2549
 2418SOL    HW218891   0.060   1.225   6.218  0.2504 -1.4234 -0.2885
 2419SOL     OW18892   4.736   3.403  11.574  0.7307 -0.3080 -0.1231
 2419SOL    HW118893   4.733   3.309  11.595 -1.3468 -0.0883  0.5920
 2419SOL    HW218894   0.054   3.444  11.636  0.5641  1.0878 -0.9052
 2420SOL     OW18895   1.596   1.894   5.345  0.0259 -0.2653  0.7956
 2420SOL    HW118896   1.671   1.902   5.287  0.4716  1.3658  1.6070
 2420SOL    HW218897   1.527   1.945   5.304 -1.6953 -2.1179  1.3854
 2421SOL     OW18898   0.972   4.583  12.211 -0.0552 -0.1473 -0.1519
 2421SOL    HW118899   1.042   4.551  12.268  1.0532  2.3589 -0.0858
 2421SOL    HW218900   0.903   4.610  12.271 -0.6577 -0.5701 -0.6572
 2422SOL     OW18901   2.763   2.440  12.272 -0.3797  1.1100  0.0559
 2422SOL    HW118902   2.814   2.488  12.207 -0.3040 -0.2843 -0.9149
 2422SOL    HW218903   2.786   2.348  12.261 -1.1988  0.7502  1.3189
 2423SOL     OW18904   0.278   1.031   5.258 -0.0881  0.3779  0.6404
 2423SOL    HW118905   0.283   0.937   5.277  1.7448  0.2837 -0.2173
 2423SOL    HW218906   0.326   1.041   5.175 -1.1668  0.0507 -0.0194
 2424SOL     OW18907   1.645   2.197   3.925  0.8538 -0.2236  0.4973
 2424SOL    HW118908   1.561   2.242   3.909  0.3014 -1.6864 -0.7064
 2424SOL    HW218909   1.605   2.110   3.920  1.2592 -0.2219 -2.9466
 2425SOL     OW18910   4.524   2.437   9.329 -0.0550  0.2336 -0.4666
 2425SOL    HW118911   4.566   2.506   9.278  0.0913  1.2753  1.0596
 2425SOL    HW218912   4.466   2.489   9.384  0.9860  0.1361  0.7255
 2426SOL     OW18913   3.984   3.800   2.945 -0.4041  0.6128  0.1206
 2426SOL    HW118914   3.896   3.766   2.929 -0.8435  0.8096  2.1586
 2426SOL    HW218915   3.965   3.890   2.919  0.0682  0.7744  0.3365
 2427SOL     OW18916   4.462   0.863  10.158  0.0837  0.5144 -0.2777
 2427SOL    HW118917   4.476   0.927  10.088 -0.6811  0.8893 -0.0883
 2427SOL    HW218918   4.441   0.922  10.231  2.4938  2.1956 -0.9480
 2428SOL     OW18919   1.894   1.686   6.076  0.2340  0.1828 -0.5181
 2428SOL    HW118920   1.865   1.643   6.157  2.5121 -1.5307 -0.6035
 2428SOL    HW218921   1.833   1.750   6.040 -0.0983  1.2500  1.9436
 2429SOL     OW18922   3.453   2.917   2.900  0.5431 -0.0446 -0.8111
 2429SOL    HW118923   3.414   2.884   2.981  0.0421 -0.6850 -1.3123
 2429SOL    HW218924   3.420   3.005   2.882  1.8910  0.5709 -0.2207
 2430SOL     OW18925   1.373   3.494   2.746  0.5406  0.2517  0.3880
 2430SOL    HW118926   1.293   3.546   2.739 -0.3801 -0.9501  1.8772
 2430SOL    HW218927   1.415   3.567   2.792  1.4354 -1.0166  1.5864
 2431SOL     OW18928   1.313   0.284   8.974  0.2598  0.5874  0.1649
 2431SOL    HW118929   1.362   0.325   9.046 -1.0340 -1.0798  2.0078
 2431SOL    HW218930   1.348   0.329   8.898 -0.5877  0.5073 -0.2695
 2432SOL     OW18931   2.823   1.836   8.712 -0.0718  0.3738 -0.3966
 2432SOL    HW118932   2.818   1.794   8.627 -2.5876  1.4886 -0.7916
 2432SOL    HW218933   2.782   1.771   8.769  0.6555 -0.6647 -1.0600
 2433SOL     OW18934   0.534   0.706   2.932 -0.3390 -0.0341 -0.2161
 2433SOL    HW118935   0.626   0.701   2.956 -0.4431 -0.1555  0.1497
 2433SOL    HW218936   0.495   0.683   3.016  1.9038 -2.1385  0.2422
 2434SOL     OW18937   4.207   0.616   3.964  0.2850 -0.3366  0.0225
 2434SOL    HW118938   4.210   0.704   3.925  0.2992 -1.2977 -2.1367
 2434SOL    HW218939   4.157   0.629   4.044  0.0099 -0.9427 -0.0571
 2435SOL     OW18940   1.989   4.574   5.557  0.1864  0.5604 -0.0784
 2435SOL    HW118941   1.908   4.598   5.602 -2.1166 -2.1125 -2.8370
 2435SOL    HW218942   1.951   4.515   5.492 -0.9714  0.5127  0.6485
 2436SOL     OW18943   1.887   0.615   6.455 -0.2696  0.1297  0.4853
 2436SOL    HW118944   1.892   0.529   6.497 -1.9776 -0.1397  0.1288
 2436SOL    HW218945   1.971   0.652   6.484  1.1090 -0.6404 -2.4318
 2437SOL     OW18946   3.422   1.851  14.479  0.1247 -0.3367  0.1289
 2437SOL    HW118947   3.339   1.866  14.524  2.1347  4.2913  2.2933
 2437SOL    HW218948   3.488   1.887  14.539  0.0683 -0.0988  0.0447
 2438SOL     OW18949   1.804   4.617   2.517  0.1434  0.1167  0.0724
 2438SOL    HW118950   1.799   4.553   2.587  1.2817  3.3690  3.0945
 2438SOL    HW218951   1.804   4.552   2.447 -0.5359 -0.3175  0.4826
 2439SOL     OW18952   2.706   0.099   3.110 -0.2749  0.2174 -0.1713
 2439SOL    HW118953   2.766   0.074   3.040  0.3653  0.1705  0.3885
 2439SOL    HW218954   2.650   0.153   3.054  0.5811 -0.0593 -1.2991
 2440SOL     OW18955   2.461   1.973   0.255  0.1001 -0.3424  0.3069
 2440SOL    HW118956   2.411   1.998   0.178 -0.2850 -0.3770  0.5426
 2440SOL    HW218957   2.391   1.977   0.322 -1.6145  1.8139 -1.6335
 2441SOL     OW18958   2.058   0.493  10.273  0.3418 -0.8564 -0.5147
 2441SOL    HW118959   2.048   0.532  10.186  0.0805  1.4048  0.5202
 2441SOL    HW218960   2.025   0.569  10.321 -2.1599 -1.6547 -0.9379
 2442SOL     OW18961   4.412   4.500  12.711  0.1369  0.4144  1.0332
 2442SOL    HW118962   4.383   4.418  12.751  1.8511 -1.0158 -0.6866
 2442SOL    HW218963   4.465   4.540  12.780  1.6741 -0.1909  0.1839
 2443SOL     OW18964   3.754   2.971   2.085  0.0809 -0.3098 -0.2313
 2443SOL    HW118965   3.806   2.947   2.008 -0.5725 -0.7011 -0.5447
 2443SOL    HW218966   3.815   2.986   2.158  2.4236 -0.6817 -2.1013
 2444SOL     OW18967   4.012   1.394  14.007 -0.0941  0.2946 -0.4359
 2444SOL    HW118968   3.953   1.470  14.002  0.6922  0.9470  0.2084
 2444SOL    HW218969   4.088   1.444  14.036 -0.0242  0.4977 -0.9742
 2445SOL     OW18970   0.738   2.272   1.817  0.3507  0.7237  0.6473
 2445SOL    HW118971   0.721   2.179   1.828 -1.6945  1.3853  3.1842
 2445SOL    HW218972   0.831   2.271   1.794  0.5068 -0.1389  1.3295
 2446SOL     OW18973   2.128   2.062  11.120  0.0066  0.4161 -0.1443
 2446SOL    HW118974   2.104   1.985  11.069  1.2806 -1.8640  2.6774
 2446SOL    HW218975   2.061   2.060  11.190  0.2224  0.6642  0.0706
 2447SOL     OW18976   1.566   4.155   0.849  0.0139  0.8048  0.3139
 2447SOL    HW118977   1.649   4.111   0.833 -0.9434 -0.1648 -1.9053
 2447SOL    HW218978   1.587   4.229   0.906  3.2760  0.0775  0.0584
 2448SOL     OW18979   2.667   0.672   5.547  0.0501  0.0749 -0.6374
 2448SOL    HW118980   2.739   0.705   5.601 -0.6555 -1.0560  0.9970
 2448SOL    HW218981   2.721   0.632   5.479 -0.0195  0.1441 -0.7347
 2449SOL     OW18982   3.862   4.339   5.580  0.1489  0.0731  0.3230
 2449SOL    HW118983   3.847   4.427   5.546 -0.5199 -0.4403 -0.7053
 2449SOL    HW218984   3.956   4.340   5.598  0.0148  0.7851  0.9570
 2450SOL     OW18985   0.094   2.349  12.581  0.1167  0.2693 -0.1520
 2450SOL    HW118986   0.188   2.337  12.589  0.2487 -0.6428 -3.0322
 2450SOL    HW218987   0.070   2.258  12.564  0.1803  0.3845 -0.8292
 2451SOL     OW18988   4.304   2.711  11.368  0.3249 -0.4484 -0.3102
 2451SOL    HW118989   4.282   2.691  11.459 -0.8941  0.1173 -0.4798
 2451SOL    HW218990   4.399   2.707  11.381  0.3663  0.9416 -0.1725
 2452SOL     OW18991   0.193   2.511  16.521 -0.1357 -0.7716  0.0151
 2452SOL    HW118992   0.191   2.451  16.596 -0.4190 -2.5423 -1.4034
 2452SOL    HW218993   0.224   2.453  16.451  1.1070 -0.2941  0.1795
 2453SOL     OW18994   4.725   1.794   3.982 -0.0998 -0.0236 -0.1445
 2453SOL    HW118995   4.648   1.770   3.931 -0.8379  0.4361  0.7459
 2453SOL    HW218996   0.018   1.708   4.003  2.0891  1.1053  0.9182
 2454SOL     OW18997   1.853   2.667  15.061 -0.4177  0.6608  0.2795
 2454SOL    HW118998   1.944   2.691  15.082 -0.1001 -0.8808  0.7203
 2454SOL    HW218999   1.815   2.752  15.080 -0.1622  1.2340 -1.8417
 2455SOL     OW19000   0.910   2.276  15.929 -0.2528 -0.1898  0.0703
 2455SOL    HW119001   0.828   2.292  15.883  0.9942  3.7969 -0.7675
 2455SOL    HW219002   0.909   2.180  15.934  2.0191 -0.2825 -1.3322
 2456SOL     OW19003   2.802   1.492  14.718  0.6831  0.2796  0.3262
 2456SOL    HW119004   2.773   1.583  14.729  0.5228  0.3254 -0.4517
 2456SOL    HW219005   2.862   1.493  14.792  2.0140 -1.5230 -0.7076
 2457SOL     OW19006   1.471   1.357   5.832  0.1556 -0.1129  0.0742
 2457SOL    HW119007   1.408   1.398   5.892 -1.4925 -0.5524 -1.3444
 2457SOL    HW219008   1.454   1.397   5.747  0.5455 -0.0837  0.0121
 2458SOL     OW19009   0.746   4.470  15.154  0.3874  0.0831 -0.0080
 2458SOL    HW119010   0.824   4.473  15.209  1.6332 -2.6093 -1.6338
 2458SOL    HW219011   0.780   4.520  15.079 -0.9447  0.1834 -0.5396
 2459SOL     OW19012   3.757   4.124   1.659  0.0089 -0.3151 -0.8105
 2459SOL    HW119013   3.845   4.102   1.628  1.1997 -0.8168  2.9004
 2459SOL    HW219014   3.726   4.038   1.687  1.1464 -0.6139 -0.4894
 2460SOL     OW19015   1.515   3.681   1.281  0.0770 -0.5366 -0.5277
 2460SOL    HW119016   1.490   3.755   1.336 -1.5131 -1.5685  0.1241
 2460SOL    HW219017   1.449   3.699   1.215  1.8609  1.2665 -1.8391
 2461SOL     OW19018   0.494   3.553   1.857 -0.5286 -0.0971 -0.0809
 2461SOL    HW119019   0.430   3.502   1.809 -0.3646  1.0410 -1.5205
 2461SOL    HW219020   0.556   3.562   1.784 -0.1684 -1.9844 -0.0104
 2462SOL     OW19021   1.996   3.846   4.378 -0.5036 -0.8932  0.7578
 2462SOL    HW119022   2.002   3.940   4.394 -1.3021 -0.8087  0.5732
 2462SOL    HW219023   2.044   3.845   4.295  1.3958  0.9778  1.8361
 2463SOL     OW19024   3.539   0.406  13.096  0.1032  0.1796 -0.0842
 2463SOL    HW119025   3.545   0.438  13.006 -0.3084  0.3167 -0.0613
 2463SOL    HW219026   3.496   0.320  13.093 -1.3731  0.8777  1.0108
 2464SOL     OW19027   2.109   3.342   3.462  0.1127  0.4492  0.3456
 2464SOL    HW119028   2.050   3.358   3.535  1.5237 -0.3371  1.6494
 2464SOL    HW219029   2.128   3.249   3.470  1.7293  0.6896 -0.6382
 2465SOL     OW19030   1.018   1.022   7.821  0.1150  0.6622 -0.1777
 2465SOL    HW119031   1.036   1.100   7.769  1.5819 -0.6416 -1.6136
 2465SOL    HW219032   0.928   1.040   7.848  0.0097 -0.7234  0.3930
 2466SOL     OW19033   1.982   4.508   8.505  0.6426 -1.0476 -0.2533
 2466SOL    HW119034   1.903   4.548   8.468  1.5144  0.0913 -0.9191
 2466SOL    HW219035   1.965   4.415   8.497  0.6751 -1.1506  0.8478
 2467SOL     OW19036   2.089   2.815   0.858 -0.5896 -0.2830  0.4682
 2467SOL    HW119037   2.048   2.764   0.929 -1.8938 -1.3347 -1.0564
 2467SOL    HW219038   2.156   2.750   0.838 -0.7494  0.4641 -2.3736
 2468SOL     OW19039   4.278   1.473   3.951 -0.1455  0.0233  0.5669
 2468SOL    HW119040   4.241   1.392   3.987 -0.0745 -0.0818  0.4033
 2468SOL    HW219041   4.347   1.442   3.892  0.3070 -0.6028  1.4243
 2469SOL     OW19042   2.771   2.645   5.210 -0.1405  0.3212  0.3782
 2469SOL    HW119043   2.765   2.598   5.127  3.6572  1.7112 -0.6852
 2469SOL    HW219044   2.759   2.584   5.283 -2.5605 -0.7790 -0.9552
 2470SOL     OW19045   0.242   3.766  11.817  0.0582 -0.2045  0.3939
 2470SOL    HW119046   0.226   3.815  11.898  0.4264  0.7268 -0.0995
 2470SOL    HW219047   0.196   3.814  11.748 -1.1450 -0.2230  1.1661
 2471SOL     OW19048   2.431   1.292   5.340 -0.1397 -0.3083  0.2244
 2471SOL    HW119049   2.474   1.255   5.417 -1.0078 -0.6134  0.5559
 2471SOL    HW219050   2.479   1.375   5.337 -2.2260  0.9808  2.0702
 2472SOL     OW19051   0.569   3.069   5.028  0.2339 -0.8350 -0.6266
 2472SOL    HW119052   0.598   2.986   4.989  0.4063 -1.1891  0.2537
 2472SOL    HW219053   0.638   3.085   5.092 -0.0067  0.7945 -0.7740
 2473SOL     OW19054   1.455   1.398   2.143  0.1107 -0.3441 -0.2428
 2473SOL    HW119055   1.486   1.487   2.162 -0.2700 -0.3606  0.4448
 2473SOL    HW219056   1.362   1.412   2.128  0.1157  1.3543  1.2612
 2474SOL     OW19057   1.131   1.686  10.093  0.7966  0.4024  0.7407
 2474SOL    HW119058   1.114   1.728  10.009  0.9619 -0.2610  0.3691
 2474SOL    HW219059   1.092   1.600  10.074  0.6478  0.7549 -0.5474
 2475SOL     OW19060   3.266   0.441   3.779  0.5612  0.0193 -0.7147
 2475SOL    HW119061   3.223   0.438   3.694  1.5119 -2.8835 -1.1015
 2475SOL    HW219062   3.233   0.519   3.824  1.4889 -0.8826  1.5186
 2476SOL     OW19063   2.540   0.465  17.062 -0.1212  0.4062 -0.1522
 2476SOL    HW119064   2.535   0.473  17.157 -1.3849 -1.4821 -0.0770
 2476SOL    HW219065   2.595   0.541  17.039 -2.2936  2.3657  1.1324
 2477SOL     OW19066   2.265   4.247  17.106  0.7827 -0.5058  0.5190
 2477SOL    HW119067   2.177   4.227  17.137  0.9874 -3.3053 -0.6822
 2477SOL    HW219068   2.258   4.339  17.079 -0.1203 -0.6317  0.3176
 2478SOL     OW19069   1.318   1.661   6.607  0.3397  0.1603  0.6052
 2478SOL    HW119070   1.307   1.748   6.568  1.0160 -0.0019  0.0597
 2478SOL    HW219071   1.395   1.662   6.664  0.9513  1.9243 -0.2581
 2479SOL     OW19072   0.293   3.092   6.865 -0.3366  0.0716 -0.1011
 2479SOL    HW119073   0.310   2.998   6.874  1.8050  0.5906  1.2294
 2479SOL    HW219074   0.222   3.095   6.929 -1.2372 -2.7405 -0.9591
 2480SOL     OW19075   2.124   0.965  14.981 -0.5922  0.4264  0.5906
 2480SOL    HW119076   2.143   0.968  15.075 -1.1278  0.5141  0.6959
 2480SOL    HW219077   2.167   1.043  14.945 -0.9888  0.2479 -0.2631
 2481SOL     OW19078   1.045   2.442  15.023  0.3523 -0.3445  0.1286
 2481SOL    HW119079   1.053   2.537  15.033  0.2669 -0.3656  0.4033
 2481SOL    HW219080   1.047   2.438  14.927  0.4434 -0.7758  0.1496
 2482SOL     OW19081   0.218   3.516   0.539  0.0814 -0.6240 -0.1730
 2482SOL    HW119082   0.244   3.522   0.631 -0.3804 -1.5639  0.0282
 2482SOL    HW219083   0.144   3.455   0.539  1.1926 -1.9674  0.7017
 2483SOL     OW19084   0.527   0.161   0.735  0.0407  0.2827 -0.4908
 2483SOL    HW119085   0.554   0.157   0.644 -0.3448 -1.1892 -0.5528
 2483SOL    HW219086   0.603   0.211   0.765  1.6669 -2.3380 -0.1680
 2484SOL     OW19087   4.549   4.269   6.089  0.2562 -0.1471  0.0073
 2484SOL    HW119088   4.589   4.186   6.064 -0.8816 -0.5199 -0.5866
 2484SOL    HW219089   4.595   4.331   6.032  0.4196  0.3540  0.6950
 2485SOL     OW19090   2.512   0.482   7.936 -0.4225 -0.0205 -0.0425
 2485SOL    HW119091   2.458   0.519   8.005 -1.8556 -2.1340 -0.0553
 2485SOL    HW219092   2.583   0.547   7.933 -2.4598  2.2600  1.2439
 2486SOL     OW19093   3.620   3.695   5.902  0.2377  0.3940  0.1889
 2486SOL    HW119094   3.642   3.674   5.811 -0.2955 -0.7093  0.3108
 2486SOL    HW219095   3.546   3.755   5.899 -0.8176 -0.7920  2.5836
 2487SOL     OW19096   4.132   0.739   1.395  0.1536 -0.0282 -0.6586
 2487SOL    HW119097   4.101   0.719   1.306 -0.1194  0.2013 -0.6147
 2487SOL    HW219098   4.140   0.654   1.438 -0.5826 -0.2851 -1.0204
 2488SOL     OW19099   2.409   0.253  14.567  0.4577 -0.6354  0.1795
 2488SOL    HW119100   2.356   0.182  14.604 -0.3537 -0.7337 -1.1725
 2488SOL    HW219101   2.471   0.192  14.527 -0.2649  1.5493 -4.2094
 2489SOL     OW19102   1.374   3.399   5.345  0.4775  0.3642 -0.3297
 2489SOL    HW119103   1.342   3.415   5.434 -0.1642  0.6850 -0.6158
 2489SOL    HW219104   1.421   3.319   5.365 -1.4588  0.0703  3.0410
 2490SOL     OW19105   4.137   0.557  14.264 -0.2858  0.6098 -0.3338
 2490SOL    HW119106   4.116   0.464  14.270  0.2626  0.5543  0.7898
 2490SOL    HW219107   4.053   0.589  14.229 -0.2098 -0.4225 -1.4473
 2491SOL     OW19108   0.050   3.376   2.129  0.0820 -0.4367 -0.2064
 2491SOL    HW119109   0.070   3.284   2.112 -0.6895 -0.1915 -2.5003
 2491SOL    HW219110   0.020   3.410   2.045  1.5102 -2.5962 -1.5837
 2492SOL     OW19111   3.766   0.976   4.318 -0.2642  0.0894  0.3823
 2492SOL    HW119112   3.731   0.899   4.363  0.1145  0.0643  0.6363
 2492SOL    HW219113   3.778   1.037   4.391  0.4258 -0.7859  1.0086
 2493SOL     OW19114   3.257   1.122   6.637 -0.0745 -0.1382  0.0132
 2493SOL    HW119115   3.234   1.045   6.585 -1.3748 -0.6017  1.2347
 2493SOL    HW219116   3.341   1.089   6.669  0.2810 -1.4590 -2.2559
 2494SOL     OW19117   1.013   0.542  12.180 -0.2781  0.0056  0.1030
 2494SOL    HW119118   1.093   0.491  12.195  0.2872  1.5706  2.5798
 2494SOL    HW219119   0.953   0.491  12.235 -0.2402 -0.7003 -0.5211
 2495SOL     OW19120   0.330   1.865   7.944 -0.1719  0.1613 -0.1842
 2495SOL    HW119121   0.313   1.851   7.851 -4.9197 -0.8532  0.8369
 2495SOL    HW219122   0.405   1.808   7.960  0.5055  0.9699 -0.4875
 2496SOL     OW19123   4.089   2.169   4.958 -0.3922  0.3955 -0.0683
 2496SOL    HW119124   4.096   2.087   4.909  0.9381  0.7833 -0.5386
 2496SOL    HW219125   4.018   2.149   5.019 -1.2219  0.7880 -0.9021
 2497SOL     OW19126   3.499   1.849   5.940  0.1878  0.5439 -0.0389
 2497SOL    HW119127   3.580   1.808   5.910 -1.0728 -1.5795 -0.5229
 2497SOL    HW219128   3.528   1.914   6.004  0.7107  1.1182 -0.8671
 2498SOL     OW19129   2.056   1.156  17.599 -0.1697 -0.3637 -0.3390
 2498SOL    HW119130   1.963   1.177  17.588  0.2473  2.2913  1.2015
 2498SOL    HW219131   2.053   1.111  17.684  0.1267  1.7595  0.7922
 2499SOL     OW19132   0.970   4.100  17.506 -0.3905  0.0319  0.1190
 2499SOL    HW119133   1.046   4.145  17.470  0.1466  0.6114  1.9731
 2499SOL    HW219134   0.985   4.123  17.598 -1.6704  0.0536  0.3238
 2500SOL     OW19135   0.968   0.780   3.733 -0.1820  0.0980  0.4530
 2500SOL    HW119136   0.964   0.737   3.818 -0.2289 -0.5227  0.1386
 2500SOL    HW219137   0.956   0.871   3.759  1.7930  0.1826  1.0444
 2501SOL     OW19138   1.863   3.668   4.812  0.4807 -0.0043  0.1232
 2501SOL    HW119139   1.867   3.629   4.900  1.1987  1.1769  0.6069
 2501SOL    HW219140   1.906   3.604   4.756 -0.0463 -0.7343  0.5423
 2502SOL     OW19141   2.616   0.205   8.037  0.1803 -0.1292  0.4291
 2502SOL    HW119142   2.633   0.163   8.121  1.0324  1.3041  0.9814
 2502SOL    HW219143   2.630   0.295   8.066 -0.1139 -0.1067  0.5000
 2503SOL     OW19144   4.537   2.309   3.016 -0.1206  0.5095  0.5724
 2503SOL    HW119145   4.532   2.213   3.012  4.2663  0.4029 -2.3637
 2503SOL    HW219146   4.556   2.323   2.923  0.2704  3.2028  1.0537
 2504SOL     OW19147   4.700   1.864   0.574  0.0954 -0.2519  0.1603
 2504SOL    HW119148   4.649   1.879   0.494  0.3998 -1.6469 -0.2943
 2504SOL    HW219149   4.653   1.911   0.643 -1.3473  0.9626 -1.6123
 2505SOL     OW19150   2.804   1.571   5.444 -0.2089  0.0347 -0.5977
 2505SOL    HW119151   2.854   1.652   5.445  2.0735 -1.3762 -0.6874
 2505SOL    HW219152   2.856   1.519   5.506  2.6430  0.7555 -2.3602
 2506SOL     OW19153   2.738   0.209   7.369  0.5080 -0.4818 -0.1053
 2506SOL    HW119154   2.691   0.256   7.438  1.9467  0.2534  0.3731
 2506SOL    HW219155   2.793   0.279   7.333 -1.5597  1.0111 -0.3849
 2507SOL     OW19156   3.951   2.945   2.344 -0.5349  0.1645  0.1188
 2507SOL    HW119157   3.986   3.032   2.361 -0.0417  0.5995 -3.0765
 2507SOL    HW219158   3.947   2.922   2.437  1.1099  0.9185  0.3685
 2508SOL     OW19159   2.975   0.339   9.509  0.2293 -0.6415 -0.0701
 2508SOL    HW119160   2.924   0.340   9.428 -1.9518 -0.9986  1.3162
 2508SOL    HW219161   2.973   0.244   9.522 -2.0857 -0.4349  1.0568
 2509SOL     OW19162   1.111   0.366   1.856 -0.1689  0.2923  0.1071
 2509SOL    HW119163   1.156   0.282   1.853 -1.9185 -0.6976  1.4830
 2509SOL    HW219164   1.180   0.428   1.878  2.3425 -1.7543 -2.0020
 2510SOL     OW19165   0.270   0.266   8.498  0.0487 -0.4047 -0.0749
 2510SOL    HW119166   0.199   0.314   8.541  0.8716 -0.0689  0.9084
 2510SOL    HW219167   0.213   0.235   8.428  0.1000 -0.4511 -0.0968
 2511SOL     OW19168   0.105   2.267   2.961  0.1777  0.6883  0.8091
 2511SOL    HW119169   0.075   2.204   2.895  0.4803 -0.4263  1.7233
 2511SOL    HW219170   0.113   2.218   3.043  1.4647 -1.7710 -0.7595
 2512SOL     OW19171   0.665   2.390   5.998  0.0235  0.1541 -0.1793
 2512SOL    HW119172   0.749   2.344   6.003  0.7177  1.6761  2.1679
 2512SOL    HW219173   0.692   2.437   5.919  0.0123  0.3141 -0.0881
 2513SOL     OW19174   0.865   3.772   6.145  0.8519  0.0927  0.3066
 2513SOL    HW119175   0.940   3.828   6.162  0.7778  0.5477 -0.9133
 2513SOL    HW219176   0.867   3.715   6.222  1.2295  1.1640  1.0897
 2514SOL     OW19177   1.335   3.965  12.332  0.3642 -0.0142  0.1445
 2514SOL    HW119178   1.285   4.045  12.346  0.7928  0.0427  1.3589
 2514SOL    HW219179   1.334   3.957  12.237 -0.0265 -3.2177  0.3970
 2515SOL     OW19180   0.701   2.989  11.432 -0.6041  0.4873  0.4832
 2515SOL    HW119181   0.705   3.062  11.493 -1.5005  0.9556 -0.0057
 2515SOL    HW219182   0.792   2.964  11.416  0.1688  2.3059  2.0855
 2516SOL     OW19183   3.374   1.249   5.989  0.8544  0.5533 -0.5392
 2516SOL    HW119184   3.369   1.324   5.930  0.6602 -0.5188 -1.8745
 2516SOL    HW219185   3.305   1.268   6.053  0.0627 -1.5104 -0.7870
 2517SOL     OW19186   0.649   4.009   2.091  0.0592  0.0780  0.4699
 2517SOL    HW119187   0.618   3.989   2.180 -0.6029  0.0183  0.2253
 2517SOL    HW219188   0.696   4.091   2.105  0.7981 -0.1147 -0.8687
 2518SOL     OW19189   4.680   2.098  15.167  0.3907 -0.1749 -0.5509
 2518SOL    HW119190   4.658   2.191  15.154 -3.1634 -0.7347  1.4304
 2518SOL    HW219191   4.638   2.052  15.094 -2.0550 -0.0231  0.7273
 2519SOL     OW19192   1.048   3.896   1.062  0.6797 -0.2087  0.1347
 2519SOL    HW119193   1.016   3.985   1.046  2.8073  0.4057 -0.7414
 2519SOL    HW219194   1.010   3.856   0.983  0.5175  1.6912 -0.7484
 2520SOL     OW19195   3.634   1.494   5.717  0.4241  0.2834  0.0634
 2520SOL    HW119196   3.674   1.408   5.708  0.3311  0.2578 -0.0988
 2520SOL    HW219197   3.692   1.545   5.660 -1.0458 -0.9275 -2.5489
 2521SOL     OW19198   0.363   4.127   1.798  0.1625 -0.1493 -0.4381
 2521SOL    HW119199   0.379   4.037   1.825  0.7264  0.5697  1.5618
 2521SOL    HW219200   0.369   4.181   1.877  0.7063  1.6235 -1.6772
 2522SOL     OW19201   3.900   3.595   3.882  0.4042 -0.2642 -0.0669
 2522SOL    HW119202   3.894   3.690   3.875 -0.2461 -0.4457 -1.8573
 2522SOL    HW219203   3.812   3.563   3.862 -0.2794  2.3177 -1.1997
 2523SOL     OW19204   1.675   0.368   3.184 -0.0582 -0.3810 -0.0527
 2523SOL    HW119205   1.693   0.316   3.106 -0.6405 -0.3819 -0.1834
 2523SOL    HW219206   1.676   0.459   3.156  1.4389 -0.0248  1.1552
 2524SOL     OW19207   4.484   4.695   5.658  0.0800  0.3230 -0.3690
 2524SOL    HW119208   4.430   4.624   5.692  0.8781  0.1665  0.5643
 2524SOL    HW219209   4.446   0.032   5.695 -1.6339 -0.7010  0.0954
 2525SOL     OW19210   4.621   0.963   9.242 -0.1150  0.3636  0.0215
 2525SOL    HW119211   4.662   0.877   9.235  1.5642  1.1750 -0.0455
 2525SOL    HW219212   4.702   1.005   9.213  0.3408  0.2826  1.1482
 2526SOL     OW19213   3.771   3.837   0.754 -0.3898 -0.5289  0.0760
 2526SOL    HW119214   3.715   3.836   0.676  1.0880 -0.8846 -0.9875
 2526SOL    HW219215   3.739   3.910   0.806 -1.2226  0.0279 -1.2135
 2527SOL     OW19216   2.562   2.820   8.433  0.6700  0.6397  0.5786
 2527SOL    HW119217   2.498   2.830   8.363  1.0593 -1.0602 -0.0382
 2527SOL    HW219218   2.555   2.724   8.440 -0.3896  0.5941 -1.2091
 2528SOL     OW19219   0.963   4.354   6.595 -0.3933 -0.4376  0.5166
 2528SOL    HW119220   1.014   4.428   6.625  0.3181 -0.1469 -1.4292
 2528SOL    HW219221   0.880   4.399   6.579  0.7352  2.2043  2.2523
 2529SOL     OW19222   0.511   2.750  11.467 -0.1057 -0.1247 -0.8888
 2529SOL    HW119223   0.553   2.713  11.390 -0.8046 -1.3490 -0.6849
 2529SOL    HW219224   0.586   2.769  11.523  0.2239 -0.0897 -1.3460
 2530SOL     OW19225   1.826   1.209   7.265  0.1680 -0.3080 -0.3107
 2530SOL    HW119226   1.881   1.185   7.339  0.3095  1.3983  0.1557
 2530SOL    HW219227   1.803   1.299   7.289 -2.4391 -1.2936  0.8391
 2531SOL     OW19228   2.282   4.703   7.944 -0.0106  0.3107  0.2657
 2531SOL    HW119229   2.317   4.621   7.979 -0.4891  0.9015  2.1537
 2531SOL    HW219230   2.328   4.707   7.861 -0.0292 -0.8634  0.1912
 2532SOL     OW19231   0.648   3.913   8.159  0.0255  0.1801  0.1805
 2532SOL    HW119232   0.579   3.963   8.116 -1.4802 -1.0986  1.0913
 2532SOL    HW219233   0.726   3.966   8.144  0.0600  0.0866  0.0341
 2533SOL     OW19234   4.085   3.146   9.063  0.0472  0.4071  0.5738
 2533SOL    HW119235   4.061   3.160   8.972 -0.1730 -0.1688  0.5431
 2533SOL    HW219236   4.013   3.181   9.116 -2.1107 -1.5798 -1.0388
 2534SOL     OW19237   0.383   2.796  10.958  0.0977 -0.0807 -0.2684
 2534SOL    HW119238   0.424   2.813  10.873  2.2185 -0.4894  0.6669
 2534SOL    HW219239   0.460   2.796  11.014  1.4616  2.0693 -2.1318
 2535SOL     OW19240   0.353   3.820   0.474 -0.1916  0.4609  0.4042
 2535SOL    HW119241   0.422   3.754   0.473 -0.6502 -0.0071 -0.4836
 2535SOL    HW219242   0.390   3.902   0.509  0.1451  0.0602  0.9895
 2536SOL     OW19243   3.757   1.709  16.205 -0.4435 -0.4218  0.4026
 2536SOL    HW119244   3.725   1.750  16.286 -2.0229 -1.8740  0.5239
 2536SOL    HW219245   3.832   1.760  16.174  1.2964 -2.1561  1.8586
 2537SOL     OW19246   3.847   1.088   6.487 -0.0855 -0.2400 -0.4902
 2537SOL    HW119247   3.849   1.007   6.538 -3.9703  0.4474  0.7513
 2537SOL    HW219248   3.879   1.060   6.401 -1.1996 -0.6861 -0.7661
 2538SOL     OW19249   4.170   4.731   4.977  0.1163 -0.6632 -0.1293
 2538SOL    HW119250   4.110   4.656   4.975  0.6859 -1.0925 -1.0667
 2538SOL    HW219251   4.255   4.692   4.998  1.9141  2.1882 -2.1024
 2539SOL     OW19252   1.858   4.565  12.168 -0.1193  0.3802  0.2978
 2539SOL    HW119253   1.853   4.595  12.259  1.0854 -0.1463  0.5283
 2539SOL    HW219254   1.876   4.641  12.113 -0.7609  0.6650  0.4734
 2540SOL     OW19255   2.865   3.528   9.637  0.5574  0.0204  0.2581
 2540SOL    HW119256   2.811   3.608   9.635  2.3141  1.1068 -2.9335
 2540SOL    HW219257   2.954   3.562   9.634  0.8679 -0.7660  0.6556
 2541SOL     OW19258   4.339   1.933   4.932 -0.4226  0.7340 -0.2240
 2541SOL    HW119259   4.309   1.937   5.022  0.3743  2.6584 -0.0585
 2541SOL    HW219260   4.375   2.021   4.923  0.0277  0.6245  0.5595
 2542SOL     OW19261   2.855   1.511   6.660  0.4583 -0.6364  0.3319
 2542SOL    HW119262   2.794   1.454   6.706  0.0128 -0.2798  0.1796
 2542SOL    HW219263   2.933   1.455   6.667  1.5837  0.7977 -0.7360
 2543SOL     OW19264   4.386   4.474   0.439 -0.7050 -0.0722  0.0750
 2543SOL    HW119265   4.330   4.526   0.496 -0.2150 -0.6940  1.1167
 2543SOL    HW219266   4.359   4.388   0.471 -0.5387 -0.3264 -0.4604
 2544SOL     OW19267   0.596   1.644   7.745  0.3124  0.4330  0.1797
 2544SOL    HW119268   0.553   1.594   7.676  0.3616 -0.8244  1.0467
 2544SOL    HW219269   0.686   1.635   7.714  0.7902  2.5685  0.9120
 2545SOL     OW19270   0.615   0.406  12.436 -1.2014 -0.0946 -0.3598
 2545SOL    HW119271   0.548   0.431  12.499  0.5079  0.3859  1.2888
 2545SOL    HW219272   0.577   0.435  12.353  0.5935  0.0374 -1.1500
 2546SOL     OW19273   2.505   3.982   7.392  0.4369  0.3029 -0.1082
 2546SOL    HW119274   2.415   4.009   7.409  0.5224  1.6486 -1.7591
 2546SOL    HW219275   2.541   3.960   7.478  1.6358  2.0646 -0.1579
 2547SOL     OW19276   1.575   3.032   7.765  0.2147  0.3788  0.1457
 2547SOL    HW119277   1.648   2.994   7.716 -0.7194  1.5389 -2.1028
 2547SOL    HW219278   1.601   3.124   7.761 -0.5697  0.6297  0.9013
 2548SOL     OW19279   3.139   0.243  13.177  0.2344  0.1206 -0.3505
 2548SOL    HW119280   3.089   0.169  13.144 -0.8474  0.5854  0.2576
 2548SOL    HW219281   3.124   0.239  13.271 -1.5582 -1.9675 -0.7289
 2549SOL     OW19282   0.363   0.948   7.182 -0.0687  0.2936 -0.5827
 2549SOL    HW119283   0.353   0.982   7.272  0.1407 -2.0930  0.3407
 2549SOL    HW219284   0.448   0.984   7.157 -0.5905  1.1026 -1.1828
 2550SOL     OW19285   4.001   1.527   3.573 -0.8372 -0.2218 -0.1390
 2550SOL    HW119286   3.980   1.620   3.585  2.4234  0.4553  0.4033
 2550SOL    HW219287   3.952   1.511   3.492  0.1202 -0.6826 -0.6238
 2551SOL     OW19288   0.239   4.068   5.332  0.1689  0.1149  0.4046
 2551SOL    HW119289   0.290   3.990   5.354  0.8069 -0.0092 -1.5542
 2551SOL    HW219290   0.307   4.130   5.305 -0.0770  0.7532  1.2545
 2552SOL     OW19291   3.101   4.091   3.338  0.2560  0.2287 -0.3029
 2552SOL    HW119292   3.186   4.054   3.359 -0.9477 -2.5435 -0.4024
 2552SOL    HW219293   3.129   4.182   3.328  1.5850  0.1648  3.0232
 2553SOL     OW19294   3.320   0.634  11.740  0.3430  0.5234 -0.5041
 2553SOL    HW119295   3.392   0.655  11.799 -2.0991  1.7773  2.0467
 2553SOL    HW219296   3.374   0.610  11.665 -1.9207 -1.7032 -1.4441
 2554SOL     OW19297   1.878   2.474   1.539  0.2467 -0.1096 -0.2021
 2554SOL    HW119298   1.826   2.553   1.522 -0.1212 -0.2753  0.1454
 2554SOL    HW219299   1.896   2.492   1.632 -0.9802  2.0287 -0.3727
 2555SOL     OW19300   1.785   3.082   1.686  0.1917  0.4063 -0.0602
 2555SOL    HW119301   1.852   3.136   1.728  0.8981 -0.3867 -0.1711
 2555SOL    HW219302   1.706   3.114   1.731 -0.3183 -0.2702 -0.4720
 2556SOL     OW19303   3.916   4.216   6.140  0.3539 -0.6903  0.3174
 2556SOL    HW119304   3.931   4.171   6.224  0.5086  0.6156  0.9847
 2556SOL    HW219305   3.973   4.168   6.080 -1.7330 -0.8100 -1.5521
 2557SOL     OW19306   4.022   3.197   4.421 -1.1192 -0.1371  0.2946
 2557SOL    HW119307   3.989   3.261   4.483  1.6836  0.2285  1.4205
 2557SOL    HW219308   3.939   3.161   4.391 -0.6716 -0.7406 -0.2448
 2558SOL     OW19309   2.517   3.379   1.557 -0.4567  0.1741 -0.2306
 2558SOL    HW119310   2.559   3.357   1.473 -0.3217  2.2835 -0.7307
 2558SOL    HW219311   2.596   3.413   1.598  1.0199 -3.3229 -0.1951
 2559SOL     OW19312   0.760   1.448   6.888 -0.1758  0.2660 -0.8964
 2559SOL    HW119313   0.732   1.503   6.961  2.4537 -0.0518  0.3530
 2559SOL    HW219314   0.796   1.509   6.825 -1.3390  1.3801 -0.4775
 2560SOL     OW19315   2.148   2.570   9.247  0.4499 -0.1617 -0.7599
 2560SOL    HW119316   2.198   2.506   9.197  1.9613 -0.9794  1.8289
 2560SOL    HW219317   2.095   2.515   9.305  0.3023  0.3992 -0.3591
 2561SOL     OW19318   4.357   1.476   9.068  0.0010  0.1799  0.0013
 2561SOL    HW119319   4.385   1.512   9.152  1.6805 -0.0423 -0.4681
 2561SOL    HW219320   4.394   1.388   9.070  0.0108  0.1643 -0.8495
 2562SOL     OW19321   4.618   0.969   4.303 -0.0250  0.0955 -0.5514
 2562SOL    HW119322   4.621   0.901   4.370  5.4123 -0.3878 -1.2570
 2562SOL    HW219323   4.543   0.940   4.252 -0.0465  1.1671 -1.1282
 2563SOL     OW19324   1.684   3.830  15.594  0.0365  0.0547 -0.3023
 2563SOL    HW119325   1.657   3.741  15.573  0.1876 -0.5331  1.9926
 2563SOL    HW219326   1.640   3.841  15.678 -1.6690 -0.0447 -1.1992
 2564SOL     OW19327   2.264   1.475  16.582  0.1957 -0.0494  0.7157
 2564SOL    HW119328   2.177   1.435  16.575  0.8972 -1.5494  0.4841
 2564SOL    HW219329   2.258   1.558  16.535 -1.1995  0.0268  1.0496
 2565SOL     OW19330   3.174   1.218   6.943 -0.1299  0.4619  0.1599
 2565SOL    HW119331   3.148   1.192   6.855  0.5593 -1.3307  0.4931
 2565SOL    HW219332   3.267   1.196   6.938  0.1089  1.4142  0.5081
 2566SOL     OW19333   1.500   3.131   2.908 -1.0971 -0.0025 -0.2069
 2566SOL    HW119334   1.456   3.134   2.993  0.4338 -1.6337  0.6565
 2566SOL    HW219335   1.495   3.038   2.888  1.3483 -0.3326  0.6377
 2567SOL     OW19336   1.520   0.542   2.467 -0.3160  0.3544  0.0348
 2567SOL    HW119337   1.569   0.475   2.419 -1.8032 -0.9373  0.3298
 2567SOL    HW219338   1.577   0.568   2.539  2.2310 -1.9594 -1.1422
 2568SOL     OW19339   3.295   0.771  16.978  0.8202  0.2139  0.0104
 2568SOL    HW119340   3.271   0.732  17.063 -1.3373  1.3965 -0.0648
 2568SOL    HW219341   3.210   0.808  16.956  0.6920  0.9796  1.7663
 2569SOL     OW19342   3.316   1.151   9.471 -0.5290  0.2706 -0.3571
 2569SOL    HW119343   3.256   1.146   9.545  0.5565  1.0576  0.5843
 2569SOL    HW219344   3.257   1.170   9.398 -0.5888 -1.1236 -0.6672
 2570SOL     OW19345   4.740   1.649   0.826 -0.4656 -0.1106 -0.4348
 2570SOL    HW119346   4.711   1.565   0.789 -1.5973 -0.5747  1.5026
 2570SOL    HW219347   4.655   1.689   0.844 -0.2148  0.3093 -0.1978
 2571SOL     OW19348   0.729   3.615   9.140 -0.1435 -0.4461  0.2783
 2571SOL    HW119349   0.647   3.574   9.169 -0.9157  0.1697 -1.0724
 2571SOL    HW219350   0.706   3.689   9.085  0.3090 -1.3807 -1.1566
 2572SOL     OW19351   2.443   2.417  11.625  0.2456 -0.1621  0.2700
 2572SOL    HW119352   2.356   2.426  11.587  0.0433 -2.6737  0.1083
 2572SOL    HW219353   2.490   2.371  11.555  0.7746  0.3532  0.2867
 2573SOL     OW19354   1.022   1.216   6.636  0.3525 -0.1651  0.0692
 2573SOL    HW119355   0.945   1.212   6.693  0.3541 -0.5285  0.0503
 2573SOL    HW219356   1.100   1.206   6.690  1.5147  2.7082 -1.0756
 2574SOL     OW19357   1.985   1.640   4.450 -0.5617 -0.3080  0.2939
 2574SOL    HW119358   2.003   1.618   4.358  0.6307  0.4894  0.3315
 2574SOL    HW219359   1.891   1.623   4.455 -0.3178 -0.9223  2.7329
 2575SOL     OW19360   1.049   0.981   8.871 -0.6138  0.0202  0.1247
 2575SOL    HW119361   0.979   0.967   8.936 -1.4310 -0.1421 -0.7916
 2575SOL    HW219362   1.024   0.913   8.809  0.2826 -1.9457  1.9012
 2576SOL     OW19363   1.242   3.773  16.194  0.0239  0.2280 -0.3578
 2576SOL    HW119364   1.247   3.864  16.222 -1.7006  0.1990  0.0381
 2576SOL    HW219365   1.331   3.758  16.162  0.2217  0.3495  0.1276
 2577SOL     OW19366   0.956   3.954  16.826  0.3073  0.2131 -0.0533
 2577SOL    HW119367   0.919   4.037  16.797 -0.1024 -0.0437 -0.2580
 2577SOL    HW219368   0.985   3.912  16.745 -2.2156 -1.2756 -0.1645
 2578SOL     OW19369   0.212   0.371   9.250 -0.1126  0.1536 -0.3051
 2578SOL    HW119370   0.133   0.351   9.302  0.0453  0.4608  0.0532
 2578SOL    HW219371   0.270   0.302   9.282  2.4981  1.6200 -1.8819
 2579SOL     OW19372   1.207   3.796  13.990 -0.1873  0.2557 -0.2947
 2579SOL    HW119373   1.285   3.841  13.955 -1.6123  3.1331  0.2896
 2579SOL    HW219374   1.140   3.861  13.969  1.7264  2.5220  0.5335
 2580SOL     OW19375   2.619   4.603   8.224  0.0290 -0.5427 -0.3988
 2580SOL    HW119376   2.613   4.562   8.310 -2.4772  0.3719 -0.1180
 2580SOL    HW219377   2.537   4.652   8.224 -0.2177 -0.9533  0.1533
 2581SOL     OW19378   2.306   2.439   1.586  0.7046  0.2972 -0.2616
 2581SOL    HW119379   2.224   2.487   1.594  1.6314  1.6161  1.2103
 2581SOL    HW219380   2.308   2.439   1.490  1.1221 -0.6850 -0.2548
 2582SOL     OW19381   0.488   4.628  13.649  0.1407  0.2534 -0.4534
 2582SOL    HW119382   0.397   4.601  13.638  0.9641 -2.6587  0.0616
 2582SOL    HW219383   0.490   4.632  13.745  0.0500 -0.1718 -0.4326
 2583SOL     OW19384   0.707   0.978   8.272 -0.0473  0.3734  0.1679
 2583SOL    HW119385   0.723   1.045   8.339 -1.1940  1.4559 -0.6257
 2583SOL    HW219386   0.700   0.899   8.325  1.2573  0.9632  1.2368
 2584SOL     OW19387   3.819   3.441   1.695  0.3468  0.2025 -0.2749
 2584SOL    HW119388   3.835   3.442   1.790 -0.2487  2.5675 -0.1961
 2584SOL    HW219389   3.833   3.349   1.675 -1.2091  0.0420 -0.6357
 2585SOL     OW19390   1.062   2.811  14.788 -0.1878 -0.1255 -0.2315
 2585SOL    HW119391   1.134   2.856  14.744  0.6315  1.0099  2.2689
 2585SOL    HW219392   1.103   2.789  14.872 -2.6625  1.2063  1.3287
 2586SOL     OW19393   2.529   0.462   6.947  0.1907  0.1902 -0.7487
 2586SOL    HW119394   2.493   0.456   7.035 -1.1186  0.5883 -1.2515
 2586SOL    HW219395   2.467   0.405   6.901  0.5767 -0.1558 -0.8363
 2587SOL     OW19396   2.890   4.643   3.266 -0.7760  0.1299  0.3033
 2587SOL    HW119397   2.908   4.673   3.176  0.6542  0.1611  0.6062
 2587SOL    HW219398   2.801   4.678   3.278 -0.7558 -0.0015  0.8304
 2588SOL     OW19399   3.202   2.487   5.474  0.2963  0.1635  0.2587
 2588SOL    HW119400   3.294   2.462   5.475  0.3676  0.4260  0.8567
 2588SOL    HW219401   3.193   2.526   5.388 -2.9122 -0.6297  0.2299
 2589SOL     OW19402   2.712   4.531   9.663 -0.4327 -0.0446  0.2025
 2589SOL    HW119403   2.733   4.477   9.587  0.3293 -0.2496  0.5590
 2589SOL    HW219404   2.682   4.613   9.624 -3.7842 -0.4504  1.8591
 2590SOL     OW19405   4.282   0.047  15.004  0.0300 -0.3014 -0.1020
 2590SOL    HW119406   4.317   4.701  14.999  1.5195  0.3919 -1.7696
 2590SOL    HW219407   4.224   0.026  15.077  1.0576  0.7348  1.0065
 2591SOL     OW19408   2.192   2.988   4.769  0.2852  0.3425 -0.3331
 2591SOL    HW119409   2.270   2.935   4.780 -0.1009 -0.2125 -0.2865
 2591SOL    HW219410   2.196   3.016   4.678 -2.4259  2.4175  0.1697
 2592SOL     OW19411   0.077   0.333   8.662 -0.1047 -0.3525  0.1509
 2592SOL    HW119412   0.040   0.260   8.710 -0.5571 -0.4595 -0.3650
 2592SOL    HW219413   0.076   0.405   8.726  0.7755  0.3384 -0.6097
 2593SOL     OW19414   2.961   1.226   3.644  0.5483  0.4456  0.3981
 2593SOL    HW119415   3.032   1.272   3.600 -0.0933  0.7588 -0.3226
 2593SOL    HW219416   2.893   1.214   3.578  1.4118  0.9765 -0.5892
 2594SOL     OW19417   1.400   1.934   4.528  0.2601 -0.1380 -0.4678
 2594SOL    HW119418   1.398   1.838   4.526 -0.1392 -0.1845  2.2336
 2594SOL    HW219419   1.419   1.955   4.437 -1.3983 -0.3232 -0.8576
 2595SOL     OW19420   0.156   4.384  13.252 -0.0952 -0.3247  0.4834
 2595SOL    HW119421   0.078   4.395  13.198 -0.3541  1.2219  1.1657
 2595SOL    HW219422   0.122   4.382  13.342  0.1351  1.9611  0.6012
 2596SOL     OW19423   1.387   3.455   2.116 -0.2313  0.5140  0.8007
 2596SOL    HW119424   1.442   3.412   2.050  0.0010  1.3032  0.4813
 2596SOL    HW219425   1.309   3.479   2.066 -0.6363 -1.4588  0.5138
 2597SOL     OW19426   2.518   2.677  11.717  0.2733 -0.3370 -0.1151
 2597SOL    HW119427   2.469   2.595  11.708 -2.2551  1.2270 -0.6658
 2597SOL    HW219428   2.607   2.643  11.709  0.5462  0.3015  0.2448
 2598SOL     OW19429   2.941   2.514   9.296 -0.1308  0.1741 -0.2855
 2598SOL    HW119430   2.880   2.441   9.281  0.4583 -0.2669 -0.5614
 2598SOL    HW219431   2.902   2.557   9.372 -0.4773  0.0706 -0.4020
 2599SOL     OW19432   3.041   4.228   5.713 -0.4021 -0.1866  0.7781
 2599SOL    HW119433   3.009   4.139   5.729 -0.3363 -0.1920  0.8859
 2599SOL    HW219434   3.024   4.269   5.798 -2.5524 -0.6140  0.5398
 2600SOL     OW19435   1.648   3.131   8.430 -0.3511 -0.3646  0.8606
 2600SOL    HW119436   1.584   3.153   8.497 -0.4731  0.8893  0.3294
 2600SOL    HW219437   1.665   3.039   8.451 -0.3446 -0.1203  1.9245
 2601SOL     OW19438   1.826   3.396  10.222  0.2806  0.1058 -0.9309
 2601SOL    HW119439   1.881   3.362  10.292  0.4110  2.1268 -0.0446
 2601SOL    HW219440   1.826   3.312  10.177 -0.7162 -0.2280 -0.3137
 2602SOL     OW19441   3.321   1.698   0.961  0.2143  0.1034 -0.5523
 2602SOL    HW119442   3.280   1.779   0.930 -2.2548 -0.2330  1.8700
 2602SOL    HW219443   3.316   1.699   1.056  1.1488  3.2637 -0.5235
 2603SOL     OW19444   4.426   3.888   3.126 -0.2184  0.0563  0.2159
 2603SOL    HW119445   4.478   3.843   3.193 -1.3274 -1.1146  0.2850
 2603SOL    HW219446   4.418   3.972   3.171 -1.8772 -1.0294  1.9017
 2604SOL     OW19447   3.647   0.825   4.538  0.2166 -0.0367  0.0176
 2604SOL    HW119448   3.628   0.732   4.531  0.1248  0.1244 -1.8068
 2604SOL    HW219449   3.730   0.823   4.585 -1.2703  0.6586  2.6882
 2605SOL     OW19450   2.801   3.081   2.769 -0.4383 -0.5848  0.0030
 2605SOL    HW119451   2.881   3.035   2.794  0.7330  1.1913 -0.4779
 2605SOL    HW219452   2.820   3.085   2.675 -0.5526  0.2033  0.0110
 2606SOL     OW19453   4.231   1.115   4.561  0.6199  0.1507 -0.5715
 2606SOL    HW119454   4.176   1.186   4.594  1.5134  0.6803 -0.2598
 2606SOL    HW219455   4.202   1.115   4.470 -0.9676  1.7720 -0.0617
 2607SOL     OW19456   1.521   1.740   6.760  0.0154 -0.3140 -0.1360
 2607SOL    HW119457   1.486   1.763   6.846 -1.3110  1.3832 -1.1340
 2607SOL    HW219458   1.601   1.791   6.755 -0.0112 -0.1622  0.9782
 2608SOL     OW19459   0.447   3.345  14.401  0.3849  0.0121  0.2452
 2608SOL    HW119460   0.488   3.430  14.385 -1.7581  0.7311 -1.3637
 2608SOL    HW219461   0.439   3.348  14.497  0.9712 -2.5554  0.3709
 2609SOL     OW19462   3.809   3.883  16.815  0.4874 -0.5871 -0.1553
 2609SOL    HW119463   3.842   3.925  16.894 -0.6421  0.5502 -0.2911
 2609SOL    HW219464   3.816   3.952  16.749 -0.1165 -1.1964 -0.8623
 2610SOL     OW19465   1.084   3.926  15.077  0.1216  0.3315 -0.2895
 2610SOL    HW119466   1.060   3.994  15.141  0.1605 -2.7496  3.0376
 2610SOL    HW219467   1.053   3.958  14.993 -1.4948  0.9597  0.5367
 2611SOL     OW19468   3.751   4.665   3.852  0.2361 -0.5067 -0.3254
 2611SOL    HW119469   3.676   4.658   3.793 -1.8072  0.8493  2.0845
 2611SOL    HW219470   3.812   4.638   3.784  0.3466 -0.8726 -0.0846
 2612SOL     OW19471   1.126   1.535   8.533 -0.2910  0.0514  0.2486
 2612SOL    HW119472   1.083   1.467   8.586  2.5576 -1.0685  1.1176
 2612SOL    HW219473   1.198   1.543   8.595  0.0849 -1.0985 -0.0390
 2613SOL     OW19474   4.038   2.745   8.739  0.2201 -0.3658  0.1051
 2613SOL    HW119475   3.971   2.806   8.770 -1.2493 -1.6792 -0.5102
 2613SOL    HW219476   4.045   2.684   8.812 -0.9496  0.2410  0.7242
 2614SOL     OW19477   3.300   1.803   5.629 -0.3294 -0.4213  0.2723
 2614SOL    HW119478   3.224   1.860   5.616 -0.4082 -0.3836  0.8970
 2614SOL    HW219479   3.258   1.718   5.641  1.6250 -1.3394  0.6371
 2615SOL     OW19480   4.399   2.596   6.779 -0.4235 -0.5433  0.9129
 2615SOL    HW119481   4.368   2.686   6.787 -0.0755 -0.3924  0.5731
 2615SOL    HW219482   4.475   2.600   6.838 -0.2057 -0.0509  0.5998
 2616SOL     OW19483   1.400   4.496   8.122  0.1889  0.2282  0.3793
 2616SOL    HW119484   1.431   4.451   8.043 -1.7547  0.0630 -0.2716
 2616SOL    HW219485   1.308   4.470   8.123  0.1149  0.3868 -1.7915
 2617SOL     OW19486   2.640   4.678   3.392 -0.3726 -0.3899  0.5794
 2617SOL    HW119487   2.693   4.711   3.464  1.0302  0.2049 -0.7195
 2617SOL    HW219488   2.623   4.592   3.430 -0.9260 -0.7988 -0.5979
 2618SOL     OW19489   1.511   0.626   9.023 -0.3865 -0.2990 -0.1576
 2618SOL    HW119490   1.575   0.584   8.965 -0.1193 -0.2805  0.1273
 2618SOL    HW219491   1.436   0.615   8.964  0.8807 -2.2693 -1.4404
 2619SOL     OW19492   1.415   3.650   1.774  0.5278  0.2562 -0.4494
 2619SOL    HW119493   1.491   3.605   1.811  0.3275 -1.3538 -2.0220
 2619SOL    HW219494   1.416   3.737   1.813  0.0221  0.8570 -1.7667
 2620SOL     OW19495   2.931   2.789   7.920 -0.2462  0.4157 -0.3578
 2620SOL    HW119496   2.847   2.753   7.951  0.3168 -1.8999 -1.4709
 2620SOL    HW219497   2.963   2.705   7.887 -2.6097 -0.8197  0.4394
 2621SOL     OW19498   0.253   2.267   4.147  0.3644  0.2087 -0.1476
 2621SOL    HW119499   0.333   2.319   4.144  0.8927 -0.4935  1.5039
 2621SOL    HW219500   0.275   2.178   4.119  0.4715  0.6550 -1.4547
 2622SOL     OW19501   3.498   3.804   6.479  0.5955 -0.2634  0.2053
 2622SOL    HW119502   3.536   3.866   6.418  0.6118 -1.9374 -1.4896
 2622SOL    HW219503   3.474   3.868   6.546  0.6968 -1.3006  1.2375
 2623SOL     OW19504   1.788   0.800   9.441 -0.0738 -0.2876  0.5430
 2623SOL    HW119505   1.739   0.725   9.475 -0.0856 -1.5945 -2.3340
 2623SOL    HW219506   1.713   0.849   9.407  0.2400  0.0902  0.3926
 2624SOL     OW19507   4.211   3.905  10.184 -0.0818 -0.7913  0.2331
 2624SOL    HW119508   4.238   3.977  10.127  0.7444 -2.1086 -1.0346
 2624SOL    HW219509   4.203   3.954  10.266  2.2509  0.5442 -0.3491
 2625SOL     OW19510   1.855   2.066   5.820 -0.2588 -0.0199 -0.5407
 2625SOL    HW119511   1.797   2.066   5.743 -0.8239  0.2058 -0.1131
 2625SOL    HW219512   1.937   2.039   5.779 -1.0065 -0.2496 -1.9034
 2626SOL     OW19513   2.132   3.906  12.811  0.8074 -0.2812 -0.4967
 2626SOL    HW119514   2.202   3.967  12.835  1.3183 -1.3670  0.7795
 2626SOL    HW219515   2.180   3.837  12.765 -0.8745 -1.0759 -1.0562
 2627SOL     OW19516   4.257   3.113   6.083  0.5219  0.3395 -0.2414
 2627SOL    HW119517   4.271   3.136   5.992 -0.9284 -0.3080 -0.6170
 2627SOL    HW219518   4.212   3.193   6.110 -1.0398 -0.8341  0.6506
 2628SOL     OW19519   2.241   1.187   8.895  0.3487 -0.2379 -0.1532
 2628SOL    HW119520   2.182   1.188   8.819  2.0039  1.3156 -1.4315
 2628SOL    HW219521   2.190   1.253   8.942  1.0558  0.1709  0.0276
 2629SOL     OW19522   2.685   4.038   7.165 -0.0199 -0.3909 -0.0978
 2629SOL    HW119523   2.623   4.103   7.131  1.2073  0.7008 -0.2397
 2629SOL    HW219524   2.642   4.033   7.250 -1.2061 -0.0818 -0.6759
 2630SOL     OW19525   2.544   2.389   0.628  0.6295  0.2419 -0.2138
 2630SOL    HW119526   2.507   2.352   0.548 -0.0704  2.4333 -0.8867
 2630SOL    HW219527   2.636   2.365   0.613  0.1498 -1.9181  0.3884
 2631SOL     OW19528   2.392   4.630   0.502  0.2122  0.4777 -0.1380
 2631SOL    HW119529   2.411   4.677   0.583  1.1888 -1.3695  0.7042
 2631SOL    HW219530   2.482   4.620   0.471  0.7363 -2.0527  2.2189
 2632SOL     OW19531   1.751   3.141   2.366 -0.0687 -0.2215  0.1526
 2632SOL    HW119532   1.790   3.210   2.421 -0.7592 -0.5992  1.1165
 2632SOL    HW219533   1.809   3.066   2.383  0.4863  0.0178 -0.6512
 2633SOL     OW19534   3.653   3.382  16.724 -0.0308  0.2869 -0.2211
 2633SOL    HW119535   3.620   3.385  16.634  1.3530  1.2947 -0.6916
 2633SOL    HW219536   3.699   3.466  16.726 -2.0797  1.3940  0.8380
 2634SOL     OW19537   1.276   2.552   2.102  0.3917 -0.2002 -0.1262
 2634SOL    HW119538   1.251   2.540   2.194 -0.3217  0.8839 -0.1893
 2634SOL    HW219539   1.225   2.629   2.078 -0.6153 -1.0070 -0.5904
 2635SOL     OW19540   3.833   3.328   7.337  0.0298  0.1370 -0.4758
 2635SOL    HW119541   3.773   3.312   7.409  1.3044 -2.4979  0.0137
 2635SOL    HW219542   3.900   3.380   7.382 -1.2864  2.4204 -1.1855
 2636SOL     OW19543   3.244   1.086  14.232 -0.3464 -0.3570  0.3288
 2636SOL    HW119544   3.182   1.157  14.243 -1.4453 -1.0758 -1.2483
 2636SOL    HW219545   3.244   1.082  14.137 -1.0978  2.8749  0.2169
 2637SOL     OW19546   2.475   2.416   7.315 -0.1736 -0.0057 -0.1767
 2637SOL    HW119547   2.471   2.358   7.392 -4.9632 -0.6314 -0.8853
 2637SOL    HW219548   2.570   2.425   7.310  0.0637 -0.4345  3.0742
 2638SOL     OW19549   0.645   3.533   0.442  1.0230  0.0504 -0.2715
 2638SOL    HW119550   0.604   3.564   0.522  1.4513 -0.2691  0.0739
 2638SOL    HW219551   0.575   3.515   0.379  2.0285 -2.2142 -0.7688
 2639SOL     OW19552   0.360   0.398   3.263 -0.9979  0.1181  0.1307
 2639SOL    HW119553   0.278   0.402   3.312 -2.0895  0.8968 -1.7471
 2639SOL    HW219554   0.340   0.321   3.209 -0.0229 -0.1389  0.1355
 2640SOL     OW19555   0.945   2.814   6.959  0.2953  0.2942  0.0453
 2640SOL    HW119556   0.909   2.818   7.048 -1.1060  1.3001 -0.5758
 2640SOL    HW219557   1.000   2.736   6.967  0.2132  0.3864  1.6316
 2641SOL     OW19558   1.114   2.503   0.025 -0.2036  0.4706  0.4323
 2641SOL    HW119559   1.206   2.489   0.046 -0.4288 -1.2726  0.2355
 2641SOL    HW219560   1.121   2.592  17.758 -0.5634 -0.0529 -1.0206
 2642SOL     OW19561   3.143   1.296   2.507 -0.4698 -0.1467 -0.1244
 2642SOL    HW119562   3.146   1.369   2.569  1.2876 -0.8526  0.6308
 2642SOL    HW219563   3.208   1.234   2.542 -0.4912  0.3715  0.8240
 2643SOL     OW19564   0.541   2.329  17.306  0.2626  0.0204 -0.5625
 2643SOL    HW119565   0.628   2.354  17.339 -0.6603 -1.3315  2.8880
 2643SOL    HW219566   0.482   2.403  17.317 -1.2212 -0.9224 -2.2051
 2644SOL     OW19567   1.867   2.133  16.057  0.3020  0.6212 -0.4072
 2644SOL    HW119568   1.910   2.119  15.973  1.4520  1.2581  0.0606
 2644SOL    HW219569   1.902   2.065  16.115 -2.0914 -0.8523 -0.7043
 2645SOL     OW19570   3.546   3.765  10.652  0.0800 -0.0271 -0.1472
 2645SOL    HW119571   3.508   3.842  10.693 -1.0104 -0.2948 -0.6590
 2645SOL    HW219572   3.640   3.761  10.672  0.2159  1.8876 -0.4388
 2646SOL     OW19573   1.525   2.724  15.229 -0.2899 -0.3037 -0.5231
 2646SOL    HW119574   1.531   2.723  15.325 -0.8880  0.0180 -0.4813
 2646SOL    HW219575   1.550   2.815  15.210  0.2222 -0.5957 -1.2451
 2647SOL     OW19576   4.569   3.245   2.282  0.6429  0.2668  0.1432
 2647SOL    HW119577   4.615   3.209   2.206 -0.2102  1.8970 -1.1470
 2647SOL    HW219578   4.644   3.281   2.329  1.7103  1.4606 -2.4531
 2648SOL     OW19579   2.127   0.420  16.865  0.4585 -0.1795  0.1964
 2648SOL    HW119580   2.189   0.413  16.793  1.6488  1.7353  1.0345
 2648SOL    HW219581   2.055   0.360  16.845 -0.0961  0.1985  1.0480
 2649SOL     OW19582   2.023   2.550   2.968  0.6831  0.4634 -0.0437
 2649SOL    HW119583   2.019   2.454   2.976 -0.4698  0.5370  0.3350
 2649SOL    HW219584   2.012   2.579   3.058  0.4926  0.4640 -0.0662
 2650SOL     OW19585   3.769   1.054   2.527 -0.3887 -0.0955 -0.1481
 2650SOL    HW119586   3.755   0.977   2.582 -0.2258  0.0594  0.1094
 2650SOL    HW219587   3.855   1.040   2.487  0.1448  2.5068  0.0287
 2651SOL     OW19588   4.378   1.748   5.988 -0.1778 -1.1840 -0.3099
 2651SOL    HW119589   4.396   1.783   6.075 -2.4226  1.9497 -1.0993
 2651SOL    HW219590   4.452   1.792   5.946 -0.0007 -0.0880  1.1385
 2652SOL     OW19591   2.966   4.531   2.834  0.0977 -0.0189  0.3913
 2652SOL    HW119592   2.900   4.544   2.766  0.0245 -1.8868  0.1009
 2652SOL    HW219593   2.930   4.450   2.870  1.8499  0.3041  2.9198
 2653SOL     OW19594   4.262   3.657   6.286  0.6677  0.0735 -0.5012
 2653SOL    HW119595   4.223   3.571   6.271  1.7616 -1.2491  4.1856
 2653SOL    HW219596   4.287   3.638   6.376  1.8879  0.8997 -0.6669
 2654SOL     OW19597   0.432   0.039  15.035  0.3126 -0.0958 -0.5530
 2654SOL    HW119598   0.439   4.703  14.981 -1.8140 -0.5832 -0.1240
 2654SOL    HW219599   0.336   0.034  15.042  0.3775  0.8911  1.1177
 2655SOL     OW19600   0.605   4.356   9.257 -0.2471 -0.5019  0.5176
 2655SOL    HW119601   0.585   4.380   9.348 -0.1293 -0.7641  0.6140
 2655SOL    HW219602   0.536   4.293   9.234  0.2389  0.0807 -2.4537
 2656SOL     OW19603   3.452   1.586   3.056  0.3764 -0.0439 -0.1288
 2656SOL    HW119604   3.504   1.663   3.031 -0.0261 -0.3559 -1.9607
 2656SOL    HW219605   3.496   1.509   3.019 -1.8109 -2.2150  1.7899
 2657SOL     OW19606   0.260   2.813  11.536  0.3874  0.1616  0.5682
 2657SOL    HW119607   0.272   2.907  11.551  0.0893 -0.0566  2.1971
 2657SOL    HW219608   0.343   2.801  11.489  0.2979 -1.9825  0.9644
 2658SOL     OW19609   1.656   3.280   6.674 -0.0684 -0.0099  0.4876
 2658SOL    HW119610   1.732   3.224   6.660  1.3500  1.4012  2.5064
 2658SOL    HW219611   1.608   3.252   6.596 -0.0191 -0.9316  0.7911
 2659SOL     OW19612   1.244   2.352   3.568  0.3984  0.1022  0.9471
 2659SOL    HW119613   1.274   2.430   3.520  1.3704  0.2223  1.7715
 2659SOL    HW219614   1.175   2.386   3.626 -0.9473 -1.0774  0.0385
 2660SOL     OW19615   3.821   2.528   3.003 -0.1475 -0.3883  0.2188
 2660SOL    HW119616   3.762   2.511   3.076  0.5120  4.6909  1.9653
 2660SOL    HW219617   3.875   2.449   2.999 -1.9772 -1.6260  0.3826
 2661SOL     OW19618   2.517   2.184   5.189 -0.1978 -0.3172 -0.4504
 2661SOL    HW119619   2.522   2.252   5.122  0.7142 -0.4237 -0.4928
 2661SOL    HW219620   2.601   2.140   5.174 -0.1648 -0.0859 -0.9355
 2662SOL     OW19621   3.802   4.630   7.852  0.3126 -0.1479 -0.5482
 2662SOL    HW119622   3.792   4.604   7.760 -1.9249 -0.4707 -0.2201
 2662SOL    HW219623   3.832   4.546   7.887  0.4647 -0.6085 -1.7683
 2663SOL     OW19624   1.453   2.190   1.909  0.4886 -0.5859  0.2592
 2663SOL    HW119625   1.502   2.137   1.971 -1.8825 -2.5422  0.4953
 2663SOL    HW219626   1.460   2.277   1.949  0.8949 -0.2724 -0.4884
 2664SOL     OW19627   3.862   0.036   4.933 -0.2153 -0.2694  0.2859
 2664SOL    HW119628   3.845   4.685   4.923  0.5457 -0.1692 -1.9748
 2664SOL    HW219629   3.925   0.041   4.861  2.1588  0.4330  2.3986
 2665SOL     OW19630   2.822   2.723   1.462  0.2330  0.3741 -0.1002
 2665SOL    HW119631   2.767   2.652   1.428 -0.3633  1.2894 -1.0529
 2665SOL    HW219632   2.771   2.789   1.416 -0.2772 -0.2201 -0.3963
 2666SOL     OW19633   2.832   3.136   4.685 -0.1635  0.1986 -0.8379
 2666SOL    HW119634   2.907   3.195   4.673 -0.7640  1.1866  0.1792
 2666SOL    HW219635   2.866   3.068   4.743 -2.0482  1.5648  1.8649
 2667SOL     OW19636   0.735   0.617   8.966  0.9439  0.4802 -0.0187
 2667SOL    HW119637   0.730   0.533   8.921 -1.6518 -0.4274  1.9370
 2667SOL    HW219638   0.808   0.605   9.027  0.4985  1.8354  0.7914
 2668SOL     OW19639   2.527   1.490   3.787 -0.2192 -0.7558 -0.5373
 2668SOL    HW119640   2.572   1.535   3.715  0.8258  1.3306  1.4311
 2668SOL    HW219641   2.464   1.559   3.809  0.2804  0.0856 -1.7243
 2669SOL     OW19642   3.462   2.982  17.638  0.8826  0.4335 -0.0897
 2669SOL    HW119643   3.471   2.959  17.731  3.0626 -0.3885 -0.5066
 2669SOL    HW219644   3.458   3.078  17.637  2.4969  0.4961  0.2457
 2670SOL     OW19645   0.810   2.540   0.737 -0.0721 -0.0743  0.8647
 2670SOL    HW119646   0.785   2.457   0.696 -0.6179  0.5268 -0.0019
 2670SOL    HW219647   0.724   2.583   0.740 -0.8979 -1.6201 -0.4491
 2671SOL     OW19648   2.238   1.407  11.831 -0.2255  0.2077 -0.0498
 2671SOL    HW119649   2.214   1.490  11.790  1.9170  1.9389  2.1936
 2671SOL    HW219650   2.332   1.427  11.824 -0.3383  1.1553  1.2000
 2672SOL     OW19651   0.229   2.594   4.775 -0.4267  0.3267 -0.2519
 2672SOL    HW119652   0.204   2.550   4.857  0.7915 -1.1923 -0.6993
 2672SOL    HW219653   0.224   2.683   4.810 -0.9768  0.8837 -1.7617
 2673SOL     OW19654   0.449   1.357   4.861  0.1704 -0.4109 -0.4057
 2673SOL    HW119655   0.485   1.355   4.950 -1.1935 -2.0007  0.1047
 2673SOL    HW219656   0.478   1.443   4.830  0.3723 -0.7817 -1.2361
 2674SOL     OW19657   3.502   3.961  15.409  0.5089  0.3028 -0.0159
 2674SOL    HW119658   3.538   3.970  15.497 -1.0970  0.5164  0.6266
 2674SOL    HW219659   3.565   4.014  15.361  0.8575 -0.0479  0.0543
 2675SOL     OW19660   2.273   1.323   4.109  0.1849 -0.1798 -0.5915
 2675SOL    HW119661   2.359   1.331   4.149 -0.3152  1.5969  0.0937
 2675SOL    HW219662   2.261   1.228   4.113 -1.0171  0.0069  0.3551
 2676SOL     OW19663   2.546   1.441   2.807  0.0651  0.3898 -0.1666
 2676SOL    HW119664   2.509   1.412   2.891 -1.2836  2.5875 -0.0035
 2676SOL    HW219665   2.512   1.530   2.798  1.8644  1.0682 -0.2623
 2677SOL     OW19666   0.314   2.290  10.904  0.2655  0.0164  0.4504
 2677SOL    HW119667   0.356   2.231  10.842  1.9330  1.3347  0.3155
 2677SOL    HW219668   0.245   2.231  10.933  1.3332 -1.1898  0.5164
 2678SOL     OW19669   0.327   3.120   8.664  0.5332 -0.0290 -0.2020
 2678SOL    HW119670   0.254   3.180   8.677 -0.9879 -2.2081  1.2739
 2678SOL    HW219671   0.390   3.172   8.614  1.3848 -0.3021  0.5746
 2679SOL     OW19672   0.636   0.393   3.180 -0.5312 -0.0762 -0.2796
 2679SOL    HW119673   0.543   0.379   3.197 -0.8035  1.8341 -0.2074
 2679SOL    HW219674   0.673   0.415   3.266  1.5256 -0.4079 -1.0785
 2680SOL     OW19675   1.118   2.969   8.273 -0.2154  0.8264 -0.0182
 2680SOL    HW119676   1.139   2.883   8.309 -0.1615 -0.2290 -2.5296
 2680SOL    HW219677   1.102   3.017   8.354 -0.4096 -0.5532  0.7680
 2681SOL     OW19678   3.070   0.950  13.742  0.5324 -0.3846  0.3782
 2681SOL    HW119679   3.112   1.005  13.675 -2.4783  1.1876 -0.2122
 2681SOL    HW219680   2.994   0.923  13.690  0.8025 -0.5991  0.0947
 2682SOL     OW19681   3.819   3.524   7.986 -0.0635  0.0851 -0.8702
 2682SOL    HW119682   3.800   3.456   8.051  3.4021 -0.5891 -0.5919
 2682SOL    HW219683   3.889   3.568   8.034 -2.2143  1.6036  0.8473
 2683SOL     OW19684   0.705   1.330   1.700  0.0350  0.2469 -0.3216
 2683SOL    HW119685   0.701   1.416   1.741 -3.1136  0.6027 -1.3149
 2683SOL    HW219686   0.743   1.274   1.768 -1.5459 -1.1078 -0.5276
 2684SOL     OW19687   0.604   4.478   5.710  0.5880 -0.1341  0.4500
 2684SOL    HW119688   0.657   4.448   5.636  1.9478 -0.6881  1.6600
 2684SOL    HW219689   0.651   4.557   5.735 -0.5894  0.9040 -0.6245
 2685SOL     OW19690   2.303   2.827   7.519  0.2509  0.0037  0.7174
 2685SOL    HW119691   2.326   2.758   7.582  1.9546 -1.0735 -1.0740
 2685SOL    HW219692   2.393   2.856   7.501  0.0230 -0.2616 -0.9055
 2686SOL     OW19693   4.484   2.951   8.559  0.3597 -0.4377  0.0129
 2686SOL    HW119694   4.527   3.029   8.523  0.1982 -0.9122 -1.1978
 2686SOL    HW219695   4.538   2.926   8.633  0.0654 -0.5476  0.1896
 2687SOL     OW19696   2.680   2.471   8.270  0.3245 -0.2186  0.9582
 2687SOL    HW119697   2.598   2.430   8.241  1.2913 -0.2999 -1.7064
 2687SOL    HW219698   2.745   2.421   8.219  1.5775  1.9769  0.3931
 2688SOL     OW19699   1.309   2.851   2.555 -0.3096  0.2190 -0.0690
 2688SOL    HW119700   1.278   2.817   2.472 -0.7017 -0.1817  0.2428
 2688SOL    HW219701   1.352   2.934   2.533 -1.9679  1.4669  1.4121
 2689SOL     OW19702   2.664   0.483   2.727 -0.5925  0.1571  0.4529
 2689SOL    HW119703   2.749   0.521   2.752 -1.3554  1.2276  1.4298
 2689SOL    HW219704   2.613   0.564   2.720  0.9158  1.0632 -0.1918
 2690SOL     OW19705   1.237   0.568   2.247 -0.1016  0.3013  0.3697
 2690SOL    HW119706   1.200   0.493   2.201 -2.2007 -0.0361  2.6280
 2690SOL    HW219707   1.239   0.524   2.332  0.1179 -2.1757 -0.9078
 2691SOL     OW19708   0.850   1.287   6.029 -0.0237  0.8102  0.4484
 2691SOL    HW119709   0.781   1.228   5.999  1.1650 -0.3956  0.0242
 2691SOL    HW219710   0.897   1.234   6.094 -0.3573 -0.1108 -0.0614
 2692SOL     OW19711   3.753   3.187   4.416  0.0696 -0.2052  0.2289
 2692SOL    HW119712   3.711   3.268   4.387 -0.1847 -0.1089  0.8742
 2692SOL    HW219713   3.750   3.189   4.511 -0.2256  0.6934  0.1991
 2693SOL     OW19714   3.768   0.857   2.208  0.2086 -0.4886 -0.4575
 2693SOL    HW119715   3.698   0.808   2.164  0.2278  0.2532 -1.3017
 2693SOL    HW219716   3.767   0.812   2.293 -1.2081 -0.4922 -0.4682
 2694SOL     OW19717   0.348   3.122  16.432  0.3834 -0.9237 -0.5322
 2694SOL    HW119718   0.257   3.094  16.423 -0.4323  1.1563  1.5382
 2694SOL    HW219719   0.344   3.214  16.456  2.2399 -0.9187 -0.2311
 2695SOL     OW19720   0.383   0.040   8.843 -0.3131  0.1329 -0.1729
 2695SOL    HW119721   0.405   4.692   8.820  0.9336 -0.0013  1.6046
 2695SOL    HW219722   0.317   0.034   8.912 -1.3610  3.2242 -0.9092
 2696SOL     OW19723   0.964   0.597   1.008  0.1322  0.8630 -0.2025
 2696SOL    HW119724   0.893   0.561   1.061  0.5482 -0.2917 -0.4232
 2696SOL    HW219725   0.931   0.602   0.919 -0.2653  0.4947 -0.0770
 2697SOL     OW19726   2.449   3.852  16.016  0.2437 -0.3925 -0.1495
 2697SOL    HW119727   2.441   3.929  15.959 -3.5773 -0.2438  0.5381
 2697SOL    HW219728   2.542   3.834  16.025  0.4676 -0.6501 -2.9060
 2698SOL     OW19729   4.283   4.357   3.205  0.3253  0.2744 -0.0800
 2698SOL    HW119730   4.325   4.432   3.248 -0.2290  0.3355  0.3509
 2698SOL    HW219731   4.348   4.352   3.134  1.2452 -0.4325  0.8016
 2699SOL     OW19732   0.412   1.811  14.933  0.2272  0.1401  0.5785
 2699SOL    HW119733   0.459   1.851  15.007  0.4386  0.3000  0.3586
 2699SOL    HW219734   0.444   1.721  14.941  0.9812  0.4189  0.7323
 2700SOL     OW19735   3.007   0.206   4.386 -0.5019  0.6511  0.2168
 2700SOL    HW119736   3.043   0.286   4.349  0.9711 -1.0086 -1.8845
 2700SOL    HW219737   2.973   0.236   4.470  1.4334 -0.4326  1.3913
 2701SOL     OW19738   4.431   1.860   4.233  0.0772 -0.6278 -0.2308
 2701SOL    HW119739   4.439   1.791   4.167  0.3406 -1.1773  0.3757
 2701SOL    HW219740   4.519   1.866   4.269 -0.3545  1.4878  0.4666
 2702SOL     OW19741   1.404   4.222   5.030  0.4506 -0.3841 -0.0472
 2702SOL    HW119742   1.354   4.140   5.030 -1.5014  0.7614 -2.8195
 2702SOL    HW219743   1.496   4.199   5.021 -0.3024 -2.6423 -2.1245
 2703SOL     OW19744   4.273   2.931   6.275 -0.0093 -0.1640 -0.1100
 2703SOL    HW119745   4.185   2.892   6.272  0.8650 -1.9590 -1.8530
 2703SOL    HW219746   4.260   3.003   6.213 -1.3589  1.4108  1.9676
 2704SOL     OW19747   1.737   3.744   5.312  0.4188 -0.5469 -0.3986
 2704SOL    HW119748   1.729   3.688   5.389 -0.2192  1.6515  1.0974
 2704SOL    HW219749   1.807   3.803   5.340  0.0477 -1.3340  2.1714
 2705SOL     OW19750   2.302   0.629  16.938 -0.5070 -0.2915 -0.2841
 2705SOL    HW119751   2.246   0.563  16.897  1.1541 -1.4948 -0.6135
 2705SOL    HW219752   2.378   0.582  16.973  1.5482  1.4119 -2.4930
 2706SOL     OW19753   0.202   1.256  16.560 -0.2559  0.2547  0.1255
 2706SOL    HW119754   0.160   1.233  16.477  0.9516 -1.6960  0.0518
 2706SOL    HW219755   0.203   1.176  16.613 -1.3147  0.6254  0.6905
 2707SOL     OW19756   3.672   3.113   9.080 -0.1603  0.0515 -0.6183
 2707SOL    HW119757   3.622   3.048   9.030 -2.5585  1.2323  0.2210
 2707SOL    HW219758   3.608   3.183   9.089  0.4781  0.4322  0.8682
 2708SOL     OW19759   3.386   1.772   5.146  0.7712  0.2860 -0.0862
 2708SOL    HW119760   3.322   1.761   5.216  0.4789 -0.8546 -0.5279
 2708SOL    HW219761   3.454   1.811   5.201  0.0893  2.0308 -0.5057
 2709SOL     OW19762   0.724   0.463   7.487 -0.0301 -0.2926 -0.3418
 2709SOL    HW119763   0.809   0.499   7.512  0.4215 -1.9463  0.4376
 2709SOL    HW219764   0.691   0.530   7.426  0.8832 -0.0492 -0.5726
 2710SOL     OW19765   3.569   4.455   6.292  0.3045 -0.0549 -0.3543
 2710SOL    HW119766   3.624   4.382   6.266  2.0157  0.7165  1.0059
 2710SOL    HW219767   3.637   4.521   6.310  1.0364 -1.0874  0.7071
 2711SOL     OW19768   2.582   1.394  12.760 -0.3241  0.4369 -0.0016
 2711SOL    HW119769   2.542   1.448  12.828 -0.3355  0.6551 -0.1838
 2711SOL    HW219770   2.644   1.457  12.725  1.1172 -0.3198  1.1900
 2712SOL     OW19771   3.614   0.336   5.228 -0.5770 -0.2458  0.4684
 2712SOL    HW119772   3.532   0.329   5.180  0.0883  0.4333 -0.7603
 2712SOL    HW219773   3.653   0.249   5.218 -1.2218 -0.2435 -2.0428
 2713SOL     OW19774   2.848   2.228  16.717 -0.0425 -0.1305  0.1669
 2713SOL    HW119775   2.812   2.143  16.744 -0.7423 -0.3622 -1.5388
 2713SOL    HW219776   2.936   2.232  16.755 -0.5112 -1.9922  1.4691
 2714SOL     OW19777   4.579   3.427   8.537 -0.2382 -0.2393 -0.4310
 2714SOL    HW119778   4.656   3.455   8.488  0.4028  1.8933  1.8200
 2714SOL    HW219779   4.513   3.484   8.499 -0.1563  0.2292  0.1333
 2715SOL     OW19780   0.555   3.507   8.108  0.0326 -0.6144 -0.2000
 2715SOL    HW119781   0.548   3.560   8.187 -2.8481 -0.9794 -0.2400
 2715SOL    HW219782   0.614   3.433   8.128  1.5366  1.0075  1.4350
 2716SOL     OW19783   4.251   1.414  14.426  0.2783 -0.0246  0.1665
 2716SOL    HW119784   4.171   1.462  14.446 -1.4636 -2.0024 -2.1269
 2716SOL    HW219785   4.315   1.485  14.433 -0.3841  0.5014  0.7812
 2717SOL     OW19786   1.202   0.793   3.030 -0.1428 -0.2148 -0.1790
 2717SOL    HW119787   1.119   0.812   2.987 -0.3015 -1.7678 -0.5632
 2717SOL    HW219788   1.226   0.867   3.086 -0.9596  0.2590 -0.4655
 2718SOL     OW19789   3.548   0.397   3.342 -0.0555  0.4199 -0.1984
 2718SOL    HW119790   3.504   0.479   3.317 -1.4631 -0.0366  0.7729
 2718SOL    HW219791   3.484   0.327   3.331  1.1555 -0.9605  1.5460
 2719SOL     OW19792   1.014   1.778   7.878  0.0401 -0.3535 -0.1433
 2719SOL    HW119793   0.927   1.761   7.915 -0.2510 -0.7224 -0.9756
 2719SOL    HW219794   1.043   1.688   7.859 -0.2449 -0.2413 -1.1399
 2720SOL     OW19795   2.910   4.334  12.897 -0.2219  0.5868 -0.1512
 2720SOL    HW119796   2.887   4.243  12.877 -1.0718  0.9289 -0.6995
 2720SOL    HW219797   2.922   4.367  12.807  1.3817  0.4177 -0.0063
 2721SOL     OW19798   2.542   2.597  13.271 -0.3803 -0.0136  0.2916
 2721SOL    HW119799   2.521   2.686  13.297  1.3774  1.0770 -2.0381
 2721SOL    HW219800   2.591   2.571  13.349  1.4662  0.0503 -0.8517
 2722SOL     OW19801   3.227   3.925   1.513  0.4915 -0.0947 -0.3280
 2722SOL    HW119802   3.223   3.830   1.524 -0.2927 -0.0511 -0.2001
 2722SOL    HW219803   3.132   3.937   1.517  0.7591  1.3659  1.7235
 2723SOL     OW19804   4.712   3.426   5.351 -0.0179  0.1855  0.6619
 2723SOL    HW119805   0.057   3.461   5.336  0.4731 -0.3529  2.1822
 2723SOL    HW219806   4.737   3.389   5.436  0.8332 -0.4545  0.1333
 2724SOL     OW19807   1.732   1.887   3.923 -0.0135  0.3702  0.2395
 2724SOL    HW119808   1.701   1.905   3.835 -1.6808  1.5290  1.0585
 2724SOL    HW219809   1.806   1.831   3.900 -0.8214  0.8677 -3.5774
 2725SOL     OW19810   0.362   3.299   3.997  0.3065 -0.2601 -0.6621
 2725SOL    HW119811   0.329   3.222   4.044 -0.1630  0.9087  0.8993
 2725SOL    HW219812   0.412   3.338   4.069  1.5487 -2.0873 -0.5471
 2726SOL     OW19813   4.618   3.036  15.835  0.7643  0.4667 -0.4847
 2726SOL    HW119814   4.605   2.942  15.852 -3.6770  1.2369  0.2863
 2726SOL    HW219815   4.713   3.026  15.838  0.7812  0.1493 -2.1640
 2727SOL     OW19816   1.071   2.782   7.562 -0.0880 -0.6717 -0.4318
 2727SOL    HW119817   1.158   2.806   7.594 -0.4237 -0.7321  0.5484
 2727SOL    HW219818   1.064   2.687   7.568 -2.7755 -0.4298  0.6869
 2728SOL     OW19819   1.068   1.069  17.309 -0.2017 -0.2698 -0.0948
 2728SOL    HW119820   1.006   1.141  17.309 -0.4010 -0.4406  1.1584
 2728SOL    HW219821   1.011   1.004  17.350 -1.5738  0.5971 -0.6288
 2729SOL     OW19822   3.270   0.211   2.816 -0.1757 -0.3993 -0.0931
 2729SOL    HW119823   3.360   0.243   2.821  0.3294 -1.5277 -1.7467
 2729SOL    HW219824   3.275   0.124   2.854 -0.2513  0.0654  0.9877
 2730SOL     OW19825   0.127   3.406   2.504 -0.5540  0.4451  0.3467
 2730SOL    HW119826   0.125   3.426   2.410 -0.9243  2.1752  0.7273
 2730SOL    HW219827   0.053   3.348   2.517 -0.1665  0.1168  1.1168
 2731SOL     OW19828   3.249   3.727   8.276 -0.1070  0.0501 -0.6728
 2731SOL    HW119829   3.338   3.695   8.289 -0.0639 -0.3395 -1.8641
 2731SOL    HW219830   3.188   3.654   8.264 -0.6355  0.2900  0.5607
 2732SOL     OW19831   0.231   0.713   2.167  0.3848  0.2135  0.1706
 2732SOL    HW119832   0.192   0.788   2.211  0.6730 -0.1312  1.0104
 2732SOL    HW219833   0.229   0.746   2.077 -2.1055 -0.1702  0.0891
 2733SOL     OW19834   1.670   1.152   4.790  0.1023 -0.6674  0.9640
 2733SOL    HW119835   1.615   1.128   4.716  0.6174 -0.8813  0.6537
 2733SOL    HW219836   1.639   1.242   4.800  3.3542  0.5247  0.2768
 2734SOL     OW19837   3.577   3.065   3.284 -0.1638  0.1579 -0.1260
 2734SOL    HW119838   3.660   3.019   3.266  0.1084  0.3765  0.5612
 2734SOL    HW219839   3.511   3.013   3.239 -1.8807  1.3119  1.0566
 2735SOL     OW19840   3.522   2.948   6.836  0.1141  0.1804 -0.6044
 2735SOL    HW119841   3.481   3.035   6.843  0.6781  0.3267  0.9210
 2735SOL    HW219842   3.529   2.948   6.740  0.0143 -2.5696 -0.5885
 2736SOL     OW19843   2.968   0.789  12.846  0.1197 -0.0353 -0.2485
 2736SOL    HW119844   3.045   0.827  12.803 -0.9387  1.4880 -0.8094
 2736SOL    HW219845   2.920   0.769  12.765 -0.3119  1.1987 -0.2865
 2737SOL     OW19846   3.232   4.063  12.271 -0.5833 -0.4880 -0.0100
 2737SOL    HW119847   3.229   4.051  12.366 -0.1868 -1.3385 -0.1077
 2737SOL    HW219848   3.176   4.140  12.260 -0.4107 -0.4552 -0.6546
 2738SOL     OW19849   3.168   1.333   3.453  0.7505 -0.3269 -0.2160
 2738SOL    HW119850   3.251   1.291   3.430 -1.0429 -2.3401 -2.9536
 2738SOL    HW219851   3.112   1.313   3.378 -0.8627  2.5188  0.2150
 2739SOL     OW19852   1.063   1.725  13.674 -0.2954  0.1067  0.4882
 2739SOL    HW119853   1.145   1.769  13.648 -0.8483  1.7529  1.4865
 2739SOL    HW219854   1.090   1.702  13.763 -1.3058  1.8191  1.2423
 2740SOL     OW19855   0.990   3.955   9.540  0.0919 -0.3466  0.0865
 2740SOL    HW119856   0.956   3.870   9.570  1.8316 -1.3159 -0.6918
 2740SOL    HW219857   0.949   3.958   9.453 -1.1405 -0.9596  0.6450
 2741SOL     OW19858   2.594   1.215  12.548 -0.0566  0.4702  0.0379
 2741SOL    HW119859   2.568   1.282  12.611  0.7695  1.3971 -0.5998
 2741SOL    HW219860   2.681   1.249  12.527  1.6727 -2.3659  2.5735
 2742SOL     OW19861   0.432   4.155   7.329  0.2241  0.2941  0.0959
 2742SOL    HW119862   0.385   4.166   7.411 -0.5590  0.0849 -0.3297
 2742SOL    HW219863   0.474   4.238   7.306  1.1682 -0.7149 -1.8713
 2743SOL     OW19864   0.362   4.377   4.887  1.2515  0.0539 -0.2250
 2743SOL    HW119865   0.305   4.382   4.964 -0.0007  0.0606 -1.1565
 2743SOL    HW219866   0.395   4.466   4.878  3.0818 -0.2830  2.9417
 2744SOL     OW19867   2.720   2.765  12.352 -0.1830 -0.7581  0.1425
 2744SOL    HW119868   2.703   2.858  12.337 -1.7203 -1.4484 -2.2536
 2744SOL    HW219869   2.682   2.770  12.440 -0.7779 -1.0482 -0.1076
 2745SOL     OW19870   1.674   1.510   5.284 -0.1999  0.0228 -0.1690
 2745SOL    HW119871   1.699   1.418   5.287  0.1800  0.1424  0.4164
 2745SOL    HW219872   1.747   1.558   5.322 -0.3185  0.3897 -0.4006
 2746SOL     OW19873   1.476   0.499   4.634  0.2483  0.8051  0.0011
 2746SOL    HW119874   1.560   0.496   4.589 -0.2784 -0.4114 -0.9001
 2746SOL    HW219875   1.414   0.512   4.562  0.2277  0.4713 -0.0445
 2747SOL     OW19876   4.434   2.434   8.150  0.1222 -0.3473  0.7829
 2747SOL    HW119877   4.507   2.377   8.173  0.8943 -0.6239 -2.2373
 2747SOL    HW219878   4.459   2.512   8.200 -0.0439  0.4318 -0.3460
 2748SOL     OW19879   0.327   2.411   1.632 -0.1342 -0.1536  0.3965
 2748SOL    HW119880   0.308   2.345   1.565 -0.2553  0.2025  0.0805
 2748SOL    HW219881   0.236   2.435   1.648  0.2133  1.4264  0.0596
 2749SOL     OW19882   3.634   3.955   9.695 -0.1387 -0.2098  0.4402
 2749SOL    HW119883   3.698   3.928   9.761  1.1682 -0.9266 -1.1073
 2749SOL    HW219884   3.556   3.981   9.744  0.7494  1.0371  1.1958
 2750SOL     OW19885   0.458   2.134   7.792 -0.0187 -0.3788  0.0439
 2750SOL    HW119886   0.401   2.147   7.868  1.4456  0.7560  0.9641
 2750SOL    HW219887   0.479   2.224   7.766  0.6159 -0.2203  1.0993
 2751SOL     OW19888   4.629   2.105  12.033 -0.3991 -0.3776  0.0196
 2751SOL    HW119889   4.626   2.162  12.110  1.6914 -1.3666  0.8195
 2751SOL    HW219890   4.718   2.105  11.998 -0.1822  1.0154  0.5737
 2752SOL     OW19891   1.871   4.113  16.185 -0.2112 -0.1836  0.3072
 2752SOL    HW119892   1.861   4.025  16.222  0.2240 -0.2569  0.2545
 2752SOL    HW219893   1.900   4.095  16.095 -0.3296 -2.5642  0.7290
 2753SOL     OW19894   3.681   1.877   5.517 -0.4834 -0.0908  0.1008
 2753SOL    HW119895   3.619   1.904   5.585 -0.5377  0.5530 -0.2016
 2753SOL    HW219896   3.707   1.967   5.497  1.3016 -0.7560 -0.6096
 2754SOL     OW19897   3.729   0.024   8.436 -0.3968 -0.1746 -0.3352
 2754SOL    HW119898   3.761   0.113   8.450  0.5095 -0.5944  0.2981
 2754SOL    HW219899   3.729   4.741   8.529  0.5706 -0.8384 -0.5158
 2755SOL     OW19900   1.228   0.459   2.550 -0.3235  0.1690  0.6218
 2755SOL    HW119901   1.317   0.494   2.546 -1.1252  2.0605 -0.8681
 2755SOL    HW219902   1.182   0.534   2.587  1.7427  1.3765  0.7123
 2756SOL     OW19903   2.131   0.600   6.113 -0.0002  0.3167 -0.2317
 2756SOL    HW119904   2.198   0.646   6.164 -1.4602  0.8030  1.2211
 2756SOL    HW219905   2.146   0.621   6.020  0.2044 -0.0592 -0.2841
 2757SOL     OW19906   1.095   1.816   4.713  0.3913 -0.5075 -0.4811
 2757SOL    HW119907   1.165   1.850   4.769 -1.6111  3.1165 -0.1577
 2757SOL    HW219908   1.095   1.878   4.640  1.5456 -0.4883 -0.4596
 2758SOL     OW19909   2.760   0.846   7.067  0.0300  0.4251  0.5479
 2758SOL    HW119910   2.671   0.824   7.039  0.0032  2.1436 -0.6779
 2758SOL    HW219911   2.804   0.833   6.983  0.6808  0.5515  0.8694
 2759SOL     OW19912   2.206   3.598   5.055 -0.1316 -0.2537  0.3183
 2759SOL    HW119913   2.186   3.685   5.089  1.6238 -0.5067  1.9748
 2759SOL    HW219914   2.151   3.541   5.109 -0.2726  0.7496  1.2372
 2760SOL     OW19915   4.137   2.693  15.517  0.2360 -0.0638 -0.0813
 2760SOL    HW119916   4.086   2.635  15.573  0.8582 -0.8504 -0.3355
 2760SOL    HW219917   4.192   2.623  15.482 -2.6357 -2.2589 -0.1679
 2761SOL     OW19918   0.419   0.585  11.045  0.3019  0.4521  0.2506
 2761SOL    HW119919   0.449   0.642  10.975 -1.2494  0.4585 -0.4199
 2761SOL    HW219920   0.495   0.590  11.103  1.5978 -1.1198 -1.3049
 2762SOL     OW19921   1.693   4.500   6.681  0.6293 -0.0016  0.1851
 2762SOL    HW119922   1.765   4.563   6.691  0.2587  0.0252  2.6191
 2762SOL    HW219923   1.630   4.553   6.633  1.0750  2.0902  1.8987
 2763SOL     OW19924   2.934   3.703   9.365 -0.7551  0.7335 -0.4564
 2763SOL    HW119925   2.941   3.673   9.275 -0.2445  0.3984 -0.3077
 2763SOL    HW219926   3.009   3.763   9.366  0.5807 -0.9256  2.4323
 2764SOL     OW19927   3.018   0.733  16.476  0.3209  0.7595 -0.2384
 2764SOL    HW119928   2.949   0.667  16.481  0.4256  0.5830 -1.0582
 2764SOL    HW219929   3.080   0.685  16.530  1.0614 -1.2243 -2.8714
 2765SOL     OW19930   0.097   1.695   2.517  0.2916 -0.2694  0.6327
 2765SOL    HW119931   0.148   1.635   2.463  0.7394  1.0775 -0.4409
 2765SOL    HW219932   0.008   1.670   2.490  0.2801  0.0912  0.3372
 2766SOL     OW19933   4.470   0.665   2.568 -0.4387  0.0963 -0.1356
 2766SOL    HW119934   4.566   0.667   2.570 -0.4070 -2.9660  1.3308
 2766SOL    HW219935   4.446   0.573   2.573 -0.7706  0.2666  1.5244
 2767SOL     OW19936   1.608   0.669  11.833  0.1633  0.3219  0.0270
 2767SOL    HW119937   1.591   0.668  11.739  2.5843 -0.1464 -0.4050
 2767SOL    HW219938   1.683   0.728  11.843  0.0378  1.1680 -3.9897
 2768SOL     OW19939   1.126   3.316   5.958  0.5928  0.5420 -0.2995
 2768SOL    HW119940   1.120   3.375   5.883 -0.2535  0.7050 -0.1007
 2768SOL    HW219941   1.155   3.375   6.028  3.9783 -1.0133 -0.4220
 2769SOL     OW19942   3.640   1.596   4.243  0.0595 -0.1332 -0.0658
 2769SOL    HW119943   3.577   1.607   4.314  0.3091  2.4006 -0.2319
 2769SOL    HW219944   3.683   1.512   4.260  0.5819  0.3213  0.8421
 2770SOL     OW19945   1.522   1.975   8.306 -0.0024  0.1611  0.7145
 2770SOL    HW119946   1.477   1.942   8.384  0.5601  0.2436  1.0717
 2770SOL    HW219947   1.609   1.981   8.345  0.5169 -1.1056 -0.2748
 2771SOL     OW19948   0.500   1.906   4.432 -0.4963 -0.5374 -0.1217
 2771SOL    HW119949   0.489   1.976   4.496  0.2143 -1.0048  0.5200
 2771SOL    HW219950   0.579   1.944   4.393  0.2380 -0.8048  1.0942
 2772SOL     OW19951   0.758   3.430   4.146  0.2624  0.1174 -0.0410
 2772SOL    HW119952   0.805   3.357   4.105 -1.4601 -0.4421 -1.0541
 2772SOL    HW219953   0.819   3.500   4.124  0.3930  0.2407  0.7278
 2773SOL     OW19954   0.443   4.486   0.161 -0.0105  0.4078 -0.1626
 2773SOL    HW119955   0.457   4.576   0.190  0.1580  0.8940 -1.7588
 2773SOL    HW219956   0.374   4.466   0.224  0.6824 -1.5213  0.0086
 2774SOL     OW19957   4.717   0.475   2.395 -0.2818  0.0989 -0.0051
 2774SOL    HW119958   4.648   0.446   2.454 -1.1013  0.0917 -0.9724
 2774SOL    HW219959   0.035   0.510   2.461 -1.4784  1.3750  0.4099
 2775SOL     OW19960   0.900   2.462  11.459 -0.4965  0.1368 -0.5908
 2775SOL    HW119961   0.893   2.553  11.486 -1.5132  0.4482 -1.8910
 2775SOL    HW219962   0.983   2.460  11.411  0.4566  2.5173  0.9546
 2776SOL     OW19963   0.773   3.174   7.320  0.3881  0.0532  0.3465
 2776SOL    HW119964   0.858   3.203   7.355 -0.1333  0.0210  1.6510
 2776SOL    HW219965   0.756   3.253   7.269  0.4523 -0.3051 -0.2236
 2777SOL     OW19966   1.375   2.609   3.501  0.1800  0.3293  0.6697
 2777SOL    HW119967   1.431   2.618   3.424 -1.6278 -3.4171 -1.0897
 2777SOL    HW219968   1.439   2.613   3.573  2.0210  2.8613 -1.1260
 2778SOL     OW19969   0.680   2.891   4.290  0.4263  0.2869 -0.0477
 2778SOL    HW119970   0.593   2.928   4.307  0.4758  1.2141 -1.7651
 2778SOL    HW219971   0.686   2.810   4.340  2.8381  0.7000  0.3141
 2779SOL     OW19972   4.015   1.227   4.916 -0.2588 -0.3767  0.0753
 2779SOL    HW119973   3.949   1.177   4.963  1.1667 -0.3748  2.1138
 2779SOL    HW219974   4.070   1.273   4.980 -0.6703 -0.1324  0.2499
 2780SOL     OW19975   2.418   3.651   3.715  0.0429 -0.0556 -0.2187
 2780SOL    HW119976   2.421   3.718   3.783  1.4076 -0.3912  0.0554
 2780SOL    HW219977   2.413   3.704   3.635  1.7150 -0.6997 -0.7517
 2781SOL     OW19978   3.915   3.536   6.184  0.2937  1.1121  0.4015
 2781SOL    HW119979   3.912   3.625   6.220  1.6398  2.3625 -2.6271
 2781SOL    HW219980   3.854   3.488   6.240  0.2132  0.7033 -0.0433
 2782SOL     OW19981   3.837   0.486   5.177 -0.0022 -0.4740  0.1823
 2782SOL    HW119982   3.913   0.436   5.206  1.7827  0.5055 -2.7575
 2782SOL    HW219983   3.770   0.418   5.190 -0.0680 -0.1345  1.6137
 2783SOL     OW19984   4.343   0.545   1.566 -0.1643  0.0980  0.0108
 2783SOL    HW119985   4.434   0.560   1.592 -0.1417  1.7953 -0.9987
 2783SOL    HW219986   4.350   0.469   1.509 -1.6855 -0.3326  0.4000
 2784SOL     OW19987   0.060   0.746   5.828 -0.6552 -0.1064  0.0745
 2784SOL    HW119988   0.150   0.776   5.840 -1.2758  1.8293 -0.0469
 2784SOL    HW219989   0.083   0.655   5.809  3.7191  0.9789  0.3446
 2785SOL     OW19990   0.480   1.178   1.918 -0.1904 -0.3220  0.0506
 2785SOL    HW119991   0.459   1.208   2.006 -0.0261 -0.0955  0.0126
 2785SOL    HW219992   0.402   1.139   1.879  0.0426  0.7943 -1.5093
 2786SOL     OW19993   2.839   2.533   2.828  0.3959  0.5567  0.2129
 2786SOL    HW119994   2.759   2.585   2.833 -0.3805 -0.6727  0.4199
 2786SOL    HW219995   2.907   2.601   2.829  0.8645  0.0967 -1.7633
 2787SOL     OW19996   4.464   1.088   8.888 -0.1780 -0.5171 -0.4479
 2787SOL    HW119997   4.380   1.126   8.912  0.3203  1.5480 -2.0222
 2787SOL    HW219998   4.454   0.994   8.901 -1.0286 -0.0020  2.6856
 2788SOL     OW19999   0.440   2.503   8.776 -0.1336  0.0466 -0.2207
 2788SOL    HW120000   0.439   2.583   8.828  1.0571 -0.8612  1.1865
 2788SOL    HW220001   0.384   2.455   8.837 -0.6269  0.3333 -0.4491
 2789SOL     OW20002   4.429   2.926  16.714  0.8601 -0.1354 -0.1379
 2789SOL    HW120003   4.491   2.864  16.674  2.3755  2.9467 -2.5244
 2789SOL    HW220004   4.422   2.879  16.798  0.1182 -0.8526 -0.6043
 2790SOL     OW20005   1.766   3.728   8.081  0.1663  0.6119  0.0893
 2790SOL    HW120006   1.800   3.701   7.996  0.5651 -0.2210  0.5150
 2790SOL    HW220007   1.775   3.640   8.117  1.7190  1.0591  0.8079
 2791SOL     OW20008   4.670   1.814   9.626 -0.8071  0.3870  0.3124
 2791SOL    HW120009   4.674   1.816   9.531  1.5634  0.2249  0.4257
 2791SOL    HW220010   4.609   1.885   9.647  0.1153  0.7951  1.6371
 2792SOL     OW20011   2.950   4.128   6.948  0.7377 -0.0202  0.3938
 2792SOL    HW120012   3.016   4.195   6.965  0.1799  1.2195 -2.3228
 2792SOL    HW220013   2.868   4.171   6.971  0.3860 -0.7304  0.4836
 2793SOL     OW20014   0.406   3.689  12.485  0.1667 -0.1497 -0.2102
 2793SOL    HW120015   0.319   3.669  12.450  0.4864 -1.7423 -0.1031
 2793SOL    HW220016   0.389   3.735  12.568  1.1898 -0.0233 -0.0781
 2794SOL     OW20017   4.141   4.536  13.334  0.0767 -0.5972 -0.4104
 2794SOL    HW120018   4.113   4.454  13.375 -0.0793 -1.3086 -1.9402
 2794SOL    HW220019   4.083   4.529  13.258  0.2598 -1.2905 -0.4849
 2795SOL     OW20020   4.244   4.188  13.072  0.1583  0.0816  0.3982
 2795SOL    HW120021   4.284   4.117  13.022  2.9651  1.4820  0.6507
 2795SOL    HW220022   4.229   4.251  13.002  0.6135  0.0174  0.2419
 2796SOL     OW20023   0.456   3.885   5.411  0.6692 -0.0677  0.9135
 2796SOL    HW120024   0.402   3.837   5.473  0.7252 -0.7376  0.4411
 2796SOL    HW220025   0.431   3.830   5.337 -0.3763  0.6343  0.7547
 2797SOL     OW20026   1.642   0.280   1.806  0.3288 -0.1410 -0.2026
 2797SOL    HW120027   1.626   0.243   1.893  1.4216  2.2280  1.0103
 2797SOL    HW220028   1.719   0.229   1.781  0.7342 -0.9925  2.7513
 2798SOL     OW20029   2.182   3.229  12.461  0.3375 -0.0757 -0.5959
 2798SOL    HW120030   2.224   3.186  12.387  1.8950  0.1867  0.1298
 2798SOL    HW220031   2.162   3.154  12.518  0.1366  0.8563  0.5748
 2799SOL     OW20032   2.217   2.260  11.343  0.3556 -0.1968  0.3821
 2799SOL    HW120033   2.276   2.223  11.408  0.7168 -0.7455 -0.2551
 2799SOL    HW220034   2.222   2.196  11.272  1.7068  2.0595 -1.5509
 2800SOL     OW20035   1.867   2.898   2.366  0.2314  0.0671  0.1004
 2800SOL    HW120036   1.874   2.805   2.345  2.1722  0.6167 -1.6731
 2800SOL    HW220037   1.958   2.920   2.385  0.8933 -2.4044 -0.2396
 2801SOL     OW20038   0.931   2.847  15.348  0.2139 -0.2490  0.5561
 2801SOL    HW120039   0.970   2.760  15.345 -1.8607 -1.1678  0.2748
 2801SOL    HW220040   0.840   2.817  15.346 -0.2384  1.0739  1.7067
 2802SOL     OW20041   4.541   0.105   7.949  0.0831  0.5518 -0.3122
 2802SOL    HW120042   4.563   0.196   7.928  2.9486 -0.4996 -1.9165
 2802SOL    HW220043   4.487   0.081   7.873  1.6656  4.3579 -2.6127
 2803SOL     OW20044   4.559   1.638   7.143 -0.2613  0.1994  0.1332
 2803SOL    HW120045   4.642   1.675   7.113 -0.4730  0.9826  0.5034
 2803SOL    HW220046   4.579   1.625   7.236  2.0185  1.1130 -0.2402
 2804SOL     OW20047   0.868   0.181   7.433 -1.0842  0.5013 -0.1566
 2804SOL    HW120048   0.951   0.206   7.391 -1.3046  0.0612 -0.8498
 2804SOL    HW220049   0.845   0.269   7.462  1.6880  0.7530  1.2750
 2805SOL     OW20050   0.090   1.513   3.281  0.2041  0.4588 -0.3667
 2805SOL    HW120051   0.091   1.568   3.359  1.2371  0.0595 -0.0984
 2805SOL    HW220052   0.006   1.542   3.245  0.9716  2.3556 -0.6582
 2806SOL     OW20053   2.058   4.595  16.164  0.3363  0.0982 -0.3210
 2806SOL    HW120054   2.066   4.509  16.205  2.0426  0.0373 -0.7943
 2806SOL    HW220055   2.025   4.573  16.076  0.3996  0.4171 -0.4271
 2807SOL     OW20056   3.683   0.828   8.905 -0.0891  0.1572 -0.1918
 2807SOL    HW120057   3.733   0.871   8.835 -2.0625  1.8078 -0.5887
 2807SOL    HW220058   3.603   0.795   8.863  0.0239 -1.2396  0.7084
 2808SOL     OW20059   2.359   4.213   7.446  0.3320  0.2678  0.6911
 2808SOL    HW120060   2.320   4.205   7.533  2.1119  1.3879  1.5886
 2808SOL    HW220061   2.453   4.210   7.463  0.6424 -0.0468 -1.0871
 2809SOL     OW20062   1.640   2.123   0.659 -0.3212 -0.3904  0.4467
 2809SOL    HW120063   1.610   2.175   0.734 -0.9567  1.1439 -0.8537
 2809SOL    HW220064   1.567   2.147   0.602  1.1678  2.4729 -0.2804
 2810SOL     OW20065   2.255   3.934   8.829 -0.3821  0.1386  0.5900
 2810SOL    HW120066   2.186   3.992   8.795  1.8272  2.7610  0.6453
 2810SOL    HW220067   2.222   3.931   8.919 -0.9557  0.1574  0.3843
 2811SOL     OW20068   1.185   4.339  16.169 -0.0842  0.0156 -0.6360
 2811SOL    HW120069   1.160   4.353  16.260  1.8980 -1.9659  0.2100
 2811SOL    HW220070   1.096   4.345  16.134 -0.0348 -1.1888 -0.9745
 2812SOL     OW20071   4.624   1.694   8.762 -0.0688  0.9628 -0.0018
 2812SOL    HW120072   4.617   1.638   8.840  1.2890  1.4863  0.4928
 2812SOL    HW220073   4.613   1.626   8.695 -0.0762 -0.6914  1.6668
 2813SOL     OW20074   4.381   1.286  14.106 -0.2148  0.2722 -1.2176
 2813SOL    HW120075   4.314   1.348  14.137  0.6842  2.0703 -2.8951
 2813SOL    HW220076   4.328   1.207  14.097  0.6690 -0.5187  0.4419
 2814SOL     OW20077   4.488   1.414  17.148  0.0943  0.3056  0.3129
 2814SOL    HW120078   4.533   1.443  17.069 -0.1861 -0.5483 -0.1586
 2814SOL    HW220079   4.446   1.495  17.177 -1.6358 -0.3379 -0.4167
 2815SOL     OW20080   4.640   4.394   9.334  0.0085 -0.0240 -0.0683
 2815SOL    HW120081   4.559   4.438   9.308 -0.1366 -0.1842  0.1154
 2815SOL    HW220082   4.618   4.350   9.416 -2.0095  2.2712  0.6281
 2816SOL     OW20083   3.549   4.659  17.572 -0.1804  0.2946 -0.2788
 2816SOL    HW120084   3.539   4.708  17.491  0.4814  1.0956  0.1265
 2816SOL    HW220085   3.638   4.686  17.596 -0.3856  0.2958  0.4970
 2817SOL     OW20086   1.771   1.421   0.891 -0.3181 -0.4377 -0.4569
 2817SOL    HW120087   1.687   1.394   0.930  1.1430 -2.0337  1.5890
 2817SOL    HW220088   1.753   1.495   0.834  2.5190 -0.3896 -1.2925
 2818SOL     OW20089   3.585   0.705  12.484  0.3570 -0.1431  0.0209
 2818SOL    HW120090   3.674   0.719  12.451  0.3925  1.6766  0.9031
 2818SOL    HW220091   3.602   0.633  12.544 -0.2423 -0.5768 -0.3285
 2819SOL     OW20092   2.521   3.912   8.663 -0.1578 -0.3505 -0.0278
 2819SOL    HW120093   2.445   3.925   8.718 -0.5817 -4.7705  0.4716
 2819SOL    HW220094   2.528   4.000   8.625 -2.2054 -0.1083  0.1950
 2820SOL     OW20095   0.230   3.465   3.848  0.3990 -0.3597  0.0901
 2820SOL    HW120096   0.294   3.418   3.902  0.1630  0.5628  1.1867
 2820SOL    HW220097   0.173   3.389   3.841 -0.7656  0.3588  1.7389
 2821SOL     OW20098   3.852   0.112   7.339 -0.2041  0.0406 -0.0132
 2821SOL    HW120099   3.770   0.126   7.386 -0.2248  0.7232 -0.2517
 2821SOL    HW220100   3.910   0.064   7.399  0.0449 -2.6669 -2.3997
 2822SOL     OW20101   1.794   1.925   0.306  0.1212  0.0692 -0.1870
 2822SOL    HW120102   1.742   1.987   0.256 -2.6121 -1.2481  0.9814
 2822SOL    HW220103   1.883   1.935   0.274 -0.1936  0.9335 -0.7707
 2823SOL     OW20104   0.543   2.542   2.793 -0.4097  0.0833  0.5665
 2823SOL    HW120105   0.484   2.472   2.822 -0.3665 -0.4793 -0.7055
 2823SOL    HW220106   0.602   2.553   2.868  0.7806  0.8348 -0.4865
 2824SOL     OW20107   4.040   0.604  10.192 -0.1064 -0.1334 -0.4982
 2824SOL    HW120108   4.088   0.663  10.134  1.1840 -0.6915  0.0138
 2824SOL    HW220109   4.044   0.518  10.149 -3.2660 -0.5527  0.0598
 2825SOL     OW20110   1.855   2.781  16.169 -0.7165 -0.3403  0.1250
 2825SOL    HW120111   1.805   2.702  16.146  1.0419 -1.2808 -0.4856
 2825SOL    HW220112   1.797   2.820  16.234 -1.6568 -0.4383 -0.6484
 2826SOL     OW20113   3.525   1.772   7.856  0.2804  0.0940 -0.8514
 2826SOL    HW120114   3.445   1.730   7.825  0.8627 -0.1239 -2.0744
 2826SOL    HW220115   3.558   1.809   7.774  1.3915  2.4238  0.6453
 2827SOL     OW20116   1.964   2.653   5.271  0.0328 -1.0110  0.3011
 2827SOL    HW120117   1.914   2.589   5.220 -1.2350  0.4565 -0.2839
 2827SOL    HW220118   1.988   2.715   5.202 -0.2006 -2.2351 -0.8805
 2828SOL     OW20119   0.063   2.292   8.996 -0.3369 -0.6357 -0.4851
 2828SOL    HW120120   0.127   2.282   9.067  1.1469 -3.2058 -2.1926
 2828SOL    HW220121   4.721   2.271   9.037 -1.1137  2.7163 -0.3824
 2829SOL     OW20122   1.432   0.074   4.241  0.0984 -0.1714  0.6199
 2829SOL    HW120123   1.440   0.155   4.192  0.2733 -1.7255 -1.9212
 2829SOL    HW220124   1.395   0.107   4.323  2.0055  0.1470  1.3711
 2830SOL     OW20125   3.249   4.265   6.711  0.0042 -0.0032  0.8440
 2830SOL    HW120126   3.247   4.189   6.653  2.0729  1.3016 -0.9417
 2830SOL    HW220127   3.344   4.279   6.701  0.2752 -3.2981 -1.1705
 2831SOL     OW20128   1.933   3.087   3.085 -0.1555 -0.2404  0.2875
 2831SOL    HW120129   1.922   3.006   3.035 -0.2557 -0.5428  0.8006
 2831SOL    HW220130   1.862   3.143   3.052 -0.9063  0.1804  2.5935
 2832SOL     OW20131   4.013   0.304  14.192  0.7218  0.0059 -0.1511
 2832SOL    HW120132   4.010   0.297  14.096  1.7366  0.8232 -0.2492
 2832SOL    HW220133   3.929   0.342  14.216 -0.3083 -1.0870 -1.9662
 2833SOL     OW20134   0.592   2.618   3.268  0.2680  0.3309  0.3515
 2833SOL    HW120135   0.557   2.654   3.349  1.0936  0.5948  0.5868
 2833SOL    HW220136   0.616   2.703   3.231  1.1231  0.7747  1.9254
 2834SOL     OW20137   4.692   4.636   3.429  0.0898  0.7171 -0.6078
 2834SOL    HW120138   0.037   4.618   3.396  0.1974 -0.7076  0.4749
 2834SOL    HW220139   4.710   4.594   3.513 -1.3527 -0.1502 -0.7185
 2835SOL     OW20140   0.953   1.444   9.346 -0.0881  0.0710  0.3600
 2835SOL    HW120141   0.950   1.401   9.432  0.9233  0.8593  0.7920
 2835SOL    HW220142   0.861   1.456   9.322  0.7230  0.6592 -2.3931
 2836SOL     OW20143   1.833   0.997   8.403 -0.1657 -0.1683 -0.1434
 2836SOL    HW120144   1.878   1.073   8.367 -1.0124 -0.1263 -1.1300
 2836SOL    HW220145   1.746   1.003   8.363 -0.3385 -0.8893  0.1316
 2837SOL     OW20146   4.463   0.231  10.865  0.3595 -0.8915 -0.2855
 2837SOL    HW120147   4.446   0.193  10.951  0.7734  0.3021  0.3371
 2837SOL    HW220148   4.409   0.173  10.812 -2.3159  2.6032 -1.4042
 2838SOL     OW20149   3.455   1.137  17.317 -0.3093 -0.6779 -0.9384
 2838SOL    HW120150   3.391   1.082  17.362  0.6453  0.3931  1.7315
 2838SOL    HW220151   3.525   1.154  17.380  0.4605 -1.2661 -1.6342
 2839SOL     OW20152   3.419   1.963   3.327  0.2866 -0.5114  0.4165
 2839SOL    HW120153   3.387   2.047   3.293 -1.4186 -0.3153  2.4733
 2839SOL    HW220154   3.340   1.910   3.311  1.1342 -1.4644 -0.6416
 2840SOL     OW20155   2.639   3.801   4.098  0.4299  0.3090 -0.3529
 2840SOL    HW120156   2.729   3.780   4.075  0.5421  0.0340  0.3336
 2840SOL    HW220157   2.604   3.713   4.114 -0.9546  0.9965  0.4014
 2841SOL     OW20158   2.000   1.052  12.941  0.3430 -0.2285 -0.0847
 2841SOL    HW120159   2.082   1.012  12.969  2.1794  3.3627 -0.3802
 2841SOL    HW220160   2.016   1.135  12.986 -0.2794 -1.6655  2.8141
 2842SOL     OW20161   2.599   3.155   7.167  0.1120 -0.1482  0.2453
 2842SOL    HW120162   2.639   3.139   7.252  3.9288 -0.3259 -1.5879
 2842SOL    HW220163   2.506   3.166   7.186  0.1471 -0.4400  0.5812
 2843SOL     OW20164   2.255   0.733   1.349 -0.3714  0.3153  0.9845
 2843SOL    HW120165   2.266   0.826   1.329 -1.2014 -0.1493 -1.6401
 2843SOL    HW220166   2.334   0.709   1.396  1.3791  2.3102 -0.9158
 2844SOL     OW20167   4.609   3.146   2.865  0.2304 -0.3096 -0.3663
 2844SOL    HW120168   4.658   3.176   2.942  1.3914 -0.2750 -1.1380
 2844SOL    HW220169   4.525   3.173   2.904  1.0934  1.0989  0.5146
 2845SOL     OW20170   3.398   3.691   8.744 -0.3729  0.1292  0.4208
 2845SOL    HW120171   3.413   3.613   8.798  2.7980  1.0304  0.7934
 2845SOL    HW220172   3.391   3.653   8.657  4.0237  2.2351 -0.8100
 2846SOL     OW20173   2.388   1.122   7.034  0.4159  0.3001 -0.0736
 2846SOL    HW120174   2.320   1.187   7.052  1.1091  1.2012 -0.7642
 2846SOL    HW220175   2.341   1.038   7.039  3.2800 -1.4154 -1.5934
 2847SOL     OW20176   1.363   4.546  15.424  0.5175 -0.1860 -0.5521
 2847SOL    HW120177   1.417   4.491  15.480  0.8067  0.2306 -0.4212
 2847SOL    HW220178   1.280   4.545  15.471  0.6001  0.1130 -0.4007
 2848SOL     OW20179   4.018   3.963   2.117 -0.4691  0.0370 -0.0522
 2848SOL    HW120180   4.071   4.028   2.071 -0.9089  0.2811 -0.2242
 2848SOL    HW220181   4.072   3.887   2.095 -0.8646 -0.2909  0.0977
 2849SOL     OW20182   3.781   1.803   7.385 -0.3085 -0.0267  0.2959
 2849SOL    HW120183   3.697   1.837   7.356 -0.3874 -0.9939 -0.6338
 2849SOL    HW220184   3.757   1.743   7.455 -0.8371 -0.4355 -0.2349
 2850SOL     OW20185   1.744   1.145   6.046  0.6519  0.0634  0.5712
 2850SOL    HW120186   1.813   1.086   6.076  1.5553  1.1558  0.6415
 2850SOL    HW220187   1.662   1.116   6.085  0.3621 -0.1983 -0.2386
 2851SOL     OW20188   0.397   4.679   4.958 -0.3433  0.6038 -0.3173
 2851SOL    HW120189   0.331   4.720   5.013 -0.7091  1.0769 -1.0998
 2851SOL    HW220190   0.379   4.724   4.875 -0.9984 -0.0471 -0.5218
 2852SOL     OW20191   0.130   4.658   2.883 -0.4094  0.1179  0.1873
 2852SOL    HW120192   0.034   4.658   2.878 -0.4774  0.4910  1.5041
 2852SOL    HW220193   0.158   4.664   2.792  0.3283 -0.9538  0.3429
 2853SOL     OW20194   3.076   0.051   4.134  0.8162  1.0541 -0.4614
 2853SOL    HW120195   3.057   0.094   4.217 -1.5801  0.8671 -0.9158
 2853SOL    HW220196   3.114   0.115   4.074  3.2481  0.9548  0.9778
 2854SOL     OW20197   0.472   4.653   2.417  0.2036  0.2947  0.3003
 2854SOL    HW120198   0.384   4.655   2.454  0.8318 -0.3782  1.8327
 2854SOL    HW220199   0.523   4.691   2.489  0.1178 -0.0263  0.5280
 2855SOL     OW20200   3.999   0.743   6.248  0.4745 -0.2209 -0.3016
 2855SOL    HW120201   3.955   0.708   6.171  0.8883 -0.3281 -0.4857
 2855SOL    HW220202   3.966   0.697   6.325 -0.9218  0.8189 -0.2636
 2856SOL     OW20203   3.592   2.318   2.549 -0.2097  0.2659 -0.3174
 2856SOL    HW120204   3.599   2.317   2.644 -1.7267  0.3632 -0.1972
 2856SOL    HW220205   3.500   2.291   2.549  0.2343 -1.2472  1.3646
 2857SOL     OW20206   3.725   1.200   8.744  0.1976  0.9118  0.2782
 2857SOL    HW120207   3.630   1.203   8.748  0.2392  1.4878  0.7384
 2857SOL    HW220208   3.741   1.291   8.720  1.3292  0.8140  0.6407
 2858SOL     OW20209   2.941   0.859   4.571 -0.4047 -0.0470  0.0160
 2858SOL    HW120210   3.024   0.902   4.552  0.1361 -0.5631  1.1822
 2858SOL    HW220211   2.908   0.844   4.483  0.6984  0.7546 -0.5404
 2859SOL     OW20212   0.268   2.648   3.587 -0.0842 -0.7406  0.0038
 2859SOL    HW120213   0.320   2.645   3.667 -0.7150 -3.0012  0.3329
 2859SOL    HW220214   0.215   2.570   3.607 -0.3848 -0.4819  0.2273
 2860SOL     OW20215   1.653   1.981   8.849  0.4112  0.1292 -0.3430
 2860SOL    HW120216   1.683   1.900   8.808  3.0187 -0.6703  3.1441
 2860SOL    HW220217   1.736   2.016   8.879 -0.0253 -0.3886  1.5177
 2861SOL     OW20218   1.555   0.132   9.140 -0.0535  0.2657  0.1115
 2861SOL    HW120219   1.645   0.156   9.163  0.5929 -0.3381 -1.7639
 2861SOL    HW220220   1.513   0.217   9.155  0.0352  0.4442 -0.6701
 2862SOL     OW20221   1.753   2.953   3.707 -0.1438  0.2452  0.7438
 2862SOL    HW120222   1.805   2.999   3.772  0.7488  0.4389 -0.1132
 2862SOL    HW220223   1.749   3.022   3.641  1.0649 -0.8275 -0.4526
 2863SOL     OW20224   4.199   0.709   6.599  0.0154 -0.2679 -0.2523
 2863SOL    HW120225   4.256   0.705   6.522  0.0928  0.5261 -0.2382
 2863SOL    HW220226   4.112   0.712   6.561  0.4531 -0.2976 -1.2647
 2864SOL     OW20227   4.135   2.809   1.634 -0.1259 -0.4388  0.6153
 2864SOL    HW120228   4.164   2.786   1.723 -1.4288  1.5092  1.5540
 2864SOL    HW220229   4.145   2.726   1.588  2.3142 -0.1027  0.5118
 2865SOL     OW20230   1.777   3.778  16.379  0.0727 -0.9430 -0.2602
 2865SOL    HW120231   1.820   3.785  16.464  1.9953 -1.9247 -1.1407
 2865SOL    HW220232   1.854   3.795  16.325  0.5014 -1.0546  0.3132
 2866SOL     OW20233   0.822   4.038   4.794 -0.3207 -0.2527  0.6221
 2866SOL    HW120234   0.786   3.959   4.754  0.0734 -1.2305  2.1940
 2866SOL    HW220235   0.805   4.098   4.721 -1.3818 -0.1582  0.9389
 2867SOL     OW20236   3.594   4.159   9.883  0.0175  0.2734 -0.0015
 2867SOL    HW120237   3.683   4.169   9.850 -0.1247 -2.2559 -1.2215
 2867SOL    HW220238   3.564   4.249   9.895 -0.5832 -0.2843  2.6801
 2868SOL     OW20239   0.295   0.922  13.820  0.2093 -0.4315 -0.3207
 2868SOL    HW120240   0.258   0.978  13.752  1.3218  1.5806  0.7464
 2868SOL    HW220241   0.339   0.850  13.776 -3.5139 -1.9319 -1.5814
 2869SOL     OW20242   0.165   1.703   0.286 -0.2020  0.1056 -0.2850
 2869SOL    HW120243   0.232   1.662   0.341  0.1125  0.8134 -0.1389
 2869SOL    HW220244   0.212   1.766   0.230 -1.5484  0.8562 -0.5714
 2870SOL     OW20245   0.712   0.292   7.107 -0.2365 -0.1317  0.2038
 2870SOL    HW120246   0.733   0.211   7.154 -1.1398 -0.0125  0.8082
 2870SOL    HW220247   0.677   0.252   7.027  1.1176 -1.4695  0.2731
 2871SOL     OW20248   1.616   4.098  15.470 -0.1594 -0.3512  1.2731
 2871SOL    HW120249   1.653   4.066  15.388 -0.8099 -0.4602  1.0229
 2871SOL    HW220250   1.619   4.019  15.524 -0.9622 -1.6046 -0.5146
 2872SOL     OW20251   1.745   1.975   5.573 -0.6299 -0.4262  0.0763
 2872SOL    HW120252   1.827   1.980   5.524 -1.4005  0.7565 -1.0875
 2872SOL    HW220253   1.691   1.949   5.498 -2.9800  0.8732  1.3110
 2873SOL     OW20254   0.186   2.603   7.052  0.6140  0.4643  0.3617
 2873SOL    HW120255   0.268   2.580   7.008  0.8929 -0.8592  1.5874
 2873SOL    HW220256   0.122   2.557   6.998  1.2475  0.0193 -0.0058
 2874SOL     OW20257   3.239   2.003   6.915 -0.3912  0.2370 -0.4007
 2874SOL    HW120258   3.279   1.922   6.947 -1.5492 -1.5697 -3.4330
 2874SOL    HW220259   3.294   2.073   6.949  0.4396 -0.3897 -0.4490
 2875SOL     OW20260   2.334   1.637   2.325  0.0034  0.2367  0.0775
 2875SOL    HW120261   2.396   1.634   2.398 -2.0427 -0.4474  1.7971
 2875SOL    HW220262   2.309   1.544   2.322  1.9308 -0.3372  2.2753
 2876SOL     OW20263   3.628   2.602   2.530  0.1490  0.1745 -0.9072
 2876SOL    HW120264   3.705   2.558   2.495 -0.2467 -0.0594 -1.4946
 2876SOL    HW220265   3.648   2.612   2.623 -4.0166  2.8578 -0.2863
 2877SOL     OW20266   2.831   3.085   6.455 -0.9993  0.7301 -0.0247
 2877SOL    HW120267   2.827   3.033   6.535 -2.5538 -0.3640 -0.8247
 2877SOL    HW220268   2.894   3.152   6.483  0.0521  0.4709 -1.7773
 2878SOL     OW20269   2.209   4.028   1.056  0.9678 -0.1984 -0.1880
 2878SOL    HW120270   2.116   4.004   1.056  0.8593  0.2697 -3.2064
 2878SOL    HW220271   2.208   4.093   1.127  0.2337 -1.5211  1.0272
 2879SOL     OW20272   2.669   2.891   3.235 -0.3530  0.2533  0.0350
 2879SOL    HW120273   2.686   2.968   3.289 -3.1443  0.1939  0.9736
 2879SOL    HW220274   2.756   2.854   3.221 -1.4036 -2.0222 -0.6057
 2880SOL     OW20275   0.192   0.180   1.104 -0.0221  0.2534  0.0321
 2880SOL    HW120276   0.114   0.227   1.133  1.1363  2.4673 -0.4975
 2880SOL    HW220277   0.199   0.106   1.165  2.6778  0.3096 -0.1938
 2881SOL     OW20278   2.664   1.414   4.912 -0.4026 -0.5222  0.4593
 2881SOL    HW120279   2.585   1.366   4.886 -0.2516  0.2550 -1.4769
 2881SOL    HW220280   2.670   1.481   4.843  1.9297 -0.6718  0.5365
 2882SOL     OW20281   1.129   2.144  10.493  0.1907 -0.1371  0.2352
 2882SOL    HW120282   1.054   2.139  10.433 -0.8171 -0.4679  1.4979
 2882SOL    HW220283   1.166   2.230  10.473 -3.4781  0.8687 -2.2780
 2883SOL     OW20284   4.313   2.158   8.373  0.4701  0.1665  0.2236
 2883SOL    HW120285   4.257   2.235   8.387  1.8494  1.5009 -1.5119
 2883SOL    HW220286   4.238   2.100   8.384 -0.2699  0.7501 -1.6231
 2884SOL     OW20287   3.095   1.398  17.048 -0.1048 -0.0862  0.2716
 2884SOL    HW120288   3.099   1.324  16.987 -1.4114  0.7231 -0.7722
 2884SOL    HW220289   3.001   1.410  17.054  0.1501  1.3306  1.3815
 2885SOL     OW20290   0.755   2.473   7.401  0.2702  0.1754  0.5219
 2885SOL    HW120291   0.782   2.465   7.492 -1.1346  1.9941  1.1111
 2885SOL    HW220292   0.807   2.414   7.347  1.5426  1.1411  0.6718
 2886SOL     OW20293   0.967   0.372   8.240  0.0551 -0.6033  0.3748
 2886SOL    HW120294   0.918   0.331   8.310  1.5804 -0.6704  1.3888
 2886SOL    HW220295   0.970   0.459   8.280 -0.5550 -0.7582  0.7616
 2887SOL     OW20296   4.687   1.050   7.268 -0.2559  0.1056 -0.1925
 2887SOL    HW120297   4.700   1.139   7.300 -0.3538 -0.1167  0.4656
 2887SOL    HW220298   4.594   1.042   7.288 -0.5969  1.6789 -1.2001
 2888SOL     OW20299   4.359   3.675   4.798 -0.0112 -0.2425  0.4566
 2888SOL    HW120300   4.308   3.720   4.865 -0.9675  0.7335 -0.9321
 2888SOL    HW220301   4.419   3.746   4.773  0.4099 -0.2585  1.4207
 2889SOL     OW20302   2.912   4.355   3.242 -0.2502 -0.2320  0.1588
 2889SOL    HW120303   2.918   4.342   3.337 -0.4438  0.5621  0.2767
 2889SOL    HW220304   2.896   4.449   3.246  2.3832  0.3353 -2.5242
 2890SOL     OW20305   4.537   0.971   9.669 -0.1116 -0.0722  0.3527
 2890SOL    HW120306   4.460   0.936   9.625  0.4746 -1.6278  0.5747
 2890SOL    HW220307   4.552   1.047   9.612 -0.2915 -0.9769 -0.8995
 2891SOL     OW20308   1.907   1.420   5.400 -0.4253 -0.0802  0.0409
 2891SOL    HW120309   1.887   1.449   5.489  0.7355 -1.1327  0.6446
 2891SOL    HW220310   1.989   1.377   5.422 -0.2539  0.3141  0.1608
 2892SOL     OW20311   4.173   1.180   9.520  0.1219 -0.2981  0.4196
 2892SOL    HW120312   4.253   1.220   9.485 -0.8017  0.3607 -0.9413
 2892SOL    HW220313   4.138   1.252   9.573  0.7889 -0.6401  1.3299
 2893SOL     OW20314   0.867   2.368  15.203  0.0169 -0.4161 -0.1030
 2893SOL    HW120315   0.913   2.339  15.282  1.9744  0.5441 -0.8749
 2893SOL    HW220316   0.938   2.407  15.151 -0.1664 -0.4842 -0.3984
 2894SOL     OW20317   0.028   3.382  15.733 -0.3610  0.4729 -0.0070
 2894SOL    HW120318   0.094   3.313  15.727  0.4678  1.3298 -0.6829
 2894SOL    HW220319   4.691   3.340  15.767 -0.2252  0.3594  0.1717
 2895SOL     OW20320   0.897   2.130   3.697  0.1694 -0.3717  0.5455
 2895SOL    HW120321   0.911   2.082   3.616  1.0885  0.8291 -0.0038
 2895SOL    HW220322   0.802   2.128   3.710  0.1467 -2.2343  0.0649
 2896SOL     OW20323   2.531   1.872   3.919 -0.2972  0.2801  0.2597
 2896SOL    HW120324   2.609   1.832   3.957 -0.6221  1.9736  2.6797
 2896SOL    HW220325   2.513   1.925   3.997  2.4048  0.3441  0.8452
 2897SOL     OW20326   3.618   2.021   8.976 -0.2579  0.2262 -0.5930
 2897SOL    HW120327   3.551   2.077   9.015  1.0312  1.0785  0.3977
 2897SOL    HW220328   3.672   2.013   9.055 -1.5636 -0.4521  0.2208
 2898SOL     OW20329   0.353   1.385   8.963 -0.1459 -0.7448 -0.4194
 2898SOL    HW120330   0.348   1.461   9.021  0.1406 -0.5230 -0.6893
 2898SOL    HW220331   0.271   1.400   8.916 -0.9441 -1.2710  0.8093
 2899SOL     OW20332   3.957   2.454   1.959  0.3950  0.3711  0.1553
 2899SOL    HW120333   3.944   2.544   1.991  4.2346  0.5142  1.3729
 2899SOL    HW220334   3.864   2.433   1.958  0.5914 -0.4417 -0.4447
 2900SOL     OW20335   2.029   1.165   9.591  0.2496  0.1789 -0.0235
 2900SOL    HW120336   2.119   1.143   9.616  1.3309  3.1431 -1.2754
 2900SOL    HW220337   1.977   1.107   9.647  0.4459  0.6710  0.6691
 2901SOL     OW20338   2.799   1.689   5.142  0.0607  0.4502 -0.2358
 2901SOL    HW120339   2.859   1.698   5.216 -0.9796 -1.1652  0.8122
 2901SOL    HW220340   2.834   1.628   5.077 -1.6828 -1.3401  0.4802
 2902SOL     OW20341   1.664   2.967  14.763 -0.3743  0.1654  0.7912
 2902SOL    HW120342   1.722   2.902  14.724 -1.8294 -2.3039  2.7959
 2902SOL    HW220343   1.592   2.914  14.796  0.1628 -0.8271  0.3516
 2903SOL     OW20344   1.421   2.579   2.951  0.1763 -0.2090  0.0533
 2903SOL    HW120345   1.332   2.546   2.936 -0.4526  1.2110  0.6688
 2903SOL    HW220346   1.420   2.563   3.045 -0.8128  2.9333  0.5922
 2904SOL     OW20347   3.193   2.965   1.589  0.1610 -0.4624 -0.4983
 2904SOL    HW120348   3.107   2.981   1.628 -0.7470 -0.7227 -2.3921
 2904SOL    HW220349   3.233   2.909   1.655  0.0606  2.9320  2.4669
 2905SOL     OW20350   1.587   0.262   5.953  0.6920  0.0599  0.0125
 2905SOL    HW120351   1.560   0.327   6.017  0.6186 -0.9680  1.0391
 2905SOL    HW220352   1.675   0.290   5.926 -0.3834  1.5669 -1.9194
 2906SOL     OW20353   0.802   1.714  10.744  0.4833 -0.4544  0.6959
 2906SOL    HW120354   0.789   1.713  10.839 -2.6736  0.2103  0.2666
 2906SOL    HW220355   0.819   1.804  10.717  0.6788 -0.4623  0.7969
 2907SOL     OW20356   1.695   2.155   3.535  0.3454 -0.0342 -0.0358
 2907SOL    HW120357   1.604   2.132   3.519  0.2836  0.1093  0.1222
 2907SOL    HW220358   1.711   2.078   3.590  2.8078 -0.3435 -1.1570
 2908SOL     OW20359   1.519   0.082   1.624 -0.2959 -0.1017 -0.4266
 2908SOL    HW120360   1.556   0.144   1.686  0.1578 -1.3645  0.5814
 2908SOL    HW220361   1.587   0.014   1.627 -0.8854 -0.6872 -0.0921
 2909SOL     OW20362   1.020   2.391   0.296  0.0789  0.1225 -0.1479
 2909SOL    HW120363   0.996   2.482   0.311 -0.5228  0.0045 -0.3533
 2909SOL    HW220364   1.027   2.398   0.201  1.4141 -1.3333 -0.1624
 2910SOL     OW20365   2.841   4.238  15.258 -0.0629  0.1057  0.1177
 2910SOL    HW120366   2.845   4.167  15.194 -0.9748 -1.0258  1.2950
 2910SOL    HW220367   2.909   4.293  15.219  0.2612  1.4184  2.5284
 2911SOL     OW20368   3.354   4.420  11.511 -0.0329  0.0134 -0.0704
 2911SOL    HW120369   3.357   4.514  11.494 -1.9570  0.0901  0.0576
 2911SOL    HW220370   3.379   4.421  11.604 -1.4798 -1.7102  0.3330
 2912SOL     OW20371   3.551   1.067   2.798 -0.0435 -0.1580 -0.2702
 2912SOL    HW120372   3.580   1.156   2.776 -1.7942 -0.3284 -3.1750
 2912SOL    HW220373   3.614   1.014   2.749 -0.1106  0.3416 -0.8998
 2913SOL     OW20374   4.385   2.468   7.519 -0.1244  0.0983 -0.0787
 2913SOL    HW120375   4.328   2.496   7.447  0.3876 -2.8147 -1.6009
 2913SOL    HW220376   4.450   2.419   7.468 -1.1408 -0.2418 -1.0542
 2914SOL     OW20377   0.834   1.749   5.309  0.5053  0.0798  0.5649
 2914SOL    HW120378   0.771   1.734   5.379  0.1457 -0.1388  0.1947
 2914SOL    HW220379   0.914   1.707   5.340  0.6401  0.3871  0.6297
 2915SOL     OW20380   4.584   3.007   4.709 -0.3418  0.2261 -0.5811
 2915SOL    HW120381   4.625   2.944   4.768 -0.4680 -0.1407 -0.8873
 2915SOL    HW220382   4.534   3.064   4.768 -0.4784  0.0604 -0.5364
 2916SOL     OW20383   2.158   3.588   3.779  0.2332 -0.6777 -0.3865
 2916SOL    HW120384   2.103   3.583   3.700 -1.1225  1.2538  0.4428
 2916SOL    HW220385   2.242   3.622   3.748 -0.8969  2.0378 -0.4311
 2917SOL     OW20386   0.625   3.272  13.193 -0.3513 -0.7107 -0.0014
 2917SOL    HW120387   0.675   3.351  13.212 -0.5345 -0.8706  1.1430
 2917SOL    HW220388   0.698   3.219  13.160 -0.7290 -1.7560  0.8511
 2918SOL     OW20389   4.189   0.729  10.013 -0.4019  0.3112  0.3636
 2918SOL    HW120390   4.153   0.738   9.924 -0.0438  0.4051  0.2308
 2918SOL    HW220391   4.234   0.813  10.022 -0.5755  0.2675  1.6579
 2919SOL     OW20392   1.188   3.577   0.874 -0.2969  0.0279  0.3218
 2919SOL    HW120393   1.185   3.548   0.783  0.9089  0.5523  0.1111
 2919SOL    HW220394   1.112   3.636   0.871  0.8455  1.4974 -0.0986
 2920SOL     OW20395   3.658   2.135   3.385 -0.1557 -0.2361  0.2530
 2920SOL    HW120396   3.589   2.068   3.384  1.2254 -1.6552  0.6012
 2920SOL    HW220397   3.640   2.176   3.470  0.7266 -1.9791  1.2773
 2921SOL     OW20398   2.936   2.908   7.503  1.1570  0.2770  0.0056
 2921SOL    HW120399   2.941   2.816   7.528 -1.6650  0.3222  0.7749
 2921SOL    HW220400   3.003   2.909   7.435  2.5947  0.4303  1.4270
 2922SOL     OW20401   0.906   4.126  16.237  0.2800  0.7495 -0.2746
 2922SOL    HW120402   0.935   4.175  16.159  1.5745  0.2105 -0.1339
 2922SOL    HW220403   0.815   4.149  16.218  0.0220 -1.6320 -1.8589
 2923SOL     OW20404   3.544   0.603   2.272  0.3236  0.1488  0.2165
 2923SOL    HW120405   3.543   0.649   2.187 -0.6419  2.1551  1.2945
 2923SOL    HW220406   3.525   0.514   2.245  0.8161 -0.5977  2.3800
 2924SOL     OW20407   0.399   2.635   7.448 -0.2189 -0.0250  0.3794
 2924SOL    HW120408   0.374   2.616   7.539  0.1178  0.5365  0.5862
 2924SOL    HW220409   0.484   2.677   7.459 -1.4573  2.9322 -1.3663
 2925SOL     OW20410   2.608   3.751   5.758  0.3355 -0.7734 -0.1983
 2925SOL    HW120411   2.576   3.770   5.669  1.2497  0.3485 -0.2826
 2925SOL    HW220412   2.618   3.658   5.739  1.4849 -0.7113  0.1064
 2926SOL     OW20413   3.260   4.375   4.551  0.0686  0.3100 -0.1577
 2926SOL    HW120414   3.353   4.376   4.529  0.5015 -3.1840  1.4892
 2926SOL    HW220415   3.236   4.456   4.597  2.7265  0.1236  1.5595
 2927SOL     OW20416   2.503   0.904  17.465  0.5853  0.2086 -0.8829
 2927SOL    HW120417   2.494   0.857  17.383  1.5226 -2.0970  0.3453
 2927SOL    HW220418   2.414   0.938  17.480  0.6054 -0.2851  0.3924
 2928SOL     OW20419   1.615   4.526   3.557 -0.1175 -0.1685 -0.4819
 2928SOL    HW120420   1.615   4.520   3.652 -0.1064 -0.0898 -0.4765
 2928SOL    HW220421   1.652   4.614   3.541 -0.5004  0.2099  0.7366
 2929SOL     OW20422   1.263   2.827   6.662 -0.4698 -0.4098 -0.5268
 2929SOL    HW120423   1.284   2.867   6.578 -0.2606  2.0986  0.7327
 2929SOL    HW220424   1.265   2.733   6.642 -1.3289  0.2902 -3.8888
 2930SOL     OW20425   0.728   1.448   4.135  0.3374  0.0425  0.5104
 2930SOL    HW120426   0.780   1.481   4.062  0.1274 -0.2626  0.2253
 2930SOL    HW220427   0.648   1.413   4.095  0.1273  1.3674 -0.2431
 2931SOL     OW20428   2.254   3.732   1.868  0.0254 -0.0517  0.3061
 2931SOL    HW120429   2.240   3.640   1.845  1.6536  0.1427 -1.4723
 2931SOL    HW220430   2.192   3.788   1.821 -0.1394  0.5521  1.2530
 2932SOL     OW20431   0.118   4.457   6.697 -0.0962 -0.0277 -0.8385
 2932SOL    HW120432   0.192   4.402   6.672 -0.9311 -2.0403  1.1625
 2932SOL    HW220433   0.050   4.398   6.730  0.7131 -1.7087 -2.1819
 2933SOL     OW20434   0.773   3.819   6.752  0.2335 -0.4435 -0.2971
 2933SOL    HW120435   0.682   3.794   6.764  0.4134 -0.8015  0.3436
 2933SOL    HW220436   0.761   3.914   6.759 -0.9693 -0.6563  0.5386
 2934SOL     OW20437   3.991   0.896  12.933  0.2108 -0.3734  0.2163
 2934SOL    HW120438   4.086   0.879  12.933  0.6983  2.3967  0.3106
 2934SOL    HW220439   3.987   0.990  12.916  1.8958 -0.2636  0.3520
 2935SOL     OW20440   0.942   2.534   9.792  0.0898 -0.5963  0.2499
 2935SOL    HW120441   0.869   2.487   9.831  1.0534 -0.6864  1.9451
 2935SOL    HW220442   0.976   2.577   9.871  0.8182 -0.9701  0.1422
 2936SOL     OW20443   1.245   3.060  14.590 -0.1924  0.3462 -0.1856
 2936SOL    HW120444   1.338   3.084  14.596 -0.4028  1.3987 -1.0408
 2936SOL    HW220445   1.209   3.120  14.525  1.3003  1.4353 -0.0259
 2937SOL     OW20446   3.691   4.170   5.992 -0.1901 -0.0989  0.2124
 2937SOL    HW120447   3.766   4.166   6.052  0.9097  1.4323 -1.0669
 2937SOL    HW220448   3.719   4.087   5.952  0.0422  0.8938 -1.6398
 2938SOL     OW20449   3.366   3.799   9.556  0.2999  0.2052 -0.0951
 2938SOL    HW120450   3.352   3.894   9.559  0.5356  0.1716  1.8839
 2938SOL    HW220451   3.276   3.776   9.579  1.2967 -3.7407 -0.0865
 2939SOL     OW20452   3.598   2.140   7.618  0.4859 -0.3388 -0.1128
 2939SOL    HW120453   3.552   2.210   7.664  0.2976  0.5937 -1.7248
 2939SOL    HW220454   3.677   2.184   7.589  1.4926 -0.8506  1.8892
 2940SOL     OW20455   0.187   4.177   5.732 -0.0138 -0.5493 -0.5520
 2940SOL    HW120456   0.248   4.242   5.698 -2.4205  2.0691  0.1764
 2940SOL    HW220457   0.188   4.104   5.670  1.7448 -0.6250 -0.4408
 2941SOL     OW20458   0.859   0.666   1.973 -0.0357  0.6308  0.5026
 2941SOL    HW120459   0.833   0.574   1.972  2.1571  0.0111  0.8982
 2941SOL    HW220460   0.955   0.659   1.970 -0.2058 -1.8808  0.5152
 2942SOL     OW20461   2.037   3.327   3.856  0.3119  0.0909 -0.4201
 2942SOL    HW120462   1.973   3.385   3.817 -0.3093 -0.2721  0.0618
 2942SOL    HW220463   2.118   3.373   3.835  0.9531 -0.1237  1.5593
 2943SOL     OW20464   3.972   0.368   4.000 -0.0888 -0.0140  0.1590
 2943SOL    HW120465   3.928   0.397   4.080  2.1872 -1.1184  1.7911
 2943SOL    HW220466   3.928   0.286   3.978  3.2033 -2.1251  1.4754
 2944SOL     OW20467   1.076   0.209   3.418 -0.1021 -0.0507 -0.2676
 2944SOL    HW120468   0.985   0.181   3.421 -0.3442  0.8657  1.0024
 2944SOL    HW220469   1.109   0.149   3.352 -0.8852 -0.5803 -0.1790
 2945SOL     OW20470   1.501   2.309   2.257  0.0928 -0.1839  0.1117
 2945SOL    HW120471   1.573   2.308   2.320 -0.4318  0.2553  0.7259
 2945SOL    HW220472   1.426   2.300   2.317 -1.2565 -0.2095 -1.5925
 2946SOL     OW20473   1.474   1.329   2.471 -0.1821  0.7649 -0.1600
 2946SOL    HW120474   1.555   1.286   2.495  0.5515  0.7825 -2.5538
 2946SOL    HW220475   1.503   1.388   2.401 -1.3286  1.3979 -0.0990
 2947SOL     OW20476   3.676   3.468   8.318  0.0791 -0.0822 -0.6889
 2947SOL    HW120477   3.725   3.421   8.250  2.0187  2.0322 -0.7794
 2947SOL    HW220478   3.599   3.486   8.264  0.1512  1.5827 -0.2416
 2948SOL     OW20479   3.571   1.041   1.687 -1.0433  0.0678 -0.5987
 2948SOL    HW120480   3.599   1.129   1.661 -0.2057  0.1317  0.4861
 2948SOL    HW220481   3.589   0.994   1.606 -1.1179 -0.1758 -0.4733
 2949SOL     OW20482   2.367   3.348  13.789  0.1433 -0.3851  0.1874
 2949SOL    HW120483   2.286   3.398  13.796  2.5343  3.3659  1.0104
 2949SOL    HW220484   2.362   3.288  13.863  0.2805 -0.2262  0.3251
 2950SOL     OW20485   4.087   2.165   0.296  0.0504 -0.1641  0.4458
 2950SOL    HW120486   4.001   2.144   0.258 -0.1204  3.1983 -1.0214
 2950SOL    HW220487   4.097   2.094   0.359  0.5614 -2.2735 -2.0281
 2951SOL     OW20488   2.418   4.609   8.847 -0.1796 -0.2739 -0.2616
 2951SOL    HW120489   2.468   4.689   8.829 -0.8605 -0.2405 -1.9953
 2951SOL    HW220490   2.325   4.631   8.836  0.5294  1.5296 -2.5579
 2952SOL     OW20491   4.245   1.624   6.863  0.1298  0.1351 -0.2301
 2952SOL    HW120492   4.318   1.616   6.802  0.2427  1.6760 -0.3059
 2952SOL    HW220493   4.267   1.714   6.887 -0.2001 -0.0679  0.8508
 2953SOL     OW20494   1.445   4.712  15.218  0.4000  0.6844 -0.6556
 2953SOL    HW120495   1.351   4.726  15.210 -0.0871 -2.5361 -0.8154
 2953SOL    HW220496   1.448   4.656  15.296 -1.2399  2.1023  0.4192
 2954SOL     OW20497   2.028   3.513   2.699 -0.2875 -0.6864  0.1706
 2954SOL    HW120498   1.974   3.585   2.666  0.0270  0.0801  1.3305
 2954SOL    HW220499   1.960   3.446   2.710 -1.4438  0.3117 -0.9364
 2955SOL     OW20500   0.894   0.914  10.388 -0.7670  0.0432 -0.1700
 2955SOL    HW120501   0.908   0.951  10.301  0.3590 -1.4842 -0.6317
 2955SOL    HW220502   0.979   0.880  10.415 -0.0316 -0.8058 -3.5344
 2956SOL     OW20503   4.686   0.491   1.905 -0.3871 -0.3994 -0.3097
 2956SOL    HW120504   0.027   0.480   1.949  0.5699 -0.7097 -2.1800
 2956SOL    HW220505   4.628   0.444   1.964 -0.4407  0.4318  0.2935
 2957SOL     OW20506   0.714   1.666   7.121  0.5119 -0.2514  0.2229
 2957SOL    HW120507   0.704   1.675   7.216  1.4518  0.2523  0.2752
 2957SOL    HW220508   0.627   1.635   7.097  0.1931  0.7884  0.0376
 2958SOL     OW20509   3.335   3.706  10.474  0.3042 -0.2280 -0.6967
 2958SOL    HW120510   3.327   3.610  10.477 -0.3370 -0.1445  0.5722
 2958SOL    HW220511   3.388   3.747  10.541  0.1727 -0.1847 -0.6187
 2959SOL     OW20512   3.386   1.844  16.089  0.4615 -0.1991 -0.8446
 2959SOL    HW120513   3.437   1.766  16.068  0.1271 -0.2660 -1.4198
 2959SOL    HW220514   3.397   1.844  16.184  1.9517 -0.1969 -1.0080
 2960SOL     OW20515   3.835   0.463  16.801 -0.4060 -0.3431  0.0976
 2960SOL    HW120516   3.827   0.551  16.838  0.8417  1.1735 -3.2248
 2960SOL    HW220517   3.864   0.472  16.711 -0.3181 -0.7108  0.0885
 2961SOL     OW20518   0.676   4.469   8.284  0.6457  0.0713  0.3162
 2961SOL    HW120519   0.596   4.508   8.321  1.2664 -0.8684  2.6692
 2961SOL    HW220520   0.724   4.552   8.277 -0.0571  0.5228  0.7767
 2962SOL     OW20521   1.228   1.316   7.315 -0.3898  0.6855  0.0899
 2962SOL    HW120522   1.150   1.342   7.266  0.2156  1.8474 -0.2653
 2962SOL    HW220523   1.243   1.227   7.284  1.3067  1.6854 -1.9971
 2963SOL     OW20524   3.067   4.349  15.180 -0.3138  0.2582 -0.0471
 2963SOL    HW120525   3.080   4.356  15.274 -1.4221  0.6857  0.0757
 2963SOL    HW220526   3.155   4.377  15.156 -0.8835 -1.1169 -3.7203
 2964SOL     OW20527   1.045   0.741   5.579 -0.4293  0.0342 -0.1317
 2964SOL    HW120528   1.089   0.816   5.539  0.9775 -0.9858 -0.4582
 2964SOL    HW220529   1.098   0.670   5.545  0.1517  0.3553  0.0953
 2965SOL     OW20530   4.589   3.133   0.242  0.2684  0.4742 -0.3132
 2965SOL    HW120531   4.670   3.178   0.220  0.9479 -0.0945  0.9987
 2965SOL    HW220532   4.608   3.120   0.335 -2.8946  0.2984  0.3289
 2966SOL     OW20533   0.053   1.969   4.172  0.2583  0.1206 -0.1195
 2966SOL    HW120534   0.015   1.933   4.093  0.4408  0.1946 -0.2413
 2966SOL    HW220535   0.146   1.961   4.148  0.9253  0.5997  2.2382
 2967SOL     OW20536   0.440   3.376   5.955  0.0880 -0.2046 -0.5251
 2967SOL    HW120537   0.449   3.280   5.960 -0.7719 -0.2386  0.4722
 2967SOL    HW220538   0.423   3.396   6.047 -0.9934  1.3280 -1.0573
 2968SOL     OW20539   1.667   1.467   7.074 -0.0037  0.4154  0.1292
 2968SOL    HW120540   1.710   1.546   7.105 -0.4465  1.3235 -1.5949
 2968SOL    HW220541   1.626   1.496   6.993  0.0464 -0.7038 -0.2946
 2969SOL     OW20542   0.921   3.597   8.428 -0.0469  0.2585  0.2171
 2969SOL    HW120543   1.000   3.548   8.406  0.1246  0.7769 -0.3318
 2969SOL    HW220544   0.922   3.668   8.363 -0.4328  0.9784  1.0037
 2970SOL     OW20545   4.221   0.152   4.446 -0.5377 -1.1477  0.3610
 2970SOL    HW120546   4.140   0.108   4.422 -1.1712  0.4740 -0.4451
 2970SOL    HW220547   4.217   0.226   4.385 -0.2474 -1.5870 -0.1951
 2971SOL     OW20548   1.155   4.099   2.746 -0.3411 -0.1300 -0.2195
 2971SOL    HW120549   1.102   4.025   2.775  0.9056  0.3945  3.4288
 2971SOL    HW220550   1.097   4.138   2.682  0.7043  2.5409  0.4486
 2972SOL     OW20551   1.901   2.394   7.076  0.0920 -0.6665 -0.8988
 2972SOL    HW120552   1.941   2.388   7.163 -0.7866 -1.4175 -0.5432
 2972SOL    HW220553   1.843   2.469   7.092  0.2956 -0.8998  0.9687
 2973SOL     OW20554   4.116   2.657   4.044  0.0579 -0.8210  0.5524
 2973SOL    HW120555   4.146   2.698   3.963  0.9744 -4.2280 -0.8438
 2973SOL    HW220556   4.180   2.586   4.036  0.6775 -0.2353  0.3333
 2974SOL     OW20557   0.299   1.470   6.298 -0.2491  0.5984  0.3604
 2974SOL    HW120558   0.392   1.467   6.323 -0.5721 -2.6324  1.2475
 2974SOL    HW220559   0.275   1.561   6.287 -0.1527  0.4474 -1.0534
 2975SOL     OW20560   2.167   3.885   8.334 -0.1551  0.4261 -0.3491
 2975SOL    HW120561   2.171   3.853   8.424  3.1422 -0.1502 -0.6966
 2975SOL    HW220562   2.254   3.926   8.331 -0.7054  1.7412  1.8764
 2976SOL     OW20563   4.732   2.196  12.285  0.0010  0.4594  0.2429
 2976SOL    HW120564   4.653   2.165  12.329  0.3890 -0.1708  0.4851
 2976SOL    HW220565   0.029   2.113  12.259 -0.8572  0.2151 -0.2663
 2977SOL     OW20566   0.435   1.445   9.754 -0.4643  0.3438  0.1575
 2977SOL    HW120567   0.448   1.422   9.662  0.5461 -4.1949  1.4347
 2977SOL    HW220568   0.363   1.385   9.770 -0.5119 -0.1195 -1.7668
 2978SOL     OW20569   0.125   2.842  16.778  0.4935 -0.2627 -0.1135
 2978SOL    HW120570   0.113   2.878  16.866  1.5702 -1.1358  0.3890
 2978SOL    HW220571   0.117   2.748  16.789  0.2693  0.1289  3.2310
 2979SOL     OW20572   2.377   0.368   9.667 -0.4583 -0.5392  0.3314
 2979SOL    HW120573   2.453   0.314   9.687 -0.5174 -2.0040 -3.3368
 2979SOL    HW220574   2.323   0.361   9.746  0.8384  2.8951  1.5089
 2980SOL     OW20575   3.482   0.709  12.917 -0.5031  0.2491 -0.3128
 2980SOL    HW120576   3.563   0.760  12.918 -1.5996  1.8935  3.2137
 2980SOL    HW220577   3.511   0.630  12.872  0.8285  1.7466 -2.0794
 2981SOL     OW20578   1.660   4.129   3.808 -0.0708 -0.1009  0.3858
 2981SOL    HW120579   1.576   4.174   3.811  0.6147  1.0649  1.8600
 2981SOL    HW220580   1.683   4.137   3.900 -0.6162  1.6428  0.3730
 2982SOL     OW20581   3.854   0.239   4.620  0.4227  0.5887  0.9696
 2982SOL    HW120582   3.786   0.262   4.684  0.9241 -1.5203  2.2565
 2982SOL    HW220583   3.909   0.178   4.670  0.4075 -0.0735  0.1674
 2983SOL     OW20584   4.563   3.859  11.368  0.0895 -0.2017 -0.6501
 2983SOL    HW120585   4.605   3.931  11.414  1.1076 -1.3803  0.2767
 2983SOL    HW220586   4.488   3.907  11.334  0.4819  0.7733 -0.1317
 2984SOL     OW20587   4.661   1.343   4.590  0.2386 -0.2637  0.4633
 2984SOL    HW120588   4.638   1.404   4.661 -0.7019 -0.8232  0.6406
 2984SOL    HW220589   4.583   1.294   4.566  0.0922  0.4264 -0.4792
 2985SOL     OW20590   3.766   1.873  15.024  0.3775  0.0872 -0.0794
 2985SOL    HW120591   3.790   1.932  14.952 -1.6449  0.0214 -0.8087
 2985SOL    HW220592   3.794   1.785  14.998  2.4179  0.1319  1.9370
 2986SOL     OW20593   1.476   4.350   3.827 -0.3291 -0.6321 -0.0502
 2986SOL    HW120594   1.451   4.346   3.920 -0.8952  0.9893 -0.1344
 2986SOL    HW220595   1.516   4.436   3.823 -1.2698 -0.1434  1.0501
 2987SOL     OW20596   2.226   2.611  10.770  0.3025  0.0156  0.2736
 2987SOL    HW120597   2.234   2.657  10.853  1.4582  1.2319 -0.5010
 2987SOL    HW220598   2.172   2.535  10.793 -1.9969  1.5255 -0.1634
 2988SOL     OW20599   3.007   4.740   3.021  0.0741  0.0299  0.2175
 2988SOL    HW120600   2.966   0.064   2.966 -2.5087 -0.4247  1.5788
 2988SOL    HW220601   3.021   4.678   2.950 -0.8650  1.4952 -1.2556
 2989SOL     OW20602   0.931   2.214   4.383 -0.5284 -0.3443  0.1763
 2989SOL    HW120603   1.012   2.236   4.431 -0.2133 -1.6235  0.2361
 2989SOL    HW220604   0.873   2.183   4.453 -2.3347  0.4952 -0.9836
 2990SOL     OW20605   1.552   4.254   6.371 -0.1007  0.4255  0.1664
 2990SOL    HW120606   1.527   4.344   6.352  0.1528  0.1474 -1.5181
 2990SOL    HW220607   1.515   4.230   6.456  0.2820  1.8301  0.7196
 2991SOL     OW20608   2.944   3.636   3.132  0.6901 -0.4395  0.1217
 2991SOL    HW120609   2.850   3.617   3.127  1.4794 -4.7037  2.0268
 2991SOL    HW220610   2.962   3.627   3.039  2.0809  0.1461  0.3305
 2992SOL     OW20611   4.317   1.511   5.503 -0.6168 -0.1172  0.0549
 2992SOL    HW120612   4.331   1.442   5.438  2.0836 -1.4387  2.0217
 2992SOL    HW220613   4.406   1.532   5.532 -0.1095 -2.3728  0.1019
 2993SOL     OW20614   3.155   1.280   8.296  0.2915  0.5883  0.4868
 2993SOL    HW120615   3.154   1.207   8.358 -0.8449 -0.5512 -0.8998
 2993SOL    HW220616   3.061   1.295   8.288  0.1035 -2.7784 -3.2997
 2994SOL     OW20617   1.308   1.704   2.787  0.1566  0.7025 -0.2695
 2994SOL    HW120618   1.283   1.791   2.818 -0.9049  0.3051 -0.0297
 2994SOL    HW220619   1.226   1.668   2.753  0.8521  0.7286 -1.9888
 2995SOL     OW20620   2.605   4.227   7.558 -0.1628  0.2091  0.0698
 2995SOL    HW120621   2.600   4.137   7.589  0.4244  0.4151  0.7503
 2995SOL    HW220622   2.680   4.269   7.600  1.6378 -2.3474 -0.6047
 2996SOL     OW20623   1.422   2.040   5.142 -0.3643  0.3392 -0.2069
 2996SOL    HW120624   1.354   1.974   5.156  0.5055  0.0020  2.2930
 2996SOL    HW220625   1.393   2.107   5.204  0.0463  2.6580 -2.4963
 2997SOL     OW20626   1.631   1.481   3.578 -0.0102 -0.2197 -0.2488
 2997SOL    HW120627   1.635   1.393   3.614  1.8934  0.1206  0.3904
 2997SOL    HW220628   1.678   1.480   3.495  0.8325  1.7921  0.1944
 2998SOL     OW20629   1.009   1.838   6.597  0.0235 -0.2857  0.4039
 2998SOL    HW120630   1.088   1.887   6.573 -1.8528  1.0395 -2.9528
 2998SOL    HW220631   1.059   1.767   6.637 -0.6503 -0.2067  1.3976
 2999SOL     OW20632   2.695   1.161   4.371 -0.1135  0.6119 -0.1618
 2999SOL    HW120633   2.779   1.149   4.326 -0.2854 -1.3133  0.0058
 2999SOL    HW220634   2.719   1.168   4.463 -0.1869 -0.9125 -0.0282
 3000SOL     OW20635   3.397   0.626   3.240  0.1159 -0.5451 -0.3430
 3000SOL    HW120636   3.379   0.563   3.171  0.8676  0.4150 -1.4231
 3000SOL    HW220637   3.309   0.635   3.275 -0.1760  0.2275 -1.2557
 3001SOL     OW20638   1.421   2.056   5.681 -0.0661  0.5041  0.1731
 3001SOL    HW120639   1.433   2.023   5.770  0.8686  1.2178  0.3146
 3001SOL    HW220640   1.508   2.050   5.639  0.1102  0.0804  0.6027
 3002SOL     OW20641   1.801   3.309   7.142 -0.3425 -0.8451 -0.2149
 3002SOL    HW120642   1.828   3.220   7.117 -0.9637 -1.4018  1.1138
 3002SOL    HW220643   1.748   3.338   7.067  1.2630  0.9123 -0.6512
 3003SOL     OW20644   1.935   0.784  17.670 -0.0586  0.0647  0.0008
 3003SOL    HW120645   1.997   0.784  17.597  1.1774  0.5630  1.0477
 3003SOL    HW220646   1.945   0.868  17.715 -0.2874  0.1416 -0.0959
 3004SOL     OW20647   1.291   2.917   4.350  0.4205 -0.3819  0.8461
 3004SOL    HW120648   1.224   2.913   4.419 -0.7294 -1.8739 -0.3556
 3004SOL    HW220649   1.282   3.004   4.313  0.2616 -0.5585  0.4655
 3005SOL     OW20650   1.310   3.107  17.765  0.0112  0.5984 -0.3185
 3005SOL    HW120651   1.278   3.074  17.681  1.3092  0.6917 -0.8575
 3005SOL    HW220652   1.237   3.084   0.055  1.4438 -1.7274  0.5776
 3006SOL     OW20653   2.654   4.218   3.468 -0.0513 -0.3020  0.0887
 3006SOL    HW120654   2.703   4.173   3.399 -0.8759 -0.0028 -0.6835
 3006SOL    HW220655   2.693   4.181   3.548  1.3622  0.2715 -0.3399
 3007SOL     OW20656   2.874   2.906   4.331  0.0948  0.1323  0.0319
 3007SOL    HW120657   2.940   2.872   4.392  2.3369  3.2472 -0.6296
 3007SOL    HW220658   2.809   2.940   4.392 -0.5453  0.4920 -0.8607
 3008SOL     OW20659   3.008   0.804   4.827  0.0786  0.9573  0.7365
 3008SOL    HW120660   3.061   0.874   4.865  2.4072  0.3620 -1.4423
 3008SOL    HW220661   2.961   0.850   4.758  0.3393 -0.0972 -0.1525
 3009SOL     OW20662   1.852   1.051   4.473 -0.3867  0.0241  0.1312
 3009SOL    HW120663   1.785   1.014   4.531  0.1630 -1.5007 -0.1823
 3009SOL    HW220664   1.912   0.976   4.477  0.6825  0.8226 -1.0411
 3010SOL     OW20665   0.452   0.238  16.578 -0.1950 -0.1515 -0.1161
 3010SOL    HW120666   0.472   0.163  16.523 -3.3050 -0.0885 -1.2955
 3010SOL    HW220667   0.452   0.209  16.670 -0.5432  2.9409  0.8638
 3011SOL     OW20668   3.419   1.267   3.337  0.2558  0.4918  0.0783
 3011SOL    HW120669   3.377   1.317   3.267 -0.4234 -0.5574 -0.2746
 3011SOL    HW220670   3.420   1.179   3.299 -1.0752  0.4855  0.0625
 3012SOL     OW20671   4.626   3.471   7.550  0.4034 -0.2652 -0.0090
 3012SOL    HW120672   4.645   3.428   7.633  1.9889  2.5897  1.1090
 3012SOL    HW220673   4.530   3.474   7.548  0.3581  0.7732  3.3063
 3013SOL     OW20674   4.616   0.494   3.337 -0.1953  0.0390 -0.0415
 3013SOL    HW120675   4.692   0.448   3.301 -0.8357 -1.5176  0.5917
 3013SOL    HW220676   4.552   0.468   3.271 -0.9432 -0.1336  0.7409
 3014SOL     OW20677   0.204   0.727   5.271  0.6082  0.2600  0.0898
 3014SOL    HW120678   0.282   0.682   5.237  0.6111 -0.2674  0.7956
 3014SOL    HW220679   0.211   0.697   5.362  0.6236 -0.1868 -0.0552
 3015SOL     OW20680   2.540   3.011  17.621  0.1108 -0.3082  0.4545
 3015SOL    HW120681   2.520   2.949  17.691 -0.2593 -1.2863 -0.5015
 3015SOL    HW220682   2.479   2.983  17.552  1.4614 -1.9177 -0.0789
 3016SOL     OW20683   2.529   2.202   1.274 -0.4190  0.0502  0.3328
 3016SOL    HW120684   2.496   2.129   1.221  1.1827  0.4233 -1.1369
 3016SOL    HW220685   2.471   2.180   1.348  0.1834  1.8151  1.3323
 3017SOL     OW20686   1.769   2.365   0.484  0.1338 -0.4490  0.1717
 3017SOL    HW120687   1.679   2.335   0.475  0.3049 -0.9906  0.2697
 3017SOL    HW220688   1.780   2.394   0.394  0.2955  0.8666  0.6234
 3018SOL     OW20689   0.800   1.613   6.634 -0.2555 -0.2204 -0.2231
 3018SOL    HW120690   0.794   1.687   6.572  2.1132  1.1750  1.2248
 3018SOL    HW220691   0.895   1.609   6.647 -0.1450  1.1002 -0.5802
 3019SOL     OW20692   3.824   4.025  12.986  0.4377  0.1784 -0.4434
 3019SOL    HW120693   3.735   4.051  13.010  0.9544 -1.2855  3.0992
 3019SOL    HW220694   3.815   3.930  12.999 -2.0226  0.4381 -0.2457
 3020SOL     OW20695   1.298   1.408   7.577  0.1111  0.1905  0.0908
 3020SOL    HW120696   1.349   1.336   7.614 -0.1233 -0.7348 -1.3871
 3020SOL    HW220697   1.271   1.377   7.491 -0.2419  2.9914 -0.8212
 3021SOL     OW20698   4.515   0.142   4.493 -0.5484 -0.2896  0.4316
 3021SOL    HW120699   4.520   0.127   4.399  0.4253  2.8571 -0.0108
 3021SOL    HW220700   4.419   0.141   4.498 -0.3889 -0.8563  3.4976
 3022SOL     OW20701   1.441   2.192   7.526  0.1374  0.3590  0.9292
 3022SOL    HW120702   1.497   2.115   7.529 -1.8997 -1.1304  0.6555
 3022SOL    HW220703   1.427   2.206   7.432  0.7924  0.0542  0.7818
 3023SOL     OW20704   4.426   4.536   9.206  0.6283 -0.2666 -0.3355
 3023SOL    HW120705   4.385   4.492   9.132  1.5307 -0.0511 -0.9542
 3023SOL    HW220706   4.378   4.617   9.225  1.7920  0.5918 -1.0768
 3024SOL     OW20707   2.972   0.764   3.657  0.3133  0.0124 -0.1015
 3024SOL    HW120708   3.005   0.839   3.706  2.1665  0.3475 -1.8837
 3024SOL    HW220709   3.055   0.740   3.616  0.3752 -0.4774  0.3152
 3025SOL     OW20710   4.252   0.450   9.340  0.4302  0.7059  0.5381
 3025SOL    HW120711   4.237   0.544   9.328 -0.8904  0.3281 -0.7855
 3025SOL    HW220712   4.347   0.451   9.355  0.7707  3.6117 -1.6630
 3026SOL     OW20713   3.519   2.701   1.825  0.1643 -0.0992  0.1811
 3026SOL    HW120714   3.520   2.624   1.881  1.4367  0.3774  0.8273
 3026SOL    HW220715   3.435   2.700   1.780 -0.3819 -1.1223  1.2199
 3027SOL     OW20716   1.250   2.055   4.080  0.0819  0.2526 -0.1032
 3027SOL    HW120717   1.163   2.082   4.050 -0.0885 -0.3682 -0.1615
 3027SOL    HW220718   1.276   2.142   4.111 -0.7580  0.1934  0.7775
 3028SOL     OW20719   4.478   1.540   6.161 -0.2063  0.1121  0.1431
 3028SOL    HW120720   4.573   1.525   6.155 -0.3767 -1.4324  1.3380
 3028SOL    HW220721   4.443   1.510   6.078  0.8680  1.1034 -0.6738
 3029SOL     OW20722   2.581   1.911   6.814  0.3419 -0.6721  0.3874
 3029SOL    HW120723   2.506   1.946   6.764  1.4849 -0.0123 -0.8641
 3029SOL    HW220724   2.627   1.870   6.741  2.4606  1.6445  0.4290
 3030SOL     OW20725   2.580   1.179   2.716 -0.2821 -0.0055  0.4532
 3030SOL    HW120726   2.580   1.261   2.764  0.0208  1.4079 -1.9716
 3030SOL    HW220727   2.583   1.203   2.623 -0.3248  0.2275  0.5128
 3031SOL     OW20728   4.662   4.228   8.624  0.2785  0.1691  0.1515
 3031SOL    HW120729   4.705   4.290   8.565  0.6584 -0.8067 -0.6109
 3031SOL    HW220730   4.723   4.155   8.610  2.2367  1.3106  2.9022
 3032SOL     OW20731   2.048   3.863   4.729  0.3956 -0.1366 -0.0892
 3032SOL    HW120732   2.007   3.828   4.808 -2.4194  0.4429 -1.3078
 3032SOL    HW220733   2.139   3.838   4.747 -0.5627 -2.1025  1.9962
 3033SOL     OW20734   3.888   0.228   9.920  0.4768 -0.3757 -0.3672
 3033SOL    HW120735   3.864   0.209  10.010  0.3098  0.1527 -0.3026
 3033SOL    HW220736   3.955   0.165   9.894  0.7646 -0.3991  0.4263
 3034SOL     OW20737   3.524   1.124   1.204 -0.0047 -0.1854  0.4570
 3034SOL    HW120738   3.508   1.143   1.111  1.0250 -1.2332  0.0791
 3034SOL    HW220739   3.618   1.143   1.211 -0.1279  0.8459 -0.6212
 3035SOL     OW20740   4.505   4.004   2.676  0.1159 -0.3694 -0.1208
 3035SOL    HW120741   4.558   3.944   2.729  0.5202 -2.5959 -2.9690
 3035SOL    HW220742   4.573   4.065   2.647 -0.4541  0.1369 -0.3899
 3036SOL     OW20743   0.998   2.756   4.772  0.1377 -0.5158 -0.6426
 3036SOL    HW120744   0.922   2.718   4.728 -0.7976 -1.0056  1.3487
 3036SOL    HW220745   1.017   2.823   4.706 -1.5993  0.1255 -0.4923
 3037SOL     OW20746   2.756   3.917   8.809 -0.0777 -0.0745 -0.1893
 3037SOL    HW120747   2.760   4.002   8.854  0.8712 -0.7631  1.0209
 3037SOL    HW220748   2.679   3.931   8.753 -1.9118 -1.9354  1.8808
 3038SOL     OW20749   0.628   0.163  12.540 -0.2563  0.4371  0.3902
 3038SOL    HW120750   0.720   0.179  12.564  0.4743 -2.3021 -0.5794
 3038SOL    HW220751   0.618   0.250  12.502 -1.3165  0.3067  0.3878
 3039SOL     OW20752   2.276   1.286   0.990 -0.0646  0.3324  0.3334
 3039SOL    HW120753   2.256   1.272   1.083 -1.2930  0.2893  0.0646
 3039SOL    HW220754   2.333   1.361   1.005  0.9877 -0.4308  0.1646
 3040SOL     OW20755   1.196   2.750   3.000  0.2852  0.2529  0.6171
 3040SOL    HW120756   1.152   2.673   2.965  0.9449 -0.0596  0.4740
 3040SOL    HW220757   1.174   2.816   2.935 -2.2465  1.0320  2.2626
 3041SOL     OW20758   0.243   1.875  17.001  0.5544 -0.1821  0.2027
 3041SOL    HW120759   0.220   1.815  17.072  0.6457  1.3245  1.5098
 3041SOL    HW220760   0.154   1.908  16.988  0.3952 -0.6477  0.1197
 3042SOL     OW20761   1.481   4.215   2.531 -0.7089 -0.0425 -0.1074
 3042SOL    HW120762   1.443   4.157   2.465 -1.6759  0.7395 -0.2403
 3042SOL    HW220763   1.411   4.280   2.532 -1.9769 -1.4035  0.4458
 3043SOL     OW20764   4.566   3.496   9.552  0.3269  0.0101 -0.2694
 3043SOL    HW120765   4.506   3.540   9.612  0.2746  1.1048 -1.1140
 3043SOL    HW220766   4.646   3.548   9.562  0.5374 -0.6656  1.5600
 3044SOL     OW20767   1.117   0.864   8.456 -0.5446  0.1605  0.4763
 3044SOL    HW120768   1.025   0.846   8.474 -0.3657 -0.4056  0.8233
 3044SOL    HW220769   1.122   0.959   8.443  0.2261  0.0471 -0.0704
 3045SOL     OW20770   2.911   2.981   4.926  0.8054 -0.0143  0.0618
 3045SOL    HW120771   2.929   2.888   4.907 -2.8449 -0.6443 -0.3286
 3045SOL    HW220772   2.859   2.973   5.006  1.1123  0.1197  0.2769
 3046SOL     OW20773   3.419   3.546  15.906  0.6080  0.2813  0.8007
 3046SOL    HW120774   3.340   3.587  15.871  0.6307  0.3439  0.8220
 3046SOL    HW220775   3.385   3.515  15.990  0.6893 -1.1274  0.3110
 3047SOL     OW20776   4.362   0.146   8.223 -0.2052  0.5193 -0.0296
 3047SOL    HW120777   4.448   0.178   8.195  0.6325 -1.9454 -0.2216
 3047SOL    HW220778   4.310   0.166   8.145 -0.3398  1.3190  0.2614
 3048SOL     OW20779   1.985   2.964   7.437  0.1049  0.3197 -0.4937
 3048SOL    HW120780   2.001   2.902   7.366  1.2013  1.5851 -1.3622
 3048SOL    HW220781   2.004   3.051   7.400  1.6038  0.5701  0.8798
 3049SOL     OW20782   3.548   2.093   7.332  0.1287 -0.1531  0.0820
 3049SOL    HW120783   3.519   2.089   7.423  0.2299 -1.4555  0.0654
 3049SOL    HW220784   3.527   2.007   7.295  0.7968 -1.2163  2.1882
 3050SOL     OW20785   3.561   1.005  14.210  0.0536  0.6891 -0.7076
 3050SOL    HW120786   3.473   1.041  14.212 -0.2850 -0.3326  2.4212
 3050SOL    HW220787   3.586   1.017  14.118  0.0560  0.1598 -0.7756
 3051SOL     OW20788   2.790   3.802   2.408 -0.1408 -0.1079  0.3277
 3051SOL    HW120789   2.876   3.764   2.424  0.7983  0.6886 -2.9262
 3051SOL    HW220790   2.787   3.887   2.453 -1.0401  0.5798 -1.0345
 3052SOL     OW20791   1.654   2.289  10.974  0.4487  0.0643 -0.1353
 3052SOL    HW120792   1.645   2.200  11.006 -0.2865 -0.3546 -1.4877
 3052SOL    HW220793   1.662   2.329  11.060  1.5635  1.9668 -1.1108
 3053SOL     OW20794   1.480   1.285  11.302 -0.0411 -0.3178  0.2162
 3053SOL    HW120795   1.535   1.227  11.249  0.4613 -1.1984  1.6907
 3053SOL    HW220796   1.532   1.365  11.290 -0.3288 -0.1294  0.2172
 3054SOL     OW20797   4.705   2.279   6.224 -0.1948  0.6813  0.1405
 3054SOL    HW120798   4.728   2.234   6.142 -0.5207  0.2371  0.2925
 3054SOL    HW220799   4.624   2.238   6.253 -1.0865  1.0965 -1.7713
 3055SOL     OW20800   0.405   3.678   6.195  0.1053  0.4182  0.3094
 3055SOL    HW120801   0.336   3.692   6.260  0.9761 -1.5570  1.6520
 3055SOL    HW220802   0.480   3.713   6.244 -0.6962  0.7281  1.3268
 3056SOL     OW20803   3.214   4.456   2.992  0.1287 -0.0875  0.1472
 3056SOL    HW120804   3.152   4.507   2.938 -1.5160 -0.8512  1.3125
 3056SOL    HW220805   3.208   4.368   2.955 -1.7585  0.6413 -1.3050
 3057SOL     OW20806   2.910   4.199   8.035  0.2315 -0.2151  0.3845
 3057SOL    HW120807   2.852   4.255   7.982  0.5634 -0.2407 -0.0050
 3057SOL    HW220808   2.852   4.138   8.080  1.1194  0.7797  2.8387
 3058SOL     OW20809   4.499   2.028   6.967  0.7253  0.2337 -0.0268
 3058SOL    HW120810   4.446   1.949   6.954 -0.6298  1.1035  0.2295
 3058SOL    HW220811   4.447   2.091   6.917  1.3169  1.2020  0.5769
 3059SOL     OW20812   3.759   0.884   8.214  0.4767  0.2676 -0.2845
 3059SOL    HW120813   3.684   0.944   8.208  0.3667  0.0874 -0.7235
 3059SOL    HW220814   3.817   0.955   8.240  0.6308 -0.1152  0.3981
 3060SOL     OW20815   0.915   3.394   3.661 -0.9257 -0.4321  0.1948
 3060SOL    HW120816   0.930   3.355   3.575  0.3232  1.2445 -0.3639
 3060SOL    HW220817   0.961   3.333   3.719  2.8499  0.1687 -2.1612
 3061SOL     OW20818   1.941   3.491   3.059  0.1497  0.1067 -0.3252
 3061SOL    HW120819   1.990   3.455   3.133 -0.3622  0.4318  0.1727
 3061SOL    HW220820   1.870   3.533   3.108 -1.5662 -0.9872 -1.8886
 3062SOL     OW20821   0.196   4.347   8.053 -0.2612 -0.2840 -0.3967
 3062SOL    HW120822   0.119   4.399   8.073  0.7077  0.3613  1.6923
 3062SOL    HW220823   0.218   4.319   8.142 -0.1796  1.9827  0.2972
 3063SOL     OW20824   2.132   2.042   5.106 -0.4086 -0.7229 -0.1634
 3063SOL    HW120825   2.184   1.962   5.100 -0.5760 -0.6912 -2.1850
 3063SOL    HW220826   2.157   2.073   5.193 -1.4687  0.5192 -0.3050
 3064SOL     OW20827   1.891   1.323   4.218  0.7307 -0.0373 -0.3817
 3064SOL    HW120828   1.919   1.261   4.151 -0.4738 -0.9562 -0.0348
 3064SOL    HW220829   1.799   1.299   4.223  0.9822 -0.7725  1.0079
 3065SOL     OW20830   4.549   3.140   6.330 -0.0206  0.0320  0.0781
 3065SOL    HW120831   4.477   3.195   6.361  1.2676  0.8559  1.5894
 3065SOL    HW220832   4.500   3.061   6.304  0.0707  0.9314 -2.7916
 3066SOL     OW20833   3.564   4.626   9.295  0.2066  0.3569 -0.1058
 3066SOL    HW120834   3.575   4.531   9.288  0.0323  0.2590  0.8973
 3066SOL    HW220835   3.549   4.646   9.203  3.1694  1.1568 -0.4348
 3067SOL     OW20836   3.850   4.650   3.576  0.1454 -0.3000 -0.0588
 3067SOL    HW120837   3.791   4.720   3.549  1.8417 -0.0221 -2.9965
 3067SOL    HW220838   3.935   4.692   3.565  0.5510 -1.4613 -1.4042
 3068SOL     OW20839   4.557   3.362  10.066 -0.0065 -0.2024  0.0474
 3068SOL    HW120840   4.585   3.270  10.069  1.6815  0.3595  1.0209
 3068SOL    HW220841   4.530   3.387  10.154  0.6346  1.5577 -0.2562
 3069SOL     OW20842   0.824   4.522   7.086  0.5357 -0.0872 -0.0468
 3069SOL    HW120843   0.823   4.460   7.013 -0.6202  0.5447 -0.5647
 3069SOL    HW220844   0.817   4.467   7.164 -2.0409  0.2109 -0.0773
 3070SOL     OW20845   0.889   4.159   2.609 -0.3694  0.2951 -0.0141
 3070SOL    HW120846   0.847   4.111   2.537  0.8792  0.6382 -0.9682
 3070SOL    HW220847   0.838   4.117   2.678  0.4639 -0.1620  0.3091
 3071SOL     OW20848   3.935   4.037   3.630 -0.0271  0.0936 -0.2401
 3071SOL    HW120849   3.974   4.121   3.654 -1.6894  0.8838 -0.2880
 3071SOL    HW220850   3.845   4.056   3.658  0.2044 -1.2448  1.4429
 3072SOL     OW20851   1.336   0.030  13.732  0.2219  0.1670  0.7215
 3072SOL    HW120852   1.256   0.022  13.783 -1.5048  2.7245 -1.5265
 3072SOL    HW220853   1.362   4.690  13.691 -0.7818  0.4785 -0.5578
 3073SOL     OW20854   2.345   0.605   2.615 -0.4577  0.3066 -0.0745
 3073SOL    HW120855   2.408   0.676   2.626 -1.1511  1.0805 -1.1121
 3073SOL    HW220856   2.383   0.569   2.534  0.2208  1.3733 -0.2201
 3074SOL     OW20857   3.333   2.320   2.606  0.2622  0.5029  0.0683
 3074SOL    HW120858   3.321   2.252   2.673  0.4108 -0.0796 -0.5025
 3074SOL    HW220859   3.244   2.310   2.572  1.2437  0.0095 -2.2826
 3075SOL     OW20860   0.470   2.941   2.512 -0.1103  0.2666 -0.0061
 3075SOL    HW120861   0.403   3.009   2.505 -0.1965  0.2151  0.2822
 3075SOL    HW220862   0.454   2.903   2.599  3.2914  1.1877  1.0189
 3076SOL     OW20863   0.139   4.723  15.042  0.2571  0.0456  0.3937
 3076SOL    HW120864   0.186   4.667  14.980 -0.8065  1.3102 -1.5700
 3076SOL    HW220865   0.075   4.665  15.082  1.1010 -1.3494 -0.2904
 3077SOL     OW20866   4.484   1.585   2.215 -0.1447  0.0746 -0.0191
 3077SOL    HW120867   4.393   1.614   2.216  0.2369  1.1143  2.4609
 3077SOL    HW220868   4.474   1.499   2.173 -0.1041  0.3932 -0.6895
 3078SOL     OW20869   0.687   2.352  15.786 -0.3454 -0.1048  0.1996
 3078SOL    HW120870   0.605   2.358  15.834 -0.8030 -1.1713 -0.4580
 3078SOL    HW220871   0.674   2.418  15.717 -1.6083 -0.0125  0.5259
 3079SOL     OW20872   0.958   0.816  13.862  0.1663  0.0051  0.2151
 3079SOL    HW120873   0.996   0.768  13.935  1.6250  2.1638  0.8524
 3079SOL    HW220874   1.032   0.838  13.805 -0.9723  0.6498 -1.0369
 3080SOL     OW20875   2.824   3.916   5.025 -0.4218 -1.0005  0.8019
 3080SOL    HW120876   2.787   3.998   5.057  2.5451  1.7002 -2.7341
 3080SOL    HW220877   2.775   3.909   4.944 -0.7581  0.3537  0.8904
 3081SOL     OW20878   3.239   3.834   3.022 -0.7470  0.3264  0.1946
 3081SOL    HW120879   3.237   3.775   2.947 -0.4785  0.6142 -0.0315
 3081SOL    HW220880   3.176   3.898   2.989 -2.2586 -1.3742 -0.2587
 3082SOL     OW20881   2.739   1.952  17.727 -0.2234  0.1914  0.1050
 3082SOL    HW120882   2.648   1.929  17.709 -0.6678  2.5966 -0.7004
 3082SOL    HW220883   2.778   1.865  17.714 -1.2648  0.1888 -3.1979
 3083SOL     OW20884   0.656   1.120  12.337  0.1443  0.6896 -0.0714
 3083SOL    HW120885   0.712   1.047  12.312  0.4958  1.2407 -0.9019
 3083SOL    HW220886   0.593   1.083  12.398  1.0541  2.0692  1.7372
 3084SOL     OW20887   0.227   3.322   4.966  0.0410 -0.0318 -0.1449
 3084SOL    HW120888   0.179   3.391   5.012  2.1721 -0.8549  3.2798
 3084SOL    HW220889   0.306   3.370   4.943 -1.0367  1.5747 -0.4706
 3085SOL     OW20890   3.527   1.898   1.262  0.2296  0.0740 -0.1408
 3085SOL    HW120891   3.529   1.901   1.358 -1.0705  0.5776 -0.1272
 3085SOL    HW220892   3.457   1.961   1.245 -0.5415 -0.4637  1.0659
 3086SOL     OW20893   2.202   4.209   6.101  0.1450 -0.1848  0.3462
 3086SOL    HW120894   2.215   4.224   6.195  0.1070 -2.6424  0.7477
 3086SOL    HW220895   2.143   4.134   6.108 -0.6354  0.2342 -1.8376
 3087SOL     OW20896   3.461   2.199   9.112  0.5576  0.0384  0.0165
 3087SOL    HW120897   3.447   2.265   9.045  0.5945 -1.2697 -1.2781
 3087SOL    HW220898   3.389   2.232   9.165  1.2837  0.9878  0.3942
 3088SOL     OW20899   0.882   0.789   9.684  0.0071 -0.4255 -0.5307
 3088SOL    HW120900   0.843   0.867   9.722  2.1415  1.2510 -1.8045
 3088SOL    HW220901   0.818   0.722   9.709 -1.8121  2.3851  2.2889
 3089SOL     OW20902   0.676   4.434  13.617 -0.0192 -0.3252  0.7968
 3089SOL    HW120903   0.671   4.416  13.710 -1.5832  0.2257  0.8219
 3089SOL    HW220904   0.601   4.493  13.617  0.4117  0.2213  1.0794
 3090SOL     OW20905   0.172   0.199  12.817  0.1723  0.3611  0.1291
 3090SOL    HW120906   0.113   0.130  12.847  1.0758 -0.6614 -0.4950
 3090SOL    HW220907   0.188   0.244  12.900  1.0283  0.9700 -0.3657
 3091SOL     OW20908   0.119   2.917  13.639  0.4522  0.0750  0.1494
 3091SOL    HW120909   0.186   2.901  13.572 -0.6809 -0.9281 -0.7295
 3091SOL    HW220910   0.039   2.898  13.590 -0.9318 -1.3703  3.0027
 3092SOL     OW20911   4.569   1.029   2.982  0.1278 -0.5530 -0.4138
 3092SOL    HW120912   4.555   0.934   2.984  1.3379 -0.6947  0.8370
 3092SOL    HW220913   4.527   1.058   3.062 -2.5328 -0.7361 -1.7408
 3093SOL     OW20914   1.128   3.776  17.390 -0.3159 -0.1208  0.1435
 3093SOL    HW120915   1.173   3.737  17.315  1.0556 -1.1474  1.5069
 3093SOL    HW220916   1.131   3.864  17.352  1.5846  0.3011  1.2775
 3094SOL     OW20917   1.350   4.303   7.927 -0.1930 -0.5136 -0.3859
 3094SOL    HW120918   1.271   4.257   7.957 -1.3147  0.9436 -1.1238
 3094SOL    HW220919   1.349   4.285   7.833  1.3669  1.0661 -0.7040
 3095SOL     OW20920   3.214   1.779  17.025  0.5351  0.6620  0.1329
 3095SOL    HW120921   3.257   1.731  16.953  1.5478 -0.0298  1.1993
 3095SOL    HW220922   3.191   1.857  16.975  2.6391 -0.1091 -2.0665
 3096SOL     OW20923   1.989   1.953   6.584  0.5806  0.3188 -0.2922
 3096SOL    HW120924   1.979   2.004   6.503 -0.5688 -0.3543 -0.5829
 3096SOL    HW220925   2.066   1.898   6.574  0.2377 -0.3066  0.6038
 3097SOL     OW20926   3.331   1.627   6.621  0.1925  0.3557 -0.1237
 3097SOL    HW120927   3.319   1.722   6.612 -1.2454  0.2394  0.6639
 3097SOL    HW220928   3.405   1.612   6.562  0.5437 -1.6368  0.8417
 3098SOL     OW20929   0.704   4.201   2.861 -0.8216  0.6091 -0.0560
 3098SOL    HW120930   0.765   4.266   2.896 -0.6158  0.1218  0.4931
 3098SOL    HW220931   0.733   4.134   2.924  1.7738  0.2458 -1.6380
 3099SOL     OW20932   4.431   2.238   3.820 -0.7610  0.2797 -0.4399
 3099SOL    HW120933   4.367   2.240   3.750  0.9219  0.2474 -1.9875
 3099SOL    HW220934   4.504   2.190   3.782 -0.4005 -0.7824  1.5916
 3100SOL     OW20935   1.028   0.637   5.171  0.1490  0.3073  0.4401
 3100SOL    HW120936   0.983   0.556   5.193 -0.8260  0.3767 -1.2702
 3100SOL    HW220937   1.110   0.612   5.129  0.0983 -0.3305  0.7296
 3101SOL     OW20938   3.765   1.982   5.022 -0.7387 -0.2377 -0.3457
 3101SOL    HW120939   3.838   1.932   5.060 -0.3995  0.0511 -0.6199
 3101SOL    HW220940   3.702   1.966   5.092 -0.6902  1.0331 -0.0159
 3102SOL     OW20941   4.064   1.541  16.827 -0.3759 -0.8513  1.0915
 3102SOL    HW120942   4.036   1.610  16.768  0.2864 -0.1139  1.6468
 3102SOL    HW220943   4.016   1.569  16.905 -0.5258 -1.0939  1.0864
 3103SOL     OW20944   3.792   2.689   1.884  0.0494  0.0643  0.2013
 3103SOL    HW120945   3.709   2.694   1.836 -0.9272  2.7884  2.1510
 3103SOL    HW220946   3.755   2.668   1.969 -0.6230 -0.5555 -0.2520
 3104SOL     OW20947   0.048   2.030  15.698  0.4312  0.1242 -0.0798
 3104SOL    HW120948   4.705   2.000  15.730  0.4892 -0.8451 -0.8346
 3104SOL    HW220949   0.033   2.121  15.722 -3.3995 -0.7002  0.7256
 3105SOL     OW20950   0.092   3.015  16.378  0.0947 -0.1665 -0.5331
 3105SOL    HW120951   0.102   2.925  16.409  1.3887  0.0761 -0.2395
 3105SOL    HW220952   4.740   3.030  16.369  0.3618  0.1716 -2.8700
 3106SOL     OW20953   4.543   1.536   7.826 -0.4876 -0.3610 -0.7049
 3106SOL    HW120954   4.511   1.550   7.915  2.2394  0.4790  0.1345
 3106SOL    HW220955   4.500   1.610   7.784  1.2358  2.4345  2.4346
 3107SOL     OW20956   3.192   1.800   2.497  0.7220 -0.1775  0.3501
 3107SOL    HW120957   3.201   1.812   2.592 -0.9671 -1.7813  0.6987
 3107SOL    HW220958   3.109   1.844   2.480  0.7262 -0.5909 -0.7563
 3108SOL     OW20959   1.278   0.145   6.076  0.2250  0.3764 -0.0272
 3108SOL    HW120960   1.260   0.196   6.155 -2.9506  1.4063 -1.4431
 3108SOL    HW220961   1.359   0.106   6.109  1.7062  1.5476 -2.2874
 3109SOL     OW20962   4.143   2.072   1.471  0.1457 -0.3943  0.5798
 3109SOL    HW120963   4.142   2.117   1.387 -0.5607  0.5734  1.1033
 3109SOL    HW220964   4.212   2.131   1.502  0.1879 -0.7482  1.1613
 3110SOL     OW20965   1.148   0.678   2.666 -0.1682  0.1118  0.2626
 3110SOL    HW120966   1.142   0.734   2.743  1.4555  1.2636 -0.4341
 3110SOL    HW220967   1.168   0.750   2.606  1.2296  0.4505  1.1251
 3111SOL     OW20968   1.305   1.577   1.802 -0.0249 -0.4328 -0.2677
 3111SOL    HW120969   1.354   1.634   1.743 -0.0593  0.1192  0.2318
 3111SOL    HW220970   1.219   1.611   1.825 -0.0532 -2.4330  2.6332
 3112SOL     OW20971   1.529   2.637   7.751  0.9805  0.0588 -0.3646
 3112SOL    HW120972   1.526   2.541   7.743 -0.0536  0.2014 -1.6284
 3112SOL    HW220973   1.572   2.642   7.836  1.7714 -1.0299 -0.7010
 3113SOL     OW20974   1.891   2.091   8.906  0.9384 -0.1532 -0.7079
 3113SOL    HW120975   1.906   2.169   8.959 -0.5276  0.5850 -1.3787
 3113SOL    HW220976   1.944   2.024   8.949  0.1149  0.1184  0.7399
 3114SOL     OW20977   0.700   1.066   1.847 -0.2457  0.0860  0.0237
 3114SOL    HW120978   0.624   1.124   1.852 -0.6468 -0.2249 -2.6549
 3114SOL    HW220979   0.748   1.088   1.927  2.0272  1.5281 -1.7544
 3115SOL     OW20980   2.397   3.530   4.648 -0.4521 -0.3306  0.3165
 3115SOL    HW120981   2.359   3.466   4.588 -1.6485  1.3080 -0.6693
 3115SOL    HW220982   2.314   3.542   4.694 -0.7377  0.0593 -0.2997
 3116SOL     OW20983   4.454   2.726  17.365  0.2673  0.2336  0.1180
 3116SOL    HW120984   4.404   2.684  17.435  0.5614 -0.8271 -0.3082
 3116SOL    HW220985   4.396   2.790  17.325  0.1070  0.0641  0.0758
 3117SOL     OW20986   3.024   3.035   8.414  0.9789  0.3482  0.2914
 3117SOL    HW120987   2.956   2.989   8.463  1.1895  1.0209  1.2080
 3117SOL    HW220988   3.031   3.122   8.454 -0.3143  1.2683 -1.4576
 3118SOL     OW20989   0.185   3.953   4.476 -0.0762  0.1296 -0.4189
 3118SOL    HW120990   0.192   3.923   4.385  1.3765  1.8577 -0.8806
 3118SOL    HW220991   0.094   3.932   4.498 -0.4841  1.1709 -1.0795
 3119SOL     OW20992   1.535   4.458   9.460  0.4674  0.4596 -0.1144
 3119SOL    HW120993   1.548   4.400   9.535 -0.3352  0.5604  0.0991
 3119SOL    HW220994   1.446   4.484   9.485  1.0127  2.6490 -0.4783
 3120SOL     OW20995   1.746   0.810   8.215 -0.1852  0.2512  0.2753
 3120SOL    HW120996   1.782   0.772   8.135 -2.8662 -0.9936 -0.3326
 3120SOL    HW220997   1.822   0.854   8.255  0.3156 -0.0606 -0.3270
 3121SOL     OW20998   1.068   3.392   4.471  0.0618  0.1668 -0.0812
 3121SOL    HW120999   0.979   3.396   4.436 -1.0551 -0.8159  2.6669
 3121SOL    HW221000   1.051   3.425   4.559 -3.0086  2.1185 -1.4443
 3122SOL     OW21001   2.949   3.593   2.534 -0.2691 -0.0552  0.0175
 3122SOL    HW121002   2.987   3.561   2.452  1.1607 -0.2720  0.7556
 3122SOL    HW221003   2.864   3.551   2.528 -1.1784  1.6558  0.8274
 3123SOL     OW21004   4.609   4.584   5.187  0.2261 -0.2146 -0.0896
 3123SOL    HW121005   4.647   4.669   5.167 -0.7091 -0.1163 -1.4425
 3123SOL    HW221006   4.623   4.574   5.281  1.2476  3.4092  0.1154
 3124SOL     OW21007   0.430   2.098   4.662  0.2841 -0.7310 -0.1095
 3124SOL    HW121008   0.341   2.109   4.694  0.8011  0.2232  0.9803
 3124SOL    HW221009   0.479   2.057   4.733  0.6607 -1.5395 -0.8333
 3125SOL     OW21010   3.287   1.010   8.348 -0.5898  0.3681 -0.0468
 3125SOL    HW121011   3.303   1.040   8.259 -0.1404 -1.5063 -0.5896
 3125SOL    HW221012   3.242   0.930   8.322  3.1506 -1.4595 -0.8030
 3126SOL     OW21013   1.407   1.870   3.082  0.2637  0.0546 -0.8242
 3126SOL    HW121014   1.448   1.957   3.079  1.9689 -0.7776 -1.9349
 3126SOL    HW221015   1.491   1.825   3.084  1.6642  2.7588  1.6272
 3127SOL     OW21016   2.593   2.455   8.533 -0.5749 -0.1975 -0.2498
 3127SOL    HW121017   2.539   2.531   8.512  1.5099  1.4116  0.1190
 3127SOL    HW221018   2.628   2.439   8.446 -0.5259 -1.5391  0.0183
 3128SOL     OW21019   4.019   3.613   0.601 -0.1905  0.0048  0.3188
 3128SOL    HW121020   4.066   3.543   0.645  1.2177  1.2876  0.8743
 3128SOL    HW221021   3.928   3.591   0.622 -0.3384  2.6329  2.4776
 3129SOL     OW21022   3.216   0.465   4.907  0.8267  0.9219 -0.1283
 3129SOL    HW121023   3.183   0.377   4.929 -0.1354  1.3019 -0.0356
 3129SOL    HW221024   3.187   0.478   4.817  0.2027  1.4427  0.1475
 3130SOL     OW21025   4.299   4.543   2.652 -0.2613 -0.6400  0.3377
 3130SOL    HW121026   4.307   4.493   2.733 -0.7558 -0.4729  0.4877
 3130SOL    HW221027   4.381   4.520   2.608 -0.5897 -0.8597 -0.1728
 3131SOL     OW21028   2.445   0.042   3.626  0.2343 -0.1694  0.1395
 3131SOL    HW121029   2.386   4.710   3.615 -0.3958  0.3484  0.0076
 3131SOL    HW221030   2.526   0.003   3.657  1.4899  0.8095 -1.8990
 3132SOL     OW21031   0.153   1.214   6.719  0.0920  0.2395  0.6955
 3132SOL    HW121032   0.071   1.175   6.690  0.4651 -0.9696  1.2515
 3132SOL    HW221033   0.136   1.308   6.719  0.6895  0.3420 -1.9421
 3133SOL     OW21034   0.045   3.205   4.671 -0.0795 -0.5841 -0.7867
 3133SOL    HW121035   0.051   3.237   4.761 -2.2185 -0.1494 -0.7958
 3133SOL    HW221036   4.726   3.131   4.677 -0.7750  0.0829  0.2752
 3134SOL     OW21037   2.845   2.182   9.536 -0.8499 -0.3602 -0.1308
 3134SOL    HW121038   2.821   2.274   9.539  1.1282  0.1821 -0.5183
 3134SOL    HW221039   2.778   2.153   9.597 -0.8454 -1.7688 -0.7889
 3135SOL     OW21040   0.714   2.863   3.078  0.0726  0.7178  0.7693
 3135SOL    HW121041   0.771   2.810   3.023  1.2129  0.2058  2.4525
 3135SOL    HW221042   0.666   2.907   3.007  1.3633  1.6683  0.4927
 3136SOL     OW21043   1.018   1.107   3.002 -0.0846  0.2774  0.0047
 3136SOL    HW121044   0.975   1.187   2.968 -0.9574  0.2911  1.1554
 3136SOL    HW221045   0.941   1.062   3.036  1.8467 -1.5133  1.9680
 3137SOL     OW21046   2.809   2.076   9.279 -0.7247  0.7602 -0.2535
 3137SOL    HW121047   2.835   2.139   9.347 -0.3918 -1.1699  1.3921
 3137SOL    HW221048   2.824   1.990   9.318 -1.3517  0.2858 -1.0685
 3138SOL     OW21049   3.069   0.457  10.138 -0.0001 -0.3509  0.4230
 3138SOL    HW121050   3.011   0.505  10.197  0.1560 -0.0954  0.3684
 3138SOL    HW221051   3.106   0.385  10.188  1.6256 -0.1817 -0.5156
 3139SOL     OW21052   0.392   4.010   8.438 -0.5085 -0.1765 -0.0222
 3139SOL    HW121053   0.487   4.015   8.450 -0.1793 -1.7554 -1.9725
 3139SOL    HW221054   0.373   4.090   8.388  0.4949 -1.3247 -2.2196
 3140SOL     OW21055   0.105   0.673  12.361  0.2503  0.1683  0.3011
 3140SOL    HW121056   0.104   0.577  12.352 -2.6608  0.3354 -1.2358
 3140SOL    HW221057   0.087   0.701  12.272  0.2063  2.8829  1.1820
 3141SOL     OW21058   2.375   0.240   4.596 -0.4441  0.0729  0.5358
 3141SOL    HW121059   2.340   0.238   4.685  1.8551  1.5187  1.4796
 3141SOL    HW221060   2.397   0.331   4.576  1.8437 -0.8978 -1.3516
 3142SOL     OW21061   0.978   1.352   5.283  0.1345  0.0349  0.1877
 3142SOL    HW121062   1.012   1.270   5.249 -1.8560 -0.2126 -1.1770
 3142SOL    HW221063   0.921   1.380   5.211  0.0533 -0.1556  0.1782
 3143SOL     OW21064   2.157   3.526   6.115 -0.7201 -0.0966  0.1076
 3143SOL    HW121065   2.226   3.477   6.069 -1.2153 -0.5385 -0.1530
 3143SOL    HW221066   2.211   3.572   6.180 -0.9102  0.2469  0.0230
 3144SOL     OW21067   0.133   1.041  15.370  0.8185  0.0019  0.1828
 3144SOL    HW121068   0.216   1.044  15.323 -0.6250 -0.3621 -2.4196
 3144SOL    HW221069   0.104   0.949  15.372  3.3210 -0.7491  1.1225
 3145SOL     OW21070   2.785   4.369  16.152 -0.5409 -0.6393 -0.4800
 3145SOL    HW121071   2.797   4.316  16.074  1.1857 -0.7942 -0.0989
 3145SOL    HW221072   2.692   4.392  16.163 -0.4587 -0.4815 -0.1305
 3146SOL     OW21073   4.340   0.508   7.581 -0.0628  0.0460  0.0728
 3146SOL    HW121074   4.422   0.552   7.557 -0.7820  0.3013 -1.8819
 3146SOL    HW221075   4.311   0.584   7.631  0.3663 -0.2147  0.7194
 3147SOL     OW21076   4.582   1.345   8.833  0.1728 -0.4194  0.3841
 3147SOL    HW121077   4.488   1.362   8.842  0.3786 -0.1742  2.0900
 3147SOL    HW221078   4.590   1.259   8.792 -1.8052 -0.9792  1.1739
 3148SOL     OW21079   2.741   1.241   8.589 -0.0185  0.5855 -0.1044
 3148SOL    HW121080   2.679   1.270   8.656  0.6051 -1.8475  1.5038
 3148SOL    HW221081   2.821   1.262   8.638  1.1411 -1.4181 -1.1391
 3149SOL     OW21082   0.494   3.794   6.564 -0.2786 -0.0479  0.4291
 3149SOL    HW121083   0.491   3.698   6.569  0.6057  0.1061  4.2182
 3149SOL    HW221084   0.484   3.817   6.656  1.5118 -4.4044  1.7247
 3150SOL     OW21085   3.028   2.465  15.579 -0.8044  0.3209  0.8360
 3150SOL    HW121086   3.101   2.526  15.589 -0.1844 -0.5455  1.5858
 3150SOL    HW221087   2.990   2.458  15.666 -3.0740 -0.6116 -0.2294
 3151SOL     OW21088   1.989   1.596   7.972 -0.1746 -0.2137 -0.8202
 3151SOL    HW121089   2.018   1.688   7.966 -0.3651 -0.1104 -0.2245
 3151SOL    HW221090   1.898   1.611   7.948 -0.7549 -1.3421  0.6682
 3152SOL     OW21091   4.719   1.451   1.977 -0.4069 -0.0368  0.4359
 3152SOL    HW121092   4.719   1.360   1.948  2.2444 -0.6792  2.4467
 3152SOL    HW221093   4.624   1.460   1.967 -0.6193 -0.9091  1.6005
 3153SOL     OW21094   3.650   3.287  16.002  0.0995  0.3271  0.0771
 3153SOL    HW121095   3.715   3.292  15.932  0.3100 -2.1790  0.0887
 3153SOL    HW221096   3.564   3.297  15.960 -0.1288 -0.1320  0.4308
 3154SOL     OW21097   0.385   2.953   3.599 -0.2468  0.0766  0.3783
 3154SOL    HW121098   0.302   2.947   3.552 -1.3015 -1.9914  2.5162
 3154SOL    HW221099   0.387   3.034   3.650  0.9245  0.4455 -0.2488
 3155SOL     OW21100   0.973   2.116   3.974 -0.4069 -0.1299 -0.3122
 3155SOL    HW121101   0.945   2.108   3.883 -1.1629 -3.4667  0.2370
 3155SOL    HW221102   0.932   2.198   4.001  0.1927 -0.2247  0.8824
 3156SOL     OW21103   3.683   2.389   6.099  0.0606  0.5173 -0.5044
 3156SOL    HW121104   3.762   2.434   6.069 -0.5848 -0.2621 -3.3930
 3156SOL    HW221105   3.611   2.416   6.042  0.4227 -1.3005 -1.8218
 3157SOL     OW21106   2.530   3.744   3.280  0.2419 -0.2548 -0.3855
 3157SOL    HW121107   2.480   3.758   3.361  1.4938 -0.3947  0.4079
 3157SOL    HW221108   2.461   3.712   3.222 -0.3954  1.6047 -0.6688
 3158SOL     OW21109   4.541   3.595   6.874 -0.5086  0.2488 -0.0129
 3158SOL    HW121110   4.458   3.624   6.836 -1.1570 -0.6577  0.7194
 3158SOL    HW221111   4.533   3.502   6.851 -2.3308  0.3821  0.0623
 3159SOL     OW21112   0.657   2.031   3.301 -0.3393 -0.0926 -0.2223
 3159SOL    HW121113   0.621   2.061   3.385 -0.1580  1.3330 -0.6538
 3159SOL    HW221114   0.620   2.102   3.248 -0.3432 -2.1307 -2.9728
 3160SOL     OW21115   4.171   4.164   5.394 -0.3983 -0.0098  0.2036
 3160SOL    HW121116   4.189   4.070   5.386 -2.8106 -0.3489 -1.3161
 3160SOL    HW221117   4.261   4.198   5.392 -1.3833  2.5094 -0.7070
 3161SOL     OW21118   3.646   2.668  10.825  0.0168  0.3149 -0.0601
 3161SOL    HW121119   3.711   2.598  10.812  0.5642  0.8339 -0.1058
 3161SOL    HW221120   3.611   2.643  10.910  1.1435 -3.0054 -0.5736
 3162SOL     OW21121   3.070   1.800  16.233 -0.3467  0.3668  0.1959
 3162SOL    HW121122   3.076   1.889  16.198 -1.0283 -0.1528 -1.2209
 3162SOL    HW221123   3.148   1.800  16.289  0.0823 -0.9979 -0.4096
 3163SOL     OW21124   1.416   0.318   7.758 -0.5994  0.0592  0.3274
 3163SOL    HW121125   1.489   0.358   7.805 -0.0375  0.3159 -0.7757
 3163SOL    HW221126   1.377   0.262   7.824 -1.4110  0.4377  0.1681
 3164SOL     OW21127   1.327   2.173  12.410  0.0678 -0.2493  0.5702
 3164SOL    HW121128   1.275   2.253  12.408 -2.0458 -1.5994  1.5641
 3164SOL    HW221129   1.417   2.204  12.402 -0.4128  0.5902 -1.6017
 3165SOL     OW21130   3.018   1.059  11.562 -0.1392  0.1903  0.1262
 3165SOL    HW121131   3.009   0.989  11.499 -1.2089 -0.1979  0.6953
 3165SOL    HW221132   3.014   1.142  11.514  1.6044  1.1469  1.6502
 3166SOL     OW21133   3.056   3.597   8.667  0.0246  0.0177  0.1553
 3166SOL    HW121134   3.064   3.687   8.634 -1.3325 -0.3159 -1.0535
 3166SOL    HW221135   3.078   3.607   8.760 -0.8526  2.0014  0.1521
 3167SOL     OW21136   1.343   4.028  16.034 -0.2151  0.0709 -0.4009
 3167SOL    HW121137   1.257   4.025  15.992 -1.5260 -0.9771  2.3417
 3167SOL    HW221138   1.324   4.040  16.128  2.9755 -0.7231  0.3479
 3168SOL     OW21139   3.277   1.852  17.757 -0.0682  0.3268 -0.3850
 3168SOL    HW121140   3.365   1.888  17.762 -0.0007  0.0954  0.1162
 3168SOL    HW221141   3.234   1.912  17.696  1.1446  0.8142 -0.7584
 3169SOL     OW21142   1.184   2.375  16.062  0.1373  0.0691  1.1091
 3169SOL    HW121143   1.119   2.307  16.045 -1.8966  2.1552  0.4346
 3169SOL    HW221144   1.139   2.432  16.124 -1.8624 -1.3545  0.9645
 3170SOL     OW21145   2.571   3.769  15.730 -0.5765  0.4428  0.3824
 3170SOL    HW121146   2.500   3.776  15.665 -1.0923  1.4615  1.0607
 3170SOL    HW221147   2.551   3.845  15.784  0.0371  1.2368 -0.5098
 3171SOL     OW21148   2.985   2.836   2.633 -0.3850  0.0443 -0.0423
 3171SOL    HW121149   3.073   2.800   2.647  1.0035  3.7884  0.9536
 3171SOL    HW221150   2.937   2.812   2.713 -1.6244  0.3504 -0.6915
 3172SOL     OW21151   4.384   0.244   7.373 -0.0129 -0.4393 -0.0216
 3172SOL    HW121152   4.328   0.192   7.314 -0.9211 -0.3215  0.7401
 3172SOL    HW221153   4.321   0.308   7.406  0.6862  0.0877  0.2823
 3173SOL     OW21154   2.649   1.701   9.692 -0.8249  0.2002 -0.0183
 3173SOL    HW121155   2.600   1.654   9.759  0.0668 -2.6970 -1.3603
 3173SOL    HW221156   2.585   1.744   9.635  0.2061  0.8201 -0.7343
 3174SOL     OW21157   3.741   2.268   2.017  0.3103 -0.1742  0.3703
 3174SOL    HW121158   3.703   2.218   2.089  1.9205 -0.1073  1.2628
 3174SOL    HW221159   3.831   2.240   2.031  1.0948  0.7518 -2.8677
 3175SOL     OW21160   0.751   1.160  10.615 -0.5532 -0.1549  0.3574
 3175SOL    HW121161   0.773   1.207  10.696 -1.8553  0.8158  0.1429
 3175SOL    HW221162   0.835   1.119  10.594 -2.2130 -3.0072 -0.7270
 3176SOL     OW21163   2.610   1.054   4.801  0.0680 -0.2107 -0.1584
 3176SOL    HW121164   2.620   0.964   4.768 -1.8206 -0.7073  0.6272
 3176SOL    HW221165   2.536   1.076   4.744  2.3684  2.4676 -2.1202
 3177SOL     OW21166   0.213   4.596   8.405 -0.0398 -0.2191  0.2558
 3177SOL    HW121167   0.166   4.638   8.477 -0.3662  0.0687 -0.1241
 3177SOL    HW221168   0.153   4.629   8.338 -0.1916 -0.1992  0.4030
 3178SOL     OW21169   1.513   1.303  11.627  0.1950 -0.2433  0.3572
 3178SOL    HW121170   1.449   1.356  11.578  0.6265 -2.2729 -2.4092
 3178SOL    HW221171   1.590   1.341  11.585  0.9573 -1.4715  0.6479
 3179SOL     OW21172   3.748   3.635   4.532 -0.2241 -0.1569  0.4092
 3179SOL    HW121173   3.839   3.608   4.522 -0.0558  1.5602 -2.7135
 3179SOL    HW221174   3.698   3.564   4.492 -0.6250  1.8073 -2.6066
 3180SOL     OW21175   0.468   1.228   3.423  0.2559  0.0457 -0.3030
 3180SOL    HW121176   0.388   1.269   3.453 -0.7069 -1.6903 -0.5192
 3180SOL    HW221177   0.439   1.159   3.364 -1.9402  1.0659 -0.3917
 3181SOL     OW21178   1.905   2.850   1.680 -0.2577  0.1857 -0.4296
 3181SOL    HW121179   1.893   2.797   1.601  0.3382  2.6014 -2.1308
 3181SOL    HW221180   1.830   2.910   1.676 -1.2078 -1.0886 -1.6932
 3182SOL     OW21181   4.672   1.983   9.167  0.3951 -0.5568  0.2595
 3182SOL    HW121182   0.023   1.974   9.149  0.6050 -0.7307  1.4158
 3182SOL    HW221183   4.640   2.060   9.120 -1.2174 -1.9407 -0.8803
 3183SOL     OW21184   3.905   3.774   2.617 -0.3172  0.0487  0.3125
 3183SOL    HW121185   3.904   3.710   2.689 -1.5576  1.0047  1.1471
 3183SOL    HW221186   3.815   3.775   2.586  0.2504  1.4998 -1.2479
 3184SOL     OW21187   1.053   4.308   4.295  0.1302  0.1578 -0.7184
 3184SOL    HW121188   1.050   4.402   4.277  1.2031  0.4352  0.5241
 3184SOL    HW221189   1.089   4.316   4.383  0.5165 -2.6131 -0.6342
 3185SOL     OW21190   4.215   1.940  17.722  0.2167 -0.0698 -0.2232
 3185SOL    HW121191   4.226   2.025  17.678 -1.1579  0.2714  0.0998
 3185SOL    HW221192   4.231   1.881  17.648  1.2798 -1.5175  1.1773
 3186SOL     OW21193   1.728   1.413  11.497  0.9289  0.1720 -0.0032
 3186SOL    HW121194   1.691   1.475  11.434  2.1322 -0.0033 -0.8790
 3186SOL    HW221195   1.816   1.447  11.487 -0.1766  2.8761 -0.5196
 3187SOL     OW21196   1.645   3.415   8.394 -0.1893  0.3693 -0.0719
 3187SOL    HW121197   1.644   3.319   8.402  0.4797  0.3256 -0.5355
 3187SOL    HW221198   1.571   3.444   8.446 -0.2786 -1.9897  1.1166
 3188SOL     OW21199   2.786   0.390   9.740 -0.1859 -0.6036  0.2713
 3188SOL    HW121200   2.804   0.475   9.781 -1.4475  0.9453 -2.3520
 3188SOL    HW221201   2.815   0.405   9.650 -0.8267 -1.4649 -0.0810
 3189SOL     OW21202   1.277   1.112   6.749  0.4056  0.4280 -0.1359
 3189SOL    HW121203   1.310   1.159   6.825 -0.5426 -0.5065  0.8646
 3189SOL    HW221204   1.346   1.045   6.749  0.0808  0.0999 -0.9514
 3190SOL     OW21205   2.819   0.406   3.967 -0.0856 -0.1455  0.0562
 3190SOL    HW121206   2.811   0.311   3.953 -0.4979 -0.3068  1.3776
 3190SOL    HW221207   2.813   0.435   3.876  2.2297 -0.5962 -0.2377
 3191SOL     OW21208   2.898   2.083   2.000 -0.1533  0.3416  0.0636
 3191SOL    HW121209   2.963   2.023   2.037 -0.6097 -1.0863 -1.4390
 3191SOL    HW221210   2.952   2.159   1.978  1.1325 -0.5693  0.0195
 3192SOL     OW21211   2.479   1.099   2.321 -0.0103 -0.0346  0.0344
 3192SOL    HW121212   2.398   1.092   2.270 -0.9523  0.6878  1.4429
 3192SOL    HW221213   2.505   1.006   2.322  1.6434  0.4339 -0.1820
 3193SOL     OW21214   3.972   4.444   7.903  0.0318 -0.1459 -0.2809
 3193SOL    HW121215   4.064   4.435   7.928 -1.1619 -2.1972  3.3489
 3193SOL    HW221216   3.933   4.394   7.974  1.5938  0.5640  1.0843
 3194SOL     OW21217   2.360   1.072   4.642 -0.1694 -0.0095 -0.3633
 3194SOL    HW121218   2.304   1.032   4.708  1.2479  0.3106  1.0525
 3194SOL    HW221219   2.289   1.096   4.584 -1.1142 -1.8286  0.0367
 3195SOL     OW21220   2.674   4.231   3.973 -0.7058 -0.4210  0.1739
 3195SOL    HW121221   2.596   4.195   4.015 -0.2274 -0.2841  1.1807
 3195SOL    HW221222   2.715   4.270   4.050 -0.2776  1.4634 -1.0138
 3196SOL     OW21223   2.324   0.421   8.752 -0.0644  0.5454  0.5845
 3196SOL    HW121224   2.309   0.367   8.830 -0.6007  0.0112  0.1180
 3196SOL    HW221225   2.392   0.366   8.712 -0.2998 -0.0510  0.9954
 3197SOL     OW21226   1.640   1.721  14.166 -0.1008  0.1960  1.1509
 3197SOL    HW121227   1.676   1.657  14.105 -2.6264  0.3750 -0.5506
 3197SOL    HW221228   1.548   1.703  14.187  0.0481 -1.2826  0.4799
 3198SOL     OW21229   1.477   1.671   9.513  0.3806  0.8419  0.5696
 3198SOL    HW121230   1.408   1.705   9.570  0.9898  1.8620  0.6952
 3198SOL    HW221231   1.555   1.696   9.562  0.3427 -1.5091  1.8391
 3199SOL     OW21232   0.247   3.501   2.269  0.2082  0.6324  0.1142
 3199SOL    HW121233   0.328   3.501   2.218  0.9908  0.5832  1.3493
 3199SOL    HW221234   0.182   3.479   2.203  1.3225 -1.1521 -0.3791
 3200SOL     OW21235   4.563   3.740  17.539  0.2487  0.1153 -0.3646
 3200SOL    HW121236   4.565   3.711  17.447 -1.8744  0.3533 -0.4773
 3200SOL    HW221237   4.659   3.737  17.549 -0.1295 -1.8723  2.4106
 3201SOL     OW21238   0.815   2.348  11.158 -0.1062  0.7494 -0.3825
 3201SOL    HW121239   0.781   2.436  11.168  0.2391  0.8577 -0.1882
 3201SOL    HW221240   0.751   2.309  11.218 -1.1116 -0.5737 -2.3010
 3202SOL     OW21241   2.215   3.792   9.080 -0.7262  0.0020 -0.4536
 3202SOL    HW121242   2.184   3.784   9.170  0.3162  1.3461  0.0398
 3202SOL    HW221243   2.206   3.702   9.049 -1.3232  0.5995 -1.9743
 3203SOL     OW21244   1.396   1.002   3.565  0.0694  0.7480 -0.5177
 3203SOL    HW121245   1.376   1.053   3.644 -1.3479 -1.1412  0.3341
 3203SOL    HW221246   1.309   0.965   3.552  0.3124  0.3646 -1.0401
 3204SOL     OW21247   1.559   1.479   0.667  0.0369  0.0375 -0.1489
 3204SOL    HW121248   1.480   1.467   0.613 -0.7328  0.5417  0.8636
 3204SOL    HW221249   1.544   1.571   0.688 -1.9127 -0.0288 -1.2886
 3205SOL     OW21250   3.792   3.832   2.228 -0.5880 -0.0489 -0.3002
 3205SOL    HW121251   3.819   3.839   2.320 -0.0685  0.2083 -0.4707
 3205SOL    HW221252   3.867   3.878   2.189  2.8735 -4.0148  1.5861
 3206SOL     OW21253   2.841   0.896   6.807 -0.2894  0.4506  0.1261
 3206SOL    HW121254   2.936   0.883   6.815  0.0014  1.5810 -1.5218
 3206SOL    HW221255   2.828   0.988   6.832  2.9088  0.6235  1.2884
 3207SOL     OW21256   1.759   1.842   6.694 -0.0166  0.4841 -0.2260
 3207SOL    HW121257   1.711   1.925   6.702 -0.5802  0.0708  0.6398
 3207SOL    HW221258   1.847   1.875   6.674  0.1014 -0.2970 -1.0128
 3208SOL     OW21259   1.760   4.727  10.570 -0.0723  0.1078 -0.2448
 3208SOL    HW121260   1.718   0.069  10.587  2.7343  1.1115  1.7482
 3208SOL    HW221261   1.739   4.706  10.479  0.1698  2.0415 -0.7591
 3209SOL     OW21262   0.598   1.820   3.587  0.3042  0.1753  0.1766
 3209SOL    HW121263   0.660   1.805   3.659  1.0578 -1.9667 -0.9319
 3209SOL    HW221264   0.599   1.916   3.580  3.2921  0.0750 -0.6089
 3210SOL     OW21265   3.762   0.665   7.142  0.2921 -0.4832 -0.1413
 3210SOL    HW121266   3.798   0.580   7.118  2.4596  0.6526 -0.9315
 3210SOL    HW221267   3.836   0.713   7.181 -0.3118 -0.9318  1.5859
 3211SOL     OW21268   4.223   2.897   6.904  0.3751 -0.1796 -0.2920
 3211SOL    HW121269   4.212   2.802   6.906 -0.3189 -0.1490 -3.5276
 3211SOL    HW221270   4.227   2.911   6.999 -1.0865  2.9991 -0.6709
 3212SOL     OW21271   4.170   4.721   8.861 -0.4877  0.1832  0.2548
 3212SOL    HW121272   4.133   0.044   8.921 -0.3532  0.2580  0.2573
 3212SOL    HW221273   4.162   4.645   8.919  0.1560 -0.8248 -0.9957
 3213SOL     OW21274   4.462   1.101   3.195  0.7703 -0.0178  0.0913
 3213SOL    HW121275   4.419   1.165   3.138 -0.0038  0.2850  1.0102
 3213SOL    HW221276   4.398   1.113   3.265 -0.2958  0.9988 -1.0597
 3214SOL     OW21277   1.035   2.714   4.039  0.5706  0.4153  0.2036
 3214SOL    HW121278   1.050   2.806   4.061  0.0723 -0.0395  2.4647
 3214SOL    HW221279   0.969   2.715   3.970 -2.3772  1.0565  3.0411
 3215SOL     OW21280   4.188   2.686   7.590 -0.4136 -0.0912 -0.1639
 3215SOL    HW121281   4.248   2.621   7.627  1.6701  1.8388 -0.1605
 3215SOL    HW221282   4.230   2.697   7.504  0.7976 -2.0127  0.1863
 3216SOL     OW21283   2.171   0.647   6.508 -0.0589 -0.7952 -0.2250
 3216SOL    HW121284   2.220   0.592   6.447  1.5340 -2.4831  2.5835
 3216SOL    HW221285   2.198   0.606   6.590  0.5629  0.0857  0.0075
 3217SOL     OW21286   1.407   3.397  14.530  0.3352 -0.0859 -0.3137
 3217SOL    HW121287   1.362   3.382  14.447  0.6748  1.2571 -0.7442
 3217SOL    HW221288   1.435   3.306  14.541 -2.8476 -0.9167  0.9193
 3218SOL     OW21289   0.126   2.972   7.320  0.3151 -0.6151  0.6203
 3218SOL    HW121290   0.082   2.898   7.278 -3.4819  0.5816  2.4481
 3218SOL    HW221291   0.128   2.945   7.412  0.3567  0.7964  1.0453
 3219SOL     OW21292   1.611   1.254   4.172 -0.6278 -0.2567  0.5464
 3219SOL    HW121293   1.618   1.162   4.198 -2.5028 -1.0181 -1.6235
 3219SOL    HW221294   1.545   1.255   4.102  1.5366 -0.4047 -1.4845
 3220SOL     OW21295   2.909   0.319   2.408 -0.4292 -0.2776 -0.3661
 3220SOL    HW121296   2.962   0.398   2.397 -0.5828  0.1708  2.1467
 3220SOL    HW221297   2.973   0.264   2.453 -1.8671 -2.2603 -0.7539
 3221SOL     OW21298   2.601   4.555   7.273 -0.0622 -0.0115 -0.3261
 3221SOL    HW121299   2.660   4.621   7.237  1.1502 -0.2449  1.2207
 3221SOL    HW221300   2.538   4.548   7.202 -1.1107  1.3592  0.4597
 3222SOL     OW21301   4.353   3.123   8.901 -1.0270 -0.2232  0.8118
 3222SOL    HW121302   4.334   3.029   8.908 -0.8816 -0.3172 -0.1483
 3222SOL    HW221303   4.338   3.141   8.994  2.3845  1.6923  0.9970
 3223SOL     OW21304   1.186   2.136   9.575  0.1727  0.9326 -0.5575
 3223SOL    HW121305   1.125   2.178   9.514 -0.0176  1.4138 -0.0332
 3223SOL    HW221306   1.119   2.102   9.634 -0.0969 -1.1377 -2.0222
 3224SOL     OW21307   0.931   3.649   6.591 -0.1841 -0.4409  0.2241
 3224SOL    HW121308   0.957   3.599   6.668 -0.4658 -2.9458 -1.3276
 3224SOL    HW221309   0.886   3.724   6.632 -0.0275 -1.3636  2.0864
 3225SOL     OW21310   2.033   0.377   3.079 -0.1897  0.3418  0.0241
 3225SOL    HW121311   1.980   0.446   3.040  0.3312 -0.0840 -1.4363
 3225SOL    HW221312   2.025   0.299   3.023  1.3345 -0.2533  0.6512
 3226SOL     OW21313   3.242   0.664   9.846 -0.0553 -0.5665  0.1253
 3226SOL    HW121314   3.193   0.606   9.787  0.5882 -1.2245  0.2354
 3226SOL    HW221315   3.248   0.730   9.777 -0.4577  0.0226  0.6651
 3227SOL     OW21316   1.465   3.705   6.959 -0.0281 -0.2513 -0.2533
 3227SOL    HW121317   1.373   3.688   6.979 -0.2042 -0.6607 -1.3898
 3227SOL    HW221318   1.458   3.783   6.905 -0.2449  0.5073  0.8643
 3228SOL     OW21319   1.460   0.446  12.481 -0.4289  0.1386 -0.2782
 3228SOL    HW121320   1.517   0.430  12.556 -0.9539 -2.4779 -0.4169
 3228SOL    HW221321   1.473   0.365  12.431 -3.2886 -2.7941  3.6652
 3229SOL     OW21322   4.590   4.668   2.816  0.5047 -0.5082  0.0547
 3229SOL    HW121323   4.508   4.690   2.862  0.5271  2.3616 -1.3150
 3229SOL    HW221324   4.592   4.572   2.821 -2.6517 -0.5860  0.1891
 3230SOL     OW21325   0.817   2.069   7.676  0.5856  0.5709 -0.5334
 3230SOL    HW121326   0.724   2.044   7.674  0.9063 -0.6943  1.0727
 3230SOL    HW221327   0.799   2.155   7.715 -0.1280 -0.4241  1.2930
 3231SOL     OW21328   2.286   4.601   7.121 -0.1126 -0.3244 -0.4921
 3231SOL    HW121329   2.271   4.600   7.215 -1.9271 -1.1629 -0.7873
 3231SOL    HW221330   2.296   4.507   7.105 -2.2366 -0.3898 -1.4702
 3232SOL     OW21331   2.321   1.988   4.857  0.0240 -0.9137  0.0803
 3232SOL    HW121332   2.287   1.920   4.799  0.2894  0.4998 -1.7226
 3232SOL    HW221333   2.296   1.951   4.942  1.1817 -1.0128  0.3724
 3233SOL     OW21334   2.999   0.667   9.400  0.1426  0.3154  0.4914
 3233SOL    HW121335   2.973   0.676   9.309  1.2615 -1.9092 -0.0230
 3233SOL    HW221336   2.919   0.622   9.428 -0.0378  1.3973  1.7525
 3234SOL     OW21337   2.499   2.173   4.582 -0.4339  0.3968  0.5574
 3234SOL    HW121338   2.415   2.214   4.604 -0.4228  0.0757  1.2239
 3234SOL    HW221339   2.532   2.139   4.666 -3.3342  1.8469  2.2913
 3235SOL     OW21340   0.618   4.430   1.987  0.1232  0.3528  0.6422
 3235SOL    HW121341   0.541   4.475   1.950 -0.0068 -0.4033 -0.0299
 3235SOL    HW221342   0.672   4.503   2.015 -1.1908  2.0881 -1.3044
 3236SOL     OW21343   4.169   4.482  11.194 -0.3356 -0.1308 -0.4085
 3236SOL    HW121344   4.217   4.527  11.124  2.5082 -1.1484  0.8883
 3236SOL    HW221345   4.093   4.451  11.144  0.4841  1.1830 -2.4620
 3237SOL     OW21346   0.062   3.363   6.979 -0.0420  0.1645  0.4126
 3237SOL    HW121347   0.069   3.269   6.996  0.7831 -0.0002 -0.8526
 3237SOL    HW221348   0.138   3.387   7.031  0.7144 -0.5872 -0.3506
 3238SOL     OW21349   3.280   4.292   3.677 -0.2215  0.4027 -0.1673
 3238SOL    HW121350   3.337   4.348   3.730  1.3049 -0.4530 -0.9063
 3238SOL    HW221351   3.241   4.241   3.747 -3.1635  1.4651 -1.0211
 3239SOL     OW21352   0.915   0.030   0.643 -0.4848  0.8632 -0.0604
 3239SOL    HW121353   0.991   0.075   0.605  0.6185 -1.9018 -1.1953
 3239SOL    HW221354   0.940   4.692   0.598 -0.9431 -0.8198  2.7230
 3240SOL     OW21355   1.491   0.584   3.245 -0.1624  0.2837 -0.1740
 3240SOL    HW121356   1.413   0.529   3.251  1.2374 -1.6064  0.6426
 3240SOL    HW221357   1.533   0.569   3.329  1.3145  4.6609 -0.1431
 3241SOL     OW21358   1.527   3.912   4.499  0.0118  0.1290 -0.1779
 3241SOL    HW121359   1.484   3.849   4.441 -1.2217  0.9791 -0.1831
 3241SOL    HW221360   1.600   3.869   4.545  0.8945  0.3267 -1.3903
 3242SOL     OW21361   0.952   0.088  11.778 -0.6669  0.0473 -0.0718
 3242SOL    HW121362   0.987   0.048  11.857  0.9080  0.7872 -0.3954
 3242SOL    HW221363   1.015   0.057  11.714  0.0978 -1.0328  1.1977
 3243SOL     OW21364   2.059   3.618  15.317 -0.2855 -0.5473  0.3296
 3243SOL    HW121365   2.069   3.710  15.341  0.6257 -1.1529  2.2546
 3243SOL    HW221366   2.139   3.589  15.361  1.0902  2.1828 -0.3709
 3244SOL     OW21367   4.343   1.760  12.333 -0.2569 -0.4126  0.7134
 3244SOL    HW121368   4.276   1.715  12.282 -1.8003  1.6135  0.9811
 3244SOL    HW221369   4.307   1.848  12.327  0.5244 -0.2058 -0.9071
 3245SOL     OW21370   2.515   0.447   8.266  0.3709 -0.6607  0.2908
 3245SOL    HW121371   2.496   0.527   8.217  1.2707 -1.8985 -2.1085
 3245SOL    HW221372   2.431   0.402   8.270  0.6337 -1.0931  0.9115
 3246SOL     OW21373   3.238   1.322   7.677 -0.2975 -0.0949 -0.2251
 3246SOL    HW121374   3.304   1.256   7.700 -0.9064 -0.4387  0.5031
 3246SOL    HW221375   3.286   1.372   7.611 -1.3155  0.7636 -0.3003
 3247SOL     OW21376   0.692   3.053   1.280 -0.7968  0.1064 -0.4157
 3247SOL    HW121377   0.662   3.140   1.304 -0.0671  0.3210 -0.2785
 3247SOL    HW221378   0.722   3.035   1.369  0.2189  1.7444 -0.4297
 3248SOL     OW21379   1.491   3.937  11.816  0.0933 -0.2093 -0.1995
 3248SOL    HW121380   1.520   3.872  11.751  0.3186  0.9026 -1.2062
 3248SOL    HW221381   1.548   4.013  11.803  0.1329  0.2275  2.5304
 3249SOL     OW21382   1.217   1.883   7.586 -0.2042  0.0184  0.3806
 3249SOL    HW121383   1.177   1.949   7.643  1.6241  1.3092  0.2009
 3249SOL    HW221384   1.192   1.923   7.503 -0.1748 -3.8704 -1.4819
 3250SOL     OW21385   3.692   4.171  17.638  0.0624  0.4078  0.3770
 3250SOL    HW121386   3.650   4.107  17.695  0.6170 -0.4789 -0.2198
 3250SOL    HW221387   3.638   4.247  17.658  0.5808  1.3988 -1.9684
 3251SOL     OW21388   0.974   1.138   6.969 -0.3702  0.4417  0.1808
 3251SOL    HW121389   0.896   1.136   6.913  1.5432 -0.6869 -2.4810
 3251SOL    HW221390   1.020   1.059   6.941 -0.2506  0.1437  1.2214
 3252SOL     OW21391   2.280   3.207   8.002  0.1179 -0.0145 -0.9497
 3252SOL    HW121392   2.267   3.193   8.096  1.1570  1.3566 -0.6042
 3252SOL    HW221393   2.265   3.301   7.988 -0.1697 -0.0378 -0.7944
 3253SOL     OW21394   1.016   0.757  11.414  0.0240  0.0629  0.0370
 3253SOL    HW121395   0.971   0.681  11.452  2.6440 -2.9650 -2.9065
 3253SOL    HW221396   1.073   0.776  11.488 -0.5101  3.3192 -0.3901
 3254SOL     OW21397   4.359   2.998   5.231 -0.5003  0.3835  0.3063
 3254SOL    HW121398   4.280   3.037   5.267  0.6711  2.1422  0.9993
 3254SOL    HW221399   4.335   2.962   5.146  1.1582 -0.5097  0.2141
 3255SOL     OW21400   0.149   0.628  16.435  0.1823  0.9588 -0.6975
 3255SOL    HW121401   0.188   0.545  16.464  0.1162  0.8857 -0.8221
 3255SOL    HW221402   0.220   0.691  16.449  0.5141  0.4143  0.1202
 3256SOL     OW21403   3.195   0.830   9.350 -0.1843 -0.1320 -0.1767
 3256SOL    HW121404   3.133   0.778   9.399 -0.5277  0.1984 -0.2621
 3256SOL    HW221405   3.131   0.875   9.294  1.5500  2.0961 -0.4067
 3257SOL     OW21406   1.248   1.052   9.084  0.1621  0.1645 -1.4404
 3257SOL    HW121407   1.196   1.122   9.122  0.5181 -0.4433  0.1767
 3257SOL    HW221408   1.201   1.034   9.003 -1.6317 -0.9266 -0.1708
 3258SOL     OW21409   2.180   3.275   7.028  0.4855  0.1461 -0.0111
 3258SOL    HW121410   2.226   3.355   7.004 -0.2666  0.0762 -1.7502
 3258SOL    HW221411   2.245   3.239   7.088  0.5887 -1.0320 -0.8282
 3259SOL     OW21412   3.537   3.016   5.212 -0.0494 -0.7711 -0.2834
 3259SOL    HW121413   3.490   2.933   5.205 -2.3101  0.5500 -0.6611
 3259SOL    HW221414   3.611   2.989   5.267  0.0459  2.9612  1.4414
 3260SOL     OW21415   1.669   1.782   3.041 -1.1188 -0.2751 -0.1445
 3260SOL    HW121416   1.639   1.719   2.975  1.0604 -0.1404 -1.2783
 3260SOL    HW221417   1.671   1.856   2.980  1.6802 -0.9161 -0.7862
 3261SOL     OW21418   0.400   2.135   3.772  0.1772  0.0683  0.3000
 3261SOL    HW121419   0.443   2.215   3.803 -0.7036  0.2653  0.9991
 3261SOL    HW221420   0.421   2.070   3.838  1.0310 -0.9504 -0.9736
 3262SOL     OW21421   2.960   1.169   2.134 -0.1898  0.9098  0.4425
 3262SOL    HW121422   2.930   1.083   2.163  0.9595 -0.4259 -2.3660
 3262SOL    HW221423   2.917   1.162   2.049 -1.0197 -0.0675  0.9463
 3263SOL     OW21424   1.270   2.890  14.985  0.2458  0.3947 -0.2088
 3263SOL    HW121425   1.237   2.955  14.923 -0.5529 -1.2149 -1.4716
 3263SOL    HW221426   1.191   2.894  15.040  1.0335 -2.1505  1.1067
 3264SOL     OW21427   1.866   1.804  11.304  0.3725  0.0780  0.6398
 3264SOL    HW121428   1.879   1.897  11.286  1.8755 -0.2998 -0.1680
 3264SOL    HW221429   1.894   1.816  11.394  5.3030 -1.7719 -0.6286
 3265SOL     OW21430   2.680   0.650   8.434  0.3468  0.0548  0.6047
 3265SOL    HW121431   2.735   0.617   8.364 -0.1400 -0.0897  0.2875
 3265SOL    HW221432   2.591   0.627   8.405  0.1964  1.2174  0.1619
 3266SOL     OW21433   2.969   1.401   7.674 -0.0266 -0.3257 -0.1166
 3266SOL    HW121434   2.885   1.355   7.677  0.0649 -0.4458  0.5460
 3266SOL    HW221435   3.037   1.337   7.656 -0.6391 -0.4765 -1.8909
 3267SOL     OW21436   3.361   3.502   6.625  0.2407 -0.0616 -0.2228
 3267SOL    HW121437   3.353   3.490   6.719  2.0895 -0.6612 -0.1418
 3267SOL    HW221438   3.283   3.460   6.588 -0.2484  1.3608 -0.8153
 3268SOL     OW21439   0.539   0.840   1.838 -0.1149  0.0490  0.0593
 3268SOL    HW121440   0.565   0.932   1.848  0.5574 -0.3650  2.0660
 3268SOL    HW221441   0.554   0.810   1.927 -2.1396  1.8570  0.9864
 3269SOL     OW21442   0.965   1.053   4.578  0.1879  0.2443 -0.4033
 3269SOL    HW121443   0.913   1.130   4.601 -0.0498 -0.3217  0.9709
 3269SOL    HW221444   1.048   1.100   4.577  0.1896  0.2806  0.7752
 3270SOL     OW21445   0.608   0.207   8.148 -0.5050  0.2672  0.7386
 3270SOL    HW121446   0.582   0.233   8.237 -4.3310  0.2920 -0.4028
 3270SOL    HW221447   0.529   0.232   8.100 -0.0733 -1.9177 -1.0473
 3271SOL     OW21448   0.677   1.097   2.180 -0.1993 -0.6632  0.3570
 3271SOL    HW121449   0.694   1.003   2.177 -0.2810 -0.6555 -0.3916
 3271SOL    HW221450   0.592   1.106   2.223  0.0451  0.7697  0.5460
 3272SOL     OW21451   3.835   1.003   7.068  0.2033 -0.1058  0.1529
 3272SOL    HW121452   3.882   1.086   7.063 -0.6294  0.3930  0.7231
 3272SOL    HW221453   3.832   0.985   7.162  1.0890 -1.4372 -0.0674
 3273SOL     OW21454   1.064   3.457   5.720 -0.3897 -0.3228 -0.3956
 3273SOL    HW121455   1.048   3.507   5.640  3.5985  2.2391  0.3865
 3273SOL    HW221456   0.979   3.417   5.737  0.0667 -0.8007  0.7569
 3274SOL     OW21457   2.748   3.483  11.167  0.0150  0.0239 -0.0347
 3274SOL    HW121458   2.686   3.494  11.095 -0.7003  1.0389  0.7508
 3274SOL    HW221459   2.830   3.474  11.117  0.1975  2.6981 -0.2422
 3275SOL     OW21460   1.291   0.741   4.431 -0.3420 -0.0442 -0.3896
 3275SOL    HW121461   1.272   0.787   4.513 -1.7241 -1.0059 -0.1833
 3275SOL    HW221462   1.222   0.770   4.372 -0.8452 -1.4415 -0.4716
 3276SOL     OW21463   0.460   4.640  12.581 -0.0121  0.0495 -0.1091
 3276SOL    HW121464   0.531   4.704  12.574  0.4069 -0.1990  1.9453
 3276SOL    HW221465   0.479   4.583  12.507 -1.8954  0.0345 -0.5940
 3277SOL     OW21466   0.424   2.300  15.917  0.1642  0.2605  0.8069
 3277SOL    HW121467   0.358   2.346  15.866  1.5758  1.7392  0.2973
 3277SOL    HW221468   0.370   2.240  15.968 -2.2443  3.6433  2.2032
 3278SOL     OW21469   1.743   1.388   8.534 -0.4077  0.6614  0.0986
 3278SOL    HW121470   1.675   1.454   8.548 -1.5853 -0.6227  0.4333
 3278SOL    HW221471   1.746   1.407   8.440 -2.4604 -0.6032 -0.2237
 3279SOL     OW21472   2.689   0.246   8.316  0.1645 -0.7271  0.2797
 3279SOL    HW121473   2.642   0.328   8.298  0.4882 -0.3920  0.9554
 3279SOL    HW221474   2.774   0.269   8.280  0.3734 -0.1845  1.1128
 3280SOL     OW21475   4.536   1.176  12.031 -0.1619  0.1474  0.5318
 3280SOL    HW121476   4.586   1.229  12.093  0.6663  1.1893 -1.0138
 3280SOL    HW221477   4.454   1.225  12.030 -1.8513 -2.7034 -1.0572
 3281SOL     OW21478   2.911   2.480   2.030  0.1419  0.4819 -0.1770
 3281SOL    HW121479   2.959   2.534   2.093  0.0053  1.0054 -0.5203
 3281SOL    HW221480   2.905   2.400   2.082  1.3371  0.2538 -0.3996
 3282SOL     OW21481   0.236   2.609  13.379 -0.0250  0.3966 -0.2933
 3282SOL    HW121482   0.184   2.609  13.459 -1.1563  1.9747 -1.0174
 3282SOL    HW221483   0.274   2.522  13.375 -0.7061  0.0786  0.1866
 3283SOL     OW21484   3.869   2.428  16.350 -0.2497  0.0423  0.3508
 3283SOL    HW121485   3.929   2.354  16.347 -0.3489  0.0554 -1.7228
 3283SOL    HW221486   3.906   2.469  16.428 -1.1443  0.5201  0.5258
 3284SOL     OW21487   1.445   3.752  13.766  0.0971  0.1678 -0.0809
 3284SOL    HW121488   1.409   3.830  13.808  0.4993  0.5879 -0.5172
 3284SOL    HW221489   1.520   3.793  13.723 -1.1642  1.1596 -1.3426
 3285SOL     OW21490   3.764   1.996   1.128 -0.4905  0.8926 -0.6467
 3285SOL    HW121491   3.841   1.986   1.184 -0.8020  2.3412  0.0277
 3285SOL    HW221492   3.703   1.995   1.202 -0.4813  0.2048 -0.6507
 3286SOL     OW21493   3.944   4.426  14.077  0.2253 -0.0715 -0.3695
 3286SOL    HW121494   3.933   4.365  14.004  0.0903 -0.1000 -0.3249
 3286SOL    HW221495   3.891   4.379  14.142 -1.9592  2.1057 -0.5448
 3287SOL     OW21496   2.770   2.488   4.963  0.2685  0.4384 -0.2844
 3287SOL    HW121497   2.770   2.399   4.997 -0.4905  0.5618  0.0439
 3287SOL    HW221498   2.702   2.488   4.895  2.3538  0.8350 -2.3790
 3288SOL     OW21499   3.922   4.146   7.408 -0.4699  0.4027  1.0247
 3288SOL    HW121500   3.970   4.116   7.331 -0.2337  0.3874  1.1789
 3288SOL    HW221501   3.971   4.124   7.488  2.6860 -0.6656 -1.1961
 3289SOL     OW21502   3.155   4.511   3.595  0.0732  0.1051  0.9416
 3289SOL    HW121503   3.206   4.430   3.598  0.0233  0.1113  1.8613
 3289SOL    HW221504   3.068   4.470   3.601 -0.9195  2.2808  1.4026
 3290SOL     OW21505   0.702   1.800   5.011  0.3486 -0.4570 -0.2529
 3290SOL    HW121506   0.751   1.822   5.090 -1.8991 -0.2737  1.1097
 3290SOL    HW221507   0.760   1.757   4.949  0.1757 -1.2312  0.1287
 3291SOL     OW21508   2.580   1.089   9.150 -0.4719 -0.2358  0.2405
 3291SOL    HW121509   2.562   1.015   9.208 -1.9280 -0.6386 -0.7228
 3291SOL    HW221510   2.611   1.046   9.070 -0.6859  1.8030 -0.9450
 3292SOL     OW21511   4.431   1.104   5.909  0.5246 -0.4554 -0.1466
 3292SOL    HW121512   4.412   1.154   5.829 -0.6442 -0.1414  0.3199
 3292SOL    HW221513   4.348   1.125   5.952 -0.7540 -0.3826 -2.6283
 3293SOL     OW21514   1.884   2.320   3.413  0.4300  0.0619  0.7964
 3293SOL    HW121515   1.846   2.251   3.467  0.2011  1.2180  2.0971
 3293SOL    HW221516   1.928   2.267   3.346 -0.6719 -0.3693  0.4161
 3294SOL     OW21517   4.602   4.205   2.003 -0.5979 -0.0230 -0.7351
 3294SOL    HW121518   4.513   4.220   2.035 -1.0482 -3.2476 -0.4458
 3294SOL    HW221519   4.608   4.245   1.916 -2.5153 -0.8090 -1.2304
 3295SOL     OW21520   1.956   1.885   9.263 -0.0842 -0.2333 -0.1622
 3295SOL    HW121521   1.861   1.895   9.257 -0.1112 -1.5052 -2.0570
 3295SOL    HW221522   1.980   1.883   9.170 -1.6028 -3.0233 -0.4740
 3296SOL     OW21523   1.126   3.453   3.364 -0.5008  0.7048  0.4880
 3296SOL    HW121524   1.069   3.479   3.292  2.8234 -1.1502 -2.8227
 3296SOL    HW221525   1.059   3.392   3.395 -1.5232  2.0482  0.9049
 3297SOL     OW21526   1.752   2.009  14.206 -0.3582 -0.6150 -0.3892
 3297SOL    HW121527   1.748   1.940  14.140 -1.2886  0.6802 -1.6885
 3297SOL    HW221528   1.682   2.066  14.173  0.1404 -0.7922 -1.7863
 3298SOL     OW21529   2.582   1.912   2.563 -0.0238  1.3034  0.2714
 3298SOL    HW121530   2.524   1.846   2.525  1.9520 -0.6342  0.5980
 3298SOL    HW221531   2.635   1.870   2.631  1.1625 -0.7062 -1.8589
 3299SOL     OW21532   4.706   2.315   1.988  0.8170 -0.1347  0.5013
 3299SOL    HW121533   4.702   2.386   1.924 -0.1947  0.3126  1.0549
 3299SOL    HW221534   0.053   2.340   2.010  0.9532 -1.3444  1.3442
 3300SOL     OW21535   1.011   0.555   5.973  0.4147 -0.2750  0.0721
 3300SOL    HW121536   1.052   0.615   6.035  0.0275 -1.5873  1.5870
 3300SOL    HW221537   1.081   0.489   5.974 -0.0137 -0.7386 -0.3226
 3301SOL     OW21538   2.577   3.419   5.140  0.4419  0.3562  0.4609
 3301SOL    HW121539   2.635   3.468   5.198  1.4055  2.1727 -2.0088
 3301SOL    HW221540   2.634   3.398   5.066 -1.0942 -0.1035 -0.6082
 3302SOL     OW21541   0.863   3.161   5.630 -0.0069  0.1459  0.1654
 3302SOL    HW121542   0.775   3.144   5.598  0.2038  2.5955 -1.7329
 3302SOL    HW221543   0.859   3.251   5.664  0.7953  0.2591 -0.0403
 3303SOL     OW21544   2.797   2.357   4.124  0.1151  0.2673 -0.4196
 3303SOL    HW121545   2.843   2.441   4.114  0.7440  0.0111  0.4118
 3303SOL    HW221546   2.863   2.323   4.184 -0.8580 -1.4503 -0.3331
 3304SOL     OW21547   1.966   1.214  10.404  0.1608 -0.1022 -0.1578
 3304SOL    HW121548   2.007   1.292  10.367  0.8321 -1.2973 -1.9355
 3304SOL    HW221549   1.876   1.246  10.407 -0.3560 -1.4392 -1.0573
 3305SOL     OW21550   0.405   1.639   9.523  0.3243  0.0778 -0.2248
 3305SOL    HW121551   0.402   1.615   9.431 -0.7138  0.6767 -0.3513
 3305SOL    HW221552   0.349   1.717   9.521  0.7691  0.4797  2.1957
 3306SOL     OW21553   3.896   4.153  14.195 -0.0157 -0.0666  0.5881
 3306SOL    HW121554   3.832   4.194  14.254  0.7544 -1.2074  2.1972
 3306SOL    HW221555   3.863   4.166  14.106  0.3708 -0.8683  0.3319
 3307SOL     OW21556   1.742   4.607   9.340 -0.1039  1.3357 -0.2977
 3307SOL    HW121557   1.693   4.547   9.284  0.1071  0.4288  0.4763
 3307SOL    HW221558   1.694   4.594   9.422 -2.3186  0.4804 -1.7393
 3308SOL     OW21559   1.791   2.416   7.746  0.2023 -0.1656  0.2589
 3308SOL    HW121560   1.706   2.375   7.731 -0.8167  0.4661  4.2173
 3308SOL    HW221561   1.846   2.355   7.697 -1.9022 -0.4461 -1.7352
 3309SOL     OW21562   3.684   0.472   0.245 -0.0353  0.6661 -0.2647
 3309SOL    HW121563   3.641   0.415   0.181  0.0065 -0.2718  0.5388
 3309SOL    HW221564   3.775   0.455   0.221 -0.6800 -1.2556 -1.3979
 3310SOL     OW21565   0.796   4.671   5.754 -0.2307 -0.0743  0.5214
 3310SOL    HW121566   0.865   4.683   5.689 -0.2307  1.0280  0.7339
 3310SOL    HW221567   0.841   4.614   5.817 -0.6519  0.0355  0.9207
 3311SOL     OW21568   3.245   1.867  15.097  0.1283  0.2461 -0.3994
 3311SOL    HW121569   3.339   1.869  15.076  0.3499 -0.3224  0.5655
 3311SOL    HW221570   3.223   1.801  15.032  0.5547  0.6956 -1.0136
 3312SOL     OW21571   4.189   2.740   5.536  0.3849  0.0691 -0.2484
 3312SOL    HW121572   4.242   2.810   5.574  0.6159  1.1190 -2.4564
 3312SOL    HW221573   4.247   2.664   5.531  3.5330  2.5236 -0.8887
 3313SOL     OW21574   1.188   2.646  16.881 -0.1031 -0.2048 -0.2981
 3313SOL    HW121575   1.218   2.732  16.911  0.6374 -0.5139 -0.1617
 3313SOL    HW221576   1.261   2.596  16.917  1.1565  0.4850 -1.8800
 3314SOL     OW21577   3.500   2.690   9.596  0.0966  0.0521  0.4571
 3314SOL    HW121578   3.588   2.709   9.629 -0.2728 -0.5295  1.8018
 3314SOL    HW221579   3.439   2.708   9.668 -0.1260  0.9588  0.0470
 3315SOL     OW21580   2.103   3.377  12.043 -0.3291  0.3707 -0.0655
 3315SOL    HW121581   2.079   3.313  12.110  1.1669 -0.2623 -0.1499
 3315SOL    HW221582   2.155   3.325  11.983 -3.0432 -0.7819 -1.4412
 3316SOL     OW21583   1.628   3.921   5.871  0.1353  0.2243 -0.6467
 3316SOL    HW121584   1.723   3.922   5.880  0.2296 -0.1577 -1.7004
 3316SOL    HW221585   1.612   3.840   5.920  0.0810 -0.6733 -2.1760
 3317SOL     OW21586   4.111   3.978   5.625  0.3020 -0.0044  0.4655
 3317SOL    HW121587   4.166   3.939   5.557 -0.0118  2.5024 -1.2257
 3317SOL    HW221588   4.145   3.929   5.701 -0.7946 -1.3738  0.0718
 3318SOL     OW21589   4.479   4.277   3.025 -0.4328 -1.0233  1.1771
 3318SOL    HW121590   4.557   4.235   3.061  0.3502  0.7437  1.5010
 3318SOL    HW221591   4.512   4.299   2.938  1.3831 -1.7265  1.6837
 3319SOL     OW21592   1.539   0.830   4.667  0.0245  0.0122 -0.2475
 3319SOL    HW121593   1.567   0.792   4.584  0.3329  1.4803 -0.8134
 3319SOL    HW221594   1.534   0.921   4.638 -0.7691  0.3504  0.9331
 3320SOL     OW21595   2.506   1.261   1.710 -0.1141 -0.0450  0.0616
 3320SOL    HW121596   2.504   1.294   1.620  2.1730 -1.9662 -0.7050
 3320SOL    HW221597   2.539   1.335   1.761 -1.7064 -0.2509  1.3531
 3321SOL     OW21598   1.959   3.500  11.829  0.4006  0.3600 -0.9336
 3321SOL    HW121599   2.030   3.561  11.809  0.1547  0.9439 -0.0097
 3321SOL    HW221600   1.966   3.479  11.922 -0.5553 -0.8401 -1.1296
 3322SOL     OW21601   4.640   0.949   0.387 -0.2332  0.2271  0.1055
 3322SOL    HW121602   4.715   0.891   0.398  0.1956  0.6817 -0.4126
 3322SOL    HW221603   4.651   0.980   0.297  0.4295 -2.8785 -0.8861
 3323SOL     OW21604   2.790   0.634  11.678  0.3042 -0.7171 -0.2881
 3323SOL    HW121605   2.876   0.613  11.715 -0.1231  0.6865  1.5106
 3323SOL    HW221606   2.764   0.705  11.736  0.2840 -0.9512 -0.0061
 3324SOL     OW21607   3.676   1.292   2.730  0.4734  0.2811 -0.2220
 3324SOL    HW121608   3.665   1.297   2.635 -1.2318  1.1701  0.0240
 3324SOL    HW221609   3.771   1.293   2.736  0.5209 -0.5902 -0.8167
 3325SOL     OW21610   3.279   2.865   8.585  0.6522  0.4579 -0.1678
 3325SOL    HW121611   3.294   2.958   8.565 -0.9423  1.0178  1.1999
 3325SOL    HW221612   3.271   2.870   8.681  1.2291  0.0685 -0.1038
 3326SOL     OW21613   0.760   2.961   7.130 -0.1617 -0.2089 -0.7489
 3326SOL    HW121614   0.743   3.052   7.153  0.1781 -0.7238  1.5494
 3326SOL    HW221615   0.797   2.937   7.216  2.4500  3.7978 -0.7651
 3327SOL     OW21616   3.367   3.897   5.077 -0.2459  0.3173  0.0718
 3327SOL    HW121617   3.378   3.983   5.038  0.1870  0.0147 -0.4590
 3327SOL    HW221618   3.404   3.914   5.163  3.0259  0.2235 -1.3451
 3328SOL     OW21619   3.321   4.662   4.046  1.2960  0.2276 -0.0500
 3328SOL    HW121620   3.288   4.700   3.965  1.8375  2.2151  0.6599
 3328SOL    HW221621   3.267   4.701   4.115 -0.0356  1.1192 -1.6048
 3329SOL     OW21622   3.619   0.437  13.355 -0.2411  0.3096  0.0103
 3329SOL    HW121623   3.589   0.445  13.264 -0.1358 -0.7455 -0.1111
 3329SOL    HW221624   3.712   0.414  13.347  0.1900  1.2152  2.3872
 3330SOL     OW21625   4.302   1.637   0.693 -0.2006  0.2176 -0.1365
 3330SOL    HW121626   4.233   1.692   0.658 -0.5460  0.7674  1.4177
 3330SOL    HW221627   4.344   1.600   0.615 -1.9897  3.4414 -2.5961
 3331SOL     OW21628   4.350   0.915   4.256 -0.4881  0.0958 -0.2214
 3331SOL    HW121629   4.271   0.959   4.223 -0.2163  0.6309 -0.1507
 3331SOL    HW221630   4.323   0.831   4.293  2.9239 -0.4498  1.0242
 3332SOL     OW21631   0.063   1.424   3.759  0.0745 -0.2830  0.0997
 3332SOL    HW121632   0.024   1.354   3.707  0.1863  1.3277 -2.1361
 3332SOL    HW221633   0.144   1.382   3.789  0.2174  0.5743  0.9181
 3333SOL     OW21634   4.198   4.070   1.896 -0.3719  0.6974  0.2083
 3333SOL    HW121635   4.258   4.094   1.967 -1.0815  1.0292  0.7003
 3333SOL    HW221636   4.236   3.989   1.863  1.3800  1.5173  0.1980
 3334SOL     OW21637   3.061   2.374  17.269  0.9142  0.2627 -0.1910
 3334SOL    HW121638   3.018   2.454  17.302  1.2366 -0.6486  2.4744
 3334SOL    HW221639   3.105   2.400  17.188  0.0292 -0.0007 -0.7517
 3335SOL     OW21640   3.971   3.688   5.952  0.0936  0.0896 -0.1371
 3335SOL    HW121641   3.930   3.630   5.888 -0.4646 -1.5812  1.7305
 3335SOL    HW221642   3.961   3.625   6.023 -1.7653  1.8538  1.1818
 3336SOL     OW21643   3.372   1.643   4.769 -0.5421 -0.0040 -0.5285
 3336SOL    HW121644   3.315   1.719   4.783  2.2607  1.8317  0.8119
 3336SOL    HW221645   3.412   1.627   4.855 -0.8936  1.6622 -0.0572
 3337SOL     OW21646   2.126   2.698   6.764 -0.2746  0.1239  0.4142
 3337SOL    HW121647   2.143   2.662   6.677  2.7319 -0.7602  1.3426
 3337SOL    HW221648   2.065   2.767   6.737 -1.8242 -0.2211  3.0235
 3338SOL     OW21649   4.601   4.724   3.938  0.0674  0.1524 -0.2341
 3338SOL    HW121650   4.543   4.724   4.014 -0.8501 -0.8564 -0.9394
 3338SOL    HW221651   4.537   4.703   3.871 -1.3098  4.3311 -0.2358
 3339SOL     OW21652   1.556   2.326   5.554 -0.0045 -0.3659 -0.6375
 3339SOL    HW121653   1.651   2.325   5.540  0.0808  0.7998 -0.1217
 3339SOL    HW221654   1.522   2.337   5.465  1.0206  1.7646 -0.7537
 3340SOL     OW21655   4.377   4.288   4.881 -0.3278 -0.1124  0.7638
 3340SOL    HW121656   4.420   4.266   4.798  0.7790  0.8082  1.0888
 3340SOL    HW221657   4.287   4.278   4.849 -0.1696  0.8482  0.0161
 3341SOL     OW21658   0.244   3.629   8.071  0.4463  0.2945  0.7084
 3341SOL    HW121659   0.266   3.536   8.068 -2.1550 -0.3177  0.2811
 3341SOL    HW221660   0.250   3.658   7.980  0.0233  3.5545  1.7127
 3342SOL     OW21661   2.873   1.524  10.576  0.3363 -0.1547 -0.2235
 3342SOL    HW121662   2.825   1.488  10.650 -1.3954  1.0158 -0.7395
 3342SOL    HW221663   2.846   1.616  10.586  2.9030  0.4536  1.0074
 3343SOL     OW21664   3.450   3.428   6.902 -0.3314  0.1862 -0.2180
 3343SOL    HW121665   3.496   3.400   6.981  0.3502  1.7052 -0.0747
 3343SOL    HW221666   3.445   3.520   6.925  0.7131  0.0285  0.6287
 3344SOL     OW21667   3.267   2.060   6.460 -0.2757  0.4940  0.6396
 3344SOL    HW121668   3.227   2.131   6.511 -4.2467  0.6655 -2.6413
 3344SOL    HW221669   3.307   2.004   6.527 -1.0053 -0.4287  0.3067
 3345SOL     OW21670   3.688   0.185   9.692  0.0891 -1.0729  0.4269
 3345SOL    HW121671   3.708   0.278   9.682 -0.5273 -0.9136  0.6195
 3345SOL    HW221672   3.661   0.179   9.784 -0.3562  2.4950  0.5299
 3346SOL     OW21673   0.906   3.171   3.171 -0.3109  0.6922  0.1548
 3346SOL    HW121674   0.979   3.176   3.109 -1.9267 -0.5932 -1.8444
 3346SOL    HW221675   0.917   3.077   3.186 -0.8861  0.1896 -2.5247
 3347SOL     OW21676   1.542   1.576   7.468 -0.2770 -0.1376  0.2998
 3347SOL    HW121677   1.490   1.604   7.544  0.4028  0.1019  0.6765
 3347SOL    HW221678   1.559   1.486   7.498  0.6020  0.2746  1.0493
 3348SOL     OW21679   3.790   3.334   2.951  0.1101  0.2335  0.2837
 3348SOL    HW121680   3.864   3.282   2.918 -0.6352 -0.3693 -0.4228
 3348SOL    HW221681   3.836   3.382   3.020 -1.2859  0.5586  0.9767
 3349SOL     OW21682   0.675   3.536   3.549 -0.0471  0.5062 -0.6588
 3349SOL    HW121683   0.726   3.473   3.599 -0.9036  2.0718  2.1515
 3349SOL    HW221684   0.596   3.482   3.541 -0.5317  0.8245  2.0056
 3350SOL     OW21685   0.004   2.354  13.261 -0.2780 -0.4602 -0.1056
 3350SOL    HW121686   4.654   2.329  13.271 -0.1384 -0.7536  0.4373
 3350SOL    HW221687   4.734   2.449  13.272  1.5375  0.0544 -2.5344
 3351SOL     OW21688   4.098   1.045  11.182 -0.0910 -0.6468  0.5188
 3351SOL    HW121689   4.016   1.092  11.167 -0.7893 -1.7217  0.9119
 3351SOL    HW221690   4.118   1.067  11.273  1.4850  0.3897 -0.0885
 3352SOL     OW21691   4.131   0.926   9.297  0.2960  0.6608 -0.0114
 3352SOL    HW121692   4.062   0.932   9.362  0.4602 -0.4454  0.2558
 3352SOL    HW221693   4.083   0.883   9.226  1.0301 -1.8620  1.0276
 3353SOL     OW21694   2.807   4.078   3.295 -0.1304  0.2090  1.0467
 3353SOL    HW121695   2.896   4.089   3.327 -0.3525 -1.2386  2.1483
 3353SOL    HW221696   2.812   4.000   3.240  1.3101  0.9113  0.1673
 3354SOL     OW21697   3.056   4.415   4.003 -0.0953 -0.2421 -0.2908
 3354SOL    HW121698   3.059   4.340   3.944 -0.6354 -0.9704  0.5920
 3354SOL    HW221699   3.012   4.374   4.078 -0.9424 -0.3279 -0.8336
 3355SOL     OW21700   3.212   2.959   4.489  0.1982  0.3637  0.0278
 3355SOL    HW121701   3.182   2.871   4.467  1.5734  0.0483 -0.5791
 3355SOL    HW221702   3.298   2.954   4.448  1.2655  0.4657  2.2181
 3356SOL     OW21703   0.035   4.088   4.282 -0.4000  0.0901  0.0218
 3356SOL    HW121704   0.005   3.998   4.271  1.0253 -0.2576 -1.0955
 3356SOL    HW221705   0.069   4.104   4.194  1.2841 -1.5526  0.3724
 3357SOL     OW21706   3.871   0.132  14.892  0.0762  0.0214 -0.3148
 3357SOL    HW121707   3.946   0.108  14.837 -0.3103  0.8591 -1.2076
 3357SOL    HW221708   3.916   0.186  14.958 -0.4277 -0.2538  0.2465
 3358SOL     OW21709   2.435   1.873   3.290 -0.6850 -0.0481  0.0477
 3358SOL    HW121710   2.447   1.952   3.238 -0.4669  0.1297  0.3690
 3358SOL    HW221711   2.484   1.898   3.369  0.1157 -2.4111  0.3041
 3359SOL     OW21712   0.688   3.976   7.298  0.0301  0.0249  0.3582
 3359SOL    HW121713   0.685   3.937   7.385  0.5989 -0.6288  0.0865
 3359SOL    HW221714   0.620   4.043   7.300  0.6911  0.6238  2.3232
 3360SOL     OW21715   0.315   4.213   2.296  0.1953 -0.6731 -0.0398
 3360SOL    HW121716   0.397   4.250   2.328  0.1789  1.7692 -2.8083
 3360SOL    HW221717   0.343   4.134   2.249 -2.9833 -1.6049 -0.3347
 3361SOL     OW21718   1.183   1.666  17.472 -0.5200 -0.5418  0.5593
 3361SOL    HW121719   1.161   1.724  17.399  3.4999  0.3500  0.0317
 3361SOL    HW221720   1.232   1.597  17.426  1.0002  0.5230  0.5653
 3362SOL     OW21721   4.145   1.294   4.097 -0.3621  0.2159  0.1312
 3362SOL    HW121722   4.100   1.370   4.134 -0.4179 -0.0508  0.6150
 3362SOL    HW221723   4.200   1.271   4.172 -0.8725  0.3396  0.5460
 3363SOL     OW21724   3.406   2.035   2.451 -0.7199 -0.1578  0.3366
 3363SOL    HW121725   3.378   1.946   2.430  1.4433 -0.1516 -2.5579
 3363SOL    HW221726   3.426   2.024   2.544  0.2271 -0.5515  0.0887
 3364SOL     OW21727   2.608   1.928   7.101  0.1685 -0.6334  0.0695
 3364SOL    HW121728   2.611   1.931   7.005  2.0677  1.5085  0.1927
 3364SOL    HW221729   2.532   1.871   7.116  0.1815 -0.6343  0.1333
 3365SOL     OW21730   2.543   3.024  17.187 -0.6542 -0.6250 -0.6582
 3365SOL    HW121731   2.570   3.078  17.262 -3.3716 -2.7810  1.8406
 3365SOL    HW221732   2.473   2.970  17.223 -0.0486 -2.3163 -2.0149
 3366SOL     OW21733   0.169   0.973   7.000  0.1047 -0.0144  0.9507
 3366SOL    HW121734   0.168   1.067   7.018 -1.6210  0.4170 -1.3539
 3366SOL    HW221735   0.234   0.961   7.069  0.5013 -0.5264  0.4939
 3367SOL     OW21736   0.245   0.732  12.579  0.3350 -0.0799 -0.2704
 3367SOL    HW121737   0.218   0.668  12.645  0.7147 -0.7576 -0.7714
 3367SOL    HW221738   0.188   0.709  12.506  1.2046 -0.6011 -0.7815
 3368SOL     OW21739   3.187   0.665   4.478  0.1903  0.6114  0.6765
 3368SOL    HW121740   3.275   0.672   4.516 -0.7895  1.3763  2.7946
 3368SOL    HW221741   3.158   0.756   4.478  1.9572  1.1873 -0.3849
 3369SOL     OW21742   0.381   3.786   1.984  0.1394 -0.2635  0.0743
 3369SOL    HW121743   0.293   3.749   1.979  0.5929 -1.2453 -0.5659
 3369SOL    HW221744   0.437   3.709   1.981 -0.0929 -0.5052  2.0127
 3370SOL     OW21745   4.211   0.665   8.648 -1.2488  0.1036 -0.5264
 3370SOL    HW121746   4.228   0.740   8.706  1.7362 -1.9326  1.2263
 3370SOL    HW221747   4.187   0.703   8.563  0.5391  0.6811 -0.7771
 3371SOL     OW21748   4.547   1.746   6.472 -0.3613  0.0972  0.3177
 3371SOL    HW121749   4.573   1.793   6.393 -2.1525  0.0400 -0.3089
 3371SOL    HW221750   4.471   1.698   6.439 -1.0652  0.3343  1.6099
 3372SOL     OW21751   0.992   0.264   5.186 -0.5265 -0.3586 -0.2722
 3372SOL    HW121752   0.897   0.268   5.183 -0.5260 -0.2023 -0.0614
 3372SOL    HW221753   1.012   0.209   5.110 -1.3659  0.4768 -1.0925
 3373SOL     OW21754   2.139   1.378   7.700  0.0786 -0.3059  0.1392
 3373SOL    HW121755   2.201   1.311   7.730  0.6199 -0.5358 -1.5075
 3373SOL    HW221756   2.165   1.397   7.610  0.2291 -1.9749 -0.1540
 3374SOL     OW21757   2.977   2.497   8.188 -0.0139  0.5153  0.1825
 3374SOL    HW121758   2.925   2.426   8.151  1.0668 -0.0026 -0.3414
 3374SOL    HW221759   3.065   2.471   8.162  0.4584  0.9145  1.3596
 3375SOL     OW21760   3.248   2.417  16.003 -0.5234  0.2013  0.2241
 3375SOL    HW121761   3.209   2.385  16.085  0.5090 -0.7450  0.3585
 3375SOL    HW221762   3.313   2.480  16.035  0.6689  0.8599 -3.5844
 3376SOL     OW21763   2.059   0.397   4.782 -0.6060 -0.0255 -0.0170
 3376SOL    HW121764   1.965   0.380   4.772 -0.9277  1.1042  1.2143
 3376SOL    HW221765   2.074   0.462   4.713 -3.2412 -0.6456 -1.2168
 3377SOL     OW21766   4.312   4.581  16.957  0.3043 -0.3011 -0.0744
 3377SOL    HW121767   4.358   4.665  16.957 -0.6875  0.2363  1.0269
 3377SOL    HW221768   4.296   4.569  17.050  1.1367 -0.5224  0.0442
 3378SOL     OW21769   2.908   4.407   4.487  0.2880  0.1408 -0.1456
 3378SOL    HW121770   2.816   4.423   4.509 -0.1576 -4.3549  1.1429
 3378SOL    HW221771   2.924   4.501   4.484 -0.5258  0.3316  1.7389
 3379SOL     OW21772   0.521   1.361   7.373  0.0050 -0.0468  0.5334
 3379SOL    HW121773   0.576   1.309   7.431 -1.3469 -3.7808 -1.5526
 3379SOL    HW221774   0.563   1.339   7.290  2.3736 -0.6570  1.8893
 3380SOL     OW21775   2.767   0.541   0.770  0.5364 -0.0060  0.0198
 3380SOL    HW121776   2.842   0.482   0.780 -0.2434 -1.0401 -0.3156
 3380SOL    HW221777   2.794   0.610   0.710 -1.3703 -0.1184 -0.9671
 3381SOL     OW21778   0.712   0.130   3.069  0.0157  0.7404 -0.1490
 3381SOL    HW121779   0.698   0.217   3.105  1.0664 -0.2701  2.6875
 3381SOL    HW221780   0.618   0.109   3.068  0.5376 -1.7361  2.2091
 3382SOL     OW21781   0.121   4.587   4.710  0.5773 -0.6004 -0.0943
 3382SOL    HW121782   0.063   4.662   4.721  0.5160 -0.9626  1.8924
 3382SOL    HW221783   0.061   4.517   4.734 -0.8041  0.8478  0.7023
 3383SOL     OW21784   1.850   0.345   5.931 -0.4248 -0.5086  0.3633
 3383SOL    HW121785   1.921   0.282   5.918 -1.2758 -1.3090 -0.3641
 3383SOL    HW221786   1.869   0.383   6.017  1.9400 -0.0824 -0.3234
 3384SOL     OW21787   4.378   1.510   2.882  0.1733  0.0998 -0.1243
 3384SOL    HW121788   4.463   1.546   2.856 -0.5271  1.3198 -0.6859
 3384SOL    HW221789   4.376   1.549   2.969 -0.8782 -0.5499  0.1476
 3385SOL     OW21790   0.671   4.073   8.533  0.2122 -0.1484 -0.2744
 3385SOL    HW121791   0.739   4.128   8.493 -0.2139 -0.8061 -1.9132
 3385SOL    HW221792   0.656   4.130   8.608  0.8377 -0.3931  0.0322
 3386SOL     OW21793   1.785   4.298   5.128  0.3549 -0.1104 -0.0371
 3386SOL    HW121794   1.773   4.203   5.120 -1.3091  0.1193 -0.3350
 3386SOL    HW221795   1.705   4.321   5.175 -0.2230 -2.2187  0.0206
 3387SOL     OW21796   2.513   0.683   3.007  0.5379  0.2560 -0.3709
 3387SOL    HW121797   2.456   0.638   2.945 -1.7913 -1.9891  3.3902
 3387SOL    HW221798   2.556   0.606   3.043 -1.1134  0.1273  1.2869
 3388SOL     OW21799   1.028   2.407  17.323  0.2021 -0.0974 -0.5711
 3388SOL    HW121800   1.044   2.339  17.389  1.2619  0.3087 -0.4127
 3388SOL    HW221801   1.042   2.359  17.241 -0.5052 -2.6640  0.7964
 3389SOL     OW21802   1.848   0.605  16.985 -0.1854 -0.0268 -0.6236
 3389SOL    HW121803   1.897   0.664  16.929 -0.8061 -1.8307 -3.0835
 3389SOL    HW221804   1.771   0.590  16.929 -0.7422 -0.2398  0.1902
 3390SOL     OW21805   1.097   3.383   0.240  0.4072 -0.2824  0.3342
 3390SOL    HW121806   1.183   3.400   0.278 -0.2153  0.5864  1.3593
 3390SOL    HW221807   1.055   3.464   0.268 -0.0758 -0.2386 -0.5200
 3391SOL     OW21808   3.449   1.593   7.397  0.5698 -0.0879 -0.1875
 3391SOL    HW121809   3.462   1.498   7.404 -0.8945 -0.1941  1.1829
 3391SOL    HW221810   3.382   1.612   7.463 -0.7130 -0.9290 -1.2413
 3392SOL     OW21811   0.632   2.690   9.597  0.0120  0.3432 -0.0487
 3392SOL    HW121812   0.647   2.694   9.692  0.8914  0.8201 -0.2058
 3392SOL    HW221813   0.537   2.692   9.602  0.0348 -1.1231  0.9243
 3393SOL     OW21814   3.398   3.609   5.108 -0.2371  0.1321 -0.2665
 3393SOL    HW121815   3.371   3.695   5.075  0.3161 -0.1379 -1.4444
 3393SOL    HW221816   3.424   3.642   5.194  3.2482 -0.8788 -0.9353
 3394SOL     OW21817   1.616   1.702  15.495  0.7414 -0.4975 -0.0051
 3394SOL    HW121818   1.543   1.712  15.433 -1.6208 -1.6908  2.5886
 3394SOL    HW221819   1.625   1.607  15.487  1.8826 -0.3966  0.1173
 3395SOL     OW21820   3.615   0.621  15.819 -0.6275 -0.2049  0.7040
 3395SOL    HW121821   3.664   0.571  15.752  0.1541  2.5253 -0.7550
 3395SOL    HW221822   3.687   0.663  15.865 -1.9553  1.7198  1.0044
 3396SOL     OW21823   4.555   4.539   2.515  0.3615  0.1532 -0.2803
 3396SOL    HW121824   4.521   4.483   2.445  1.7956 -1.9521  0.7044
 3396SOL    HW221825   4.636   4.493   2.536 -0.0601 -1.0021 -1.2188
 3397SOL     OW21826   0.598   3.490   8.822  0.2860  0.1968  0.1801
 3397SOL    HW121827   0.650   3.491   8.742  1.9094 -0.4851  1.2251
 3397SOL    HW221828   0.539   3.562   8.802 -2.2068 -1.4138  1.6569
 3398SOL     OW21829   4.314   3.480   5.070  0.1864  0.3096  0.1278
 3398SOL    HW121830   4.368   3.435   5.135 -0.4214  2.1210  1.8773
 3398SOL    HW221831   4.297   3.417   5.000  2.5785 -0.2265  0.0279
 3399SOL     OW21832   3.492   4.336   3.279 -0.0413 -0.0110 -0.0462
 3399SOL    HW121833   3.528   4.304   3.196 -0.8034  1.0217 -0.7791
 3399SOL    HW221834   3.441   4.412   3.250  1.4041  1.5395  1.5176
 3400SOL     OW21835   2.331   0.194   2.103 -0.1058  0.1858 -0.0860
 3400SOL    HW121836   2.321   0.284   2.135  0.9174  0.3002 -0.1008
 3400SOL    HW221837   2.334   0.219   2.011  1.8295  0.8762  0.1692
 3401SOL     OW21838   0.687   1.496   5.660 -0.3292  0.1735  0.6809
 3401SOL    HW121839   0.761   1.541   5.700  0.4241 -0.5478  0.0987
 3401SOL    HW221840   0.728   1.450   5.587 -0.3311  0.1335  0.7049
 3402SOL     OW21841   1.904   0.306   5.345  0.0496  0.2952 -0.1709
 3402SOL    HW121842   1.861   0.285   5.428 -1.0114  0.0995 -0.7599
 3402SOL    HW221843   1.898   0.401   5.334  0.8881  0.0999 -2.4204
 3403SOL     OW21844   1.136   3.057   4.121  0.7294  0.4512  0.0436
 3403SOL    HW121845   1.214   3.069   4.068  1.0165 -0.2479  0.3131
 3403SOL    HW221846   1.166   3.097   4.202 -2.5658  0.0294  1.5115
 3404SOL     OW21847   2.827   1.286   7.053  0.4612  0.0423 -0.2350
 3404SOL    HW121848   2.733   1.266   7.053 -0.0182  2.1981  2.2561
 3404SOL    HW221849   2.874   1.219   7.103  2.0694 -0.3305 -2.2745
 3405SOL     OW21850   0.826   2.561  13.687  0.6231  0.4788 -0.2753
 3405SOL    HW121851   0.841   2.584  13.778  1.6406 -2.4796  0.2781
 3405SOL    HW221852   0.736   2.592  13.672  0.6431 -0.4676 -2.4293
 3406SOL     OW21853   2.292   0.832   3.113  0.5421  0.1155 -0.4262
 3406SOL    HW121854   2.347   0.770   3.064 -0.0558  0.6573 -1.7856
 3406SOL    HW221855   2.347   0.837   3.192 -0.0433  1.5475 -0.1144
 3407SOL     OW21856   0.411   3.731   7.602 -0.6673 -0.3957 -0.0850
 3407SOL    HW121857   0.484   3.728   7.664 -1.4422  0.3368  0.8486
 3407SOL    HW221858   0.376   3.642   7.590 -1.4607 -0.1460  0.3535
 3408SOL     OW21859   2.276   4.541   2.601  0.2533 -0.3481  0.2273
 3408SOL    HW121860   2.225   4.619   2.622 -1.3315 -1.2894 -0.1043
 3408SOL    HW221861   2.225   4.473   2.646 -0.2688 -1.3675 -1.9025
 3409SOL     OW21862   0.469   3.701  11.689  0.3662  0.5035 -0.0946
 3409SOL    HW121863   0.389   3.722  11.736  0.3088 -1.2115  0.5869
 3409SOL    HW221864   0.496   3.619  11.731 -1.3115  0.8046  1.5472
 3410SOL     OW21865   4.500   1.119   4.553  0.1128 -0.4514  0.4430
 3410SOL    HW121866   4.407   1.099   4.555  0.0324 -0.0700  0.6101
 3410SOL    HW221867   4.525   1.103   4.462 -0.8250 -1.4641  0.3753
 3411SOL     OW21868   1.092   3.340   8.347 -0.1134  0.6397 -0.1948
 3411SOL    HW121869   1.107   3.353   8.441 -1.1419 -0.0496  0.0602
 3411SOL    HW221870   1.014   3.285   8.350 -1.0705  2.0734  1.5645
 3412SOL     OW21871   0.068   0.314   3.225 -0.1449  0.0345  0.0613
 3412SOL    HW121872   0.030   0.227   3.229 -0.6507  0.3078  1.4701
 3412SOL    HW221873   0.096   0.307   3.134 -0.8685 -0.8427 -0.0877
 3413SOL     OW21874   1.288   0.713   3.745 -0.4551 -0.4940 -0.5692
 3413SOL    HW121875   1.302   0.619   3.753  2.1314 -0.1943 -1.6657
 3413SOL    HW221876   1.194   0.724   3.762 -0.6998 -1.6011 -1.1811
 3414SOL     OW21877   3.286   2.865   4.771  0.7386  0.3045 -0.0020
 3414SOL    HW121878   3.336   2.934   4.813 -0.5197  0.0536  1.9289
 3414SOL    HW221879   3.211   2.916   4.741 -1.0775 -1.0853  2.1403
 3415SOL     OW21880   0.318   0.837   5.829 -0.1714 -0.2751 -0.2095
 3415SOL    HW121881   0.374   0.780   5.776  1.6115  1.1036  0.1900
 3415SOL    HW221882   0.375   0.852   5.904  2.8569 -2.6998 -2.0596
 3416SOL     OW21883   2.429   0.042   5.324 -0.3362  0.3037  0.4491
 3416SOL    HW121884   2.337   0.025   5.343 -0.5025  0.2391 -0.4209
 3416SOL    HW221885   2.437   0.117   5.383 -0.1018  0.2375  0.5012
 3417SOL     OW21886   3.389   0.092   4.906 -0.1101  0.3904 -0.2564
 3417SOL    HW121887   3.302   0.132   4.910  0.9071  2.4832  0.8658
 3417SOL    HW221888   3.380   0.004   4.942  1.6079  0.4246  0.2380
 3418SOL     OW21889   4.265   4.638  13.955 -0.0239  0.1409  0.2759
 3418SOL    HW121890   4.286   4.715  13.902 -1.5146 -0.4247 -1.1039
 3418SOL    HW221891   4.172   4.654  13.970 -0.7041 -0.9855 -2.8032
 3419SOL     OW21892   3.083   4.188   3.914  0.4239  0.6242 -0.1454
 3419SOL    HW121893   3.053   4.140   3.837 -1.8831  0.6955  0.7032
 3419SOL    HW221894   3.090   4.110   3.969 -2.1053  0.0948 -0.6010
 3420SOL     OW21895   4.572   2.171   3.434 -0.4390 -0.5298 -0.2990
 3420SOL    HW121896   4.488   2.209   3.458  0.2541  0.5970  0.2975
 3420SOL    HW221897   4.547   2.090   3.389  0.8564 -0.8449 -0.4794
 3421SOL     OW21898   0.067   0.991   8.578 -0.2110  0.2623 -0.2651
 3421SOL    HW121899   0.024   0.908   8.558 -0.4842  0.9900 -2.7556
 3421SOL    HW221900   4.735   1.050   8.594  0.3921  1.5960 -2.3308
 3422SOL     OW21901   4.648   4.525   4.907 -0.0554 -0.7138 -0.3938
 3422SOL    HW121902   4.575   4.575   4.871  1.0661 -0.3393 -2.1292
 3422SOL    HW221903   4.626   4.531   5.000  1.5703 -2.6787  0.1075
 3423SOL     OW21904   2.228   1.139   6.704 -0.0781  0.6365  0.0120
 3423SOL    HW121905   2.164   1.201   6.668 -1.1862 -0.8873 -0.6102
 3423SOL    HW221906   2.212   1.061   6.652  0.6042  0.0629  0.6742
 3424SOL     OW21907   0.076   1.785   2.048  0.3058  0.2236  0.1802
 3424SOL    HW121908   0.082   1.875   2.017  1.5459 -0.8139 -2.5349
 3424SOL    HW221909   0.018   1.791   2.124 -0.1987 -0.2689 -0.1710
 3425SOL     OW21910   4.055   2.675   2.113 -0.4405 -0.0549  0.0232
 3425SOL    HW121911   3.965   2.698   2.139  0.1574  1.7021  0.5786
 3425SOL    HW221912   4.042   2.581   2.113 -2.2823  0.1854 -1.8037
 3426SOL     OW21913   2.553   0.542  12.823  0.2881 -0.4555  0.3035
 3426SOL    HW121914   2.622   0.602  12.792  1.4931 -1.3049  1.3269
 3426SOL    HW221915   2.514   0.583  12.900 -0.1254 -2.0191  0.9266
 3427SOL     OW21916   0.342   2.823   6.909  0.3759 -0.0276  0.3344
 3427SOL    HW121917   0.271   2.792   6.966  0.8680 -0.8128  0.5159
 3427SOL    HW221918   0.386   2.741   6.887 -1.4593 -1.0527  0.4153
 3428SOL     OW21919   3.575   0.525   8.726  0.1028  0.2341  0.1020
 3428SOL    HW121920   3.634   0.592   8.690  1.6035 -0.8686  0.4957
 3428SOL    HW221921   3.505   0.584   8.753  0.5325  0.0013  1.7647
 3429SOL     OW21922   4.303   3.594   8.478  0.4951 -0.7845  0.3530
 3429SOL    HW121923   4.362   3.670   8.480 -2.0104  1.1446  1.2357
 3429SOL    HW221924   4.242   3.618   8.548 -2.0400  0.5861 -2.3124
 3430SOL     OW21925   0.191   0.132  11.852  0.1453  0.4034  0.2292
 3430SOL    HW121926   0.140   0.094  11.923 -0.4959  1.7599  0.4960
 3430SOL    HW221927   0.273   0.083  11.843 -1.6288 -2.5286  0.0171
 3431SOL     OW21928   1.229   0.408   4.655  0.3238  0.5515 -0.3894
 3431SOL    HW121929   1.157   0.354   4.689  0.4762 -0.5825 -1.8369
 3431SOL    HW221930   1.275   0.427   4.737 -0.3356  0.3079  0.0461
 3432SOL     OW21931   4.409   4.386   7.039  0.2250 -0.0405 -0.2367
 3432SOL    HW121932   4.382   4.352   6.954 -1.0240 -0.4035  0.3086
 3432SOL    HW221933   4.463   4.461   7.014  0.6870 -0.5576 -0.7886
 3433SOL     OW21934   3.768   0.014   4.164  0.1019 -0.1081  0.1551
 3433SOL    HW121935   3.763   0.069   4.086  0.1582 -0.4474 -0.0891
 3433SOL    HW221936   3.727   0.078   4.223 -0.6684 -1.6305  1.2696
 3434SOL     OW21937   3.083   2.202   2.550 -0.1601  0.4527  0.0814
 3434SOL    HW121938   3.095   2.165   2.637 -0.3638 -1.6610 -0.8106
 3434SOL    HW221939   3.050   2.131   2.494  0.5399  0.4660 -0.3464
 3435SOL     OW21940   3.109   2.253  16.530 -0.2125  0.0436  0.0707
 3435SOL    HW121941   3.205   2.248  16.528 -0.2563 -0.3162 -0.9339
 3435SOL    HW221942   3.107   2.327  16.591  0.8935  0.9058 -0.9399
 3436SOL     OW21943   0.357   2.593   5.688 -0.1975 -0.5916  0.5970
 3436SOL    HW121944   0.273   2.578   5.645  0.0723 -0.1612 -0.0870
 3436SOL    HW221945   0.328   2.585   5.779 -0.4204  0.7072  0.6392
 3437SOL     OW21946   0.898   2.715   2.909  0.5397 -0.4934  0.0467
 3437SOL    HW121947   0.927   2.680   2.993  2.4562 -0.1708 -0.4676
 3437SOL    HW221948   0.922   2.639   2.857 -0.7246 -0.6472 -0.3060
 3438SOL     OW21949   2.717   1.852   4.848 -0.0617  0.6693 -0.1037
 3438SOL    HW121950   2.709   1.794   4.772  0.4215 -0.0424  0.3894
 3438SOL    HW221951   2.697   1.790   4.918  1.4083  0.5112  0.1648
 3439SOL     OW21952   2.497   3.459   0.363  0.5668  0.4797 -0.3399
 3439SOL    HW121953   2.588   3.483   0.381  0.3399 -0.3257  1.9037
 3439SOL    HW221954   2.484   3.388   0.426 -1.9622  1.9893  0.8466
 3440SOL     OW21955   1.733   1.778   9.604 -0.1491  0.0458 -0.3917
 3440SOL    HW121956   1.821   1.773   9.566 -0.8956  1.5070 -2.3140
 3440SOL    HW221957   1.760   1.764   9.694 -0.3157  0.4636 -0.2771
 3441SOL     OW21958   0.569   4.656  15.343  0.4611 -0.3690  0.1740
 3441SOL    HW121959   0.641   4.643  15.282 -0.2326 -1.2413 -0.4707
 3441SOL    HW221960   0.612   4.709  15.410 -0.8442  0.6430  0.2256
 3442SOL     OW21961   1.101   0.806   7.651 -0.2205  0.1862 -0.4563
 3442SOL    HW121962   1.123   0.877   7.591 -0.2863 -0.2821 -1.0344
 3442SOL    HW221963   1.089   0.862   7.728  1.4484  1.5816 -1.2138
 3443SOL     OW21964   2.775   1.764   4.429  0.0622  0.2649 -0.0840
 3443SOL    HW121965   2.840   1.697   4.447  3.0070  2.2172 -3.4586
 3443SOL    HW221966   2.692   1.724   4.406 -0.4704  1.5464 -0.4309
 3444SOL     OW21967   4.247   2.693   3.813 -0.7311 -0.0833  0.4142
 3444SOL    HW121968   4.309   2.728   3.749 -0.7860 -0.0481  0.3805
 3444SOL    HW221969   4.298   2.631   3.865  1.0590 -0.2670 -1.5521
 3445SOL     OW21970   1.976   1.774   3.793 -0.3646  0.4917  0.5282
 3445SOL    HW121971   1.965   1.691   3.747 -0.0252  0.9681 -0.4089
 3445SOL    HW221972   2.041   1.750   3.859 -1.0629 -0.4332  0.8818
 3446SOL     OW21973   0.737   3.016   4.750 -0.3828 -0.2248 -0.7595
 3446SOL    HW121974   0.652   3.060   4.759 -0.6403 -1.1774  1.5355
 3446SOL    HW221975   0.757   2.985   4.838  2.4910  2.1688 -0.5788
 3447SOL     OW21976   3.653   0.635   4.221 -0.3291  0.1562  0.1893
 3447SOL    HW121977   3.706   0.678   4.154  0.4525 -0.4905  0.3939
 3447SOL    HW221978   3.566   0.623   4.182 -0.5379 -1.9626  1.3337
 3448SOL     OW21979   4.273   3.049   8.278 -0.0410  0.0005 -0.5857
 3448SOL    HW121980   4.304   3.120   8.334  0.7420 -0.2950 -0.6404
 3448SOL    HW221981   4.336   3.050   8.205 -1.4560 -1.1506 -1.8322
 3449SOL     OW21982   2.438   4.350   4.274 -0.1004  0.7329  0.4163
 3449SOL    HW121983   2.424   4.274   4.217  0.4918  1.0107 -0.1072
 3449SOL    HW221984   2.434   4.303   4.357  0.5201 -2.2264 -1.1899
 3450SOL     OW21985   1.717   2.512   0.820  0.0179  0.3712  0.0954
 3450SOL    HW121986   1.787   2.516   0.755  0.2663 -0.9135  0.2799
 3450SOL    HW221987   1.678   2.593   0.789 -0.8923 -0.2563 -0.4207
 3451SOL     OW21988   0.598   2.648   7.758 -0.2890  0.3579  0.0343
 3451SOL    HW121989   0.674   2.699   7.788  0.8071 -1.0982 -0.2488
 3451SOL    HW221990   0.611   2.662   7.664 -1.5850 -1.8806 -0.4637
 3452SOL     OW21991   2.862   2.109   0.152  0.5696 -0.0839 -0.2206
 3452SOL    HW121992   2.847   2.043   0.219  1.4797 -0.6587 -0.5763
 3452SOL    HW221993   2.817   2.065   0.080 -3.0393 -0.5404  2.3127
 3453SOL     OW21994   2.353   3.031  10.944 -0.3892 -0.3039  0.7715
 3453SOL    HW121995   2.297   3.104  10.970  2.3524  1.5059  1.6772
 3453SOL    HW221996   2.429   3.067  10.896  2.4835 -2.0887  3.9872
 3454SOL     OW21997   1.062   1.546  15.667  0.1228 -0.6603  0.4570
 3454SOL    HW121998   1.127   1.548  15.736  0.0137 -1.8056  0.5985
 3454SOL    HW221999   0.991   1.568  15.727  2.0819  1.6831  1.8840
 3455SOL     OW22000   3.918   1.299   6.237 -0.2685  0.6958 -0.3119
 3455SOL    HW122001   3.984   1.334   6.297 -1.1740  1.1663  0.3964
 3455SOL    HW222002   3.949   1.209   6.239 -1.4436  0.2833 -0.8264
 3456SOL     OW22003   2.321   3.703   6.250  0.1219  0.2859 -0.2831
 3456SOL    HW122004   2.411   3.693   6.281 -0.0804 -0.8695 -0.0678
 3456SOL    HW222005   2.349   3.736   6.165  1.4348 -0.4609 -0.1376
 3457SOL     OW22006   0.560   3.048   3.290 -0.3296 -0.9007  0.5789
 3457SOL    HW122007   0.466   3.064   3.290 -0.0779  0.4478 -1.5525
 3457SOL    HW222008   0.578   3.078   3.201  0.3467 -0.1097  0.9837
 3458SOL     OW22009   0.157   1.878   0.841  0.3400 -0.4245 -0.3153
 3458SOL    HW122010   0.078   1.829   0.818 -1.0530  1.9141 -0.5416
 3458SOL    HW222011   0.201   1.870   0.756  2.6435 -1.6818  0.9940
 3459SOL     OW22012   0.776   2.261   7.893  0.3511 -0.2046  0.1811
 3459SOL    HW122013   0.850   2.319   7.908  1.4774 -2.2533  2.5367
 3459SOL    HW222014   0.710   2.303   7.948  0.0931  2.9332 -2.5703
 3460SOL     OW22015   0.241   3.669  13.876 -0.1782  0.2814 -0.3929
 3460SOL    HW122016   0.289   3.673  13.793 -2.1120 -1.2941 -1.5841
 3460SOL    HW222017   0.162   3.636  13.835 -0.5710 -0.7500  1.2001
 3461SOL     OW22018   1.271   0.461   4.387  0.3272 -0.1082 -0.0492
 3461SOL    HW122019   1.244   0.447   4.478  0.1174 -0.3094 -0.1423
 3461SOL    HW222020   1.266   0.556   4.393  1.2905 -0.0730  0.1359
 3462SOL     OW22021   3.102   3.627   6.764 -0.0126 -0.0003  0.0153
 3462SOL    HW122022   3.008   3.645   6.755  0.0289 -0.0989 -0.6116
 3462SOL    HW222023   3.128   3.682   6.837  1.2565 -0.3178 -0.1917
 3463SOL     OW22024   0.176   2.256   6.430 -0.1820  0.6673 -0.0611
 3463SOL    HW122025   0.097   2.271   6.379 -0.4033 -2.6291 -0.6784
 3463SOL    HW222026   0.240   2.217   6.371 -2.1450 -0.4704 -1.4418
 3464SOL     OW22027   3.273   3.877   8.943  0.0945 -0.1533 -0.2818
 3464SOL    HW122028   3.196   3.826   8.969  0.0650 -0.3274 -0.7092
 3464SOL    HW222029   3.322   3.812   8.891  1.7731  2.3410 -1.8116
 3465SOL     OW22030   0.722   4.112  11.573  0.1007 -0.4660 -0.3647
 3465SOL    HW122031   0.723   4.203  11.545  0.0207 -0.2115  0.4512
 3465SOL    HW222032   0.814   4.088  11.582  0.3635  0.6259 -0.1454
 3466SOL     OW22033   3.017   2.045  16.123  0.4440 -0.2435  0.4432
 3466SOL    HW122034   2.984   2.040  16.033 -0.9387 -0.3903  0.9577
 3466SOL    HW222035   3.049   2.135  16.136  1.2750 -0.9329  3.1345
 3467SOL     OW22036   1.018   0.053   2.780 -0.0400  0.2075  0.2227
 3467SOL    HW122037   1.105   0.073   2.746  0.4653 -0.1590  1.2998
 3467SOL    HW222038   1.000   0.119   2.846 -3.1282  0.5650 -0.9570
 3468SOL     OW22039   0.996   4.256   1.345  0.3028  0.3033  0.3842
 3468SOL    HW122040   0.964   4.231   1.432  1.7559 -1.3333  0.4528
 3468SOL    HW222041   0.917   4.249   1.292  1.2499 -0.4829 -0.9148
 3469SOL     OW22042   4.399   3.443   2.247 -0.4492  0.3996 -0.3615
 3469SOL    HW122043   4.359   3.476   2.327  0.2966 -0.1857  0.2549
 3469SOL    HW222044   4.447   3.368   2.284  3.1433  2.6615 -0.4423
 3470SOL     OW22045   0.413   0.146   7.155  0.3139 -0.5929  0.2869
 3470SOL    HW122046   0.408   0.237   7.183 -2.6614 -1.0340  1.1938
 3470SOL    HW222047   0.405   0.105   7.241  0.3165 -0.7923  0.1927
 3471SOL     OW22048   4.167   4.478   3.983  0.4892  0.0069  0.5979
 3471SOL    HW122049   4.087   4.511   4.024  0.3081  0.6341 -0.2787
 3471SOL    HW222050   4.147   4.480   3.890  2.3349 -0.6012  0.1981
 3472SOL     OW22051   4.507   4.725   6.639 -0.5586 -0.1721 -0.0602
 3472SOL    HW122052   4.532   4.680   6.719 -2.2947 -1.0927 -0.0344
 3472SOL    HW222053   4.592   0.000   6.598 -0.4419 -0.4718  0.0575
 3473SOL     OW22054   1.698   1.163   8.683 -0.1881  0.4405  0.5742
 3473SOL    HW122055   1.711   1.238   8.626 -1.3167 -1.0687 -1.6544
 3473SOL    HW222056   1.697   1.099   8.612 -0.8521  0.2105  0.7962
 3474SOL     OW22057   3.295   3.674   2.808 -0.7291 -0.3293  0.0616
 3474SOL    HW122058   3.282   3.687   2.714  0.8065  0.5423 -0.0377
 3474SOL    HW222059   3.384   3.639   2.809  0.0095  1.5156 -0.9916
 3475SOL     OW22060   2.761   0.633   4.616  0.1457  0.0895 -0.5313
 3475SOL    HW122061   2.821   0.706   4.630  0.6328 -0.1514 -1.3277
 3475SOL    HW222062   2.718   0.664   4.537  1.0376  1.7780 -0.3495
 3476SOL     OW22063   0.169   0.826   4.451  0.1462  0.0018  0.2302
 3476SOL    HW122064   0.135   0.866   4.531  0.4816 -1.9553  1.3642
 3476SOL    HW222065   0.174   0.734   4.477  0.9722  0.2940  1.0951
 3477SOL     OW22066   4.183   1.564   2.497  0.7496  0.0476 -0.5591
 3477SOL    HW122067   4.244   1.497   2.528  0.0522  0.7445  2.2642
 3477SOL    HW222068   4.163   1.594   2.585  1.6262 -1.4268  0.1489
 3478SOL     OW22069   0.936   2.305   2.077 -0.2072 -0.0781  0.3301
 3478SOL    HW122070   0.983   2.302   1.994  0.0470 -0.3133  0.4850
 3478SOL    HW222071   0.988   2.240   2.124  2.0373  2.1001  0.8120
 3479SOL     OW22072   0.213   1.537   8.188 -0.2985  0.3879 -0.1156
 3479SOL    HW122073   0.178   1.453   8.159 -0.9934  0.8133 -0.4944
 3479SOL    HW222074   0.190   1.541   8.281 -1.1896 -0.9533 -0.2907
 3480SOL     OW22075   1.415   4.031   9.024  0.1232  0.0893 -0.0319
 3480SOL    HW122076   1.509   4.047   9.014  0.3372 -0.4139  1.1604
 3480SOL    HW222077   1.393   4.056   9.114 -0.0841 -0.2544  0.0110
 3481SOL     OW22078   0.700   2.426   0.343  0.2236  0.1333 -0.4206
 3481SOL    HW122079   0.761   2.488   0.384 -1.4512  0.8885  0.9177
 3481SOL    HW222080   0.757   2.350   0.331  0.1154 -0.1581  0.8703
 3482SOL     OW22081   1.943   1.665   2.381 -0.3528  0.0797 -0.5522
 3482SOL    HW122082   2.021   1.718   2.366  0.9474 -1.6804 -0.0086
 3482SOL    HW222083   1.974   1.598   2.442  0.6618 -0.4926 -1.7023
 3483SOL     OW22084   4.062   1.711  15.998  0.2641  0.6070  0.2749
 3483SOL    HW122085   4.020   1.625  16.008 -0.6758  0.9644 -0.6355
 3483SOL    HW222086   4.140   1.698  15.944  0.2997  2.2517 -0.0699
 3484SOL     OW22087   0.396   2.196   6.902 -0.0533  0.3155  0.2677
 3484SOL    HW122088   0.452   2.138   6.954 -0.3825 -0.0479  0.2209
 3484SOL    HW222089   0.322   2.137   6.886  0.9728 -0.4137 -1.7699
 3485SOL     OW22090   1.364   3.954   6.845  0.0569 -0.2811  0.4918
 3485SOL    HW122091   1.384   4.027   6.904 -0.2901 -0.3088  0.6427
 3485SOL    HW222092   1.269   3.962   6.854  0.1859  0.9571  0.8276
 3486SOL     OW22093   4.687   2.637   6.852  0.3054 -0.0251  0.1178
 3486SOL    HW122094   4.741   2.679   6.786  0.4813  0.3727  0.5092
 3486SOL    HW222095   4.721   2.548   6.851 -1.0704 -0.5925  2.6718
 3487SOL     OW22096   1.583   0.084   4.598  0.0266 -0.5735 -0.0370
 3487SOL    HW122097   1.515   0.087   4.530  1.5386  1.7773 -1.4409
 3487SOL    HW222098   1.543   0.081   4.685  1.0996  0.9572  0.5013
 3488SOL     OW22099   1.572   2.252   9.138  0.3455  0.0659  0.0860
 3488SOL    HW122100   1.571   2.302   9.220 -0.7625  0.1753  0.0147
 3488SOL    HW222101   1.662   2.254   9.106  0.5205  1.1748  0.6589
 3489SOL     OW22102   4.649   1.026   6.726  0.3470  0.2103 -0.3170
 3489SOL    HW122103   4.634   0.936   6.753  1.4349  0.4240  1.0040
 3489SOL    HW222104   4.632   1.086   6.798 -0.9260 -1.0910  0.4519
 3490SOL     OW22105   3.058   0.567   4.710 -0.3595  0.1586  0.4752
 3490SOL    HW122106   3.099   0.599   4.630 -2.2048  0.5339 -0.3097
 3490SOL    HW222107   3.032   0.638   4.769  2.7314  2.7983 -1.3134
 3491SOL     OW22108   4.647   1.393   7.626  0.1125  0.6306 -0.3389
 3491SOL    HW122109   4.621   1.463   7.684 -0.8729  0.9788 -1.2002
 3491SOL    HW222110   4.664   1.324   7.690 -0.6330  0.4670 -0.3129
 3492SOL     OW22111   2.370   2.928  12.538  0.3839  0.2486 -0.4325
 3492SOL    HW122112   2.426   2.850  12.545 -0.0997 -0.0509  0.1435
 3492SOL    HW222113   2.438   2.993  12.554 -0.1485  0.4746  0.8907
 3493SOL     OW22114   2.348   0.205   7.322  0.9866  0.0057 -0.5035
 3493SOL    HW122115   2.383   0.230   7.408 -0.7051  1.4880 -0.2307
 3493SOL    HW222116   2.253   0.210   7.335  0.9501  1.3760 -1.3050
 3494SOL     OW22117   3.823   0.708  10.285  0.0891 -0.1110  0.1066
 3494SOL    HW122118   3.914   0.684  10.270  0.4650  2.4567 -1.7378
 3494SOL    HW222119   3.784   0.637  10.235  0.8608 -0.3634 -0.1421
 3495SOL     OW22120   0.915   2.588   5.786 -0.1439  0.9409  0.5287
 3495SOL    HW122121   0.819   2.592   5.789 -0.2105 -0.0776 -0.3285
 3495SOL    HW222122   0.927   2.499   5.753  0.6096  1.1157  0.3308
 3496SOL     OW22123   3.186   1.952   8.211 -0.3534  0.0173 -0.3760
 3496SOL    HW122124   3.238   2.028   8.239 -1.7008  0.6079  0.5301
 3496SOL    HW222125   3.157   1.997   8.132 -0.6896 -2.0452 -1.4108
 3497SOL     OW22126   2.066   4.394   5.322 -0.4452  0.3934 -0.2588
 3497SOL    HW122127   2.143   4.382   5.267  0.8347 -0.4705  1.7145
 3497SOL    HW222128   2.002   4.396   5.252  0.6057  0.3036 -1.2174
 3498SOL     OW22129   4.222   0.031   4.094  0.7601 -0.0996  0.2636
 3498SOL    HW122130   4.279   4.713   4.047  1.8763  0.4627  0.8938
 3498SOL    HW222131   4.243   0.113   4.048  0.5212  0.1279  0.5585
 3499SOL     OW22132   0.072   3.246   3.750  0.2406 -0.0754  1.1808
 3499SOL    HW122133   0.071   3.150   3.741  1.7637  0.0065  0.1552
 3499SOL    HW222134   4.721   3.265   3.755  0.0954  0.2190 -2.5091
 3500SOL     OW22135   3.703   4.523   4.358 -0.4798 -0.2025  0.0062
 3500SOL    HW122136   3.708   4.612   4.394 -0.7462  0.6693 -2.1328
 3500SOL    HW222137   3.650   4.544   4.281 -4.1626 -0.1456  2.5403
 3501SOL     OW22138   2.390   2.478   6.072  0.5396 -0.2267  0.3027
 3501SOL    HW122139   2.324   2.532   6.114 -0.8702 -0.3146 -1.8186
 3501SOL    HW222140   2.395   2.518   5.985  0.8667 -1.1255 -0.0917
 3502SOL     OW22141   3.170   2.386   8.490  0.6427 -0.3298 -0.5363
 3502SOL    HW122142   3.179   2.339   8.407  1.8429 -1.0473  0.0087
 3502SOL    HW222143   3.166   2.477   8.462  3.3687  0.0365  0.2915
 3503SOL     OW22144   3.894   4.525   4.048  0.4729 -0.5107  0.1218
 3503SOL    HW122145   3.857   4.569   3.971 -0.4695  2.2472  2.1523
 3503SOL    HW222146   3.838   4.563   4.116  1.4338  1.3367 -0.1094
 3504SOL     OW22147   2.856   4.275   2.989  0.0730  0.0700 -0.2063
 3504SOL    HW122148   2.783   4.217   3.010 -0.1921 -0.0811 -1.4999
 3504SOL    HW222149   2.880   4.298   3.078 -2.7909  2.3742 -0.0391
 3505SOL     OW22150   2.814   4.346   2.693  0.1216 -0.2411 -0.0971
 3505SOL    HW122151   2.724   4.354   2.663  0.1742 -1.2314 -0.5069
 3505SOL    HW222152   2.818   4.295   2.774  1.8735 -0.8892 -0.5848
 3506SOL     OW22153   0.041   0.122   6.712 -0.2046 -0.2287  0.3225
 3506SOL    HW122154   0.064   0.059   6.780  0.4543 -1.2979 -0.9096
 3506SOL    HW222155   0.063   0.067   6.637  0.2007  1.5151 -0.8599
 3507SOL     OW22156   3.452   1.097   1.949 -0.5718  0.2095 -0.1705
 3507SOL    HW122157   3.369   1.121   1.908 -2.4024 -2.2750  2.1371
 3507SOL    HW222158   3.502   1.059   1.876  0.5202  1.9104 -0.2976
 3508SOL     OW22159   0.483   2.362   9.359  0.2570 -0.1969  0.4936
 3508SOL    HW122160   0.498   2.326   9.446  0.5399  4.1676  2.2532
 3508SOL    HW222161   0.572   2.364   9.323  0.5140  1.8212  1.2387
 3509SOL     OW22162   2.424   4.016   8.383 -0.3013 -0.1454  0.1125
 3509SOL    HW122163   2.439   4.073   8.459  0.8114  0.4770 -0.5832
 3509SOL    HW222164   2.503   3.963   8.372 -0.9266 -1.4196  1.7847
 3510SOL     OW22165   3.767   1.400  16.192 -0.3353  0.1726 -0.2841
 3510SOL    HW122166   3.760   1.485  16.149 -1.3857 -0.5537 -1.5580
 3510SOL    HW222167   3.773   1.443  16.277  2.7335 -0.8715  0.0427
 3511SOL     OW22168   3.134   3.737   4.216  0.2752 -0.5148 -0.4020
 3511SOL    HW122169   3.159   3.777   4.300  0.5835 -0.4633 -0.5204
 3511SOL    HW222170   3.156   3.647   4.239 -1.0509 -1.7019 -3.7892
 3512SOL     OW22171   2.824   2.486   0.651  0.4741  0.4912 -0.2253
 3512SOL    HW122172   2.821   2.490   0.555  1.9248  0.2332 -0.2698
 3512SOL    HW222173   2.919   2.492   0.657  0.5855  1.3273 -2.8395
 3513SOL     OW22174   0.172   2.051   7.137 -0.1021  0.0286 -0.4179
 3513SOL    HW122175   0.244   2.082   7.192 -0.8153 -2.4100  1.8667
 3513SOL    HW222176   0.201   1.967   7.104  0.7944 -0.5332  1.7680
 3514SOL     OW22177   1.453   2.503  12.108 -0.1112 -1.1485  0.4099
 3514SOL    HW122178   1.377   2.561  12.108  2.3121  1.9920  0.5609
 3514SOL    HW222179   1.418   2.414  12.109 -1.6411 -0.5440  0.7841
 3515SOL     OW22180   4.512   0.819   3.914  0.0095  0.2639  0.0101
 3515SOL    HW122181   4.535   0.912   3.921 -0.4934  0.4326 -0.5737
 3515SOL    HW222182   4.418   0.830   3.901 -0.3498 -0.4897  1.9257
 3516SOL     OW22183   3.036   0.249   7.602  0.0245 -0.9924 -0.1527
 3516SOL    HW122184   3.050   0.188   7.530  0.5012  0.9088 -1.6802
 3516SOL    HW222185   3.065   0.328   7.556 -0.6294 -2.0169 -2.3124
 3517SOL     OW22186   4.641   2.688   4.690  0.4127  0.2697 -0.1136
 3517SOL    HW122187   4.643   2.661   4.782  0.8193 -0.1606 -0.2477
 3517SOL    HW222188   4.548   2.667   4.683  0.3595  0.1654  0.9400
 3518SOL     OW22189   1.519   3.176   6.441 -0.3167  0.2427  0.0001
 3518SOL    HW122190   1.534   3.098   6.387 -2.6665  1.0340 -1.8188
 3518SOL    HW222191   1.571   3.237   6.390 -2.0571  0.0876 -1.9764
 3519SOL     OW22192   3.819   2.842   3.781 -0.7668 -0.5166  0.2671
 3519SOL    HW122193   3.884   2.902   3.816 -1.1820  0.5601 -0.8159
 3519SOL    HW222194   3.829   2.770   3.844  2.2963  0.2439  0.6081
 3520SOL     OW22195   0.358   2.399   5.334 -0.3433  0.2329 -0.0455
 3520SOL    HW122196   0.358   2.308   5.306 -2.9274  0.8669 -2.1239
 3520SOL    HW222197   0.448   2.405   5.365 -0.3500  0.3985 -0.0551
 3521SOL     OW22198   2.199   2.861   8.355  0.2931 -0.6274 -0.1253
 3521SOL    HW122199   2.170   2.858   8.264 -1.4535 -1.1400  0.4460
 3521SOL    HW222200   2.260   2.935   8.358 -0.3482 -0.1170  0.2308
 3522SOL     OW22201   0.849   1.119   8.759  0.3608  0.0699  0.3184
 3522SOL    HW122202   0.814   1.123   8.848  0.6394  0.2895  0.4180
 3522SOL    HW222203   0.871   1.026   8.754 -0.8102 -0.1132 -1.6354
 3523SOL     OW22204   3.950   0.413   9.063 -0.3010 -0.4422 -0.4169
 3523SOL    HW122205   3.858   0.438   9.066 -0.6241 -1.8671  2.1567
 3523SOL    HW222206   3.983   0.501   9.081 -1.0431 -0.7308  2.3578
 3524SOL     OW22207   1.170   3.462   0.626 -1.2162 -0.0498  0.3597
 3524SOL    HW122208   1.205   3.479   0.539 -2.3429  1.0272  0.1132
 3524SOL    HW222209   1.198   3.373   0.647  0.3404  1.3903  4.3553
 3525SOL     OW22210   2.050   0.125   8.431 -0.4423  0.1923  0.9228
 3525SOL    HW122211   2.107   0.050   8.446 -0.4122 -0.2303 -1.3398
 3525SOL    HW222212   2.100   0.174   8.365 -0.9019  0.2038  0.5880
 3526SOL     OW22213   0.658   4.134   3.132 -0.2658  0.1894  0.4980
 3526SOL    HW122214   0.637   4.226   3.145  1.1742  0.4665  0.8356
 3526SOL    HW222215   0.703   4.122   3.215  0.0327 -0.9446  0.1679
 3527SOL     OW22216   1.885   3.983  15.927  0.0645 -0.0055 -0.1374
 3527SOL    HW122217   1.925   4.010  15.844 -1.4796  1.3397 -0.4360
 3527SOL    HW222218   1.803   3.949  15.892  0.3587 -0.8191 -0.0512
 3528SOL     OW22219   3.415   4.176  10.436  0.5635  0.4429  0.3651
 3528SOL    HW122220   3.466   4.095  10.438  3.5801  2.3480  1.1148
 3528SOL    HW222221   3.359   4.158  10.360  2.7178 -0.4358 -1.0215
 3529SOL     OW22222   0.573   0.993   1.236 -0.6445 -0.5209  0.2765
 3529SOL    HW122223   0.595   0.900   1.230 -0.6082 -0.5034  0.1476
 3529SOL    HW222224   0.633   1.020   1.306  0.7702 -0.8589 -0.8196
 3530SOL     OW22225   3.930   1.663   7.140  0.5304 -0.1824 -0.1919
 3530SOL    HW122226   3.910   1.683   7.232 -1.2146  1.0114 -0.8297
 3530SOL    HW222227   3.846   1.660   7.094  0.2661  0.0511  0.2730
 3531SOL     OW22228   2.994   1.382  10.844 -0.6920  0.5132 -0.2708
 3531SOL    HW122229   3.065   1.330  10.882  0.2746  2.3942  0.5083
 3531SOL    HW222230   2.991   1.347  10.755  2.0797 -1.3387  0.3751
 3532SOL     OW22231   0.499   1.574   8.263 -0.0470 -0.5546  0.4172
 3532SOL    HW122232   0.487   1.608   8.175 -2.0239  0.8133  1.2316
 3532SOL    HW222233   0.409   1.582   8.293  0.1917 -1.6059  1.4043
 3533SOL     OW22234   3.156   0.607   6.294  0.6834  0.0313 -0.3944
 3533SOL    HW122235   3.126   0.529   6.246 -2.9997  1.7319 -0.8514
 3533SOL    HW222236   3.071   0.646   6.315  0.1492 -0.7274 -1.1460
 3534SOL     OW22237   3.101   3.184   6.131 -0.2981 -0.0464 -0.3025
 3534SOL    HW122238   3.070   3.230   6.053 -1.0659  1.9309  1.1638
 3534SOL    HW222239   3.171   3.240   6.164 -0.3012 -0.3183  0.1679
 3535SOL     OW22240   3.176   2.139  17.245  0.1280  0.1661  0.2834
 3535SOL    HW122241   3.143   2.224  17.275 -1.0178 -0.3609  0.5235
 3535SOL    HW222242   3.092   2.092  17.244  0.0206  0.3518  0.5612
 3536SOL     OW22243   2.380   1.433   9.693 -0.6330 -0.7118  1.0782
 3536SOL    HW122244   2.342   1.345   9.684  1.7127 -1.6422  0.3428
 3536SOL    HW222245   2.405   1.422   9.785 -0.4263  2.9150  1.4496
 3537SOL     OW22246   2.734   1.765   0.527 -0.1956 -0.3777 -0.5295
 3537SOL    HW122247   2.779   1.680   0.528  1.5881  0.5509 -1.1987
 3537SOL    HW222248   2.804   1.829   0.514 -0.5565  0.1023 -0.0626
 3538SOL     OW22249   0.242   1.123  15.938 -0.2706  0.2024  0.7351
 3538SOL    HW122250   0.328   1.086  15.919  0.1326  1.4727  0.0441
 3538SOL    HW222251   0.205   1.101  15.853 -0.0109  3.3609 -0.2070
 3539SOL     OW22252   3.789   4.296   4.933  0.0065  0.4602 -0.0119
 3539SOL    HW122253   3.724   4.308   4.864 -0.6432 -0.9252  0.3567
 3539SOL    HW222254   3.829   4.209   4.922 -0.4117  0.4119 -1.1185
 3540SOL     OW22255   1.000   2.986  15.096 -0.4957 -0.1129  0.6216
 3540SOL    HW122256   0.931   2.973  15.161 -0.5291 -0.9995  0.4079
 3540SOL    HW222257   0.959   3.043  15.031  1.5510  1.2014  0.4859
 3541SOL     OW22258   0.814   3.199   2.638 -0.7945  0.1995  0.4244
 3541SOL    HW122259   0.725   3.176   2.613 -1.0076  1.3242  0.1616
 3541SOL    HW222260   0.862   3.116   2.630  0.2135  0.7226  1.0166
 3542SOL     OW22261   0.020   3.636   6.734  0.3088  0.5858 -0.0051
 3542SOL    HW122262   4.690   3.628   6.796  1.2087  0.5878  1.0311
 3542SOL    HW222263   0.091   3.677   6.782  1.3756  0.9217 -1.8543
 3543SOL     OW22264   2.139   1.675   5.346  0.1510  0.2548 -0.3348
 3543SOL    HW122265   2.202   1.630   5.290 -0.1388 -2.3435  1.4117
 3543SOL    HW222266   2.081   1.601   5.365 -0.3798  0.1980 -2.2033
 3544SOL     OW22267   0.045   0.801   7.290  0.0503  0.0873  0.0249
 3544SOL    HW122268   0.002   0.887   7.287 -0.2445  0.0061  1.6841
 3544SOL    HW222269   0.052   0.784   7.196  0.7308 -1.3670  0.3426
 3545SOL     OW22270   3.286   3.551   7.357  0.1734 -0.2411 -0.5217
 3545SOL    HW122271   3.277   3.458   7.336 -1.0434 -0.0794 -0.7413
 3545SOL    HW222272   3.241   3.555   7.441 -0.1557 -0.6157 -0.6775
 3546SOL     OW22273   0.826   3.082   1.985 -0.1778 -0.2908  0.0159
 3546SOL    HW122274   0.883   3.076   1.908  0.9511  1.3296  0.7018
 3546SOL    HW222275   0.850   2.999   2.026 -0.6467 -0.2972  0.2803
 3547SOL     OW22276   1.367   2.224   7.286 -0.3066 -0.1087 -0.1856
 3547SOL    HW122277   1.363   2.280   7.208 -2.0205  0.5633  0.3756
 3547SOL    HW222278   1.301   2.160   7.259 -1.2454 -0.1306  2.2169
 3548SOL     OW22279   1.201   3.093   4.744 -0.2627  0.6244  0.4897
 3548SOL    HW122280   1.194   3.183   4.777 -1.2994  0.3080  1.1271
 3548SOL    HW222281   1.296   3.083   4.753 -0.5268 -1.3636  0.9326
 3549SOL     OW22282   1.375   0.081   3.805  0.2364  0.2435 -1.5419
 3549SOL    HW122283   1.331   0.001   3.777 -0.0103 -0.9262  2.2097
 3549SOL    HW222284   1.319   0.150   3.770  0.9235  1.2639 -0.6466
 3550SOL     OW22285   2.690   1.723   9.285 -0.7804 -0.0490 -0.0405
 3550SOL    HW122286   2.686   1.638   9.328 -0.2379  0.3377  0.7543
 3550SOL    HW222287   2.713   1.781   9.357 -3.0962  0.1426  0.5613
 3551SOL     OW22288   0.545   2.262  14.605 -0.1307  0.2105 -0.5203
 3551SOL    HW122289   0.573   2.249  14.696 -0.1265 -3.8414 -1.1180
 3551SOL    HW222290   0.626   2.250  14.557  1.5064 -0.6376  2.4187
 3552SOL     OW22291   4.020   1.699   3.306 -0.2947  0.2191  0.0254
 3552SOL    HW122292   3.985   1.758   3.240  1.2739  1.6829  0.4894
 3552SOL    HW222293   3.964   1.622   3.293  0.4561 -0.4961  1.0218
 3553SOL     OW22294   4.048   1.904  12.116 -0.3447 -0.5442  0.1066
 3553SOL    HW122295   3.995   1.945  12.185  1.3244 -0.7608  1.5158
 3553SOL    HW222296   4.061   1.816  12.151 -1.4048 -1.1221 -0.9655
 3554SOL     OW22297   3.553   3.837  11.324 -0.6489  0.2426 -0.0422
 3554SOL    HW122298   3.532   3.832  11.417  0.3235 -0.5792  0.1205
 3554SOL    HW222299   3.514   3.758  11.285 -1.0355  1.1817 -1.5618
 3555SOL     OW22300   2.330   2.774   1.143 -0.2429  0.0290 -0.2789
 3555SOL    HW122301   2.341   2.867   1.125  2.6149 -0.2517  0.0995
 3555SOL    HW222302   2.329   2.726   1.060  0.8052 -2.3922  1.1189
 3556SOL     OW22303   3.713   3.615   7.507 -0.0674  0.6965  0.1236
 3556SOL    HW122304   3.777   3.654   7.567 -0.1302 -0.8407  1.1977
 3556SOL    HW222305   3.714   3.526   7.541  3.5795  1.0386  0.9091
 3557SOL     OW22306   2.847   0.759  12.598  0.0180  0.3280 -0.0585
 3557SOL    HW122307   2.850   0.668  12.570 -0.2430 -0.3107  2.0215
 3557SOL    HW222308   2.834   0.807  12.516  1.1182  1.3794  0.3855
 3558SOL     OW22309   0.903   1.787   7.493 -0.1842  0.4073 -0.3988
 3558SOL    HW122310   0.969   1.846   7.528 -1.2256  1.4059 -0.1296
 3558SOL    HW222311   0.877   1.835   7.414  0.2936 -1.1252 -1.4933
 3559SOL     OW22312   2.001   4.248  17.184  0.2002 -0.7227 -0.7867
 3559SOL    HW122313   1.908   4.271  17.179  0.3054  0.8127  4.2303
 3559SOL    HW222314   2.017   4.302  17.262 -2.2673  1.8413 -2.0299
 3560SOL     OW22315   4.260   0.563   3.689 -0.6469  0.1938 -0.2321
 3560SOL    HW122316   4.350   0.547   3.660 -0.1075  2.0716  0.4224
 3560SOL    HW222317   4.272   0.569   3.783  2.4323  0.2774 -0.6385
 3561SOL     OW22318   1.828   4.203   3.174 -0.0766 -0.1726 -0.2307
 3561SOL    HW122319   1.913   4.242   3.194 -0.6114 -0.6582  2.9739
 3561SOL    HW222320   1.770   4.233   3.244 -0.4875 -1.3415 -0.0854
 3562SOL     OW22321   1.054   3.930   4.589 -0.3160 -0.2359  0.1609
 3562SOL    HW122322   1.140   3.890   4.575  1.9546  4.2518  1.3318
 3562SOL    HW222323   1.072   4.006   4.644  1.3787 -0.3284 -0.2506
 3563SOL     OW22324   0.384   0.035   1.686 -0.1461 -0.1967  0.3195
 3563SOL    HW122325   0.465   0.081   1.665  0.3336 -1.8761 -1.4993
 3563SOL    HW222326   0.325   0.111   1.678 -0.6737 -0.5377  0.9294
 3564SOL     OW22327   1.866   0.064   4.572 -0.2221 -0.0102 -0.2475
 3564SOL    HW122328   1.867   4.714   4.594 -0.1625 -0.0545 -0.4344
 3564SOL    HW222329   1.774   0.080   4.591 -0.4946  0.2274 -1.7803
 3565SOL     OW22330   1.130   0.461   2.828 -0.3472 -0.0477  0.2099
 3565SOL    HW122331   1.137   0.532   2.764 -0.7438  0.9563  1.2988
 3565SOL    HW222332   1.104   0.389   2.770 -3.5425 -0.5119  2.2247
 3566SOL     OW22333   1.863   4.145   4.758  0.3787  0.3917 -0.2164
 3566SOL    HW122334   1.938   4.095   4.724  0.2344 -0.7309  1.1254
 3566SOL    HW222335   1.832   4.183   4.676  0.8415 -1.2112 -1.1392
 3567SOL     OW22336   1.402   3.241   3.166  0.2979  0.6028  0.3611
 3567SOL    HW122337   1.314   3.227   3.130  1.0987 -4.9061  0.6188
 3567SOL    HW222338   1.417   3.158   3.211 -0.0160  1.0724  1.3082
 3568SOL     OW22339   2.305   2.228   2.785 -0.6395  0.7039 -1.1072
 3568SOL    HW122340   2.376   2.264   2.732 -0.4273 -0.4053 -1.5734
 3568SOL    HW222341   2.294   2.292   2.855  2.6198  2.9784 -2.6791
 3569SOL     OW22342   4.571   2.261  10.206 -0.4058  0.0984 -0.2018
 3569SOL    HW122343   4.531   2.299  10.284 -0.6285 -1.3266  0.3737
 3569SOL    HW222344   4.536   2.320  10.140  0.6797  0.6873 -0.2594
 3570SOL     OW22345   1.226   2.171  16.900 -0.1725 -0.0716  0.2924
 3570SOL    HW122346   1.320   2.157  16.889  0.0608  0.8565  1.0744
 3570SOL    HW222347   1.203   2.221  16.822  0.2482 -0.4261 -0.0611
 3571SOL     OW22348   3.832   2.929   7.363 -0.2741  0.2541 -0.0412
 3571SOL    HW122349   3.832   2.838   7.391 -0.7972  0.3603  0.2980
 3571SOL    HW222350   3.897   2.930   7.292 -0.4993 -0.7930 -0.2595
 3572SOL     OW22351   3.849   3.222   3.259  0.6057  0.4802  0.3578
 3572SOL    HW122352   3.861   3.284   3.187  0.4726  0.3688  0.2392
 3572SOL    HW222353   3.928   3.230   3.312  0.1298  1.9094  0.8457
 3573SOL     OW22354   1.081   0.299  17.599  0.0248 -0.4617 -0.4878
 3573SOL    HW122355   1.000   0.263  17.563 -0.2856  0.3636 -0.5929
 3573SOL    HW222356   1.084   0.265  17.689  2.7082 -2.3487 -1.2693
 3574SOL     OW22357   3.975   1.407   2.602  0.0862 -0.0039  0.4081
 3574SOL    HW122358   3.957   1.499   2.585 -2.1125 -0.4980  0.1250
 3574SOL    HW222359   3.991   1.384   2.510  1.3621  0.1463  0.5874
 3575SOL     OW22360   0.389   4.591   1.916 -0.1866  0.2090 -0.1704
 3575SOL    HW122361   0.335   4.536   1.858 -0.1116 -0.1272  0.0824
 3575SOL    HW222362   0.396   4.674   1.868  0.9747  0.8070  1.0443
 3576SOL     OW22363   1.705   0.445   5.148 -0.0987  0.0070 -0.6492
 3576SOL    HW122364   1.729   0.517   5.206 -2.4268  0.1033  0.1669
 3576SOL    HW222365   1.649   0.500   5.093  0.7066  0.8543 -0.6226
 3577SOL     OW22366   3.966   1.875   5.376  0.6610  0.1809 -0.1136
 3577SOL    HW122367   3.896   1.880   5.442  1.6216  0.9870  0.8550
 3577SOL    HW222368   4.040   1.851   5.432 -0.2083  0.0968  1.0028
 3578SOL     OW22369   0.003   3.199   5.801  0.0548  0.2471 -0.2109
 3578SOL    HW122370   4.703   3.139   5.862 -1.7362  0.2008 -1.5419
 3578SOL    HW222371   0.060   3.247   5.861 -0.7463  1.0106 -0.0602
 3579SOL     OW22372   0.445   2.841   7.239 -0.1536  0.3233 -0.2222
 3579SOL    HW122373   0.401   2.919   7.271 -0.0459  0.2446  0.1144
 3579SOL    HW222374   0.399   2.778   7.294 -0.2086 -1.2191 -2.0094
 3580SOL     OW22375   1.166   1.580   6.307 -0.0108  0.0198 -0.9787
 3580SOL    HW122376   1.202   1.493   6.326  3.4977  2.1834  2.5195
 3580SOL    HW222377   1.161   1.614   6.397  0.8779 -1.9308 -0.1846
 3581SOL     OW22378   2.366   3.758  11.138  0.7439 -0.0476 -0.1621
 3581SOL    HW122379   2.417   3.822  11.187  2.8204  0.5216 -3.0469
 3581SOL    HW222380   2.310   3.714  11.202  1.3957  1.5757  1.5138
 3582SOL     OW22381   1.582   0.590   9.571  0.1573  0.3171  0.6226
 3582SOL    HW122382   1.498   0.621   9.538  0.5190  4.2382  3.3405
 3582SOL    HW222383   1.568   0.508   9.524 -2.4188  2.1879 -1.9090
 3583SOL     OW22384   1.332   1.597   8.682  0.0708  0.0795 -0.3406
 3583SOL    HW122385   1.339   1.662   8.752 -0.4706  1.1273 -1.2573
 3583SOL    HW222386   1.353   1.517   8.730 -2.2709  0.3702  1.1683
 3584SOL     OW22387   3.414   1.101   3.924  0.1545 -0.1324 -0.5234
 3584SOL    HW122388   3.491   1.085   3.979  0.1379  2.6535  0.2930
 3584SOL    HW222389   3.410   1.020   3.873 -0.3932  0.4140 -1.3499
 3585SOL     OW22390   1.065   4.670   4.651 -0.5724  0.3042 -0.5351
 3585SOL    HW122391   0.990   4.667   4.711  0.2482 -0.3131  0.4752
 3585SOL    HW222392   1.140   4.683   4.711 -0.6740  0.7710 -0.5126
 3586SOL     OW22393   2.560   2.673   9.792  1.1551 -0.1719  0.7057
 3586SOL    HW122394   2.565   2.754   9.741  4.7248  1.1531  3.1665
 3586SOL    HW222395   2.485   2.628   9.753 -0.2246 -1.5458  4.9571
 3587SOL     OW22396   0.490   0.517  12.229  0.0691 -0.4006 -0.3811
 3587SOL    HW122397   0.558   0.503  12.163  1.9623 -3.4119  2.2178
 3587SOL    HW222398   0.486   0.612  12.229  0.1624 -0.3909  1.6242
 3588SOL     OW22399   3.408   4.042   2.274 -0.0388  0.4944 -0.2360
 3588SOL    HW122400   3.324   4.003   2.297  1.1471 -1.4767  0.7008
 3588SOL    HW222401   3.401   4.062   2.181  0.5712  0.8042 -0.2185
 3589SOL     OW22402   0.357   2.333  12.578 -0.2602  0.1307  0.1410
 3589SOL    HW122403   0.423   2.401  12.563  0.3403  0.0892  2.5970
 3589SOL    HW222404   0.394   2.273  12.643  0.4158  0.3260 -0.0633
 3590SOL     OW22405   2.725   1.260   0.609 -0.1337 -0.3048 -0.1587
 3590SOL    HW122406   2.702   1.352   0.596  0.9389  0.0767  0.7268
 3590SOL    HW222407   2.663   1.239   0.678  0.4898 -0.2510  0.4155
 3591SOL     OW22408   3.260   3.101   9.321 -0.0703  0.2283  0.2027
 3591SOL    HW122409   3.266   3.023   9.265  0.9679 -0.1502  0.8399
 3591SOL    HW222410   3.348   3.102   9.359  0.9264 -0.1578 -2.1459
 3592SOL     OW22411   4.236   0.870   8.803 -0.1849  0.5057 -0.1654
 3592SOL    HW122412   4.259   0.844   8.892 -0.8333 -0.4758 -0.2867
 3592SOL    HW222413   4.154   0.915   8.824  0.1419  1.6472 -1.3225
 3593SOL     OW22414   4.535   0.399   2.124  0.1072 -0.3214  0.0933
 3593SOL    HW122415   4.453   0.369   2.086  0.5482  1.0308 -1.9076
 3593SOL    HW222416   4.569   0.316   2.156  0.3577 -1.2280 -2.5617
 3594SOL     OW22417   4.331   2.452   9.561 -0.2523  0.0832 -0.0033
 3594SOL    HW122418   4.285   2.436   9.643  0.7114 -1.6053  0.2047
 3594SOL    HW222419   4.284   2.390   9.505 -2.3614 -0.2902  2.1993
 3595SOL     OW22420   4.631   1.330  10.703 -0.7939  0.2460  0.6588
 3595SOL    HW122421   4.570   1.382  10.650  0.3761 -0.0979 -0.9994
 3595SOL    HW222422   4.559   1.313  10.764  2.6474 -0.5551  4.4651
 3596SOL     OW22423   2.175   2.507  16.958  0.1932 -0.6850 -0.0549
 3596SOL    HW122424   2.094   2.466  16.927  0.3482  0.4565 -1.9463
 3596SOL    HW222425   2.240   2.481  16.893 -0.8655 -1.9205 -0.6479
 3597SOL     OW22426   4.218   4.336   4.434  0.3650  0.3963 -0.8037
 3597SOL    HW122427   4.151   4.348   4.500 -2.0978 -0.6971 -3.1139
 3597SOL    HW222428   4.183   4.267   4.377 -0.5184 -0.9625  1.3827
 3598SOL     OW22429   1.026   0.765   1.727  0.1474 -0.7263  0.6883
 3598SOL    HW122430   1.072   0.843   1.758 -1.9680  0.4071  0.9476
 3598SOL    HW222431   1.097   0.701   1.727  0.5695 -0.2668  0.4829
 3599SOL     OW22432   3.390   2.207   5.602 -0.3052 -0.0803 -0.0454
 3599SOL    HW122433   3.450   2.149   5.648  0.4336  0.4759 -0.3260
 3599SOL    HW222434   3.441   2.279   5.566  1.1768 -1.1993 -0.1863
 3600SOL     OW22435   2.243   1.711   8.407 -0.2781  0.2110  0.0817
 3600SOL    HW122436   2.321   1.766   8.416  0.5055 -0.8464 -0.2951
 3600SOL    HW222437   2.192   1.760   8.343  1.6808 -1.2459 -2.5878
 3601SOL     OW22438   2.544   2.466   2.966  0.2611  0.4892  0.0646
 3601SOL    HW122439   2.464   2.507   2.999 -0.5023  1.0188 -2.4070
 3601SOL    HW222440   2.557   2.399   3.033  0.0926 -0.1798 -0.5621
 3602SOL     OW22441   2.396   2.610   0.915  0.2259 -0.2043 -0.2095
 3602SOL    HW122442   2.310   2.581   0.886  0.5958 -0.1558 -1.3709
 3602SOL    HW222443   2.440   2.627   0.832 -0.5876 -1.8404 -0.9733
 3603SOL     OW22444   1.341   4.400  15.972 -0.0750  0.2645  0.3926
 3603SOL    HW122445   1.274   4.385  16.038 -1.2799  0.9069 -0.6914
 3603SOL    HW222446   1.412   4.420  16.033  0.4356 -1.4140  0.3565
 3604SOL     OW22447   1.120   2.190   6.207 -0.0744  1.0440  0.1847
 3604SOL    HW122448   1.198   2.202   6.260  0.7938  0.5337 -0.9758
 3604SOL    HW222449   1.169   2.160   6.130  0.5440  1.5459  0.3789
 3605SOL     OW22450   0.715   3.394  14.919  0.4379 -0.1653  0.4051
 3605SOL    HW122451   0.747   3.462  14.860  1.9178 -2.2963 -1.2329
 3605SOL    HW222452   0.797   3.346  14.925  1.3131  1.4584  1.4576
 3606SOL     OW22453   3.044   0.223   9.025 -0.2543  0.6578 -0.2566
 3606SOL    HW122454   3.125   0.273   9.013  0.5444 -0.4443  0.5357
 3606SOL    HW222455   3.075   0.132   9.032 -0.0940  0.8242  1.1306
 3607SOL     OW22456   4.712   4.385  13.541 -0.5184 -0.0168  0.4581
 3607SOL    HW122457   0.003   4.309  13.587  1.6417  0.6384 -0.0482
 3607SOL    HW222458   4.657   4.426  13.609  2.5942  3.4332  0.9162
 3608SOL     OW22459   3.421   2.255   8.850 -0.1107  0.0524  0.6830
 3608SOL    HW122460   3.471   2.329   8.816  1.8811 -1.3082  0.6092
 3608SOL    HW222461   3.390   2.201   8.777  0.6563 -1.3345  1.3883
 3609SOL     OW22462   3.573   3.392   5.718  0.5728  0.2390  0.2505
 3609SOL    HW122463   3.624   3.359   5.643 -0.0542 -0.0397 -0.0538
 3609SOL    HW222464   3.530   3.313   5.750  1.4696 -1.4792 -2.7391
 3610SOL     OW22465   3.675   1.175   6.682  0.5658  0.2786 -0.3164
 3610SOL    HW122466   3.713   1.261   6.701  1.2466  0.6533 -3.4915
 3610SOL    HW222467   3.728   1.152   6.606 -1.0273 -2.6451 -0.5094
 3611SOL     OW22468   4.202   2.126  17.516  0.2459 -0.4753 -0.0037
 3611SOL    HW122469   4.271   2.160  17.459 -1.5877  1.3781 -1.1358
 3611SOL    HW222470   4.127   2.163  17.468  0.4894 -0.6173 -0.4843
 3612SOL     OW22471   3.272   2.499   8.727 -0.0930 -0.2149 -0.7700
 3612SOL    HW122472   3.248   2.464   8.641 -0.8107 -1.9491  0.1368
 3612SOL    HW222473   3.368   2.499   8.730 -0.1474  0.4181  0.8041
 3613SOL     OW22474   1.889   4.536  10.732  0.1520  0.2872  0.2583
 3613SOL    HW122475   1.854   4.622  10.708 -0.7679  0.1038  0.9250
 3613SOL    HW222476   1.810   4.486  10.712 -1.7717  4.1147 -1.7851
 3614SOL     OW22477   2.735   2.118   2.499 -0.8894  0.4093 -0.4783
 3614SOL    HW122478   2.718   2.134   2.406 -0.6861  0.8646 -0.4372
 3614SOL    HW222479   2.681   2.041   2.517  0.8797 -0.9722 -1.1625
 3615SOL     OW22480   0.605   2.962  15.077  0.1048  0.0894 -0.0880
 3615SOL    HW122481   0.550   2.889  15.107 -0.2632  0.3511 -0.1254
 3615SOL    HW222482   0.607   2.949  14.983  0.4524 -0.6676  0.0209
 3616SOL     OW22483   1.606   0.948   4.245  0.0673  0.0823  0.1291
 3616SOL    HW122484   1.555   0.925   4.168 -0.2154 -0.3520  0.4462
 3616SOL    HW222485   1.615   0.862   4.287 -0.7495 -0.4173 -0.7491
 3617SOL     OW22486   0.919   0.356   3.761 -0.5390  0.6352  0.0360
 3617SOL    HW122487   0.930   0.409   3.682 -0.5795  1.3632  0.5247
 3617SOL    HW222488   0.849   0.411   3.794  0.2792  2.2828 -0.9933
 3618SOL     OW22489   3.591   2.298   2.840  0.2239  0.5561 -0.4517
 3618SOL    HW122490   3.560   2.293   2.931 -1.8476 -0.4854 -1.2104
 3618SOL    HW222491   3.668   2.242   2.850  0.1131  0.7578  1.5227
 3619SOL     OW22492   0.473   4.086   8.054  0.5566 -0.2659 -0.9705
 3619SOL    HW122493   0.378   4.077   8.041  0.4795  0.5622 -1.0301
 3619SOL    HW222494   0.503   4.137   7.978 -1.3910  2.3471 -0.0164
 3620SOL     OW22495   0.460   2.587  17.401 -0.5806 -0.2556  0.0941
 3620SOL    HW122496   0.405   2.616  17.473 -1.9137 -0.6224 -0.7753
 3620SOL    HW222497   0.541   2.584  17.453 -0.7879  1.8495  0.5396
 3621SOL     OW22498   2.878   3.178   3.387  0.4737  0.3264 -0.3609
 3621SOL    HW122499   2.954   3.167   3.445 -0.7154 -2.6426  0.6754
 3621SOL    HW222500   2.921   3.240   3.329 -2.0800  1.4749 -1.0063
 3622SOL     OW22501   2.308   0.465   9.423 -0.3142 -0.3442 -0.0678
 3622SOL    HW122502   2.326   0.430   9.510 -2.4893 -2.8481 -0.6403
 3622SOL    HW222503   2.212   0.467   9.425 -0.2993  0.4666 -0.2680
 3623SOL     OW22504   1.838   2.031  11.057 -0.0232 -0.1164 -0.0543
 3623SOL    HW122505   1.875   2.060  11.141  2.3918 -1.4832 -0.6539
 3623SOL    HW222506   1.824   1.939  11.077  2.0415 -0.0681  1.6575
 3624SOL     OW22507   0.685   2.590  11.299  0.1024  0.2329  0.3054
 3624SOL    HW122508   0.623   2.524  11.268  1.1271  0.7863 -2.9493
 3624SOL    HW222509   0.716   2.554  11.382  0.3147  1.6265  0.8301
 3625SOL     OW22510   4.128   3.143  11.088 -1.1013 -0.6783 -0.1107
 3625SOL    HW122511   4.178   3.153  11.007 -0.4438  0.9849  0.5030
 3625SOL    HW222512   4.196   3.176  11.147 -1.0663  0.5976 -0.8632
 3626SOL     OW22513   1.961   2.439  12.603 -0.5145 -0.1172  0.8390
 3626SOL    HW122514   1.950   2.344  12.606 -0.9219 -0.1044 -0.2654
 3626SOL    HW222515   1.922   2.461  12.518  1.9436  1.1577  0.0604
 3627SOL     OW22516   1.735   3.619   3.183  0.2771  0.1494 -0.2637
 3627SOL    HW122517   1.700   3.708   3.182  0.7297  0.3284 -0.2430
 3627SOL    HW222518   1.652   3.572   3.174 -0.0586  0.9794 -1.6025
 3628SOL     OW22519   0.752   2.158  11.386  0.3297  0.1711  0.2864
 3628SOL    HW122520   0.846   2.152  11.401  0.1575  0.8929  1.7407
 3628SOL    HW222521   0.713   2.120  11.465  1.1947 -0.2125  0.5251
 3629SOL     OW22522   0.120   0.897   8.066  0.2188  0.7960  0.2669
 3629SOL    HW122523   0.121   0.869   7.975  2.7658 -0.4801  0.6736
 3629SOL    HW222524   0.178   0.973   8.067  2.0763 -0.6386  2.0477
 3630SOL     OW22525   2.701   3.952  12.523  1.0514 -0.0470  0.0032
 3630SOL    HW122526   2.652   3.910  12.594  3.4978 -0.3466  1.5044
 3630SOL    HW222527   2.667   3.902  12.448 -0.1470 -0.2050  0.6535
 3631SOL     OW22528   1.998   2.355   7.947  0.8607 -0.3437 -0.1329
 3631SOL    HW122529   2.036   2.428   7.899 -0.6231  1.4339  1.3769
 3631SOL    HW222530   1.929   2.317   7.892 -1.3516 -0.1152  2.4904
 3632SOL     OW22531   3.096   0.808  15.364 -0.3796 -0.4702  0.0580
 3632SOL    HW122532   3.043   0.797  15.285 -0.6696 -1.0355  0.3380
 3632SOL    HW222533   3.178   0.770  15.332 -0.8294 -0.0444 -1.6429
 3633SOL     OW22534   4.587   1.291  11.720  0.8281 -0.1565 -0.3880
 3633SOL    HW122535   4.621   1.212  11.762 -0.4636 -0.5884 -0.1574
 3633SOL    HW222536   4.555   1.255  11.637 -0.5347 -0.2649  0.1729
 3634SOL     OW22537   1.505   3.163  14.615  0.0664 -0.1123  0.6122
 3634SOL    HW122538   1.518   3.212  14.697  2.2333  0.4272 -0.0669
 3634SOL    HW222539   1.558   3.088  14.640 -2.0916 -1.2977  1.6693
 3635SOL     OW22540   0.435   2.781   2.729  0.3202  0.0818  0.2467
 3635SOL    HW122541   0.427   2.689   2.753 -0.9451  0.5825  1.8154
 3635SOL    HW222542   0.352   2.810   2.768 -1.2030 -1.7313 -1.6480
 3636SOL     OW22543   1.116   4.636   6.634  0.3587  0.1691  0.4110
 3636SOL    HW122544   1.179   4.671   6.571  1.3053 -0.9392  0.7343
 3636SOL    HW222545   1.059   4.711   6.651  0.5540  0.6435 -1.0470
 3637SOL     OW22546   0.348   3.945   2.211 -0.0212 -0.1847  0.8122
 3637SOL    HW122547   0.260   3.931   2.175 -0.6593 -0.0742  2.3313
 3637SOL    HW222548   0.399   3.877   2.168  0.3624  0.8145 -0.3070
 3638SOL     OW22549   1.681   1.592   8.955 -0.3168  0.0515  0.3342
 3638SOL    HW122550   1.655   1.622   9.043  2.1046  1.0356  0.7215
 3638SOL    HW222551   1.679   1.497   8.964 -1.4096 -0.0602 -1.0706
 3639SOL     OW22552   1.790   1.488   2.757 -0.2804 -0.1345  0.1233
 3639SOL    HW122553   1.717   1.545   2.783 -1.4737 -2.0642  1.0303
 3639SOL    HW222554   1.759   1.406   2.795 -0.5258 -1.4132 -2.8069
 3640SOL     OW22555   2.497   3.564   4.107 -0.0784  0.2424  0.0929
 3640SOL    HW122556   2.576   3.519   4.136 -1.2456 -0.6458  1.9227
 3640SOL    HW222557   2.442   3.506   4.053 -0.7119 -0.8683  1.9361
 3641SOL     OW22558   1.304   2.775   7.298 -0.0517  0.2285  0.7347
 3641SOL    HW122559   1.222   2.725   7.302 -0.1613  0.5736  3.3036
 3641SOL    HW222560   1.349   2.707   7.349 -1.1245 -1.0166  0.0355
 3642SOL     OW22561   3.898   0.903   9.143 -0.1769  0.7796 -0.3451
 3642SOL    HW122562   3.817   0.862   9.170  1.5097 -1.8337  0.7637
 3642SOL    HW222563   3.886   0.998   9.139  0.8632  0.8681 -1.7560
 3643SOL     OW22564   0.992   3.811   3.494 -0.0956 -0.1165  0.1227
 3643SOL    HW122565   0.971   3.891   3.541 -0.1936  0.7986 -1.4897
 3643SOL    HW222566   1.070   3.779   3.539 -1.0278 -0.5558  1.4464
 3644SOL     OW22567   2.010   1.071  10.163 -0.0308 -0.1450 -0.0390
 3644SOL    HW122568   1.943   1.084  10.096 -1.3953 -0.0622  1.3237
 3644SOL    HW222569   2.028   1.159  10.198 -3.6246  0.9856 -0.9886
 3645SOL     OW22570   0.911   3.551  15.792 -0.6488 -0.3237  0.4501
 3645SOL    HW122571   0.849   3.489  15.830  0.0681 -0.2023  1.8090
 3645SOL    HW222572   0.886   3.540  15.700  0.9398  1.0630 -0.1474
 3646SOL     OW22573   2.043   2.693  14.560  0.0224  0.3175 -0.1280
 3646SOL    HW122574   1.979   2.764  14.554 -0.4455 -0.1343 -0.4329
 3646SOL    HW222575   2.106   2.734  14.621  0.9322 -0.0542 -0.8165
 3647SOL     OW22576   0.145   1.601   4.880  0.3469  0.3559 -0.1272
 3647SOL    HW122577   0.145   1.507   4.899  0.7611  0.6519  1.3608
 3647SOL    HW222578   0.064   1.618   4.831 -0.3693  0.1001  0.9563
 3648SOL     OW22579   3.158   3.342  11.692  0.3283 -0.0451  0.3391
 3648SOL    HW122580   3.169   3.257  11.648  1.2054  0.0237  0.4379
 3648SOL    HW222581   3.230   3.386  11.648 -1.6970  1.8813 -1.0564
 3649SOL     OW22582   4.004   0.111  17.589  0.5897  0.5739  0.6002
 3649SOL    HW122583   3.976   0.032  17.634 -0.4527  0.1999 -0.6937
 3649SOL    HW222584   3.955   0.180  17.633  1.2855  2.3922 -1.4516
 3650SOL     OW22585   0.673   1.482   9.289  0.1235 -0.0627  0.6807
 3650SOL    HW122586   0.654   1.399   9.245  0.3142  0.3781 -0.2508
 3650SOL    HW222587   0.617   1.542   9.240 -0.3970 -0.9405  0.2065
 3651SOL     OW22588   4.557   4.731  17.393 -0.2168 -0.7954 -0.1118
 3651SOL    HW122589   4.466   4.738  17.362 -0.1774 -0.6687 -0.1963
 3651SOL    HW222590   4.573   4.637  17.399  2.9628 -0.2801 -0.5704
 3652SOL     OW22591   0.909   0.961  15.323  0.1512 -0.2222  0.0461
 3652SOL    HW122592   0.976   1.028  15.335 -0.0512 -0.2131  1.0873
 3652SOL    HW222593   0.928   0.901  15.395  1.5038 -0.8261 -0.7962
 3653SOL     OW22594   4.146   1.473   7.693  0.2130  0.7708  0.1405
 3653SOL    HW122595   4.051   1.485   7.696  0.0772 -0.1441 -0.3317
 3653SOL    HW222596   4.161   1.488   7.786 -1.8170 -0.9558  0.7525
 3654SOL     OW22597   3.096   0.622  17.103 -0.1239 -0.5075 -0.4129
 3654SOL    HW122598   3.012   0.666  17.117  1.6595  2.5020  0.6321
 3654SOL    HW222599   3.111   0.581  17.189 -0.0314  3.1003  1.2954
 3655SOL     OW22600   0.376   3.562   0.322 -0.0398  0.2711  0.1343
 3655SOL    HW122601   0.317   3.592   0.253  0.6855 -0.8072 -0.9443
 3655SOL    HW222602   0.322   3.554   0.400  0.4747 -1.0969  0.3488
 3656SOL     OW22603   1.088   2.369  13.941  0.2656 -0.4422 -0.1351
 3656SOL    HW122604   1.073   2.311  13.866 -1.2104  0.7063 -0.7258
 3656SOL    HW222605   1.132   2.441  13.895 -1.7990  1.6214  1.1602
 3657SOL     OW22606   3.388   2.829   5.459 -1.2591 -0.4034 -0.0518
 3657SOL    HW122607   3.354   2.792   5.540  0.3519  1.8100  1.6555
 3657SOL    HW222608   3.482   2.814   5.468 -0.9624  0.7731 -1.1083
 3658SOL     OW22609   0.292   1.665   6.686 -0.3011 -0.1850 -0.1608
 3658SOL    HW122610   0.357   1.618   6.634  0.9971 -1.1150  2.2640
 3658SOL    HW222611   0.293   1.619   6.770 -1.9301  0.4372  0.2111
 3659SOL     OW22612   2.354   0.682   4.075 -0.3632  0.6589 -0.0434
 3659SOL    HW122613   2.311   0.597   4.081  0.4262  0.0632 -2.8331
 3659SOL    HW222614   2.445   0.657   4.062 -0.6048 -1.7436  3.1300
 3660SOL     OW22615   1.718   0.303   7.481 -0.3637  0.7499 -0.1935
 3660SOL    HW122616   1.678   0.276   7.564  0.9902  3.1821  1.2776
 3660SOL    HW222617   1.717   0.398   7.494  1.0173  0.8746 -0.9956
 3661SOL     OW22618   1.097   1.311   2.756 -0.1365  0.2000  0.2276
 3661SOL    HW122619   1.010   1.297   2.720 -0.5327  0.8454  0.9285
 3661SOL    HW222620   1.140   1.240   2.709 -1.6332  0.1010 -0.9892
 3662SOL     OW22621   1.993   4.249   6.812 -0.4158 -0.1801 -0.2106
 3662SOL    HW122622   2.078   4.275   6.775  0.4806 -1.4901  0.9429
 3662SOL    HW222623   1.983   4.318   6.878 -0.1938 -0.7385  0.4014
 3663SOL     OW22624   4.584   1.941  14.964  0.0376  0.4940  0.6846
 3663SOL    HW122625   4.605   1.985  14.882  1.2432  1.9595  1.7694
 3663SOL    HW222626   4.657   1.883  14.981  1.3997  2.1461  0.5046
 3664SOL     OW22627   2.664   2.251   3.122 -0.0663 -0.5338 -0.5696
 3664SOL    HW122628   2.718   2.212   3.190 -0.7224 -1.0429 -0.3492
 3664SOL    HW222629   2.614   2.175   3.095  2.1633 -2.1957 -0.0042
 3665SOL     OW22630   1.362   4.192   6.989 -0.5643 -0.2645 -0.3744
 3665SOL    HW122631   1.357   4.183   7.084 -1.0787  1.0291 -0.2691
 3665SOL    HW222632   1.349   4.287   6.979 -0.9115 -0.3710 -0.9401
 3666SOL     OW22633   4.100   2.218   6.741 -0.2561 -0.0192 -0.6428
 3666SOL    HW122634   4.066   2.215   6.830 -0.0990  2.1438 -0.5007
 3666SOL    HW222635   4.071   2.307   6.718 -3.1583 -0.9365 -0.4977
 3667SOL     OW22636   3.104   3.357   1.463 -0.1307 -0.5653  0.2747
 3667SOL    HW122637   3.119   3.438   1.414 -2.3090 -1.1642 -1.3688
 3667SOL    HW222638   3.168   3.368   1.533 -0.0644  2.6853 -0.3091
 3668SOL     OW22639   4.645   3.473   1.836 -0.0098  0.0171  0.3809
 3668SOL    HW122640   4.593   3.447   1.760 -0.6904  1.6768  0.2823
 3668SOL    HW222641   4.574   3.521   1.879  0.7269  1.1656  0.3012
 3669SOL     OW22642   3.925   2.903   8.452  0.0058 -1.0873 -0.2395
 3669SOL    HW122643   4.020   2.897   8.463 -0.0936  1.0021  1.6587
 3669SOL    HW222644   3.908   2.926   8.543  1.6232 -2.1002  0.3164
 3670SOL     OW22645   4.561   4.122   5.214 -0.2914 -0.4865  0.2027
 3670SOL    HW122646   4.537   4.029   5.220  0.5757 -0.7933 -1.1526
 3670SOL    HW222647   4.575   4.134   5.121 -0.6843  1.2950  0.3853
 3671SOL     OW22648   1.953   1.441  14.343 -0.2225 -0.0722  0.2185
 3671SOL    HW122649   1.977   1.370  14.283  1.6597  0.8347 -0.0748
 3671SOL    HW222650   1.992   1.406  14.423  0.6065 -1.7725 -0.9467
 3672SOL     OW22651   2.042   0.439   6.885 -0.6386  0.1448  0.5795
 3672SOL    HW122652   2.065   0.348   6.900 -0.5542 -0.0732 -0.8879
 3672SOL    HW222653   1.948   0.433   6.903 -0.6293 -0.0900  0.5511
 3673SOL     OW22654   1.413   1.154   7.532 -0.4308 -0.2970 -0.4332
 3673SOL    HW122655   1.466   1.091   7.581 -0.7218  0.3211  0.6894
 3673SOL    HW222656   1.481   1.217   7.507 -1.0957  0.7285  0.3288
 3674SOL     OW22657   3.177   0.971   4.407  0.0731  0.4131 -0.2505
 3674SOL    HW122658   3.175   1.060   4.443  0.9835  0.1396  0.4614
 3674SOL    HW222659   3.245   0.990   4.342  0.4608 -1.6901 -0.4592
 3675SOL     OW22660   2.312   3.617   5.425 -0.5664 -0.4061 -0.2458
 3675SOL    HW122661   2.287   3.584   5.339  3.5212 -0.2444 -1.4710
 3675SOL    HW222662   2.246   3.683   5.449 -0.2632  0.6633 -2.2873
 3676SOL     OW22663   2.054   2.201   9.158  0.6903  0.1677  0.1047
 3676SOL    HW122664   2.120   2.217   9.226  0.2918  0.1295  0.5000
 3676SOL    HW222665   1.990   2.161   9.217  2.2337  0.0337  1.6896
 3677SOL     OW22666   2.186   0.624   4.908 -0.0143 -0.3654 -0.4467
 3677SOL    HW122667   2.132   0.569   4.852  0.6898 -1.5264  0.0076
 3677SOL    HW222668   2.201   0.560   4.978  1.1655  1.0521  0.5992
 3678SOL     OW22669   1.022   0.087   0.017 -0.3387  0.3622 -0.0347
 3678SOL    HW122670   1.010   0.047  17.698  0.7117 -0.3209  0.1295
 3678SOL    HW222671   1.111   0.057   0.037  0.3013  0.2736 -3.1160
 3679SOL     OW22672   3.619   0.603  16.173 -0.4534  0.2424  0.5462
 3679SOL    HW122673   3.564   0.640  16.242  2.0287  1.4425  1.8774
 3679SOL    HW222674   3.587   0.513  16.166  1.4287 -0.5296  1.8878
 3680SOL     OW22675   1.439   4.054  12.565 -0.3387  0.1704 -0.5449
 3680SOL    HW122676   1.525   4.021  12.592 -0.7728  0.8371  1.6319
 3680SOL    HW222677   1.414   4.002  12.489 -1.0221 -0.2394 -0.0367
 3681SOL     OW22678   0.591   3.373   9.344  0.1634  0.4105 -0.3556
 3681SOL    HW122679   0.604   3.280   9.326  0.7417  0.1943  1.2349
 3681SOL    HW222680   0.570   3.408   9.257 -3.4671  0.8523  0.7251
 3682SOL     OW22681   2.082   0.160   7.337  0.5338  0.2007  0.4070
 3682SOL    HW122682   2.000   0.183   7.292  1.1831 -2.6526 -2.2526
 3682SOL    HW222683   2.049   0.125   7.419  0.6823 -0.8969 -0.0022
 3683SOL     OW22684   3.808   1.856  14.451 -0.0975 -0.3046  0.2037
 3683SOL    HW122685   3.839   1.939  14.415 -0.7040  0.4768  1.4939
 3683SOL    HW222686   3.815   1.798  14.375 -2.3890 -1.3959  0.8379
 3684SOL     OW22687   0.431   1.542   7.554 -0.0501 -0.2230  0.6695
 3684SOL    HW122688   0.457   1.480   7.486  1.1406  2.0626 -0.9728
 3684SOL    HW222689   0.413   1.617   7.498 -0.8872 -0.6746  0.3342
 3685SOL     OW22690   2.164   0.938   2.819 -0.5205 -0.1929 -0.8899
 3685SOL    HW122691   2.130   0.955   2.907  0.5436 -0.3642 -0.4502
 3685SOL    HW222692   2.256   0.917   2.834 -1.1780 -2.5472 -0.2417
 3686SOL     OW22693   1.292   1.867   5.481  0.0505  0.5695 -0.3438
 3686SOL    HW122694   1.356   1.885   5.549 -0.0176  0.2073 -0.1879
 3686SOL    HW222695   1.209   1.884   5.526  0.2172  0.4037  0.0170
 3687SOL     OW22696   2.261   1.784   8.894  0.2200  0.2668 -0.2083
 3687SOL    HW122697   2.215   1.743   8.821  0.6847 -1.5727  0.5502
 3687SOL    HW222698   2.352   1.757   8.879  0.0329 -0.6218  0.2692
 3688SOL     OW22699   0.595   1.529   4.502 -0.1487  0.2800  0.0401
 3688SOL    HW122700   0.551   1.590   4.561 -0.9386 -0.2049 -0.0521
 3688SOL    HW222701   0.528   1.475   4.461  1.0020 -0.2432 -1.1485
 3689SOL     OW22702   3.208   1.109  13.972 -0.0315 -0.7447  0.1880
 3689SOL    HW122703   3.164   1.033  13.933 -0.0701  0.0577 -1.3156
 3689SOL    HW222704   3.275   1.130  13.908 -1.8494  0.0409 -1.4711
 3690SOL     OW22705   0.524   1.367   8.579 -0.2239  0.2520  0.3247
 3690SOL    HW122706   0.493   1.351   8.490 -0.9977  4.5932 -0.1789
 3690SOL    HW222707   0.452   1.422   8.612 -0.3665 -1.5486  3.0198
 3691SOL     OW22708   2.486   3.921   2.906  0.5076  0.1404  0.1055
 3691SOL    HW122709   2.524   3.869   2.835 -0.2652 -3.1468  2.0900
 3691SOL    HW222710   2.394   3.926   2.879  0.9927 -0.0478 -1.5674
 3692SOL     OW22711   4.134   1.886   7.863  0.0351  0.1866  0.5915
 3692SOL    HW122712   4.129   1.960   7.802  0.2630 -0.0843  0.2434
 3692SOL    HW222713   4.073   1.917   7.930  0.0308  1.6143 -0.0703
 3693SOL     OW22714   4.027   3.868   4.236 -0.2417  0.2328  0.5609
 3693SOL    HW122715   4.109   3.830   4.206  0.1115  1.2084  0.2989
 3693SOL    HW222716   3.978   3.873   4.154  0.7569  1.3954  0.0329
 3694SOL     OW22717   2.382   1.338   4.920  0.8387 -0.2593  0.3705
 3694SOL    HW122718   2.290   1.330   4.895  1.7372 -2.3271 -2.2455
 3694SOL    HW222719   2.397   1.249   4.952  0.5671 -0.8757 -1.1999
 3695SOL     OW22720   1.098   2.217   4.648 -0.2774 -0.0416 -0.1451
 3695SOL    HW122721   1.182   2.238   4.690 -0.5314  1.0961 -0.2016
 3695SOL    HW222722   1.041   2.212   4.724  0.4619  1.6208  0.5238
 3696SOL     OW22723   4.163   2.055   7.245  0.3578 -0.2227  0.3604
 3696SOL    HW122724   4.100   2.035   7.314 -0.2032  1.1922  0.2627
 3696SOL    HW222725   4.134   1.997   7.174 -2.9542 -1.5994  2.8739
 3697SOL     OW22726   3.517   2.491   5.557 -0.1871  0.3126 -0.2100
 3697SOL    HW122727   3.460   2.541   5.616 -0.4706 -0.3778  0.1092
 3697SOL    HW222728   3.593   2.549   5.553 -0.2976  0.4068 -0.9532
 3698SOL     OW22729   3.254   2.534   0.168 -0.2048 -0.3362 -0.2427
 3698SOL    HW122730   3.177   2.586   0.190  0.4585  0.1916  0.8085
 3698SOL    HW222731   3.213   2.473   0.106 -1.2866 -1.5443  1.6587
 3699SOL     OW22732   1.316   1.184   0.550  0.4629 -0.1124  0.2499
 3699SOL    HW122733   1.267   1.132   0.615  1.3308 -1.3092 -0.0415
 3699SOL    HW222734   1.404   1.149   0.564 -0.8242 -2.9619  1.2570
 3700SOL     OW22735   2.159   1.766  10.189 -0.2042  0.0673  1.1473
 3700SOL    HW122736   2.227   1.715  10.233 -0.5096 -0.2922  1.2026
 3700SOL    HW222737   2.097   1.701  10.155 -0.1625  1.3578 -1.3818
 3701SOL     OW22738   4.665   3.472   3.577  0.6952 -0.0578  1.2326
 3701SOL    HW122739   4.607   3.406   3.616 -0.7030 -0.4801 -1.5216
 3701SOL    HW222740   4.710   3.414   3.515  0.7991  0.7618  0.5510
 3702SOL     OW22741   2.513   0.364  11.130 -0.1410 -0.3167 -0.4528
 3702SOL    HW122742   2.581   0.309  11.169 -1.5668 -1.8321 -0.0656
 3702SOL    HW222743   2.522   0.334  11.040 -0.3987  0.2966 -0.6820
 3703SOL     OW22744   4.476   1.642   4.070 -0.2089 -0.1494  0.1788
 3703SOL    HW122745   4.409   1.574   4.061 -0.8233  0.2415  1.7138
 3703SOL    HW222746   4.537   1.595   4.127  1.3742 -2.0475 -3.1452
 3704SOL     OW22747   0.624   2.405   8.062 -0.4625  0.1572  0.4348
 3704SOL    HW122748   0.536   2.440   8.052 -0.7981 -0.7006  0.3160
 3704SOL    HW222749   0.611   2.335   8.126 -2.0649 -1.6792 -1.8752
 3705SOL     OW22750   2.007   1.868   8.984 -0.2600  0.1870 -0.5291
 3705SOL    HW122751   2.100   1.872   8.963 -0.1030  1.9765  0.5742
 3705SOL    HW222752   1.986   1.779   8.954  0.6371  0.8838 -3.1921
 3706SOL     OW22753   1.700   1.216   2.527  0.0423 -0.1114  0.4064
 3706SOL    HW122754   1.790   1.198   2.552 -0.6144  0.0695  2.8697
 3706SOL    HW222755   1.687   1.166   2.446  1.3184  0.1451  0.0492
 3707SOL     OW22756   0.500   1.605   3.460 -0.1296  0.1369  0.6480
 3707SOL    HW122757   0.541   1.687   3.488 -0.8958  0.4342  0.9271
 3707SOL    HW222758   0.410   1.619   3.491 -0.3795 -0.0232 -0.0064
 3708SOL     OW22759   0.785   4.647  17.625  0.6645 -0.2342  0.2388
 3708SOL    HW122760   0.776   4.612  17.713 -2.0730 -2.2111 -0.8044
 3708SOL    HW222761   0.699   4.640  17.583  0.4016  0.4434  0.6689
 3709SOL     OW22762   1.562   0.747   8.422 -0.1735  0.0274  0.7206
 3709SOL    HW122763   1.490   0.710   8.371 -2.4380  2.8763  1.8801
 3709SOL    HW222764   1.612   0.785   8.349 -1.2083  0.6849  0.3674
 3710SOL     OW22765   2.878   4.277  16.374  0.1411 -0.1924  0.3076
 3710SOL    HW122766   2.969   4.306  16.384 -0.0437  0.8323 -1.0115
 3710SOL    HW222767   2.868   4.329  16.294  1.9410  0.1238  0.2952
 3711SOL     OW22768   0.107   2.069  12.560 -0.0513 -0.5671  0.4468
 3711SOL    HW122769   0.056   2.003  12.607 -0.1972  0.0872  1.2085
 3711SOL    HW222770   0.195   2.031  12.557 -0.2335 -0.6938 -2.8721
 3712SOL     OW22771   3.719   1.020   7.901  0.0595  0.5468  0.0616
 3712SOL    HW122772   3.643   1.022   7.844  0.1998 -2.5106 -0.2780
 3712SOL    HW222773   3.788   0.995   7.840  1.7500  0.7370  1.9050
 3713SOL     OW22774   0.409   2.535   8.017 -0.4728  0.5969  0.2010
 3713SOL    HW122775   0.342   2.552   8.083  0.0812 -0.0222  0.9204
 3713SOL    HW222776   0.385   2.599   7.951 -1.9903 -0.5438 -0.3740
 3714SOL     OW22777   1.757   2.430  15.171 -0.7551 -0.2258  0.1755
 3714SOL    HW122778   1.807   2.493  15.119 -2.0651 -0.4053 -1.2722
 3714SOL    HW222779   1.775   2.455  15.262  0.7271 -1.6719  0.2891
 3715SOL     OW22780   3.960   2.447  12.137 -0.2271  0.6669 -0.0787
 3715SOL    HW122781   4.014   2.372  12.161  0.9466  2.0536  1.6094
 3715SOL    HW222782   3.921   2.415  12.056 -1.1431 -1.3485  1.1529
 3716SOL     OW22783   1.995   0.535  10.688 -0.3526 -0.9829  0.4379
 3716SOL    HW122784   2.014   0.565  10.600 -1.2894  1.6014  1.1087
 3716SOL    HW222785   2.059   0.465  10.699  2.3949  1.6636  1.0851
 3717SOL     OW22786   1.217   0.948   1.899 -0.1879 -0.8167  0.4447
 3717SOL    HW122787   1.145   0.933   1.960  2.3277  0.7123  3.8117
 3717SOL    HW222788   1.228   1.042   1.912  2.4107 -1.1523  0.5887
 3718SOL     OW22789   3.993   2.766  16.715 -0.5414 -0.1911 -0.2801
 3718SOL    HW122790   3.917   2.822  16.729 -1.0478 -1.2859  1.3005
 3718SOL    HW222791   3.959   2.705  16.649  3.0278 -1.7757 -0.6321
 3719SOL     OW22792   4.109   3.115   6.543  0.4167  0.3403 -0.9121
 3719SOL    HW122793   4.081   3.069   6.623 -0.6585  2.0552 -0.3090
 3719SOL    HW222794   4.049   3.189   6.551  0.6369  0.5292 -1.0115
 3720SOL     OW22795   2.404   0.901   3.894 -0.1895  0.0767  0.3701
 3720SOL    HW122796   2.387   0.813   3.927 -1.5370  0.3914  0.5323
 3720SOL    HW222797   2.367   0.957   3.963  2.0312  1.8164  0.1446
 3721SOL     OW22798   0.117   3.775   9.047  0.2100  0.2391  0.0827
 3721SOL    HW122799   0.120   3.847   8.983 -0.1530 -0.4301 -0.6776
 3721SOL    HW222800   0.209   3.750   9.039 -0.2901 -1.5241 -0.0446
 3722SOL     OW22801   0.563   2.768  12.353 -0.0881 -0.4973  0.0093
 3722SOL    HW122802   0.648   2.749  12.392  0.2295  0.9729  0.0406
 3722SOL    HW222803   0.534   2.678  12.340 -0.5570 -0.4901  1.0282
 3723SOL     OW22804   3.918   2.210   6.408  0.0235 -0.4710 -0.1058
 3723SOL    HW122805   3.907   2.121   6.442 -0.9199 -0.4109 -0.2548
 3723SOL    HW222806   3.828   2.236   6.390  0.0860  1.1836  1.9676
 3724SOL     OW22807   2.096   0.993   2.165 -0.1759 -0.5463  0.1275
 3724SOL    HW122808   2.055   1.010   2.080  0.5339 -0.0586 -0.1083
 3724SOL    HW222809   2.187   1.016   2.146 -0.1621 -0.4252  0.3438
 3725SOL     OW22810   0.295   1.434   5.185 -0.4001 -0.6798 -0.0366
 3725SOL    HW122811   0.374   1.383   5.164 -0.3001 -0.6379  0.2450
 3725SOL    HW222812   0.261   1.415   5.098  0.3227  0.6644 -0.6216
 3726SOL     OW22813   0.782   1.264   4.669 -0.3686 -0.6214 -0.2344
 3726SOL    HW122814   0.732   1.337   4.632 -0.6342 -1.2720 -1.1697
 3726SOL    HW222815   0.816   1.295   4.753 -0.7918 -1.0821  0.1022
 3727SOL     OW22816   0.950   3.915   5.570  0.4756 -0.4543  0.0005
 3727SOL    HW122817   0.905   3.963   5.639 -1.6120 -0.1343 -1.6238
 3727SOL    HW222818   1.015   3.980   5.545 -0.7003  0.1394 -1.4593
 3728SOL     OW22819   4.637   1.236  11.400 -0.0757 -0.3075 -0.5807
 3728SOL    HW122820   4.721   1.207  11.434 -0.0251 -0.7825 -1.1258
 3728SOL    HW222821   4.662   1.281  11.319 -0.9561  0.3707 -0.4802
 3729SOL     OW22822   2.818   0.892   8.890  0.1252 -1.3551 -0.0807
 3729SOL    HW122823   2.723   0.894   8.886  0.1093 -1.0757  0.5421
 3729SOL    HW222824   2.835   0.851   8.805  1.1439 -1.3426  0.1176
 3730SOL     OW22825   0.759   0.174  17.753 -0.0290  0.7322  0.5416
 3730SOL    HW122826   0.854   0.186  17.750  0.0884  0.1818  2.0856
 3730SOL    HW222827   0.729   0.224  17.677 -1.2340  1.3804  1.4309
 3731SOL     OW22828   3.795   4.404   9.143 -0.6502  0.3177 -0.2720
 3731SOL    HW122829   3.853   4.403   9.220  0.5294  0.6569 -1.1628
 3731SOL    HW222830   3.713   4.413   9.192 -0.4971 -1.2824  0.3001
 3732SOL     OW22831   1.592   1.973   7.577 -0.8752  0.2282 -0.0819
 3732SOL    HW122832   1.566   2.025   7.654  0.6775  0.7687  0.0826
 3732SOL    HW222833   1.592   1.885   7.615  0.6706  0.7799  1.2086
 3733SOL     OW22834   3.491   4.135  15.014  0.4907 -0.4433 -0.0311
 3733SOL    HW122835   3.401   4.108  15.033  0.6870 -0.8548  0.2878
 3733SOL    HW222836   3.475   4.216  14.964 -1.8838 -1.0416 -0.2232
 3734SOL     OW22837   1.423   2.295   3.748  0.3278  0.4275  0.1415
 3734SOL    HW122838   1.470   2.375   3.722  0.7216 -0.0721 -0.6528
 3734SOL    HW222839   1.370   2.278   3.671 -0.1225 -1.5444  0.8886
 3735SOL     OW22840   3.522   0.163   7.901 -0.2454  0.0938 -0.2832
 3735SOL    HW122841   3.433   0.197   7.889 -0.3175 -0.2263 -0.6738
 3735SOL    HW222842   3.511   0.068   7.894 -1.5817  0.2628 -0.3751
 3736SOL     OW22843   0.104   1.369   1.142  0.0769 -0.6231  0.1429
 3736SOL    HW122844   0.024   1.318   1.158 -1.5397  1.3532 -1.5639
 3736SOL    HW222845   0.084   1.418   1.062  0.2458  1.4095  1.3614
 3737SOL     OW22846   0.494   4.713  10.681 -0.4516  0.7579  0.1898
 3737SOL    HW122847   0.496   4.704  10.777 -0.3755  1.0031  0.2104
 3737SOL    HW222848   0.435   0.044  10.665 -2.0957 -1.3017 -3.0139
 3738SOL     OW22849   2.629   0.219   1.406  0.1573  0.2008 -0.1985
 3738SOL    HW122850   2.688   0.150   1.436  0.1097 -0.3171 -1.3047
 3738SOL    HW222851   2.627   0.273   1.485  0.3629  0.6334 -0.4913
 3739SOL     OW22852   2.537   3.155   7.745 -0.3430  0.1736 -0.5881
 3739SOL    HW122853   2.484   3.079   7.767 -0.5963  0.9883  1.5586
 3739SOL    HW222854   2.621   3.125   7.710 -1.2820 -2.3100 -0.7642
 3740SOL     OW22855   1.796   1.095  15.547 -0.3781  0.0421 -0.0648
 3740SOL    HW122856   1.820   1.169  15.603  0.6097 -1.1245  1.0279
 3740SOL    HW222857   1.719   1.059  15.591 -0.3864  0.7943  0.5328
 3741SOL     OW22858   4.208   0.562   2.871 -0.1556 -0.2892  0.3761
 3741SOL    HW122859   4.156   0.545   2.793 -0.9537  1.3504  0.5558
 3741SOL    HW222860   4.191   0.477   2.910  2.3532 -0.9838  0.0088
 3742SOL     OW22861   2.262   1.421  17.495  0.3012  0.0512  0.6953
 3742SOL    HW122862   2.240   1.476  17.570 -0.8987  1.8597 -0.9814
 3742SOL    HW222863   2.214   1.340  17.513 -0.7292  0.7062  0.8999
 3743SOL     OW22864   0.063   2.727   5.219 -0.0445  0.0350 -0.5296
 3743SOL    HW122865   0.152   2.762   5.210 -0.0213 -0.0240 -0.5321
 3743SOL    HW222866   0.053   2.683   5.135  0.5235 -2.2811  0.6224
 3744SOL     OW22867   0.570   0.924  16.363 -0.5543 -0.1777 -0.0662
 3744SOL    HW122868   0.631   0.989  16.398  1.1909 -2.3077  0.9067
 3744SOL    HW222869   0.592   0.908  16.271 -1.2279 -2.6337  0.2024
 3745SOL     OW22870   3.987   3.543   4.407 -0.7139  0.0404  0.3017
 3745SOL    HW122871   4.082   3.553   4.403 -0.8458  1.0676 -0.4611
 3745SOL    HW222872   3.957   3.588   4.328  0.9936 -1.0765 -0.9832
 3746SOL     OW22873   3.483   0.309   3.613  0.2987  0.0602  0.7830
 3746SOL    HW122874   3.510   0.331   3.524 -0.4121 -0.9156  0.3209
 3746SOL    HW222875   3.432   0.230   3.595 -0.6758  0.7929  0.3521
 3747SOL     OW22876   4.648   0.312  14.295  0.1209 -0.8635 -0.7068
 3747SOL    HW122877   4.564   0.289  14.336  0.8394 -0.0068  1.2590
 3747SOL    HW222878   4.673   0.225  14.265  0.0315 -1.0796 -0.1502
 3748SOL     OW22879   4.105   0.805   3.012  0.2441  0.0511  0.2757
 3748SOL    HW122880   4.099   0.770   3.101 -0.9468  0.2235  0.2589
 3748SOL    HW222881   4.166   0.744   2.970  0.4848  0.0576  0.6185
 3749SOL     OW22882   1.608   3.327   4.915 -0.6284 -0.3185 -0.1113
 3749SOL    HW122883   1.645   3.345   4.828 -1.9028 -0.4903 -0.6846
 3749SOL    HW222884   1.684   3.275   4.942 -0.5954  0.1872  0.7798
 3750SOL     OW22885   0.963   0.803   8.693  0.2095  0.4013  0.0114
 3750SOL    HW122886   0.896   0.735   8.690 -1.2981  1.8836  0.1093
 3750SOL    HW222887   1.024   0.751   8.744  1.1947  3.1783  1.6644
 3751SOL     OW22888   0.057   1.430   7.032 -0.0306  0.0932 -0.0523
 3751SOL    HW122889   0.054   1.525   7.036  1.7221  0.1033  0.8911
 3751SOL    HW222890   0.049   1.423   6.936 -0.2972 -3.6875  0.2246
 3752SOL     OW22891   1.755   1.537   6.709  0.0153 -0.3003  0.0919
 3752SOL    HW122892   1.750   1.630   6.734  1.6780 -0.4783  1.1209
 3752SOL    HW222893   1.665   1.506   6.719 -0.4205  1.2690  1.2358
 3753SOL     OW22894   0.903   2.725  11.577 -0.2552  0.1050 -0.2962
 3753SOL    HW122895   0.835   2.768  11.629  0.1358 -0.9820  1.1177
 3753SOL    HW222896   0.950   2.802  11.545  0.9766 -0.9707 -1.0457
 3754SOL     OW22897   0.327   2.751   7.850 -0.2180  0.4060 -0.1440
 3754SOL    HW122898   0.319   2.817   7.918 -1.1904  0.8537 -0.6931
 3754SOL    HW222899   0.420   2.765   7.830 -0.2971  0.8051 -0.2355
 3755SOL     OW22900   3.670   2.639   7.939  0.8279  0.2858  0.4889
 3755SOL    HW122901   3.762   2.617   7.923 -0.1151 -2.7084 -0.7922
 3755SOL    HW222902   3.670   2.733   7.919  0.0183  0.2965  0.5411
 3756SOL     OW22903   4.310   4.742  11.282 -0.3098 -0.4260 -0.2253
 3756SOL    HW122904   4.223   4.715  11.310 -0.4675 -0.9238 -1.1981
 3756SOL    HW222905   4.360   4.661  11.285  1.5755  0.8170  1.6586
 3757SOL     OW22906   3.749   4.367   8.531  0.1896  0.5110  0.4844
 3757SOL    HW122907   3.679   4.424   8.501  1.4387  1.8587  0.1439
 3757SOL    HW222908   3.698   4.292   8.562  0.2803  0.7552  1.2401
 3758SOL     OW22909   1.171   4.125   3.787  0.5122  0.0007  0.1826
 3758SOL    HW122910   1.149   4.160   3.873 -0.4679  0.6829 -0.3375
 3758SOL    HW222911   1.240   4.065   3.814  1.2780  0.8285  0.0599
 3759SOL     OW22912   2.830   4.698  16.129 -0.4153  0.0451 -0.1986
 3759SOL    HW122913   2.859   4.617  16.171  1.7146  0.4935 -0.7724
 3759SOL    HW222914   2.893   0.013  16.174  0.1373 -0.9932  0.3424
 3760SOL     OW22915   1.907   0.589   8.410 -0.1574  0.5876 -0.1066
 3760SOL    HW122916   1.988   0.578   8.459  1.7465  1.8223 -2.9748
 3760SOL    HW222917   1.849   0.613   8.482 -0.3373 -0.7882  0.1997
 3761SOL     OW22918   0.747   2.783   3.576  0.4113  0.3602  0.3097
 3761SOL    HW122919   0.749   2.870   3.537 -2.2101  0.2308 -0.1338
 3761SOL    HW222920   0.663   2.754   3.540  0.0914  0.8979  0.6348
 3762SOL     OW22921   3.497   4.014   8.412 -0.0385  0.7751 -0.2002
 3762SOL    HW122922   3.440   4.000   8.336 -0.8915  1.3358  0.3371
 3762SOL    HW222923   3.434   3.991   8.479  1.7530  0.9962  1.5663
 3763SOL     OW22924   3.766   2.933  10.937 -0.1994 -0.1593  0.0319
 3763SOL    HW122925   3.730   2.871  10.874 -0.7048 -1.4037  1.5549
 3763SOL    HW222926   3.720   3.015  10.919  1.1817  0.2942 -1.4699
 3764SOL     OW22927   0.688   2.047   4.212  0.2655 -0.2102  0.5262
 3764SOL    HW122928   0.732   1.970   4.177  0.5619 -1.2091  3.0835
 3764SOL    HW222929   0.753   2.117   4.212 -0.2832  0.2988  0.0684
 3765SOL     OW22930   3.345   2.829   3.141 -0.2544 -0.1358 -0.6153
 3765SOL    HW122931   3.286   2.870   3.205 -2.4246 -0.5693 -2.3046
 3765SOL    HW222932   3.284   2.768   3.100  1.6674 -0.4962 -2.9574
 3766SOL     OW22933   2.883   2.242  17.503  0.2517  0.1983 -0.1532
 3766SOL    HW122934   2.890   2.311  17.437  0.7324 -0.4536 -0.7895
 3766SOL    HW222935   2.806   2.264  17.555  0.6566 -0.1568  0.5870
 3767SOL     OW22936   0.576   3.068   1.872  0.2383  0.5605  0.2506
 3767SOL    HW122937   0.648   3.078   1.934  1.1086 -0.9717 -0.4899
 3767SOL    HW222938   0.515   3.013   1.922  2.6774 -0.6625  1.8805
 3768SOL     OW22939   4.477   1.622  16.215 -0.5705  0.2508  0.4451
 3768SOL    HW122940   4.561   1.592  16.183  0.4516  0.0764  3.2518
 3768SOL    HW222941   4.423   1.547  16.192  3.6676 -3.0401  1.3064
 3769SOL     OW22942   2.744   1.760   3.307  0.2981  0.0282  0.0742
 3769SOL    HW122943   2.717   1.703   3.379  1.9214 -0.9414 -0.0702
 3769SOL    HW222944   2.714   1.842   3.345  3.5367  1.9707 -1.5413
 3770SOL     OW22945   0.617   2.415  16.330  0.3074  0.1812 -0.4894
 3770SOL    HW122946   0.567   2.455  16.401  1.3340 -0.9801  0.8908
 3770SOL    HW222947   0.606   2.321  16.345  2.9414  0.0573  0.6171
 3771SOL     OW22948   0.800   3.459   8.229  0.0903  0.4429 -0.9731
 3771SOL    HW122949   0.831   3.385   8.281 -0.9840  1.3369  0.9638
 3771SOL    HW222950   0.847   3.536   8.263  1.7242 -0.5589 -0.9703
 3772SOL     OW22951   1.763   1.833   1.688 -0.2677  0.2276 -0.1023
 3772SOL    HW122952   1.723   1.880   1.760  1.4470  2.2734 -0.4673
 3772SOL    HW222953   1.852   1.869   1.689 -0.3812  0.4717  0.7058
 3773SOL     OW22954   2.663   1.671  13.999  0.4306 -0.4936 -0.1052
 3773SOL    HW122955   2.603   1.722  14.054 -2.0071 -2.9062 -0.4842
 3773SOL    HW222956   2.608   1.594  13.985 -1.9161  0.9898  0.7742
 3774SOL     OW22957   0.229   3.956   1.142  0.0324  0.4370 -0.1520
 3774SOL    HW122958   0.232   4.032   1.201 -0.5921  2.1274 -2.3123
 3774SOL    HW222959   0.228   3.995   1.055 -1.4008 -0.9071 -0.7371
 3775SOL     OW22960   3.310   3.436   6.212  0.2806  0.3809  0.0983
 3775SOL    HW122961   3.326   3.481   6.130  0.2191  0.7755  0.3024
 3775SOL    HW222962   3.391   3.459   6.258  0.2541 -1.9310  1.3526
 3776SOL     OW22963   1.855   0.450   7.990 -0.1115  0.5735  0.4345
 3776SOL    HW122964   1.930   0.481   8.041 -1.7942  0.9398  2.7056
 3776SOL    HW222965   1.843   0.370   8.042  1.7306  1.5248  2.3182
 3777SOL     OW22966   3.240   2.420   4.848 -0.2551 -0.1728 -0.0373
 3777SOL    HW122967   3.234   2.499   4.902 -3.2010 -0.7929  0.5026
 3777SOL    HW222968   3.149   2.406   4.822 -0.7940  0.3826  1.5221
 3778SOL     OW22969   1.696   2.293   2.435 -0.1727  0.3919 -0.3741
 3778SOL    HW122970   1.707   2.240   2.514 -0.2647  1.2756  0.2229
 3778SOL    HW222971   1.694   2.377   2.479  1.0790  2.1313 -3.6533
 3779SOL     OW22972   1.554   2.601  14.322 -0.3055  0.0552 -0.0270
 3779SOL    HW122973   1.496   2.618  14.396 -0.0428 -3.0641  0.9022
 3779SOL    HW222974   1.637   2.641  14.347 -1.1522  2.7158 -1.4262
 3780SOL     OW22975   1.476   0.114   6.779 -0.4308  0.4739 -0.0237
 3780SOL    HW122976   1.486   0.105   6.874  1.1470 -4.7073 -0.6690
 3780SOL    HW222977   1.452   0.024   6.756  0.2190  1.6517 -5.3753
 3781SOL     OW22978   1.435   0.935   1.374 -0.6778 -0.3268 -0.4711
 3781SOL    HW122979   1.397   0.848   1.365  0.6759 -0.8934 -0.6410
 3781SOL    HW222980   1.397   0.977   1.296 -1.1325  0.0219 -0.0604
 3782SOL     OW22981   2.888   3.251   8.272 -0.1809  0.2250 -0.4616
 3782SOL    HW122982   2.896   3.230   8.179  1.6479 -0.4369 -0.1402
 3782SOL    HW222983   2.919   3.165   8.299 -0.8064  0.2408  0.3400
 3783SOL     OW22984   1.178   0.837  10.370  0.3052 -0.3166 -0.4839
 3783SOL    HW122985   1.207   0.770  10.308  1.6298 -0.5161  0.3499
 3783SOL    HW222986   1.238   0.905  10.338  0.8801 -0.8389 -0.5253
 3784SOL     OW22987   2.964   3.365  11.910 -0.2031  0.1605  0.5577
 3784SOL    HW122988   3.039   3.402  11.862  0.4153 -1.9979 -0.1266
 3784SOL    HW222989   2.996   3.299  11.971 -0.6953 -0.6549 -0.0607
 3785SOL     OW22990   0.755   3.147  15.189 -0.4794  0.1803  0.2781
 3785SOL    HW122991   0.692   3.216  15.208 -0.6094 -0.4130  1.9405
 3785SOL    HW222992   0.698   3.087  15.140 -0.5946  1.8791 -1.6528
 3786SOL     OW22993   3.892   3.257   8.671 -0.3133  0.0155  0.4594
 3786SOL    HW122994   3.886   3.342   8.627  0.3335  0.1355  0.5993
 3786SOL    HW222995   3.985   3.253   8.693 -0.1235 -0.0862 -0.3663
 3787SOL     OW22996   1.372   2.457   0.111  0.2371  0.1254 -0.3007
 3787SOL    HW122997   1.443   2.519   0.128  0.2984  0.3336 -1.3160
 3787SOL    HW222998   1.365   2.411   0.194  2.7493 -0.1915 -0.2942
 3788SOL     OW22999   0.947   2.264   8.733  0.2111  0.0761 -0.2323
 3788SOL    HW123000   1.040   2.264   8.754  0.3261 -1.5510 -0.7549
 3788SOL    HW223001   0.927   2.173   8.753 -0.3172  0.1745 -0.2964
 3789SOL     OW23002   2.085   2.443   2.003  0.0496  0.1236 -0.4383
 3789SOL    HW123003   2.152   2.509   1.985 -1.8823  1.7490 -1.6316
 3789SOL    HW223004   2.134   2.364   2.030 -1.6135 -1.4862 -2.1228
 3790SOL     OW23005   0.914   1.284  11.887 -0.6831  0.0096  0.7962
 3790SOL    HW123006   0.928   1.192  11.868 -1.2656  0.4652 -1.8311
 3790SOL    HW223007   1.004   1.311  11.906 -0.7771  0.1152  1.0922
 3791SOL     OW23008   2.836   1.638   7.554 -0.2767 -0.2935  0.5612
 3791SOL    HW123009   2.865   1.549   7.575 -1.6400 -0.7726  0.3810
 3791SOL    HW223010   2.753   1.638   7.600 -1.0253 -0.6122 -0.7944
 3792SOL     OW23011   4.549   4.375   7.385  0.1322  0.2163 -0.0364
 3792SOL    HW123012   4.598   4.351   7.464  1.0067  0.2404 -0.5751
 3792SOL    HW223013   4.497   4.296   7.370 -0.7215  0.7747  0.0209
 3793SOL     OW23014   3.941   1.454   1.994  0.3850 -0.7198 -0.0764
 3793SOL    HW123015   3.879   1.503   2.047 -0.5253 -1.3301 -0.5818
 3793SOL    HW223016   3.900   1.369   2.011 -0.0136 -1.1897 -3.3391
 3794SOL     OW23017   2.963   1.169   3.310  0.3255 -0.1154 -0.1096
 3794SOL    HW123018   2.882   1.178   3.358  0.6869  0.0843  0.4621
 3794SOL    HW223019   2.951   1.074   3.299  1.8558 -0.1068 -1.9608
 3795SOL     OW23020   3.532   0.945   3.055 -0.0065  0.2575 -0.7042
 3795SOL    HW123021   3.525   1.004   2.981  0.0175 -0.6221 -1.4008
 3795SOL    HW223022   3.626   0.941   3.075 -0.3352 -1.3253  0.5206
 3796SOL     OW23023   4.441   0.483   7.036 -0.3013 -0.1299 -0.5418
 3796SOL    HW123024   4.386   0.492   6.958 -0.3181 -0.6956 -0.5940
 3796SOL    HW223025   4.440   0.575   7.063 -2.5910  0.2274 -1.8580
 3797SOL     OW23026   0.008   2.563   6.093  0.2763 -0.3274 -0.3784
 3797SOL    HW123027   4.740   2.579   6.186 -0.6177 -0.9459 -0.3699
 3797SOL    HW223028   0.030   2.470   6.097  0.1322 -0.3345  0.2389
 3798SOL     OW23029   2.583   0.607   4.936 -0.2326 -0.3708 -0.4176
 3798SOL    HW123030   2.545   0.695   4.935  0.5735 -0.0010  1.3314
 3798SOL    HW223031   2.535   0.558   5.003 -1.7590  1.8799  0.1507
 3799SOL     OW23032   3.557   3.059   6.063  0.4851 -0.3915  0.2847
 3799SOL    HW123033   3.532   3.118   5.992  1.6671 -0.7861 -0.4570
 3799SOL    HW223034   3.504   2.987   6.031  0.9310 -0.7399  0.3343
 3800SOL     OW23035   3.062   1.135  17.318 -0.4342  0.3556  0.0776
 3800SOL    HW123036   3.019   1.085  17.387 -0.6494 -0.1418 -0.4171
 3800SOL    HW223037   3.055   1.075  17.243 -0.1454  0.1952  0.1772
 3801SOL     OW23038   3.457   1.743   6.260 -0.4803  0.1346  0.0490
 3801SOL    HW123039   3.499   1.823   6.292  0.1474 -1.0344  2.1811
 3801SOL    HW223040   3.488   1.680   6.325  0.4020  1.4982  0.9548
 3802SOL     OW23041   2.225   3.941  10.228  0.0510  0.1062  0.5345
 3802SOL    HW123042   2.255   3.857  10.194  3.2270  0.1146  3.2669
 3802SOL    HW223043   2.153   3.926  10.289  0.0778  0.2078  0.5928
 3803SOL     OW23044   2.638   2.659   6.292  0.0233  0.3308 -0.2712
 3803SOL    HW123045   2.568   2.596   6.277 -0.2602  0.4706  0.4645
 3803SOL    HW223046   2.594   2.731   6.247  0.5763  0.3906 -0.7215
 3804SOL     OW23047   2.867   2.647   7.598  0.1985  0.1269 -0.0393
 3804SOL    HW123048   2.776   2.633   7.623  0.2931  0.8316  0.6866
 3804SOL    HW223049   2.918   2.616   7.673  0.7053  0.9219 -0.0655
 3805SOL     OW23050   3.907   1.754   4.514  0.2370 -0.3116 -0.2912
 3805SOL    HW123051   3.865   1.668   4.516  0.7119 -0.5506 -0.4130
 3805SOL    HW223052   3.834   1.813   4.497  0.0965 -0.2272  0.5818
 3806SOL     OW23053   4.016   2.370   7.368  0.2544 -0.2616  0.4111
 3806SOL    HW123054   4.064   2.296   7.330 -1.5086 -0.8640 -0.6045
 3806SOL    HW223055   4.092   2.429   7.374 -0.0082  0.1611 -0.4002
 3807SOL     OW23056   3.567   1.637   4.982  0.2588  0.5296 -0.8695
 3807SOL    HW123057   3.517   1.704   5.030  2.1107  1.0385  0.3604
 3807SOL    HW223058   3.655   1.674   4.988  0.8205 -1.2032  1.7945
 3808SOL     OW23059   4.057   2.646  12.797 -0.3000 -0.3204  0.1115
 3808SOL    HW123060   4.058   2.684  12.709  0.8991  0.7430  0.5798
 3808SOL    HW223061   4.123   2.578  12.786  0.2107  0.2054 -0.0830
 3809SOL     OW23062   2.145   2.163   6.408 -0.4151 -0.1389 -0.3857
 3809SOL    HW123063   2.241   2.155   6.403 -0.5386 -0.4455 -2.2248
 3809SOL    HW223064   2.122   2.181   6.317  1.2264 -1.4428 -1.0548
 3810SOL     OW23065   1.688   3.510  17.087 -0.8837 -0.2774  0.2188
 3810SOL    HW123066   1.745   3.461  17.146  1.0775  0.8167 -0.7364
 3810SOL    HW223067   1.732   3.595  17.087 -0.9016 -0.2677  1.0825
 3811SOL     OW23068   3.461   2.283  13.013 -0.5048 -0.5976 -0.1229
 3811SOL    HW123069   3.366   2.288  13.012 -0.5794 -1.8786  0.2545
 3811SOL    HW223070   3.481   2.342  13.086 -0.2519  0.0870 -0.7543
 3812SOL     OW23071   1.655   1.794   7.982 -0.7005  0.0674  0.2229
 3812SOL    HW123072   1.638   1.883   8.014  2.1662  0.1238  1.6252
 3812SOL    HW223073   1.636   1.730   8.051  2.7980 -0.8552  0.3074
 3813SOL     OW23074   2.196   3.949  11.392 -0.0715  0.1943 -0.1802
 3813SOL    HW123075   2.230   3.860  11.381  1.2256  0.4363  1.9651
 3813SOL    HW223076   2.103   3.932  11.375  0.5298 -3.4036  0.0025
 3814SOL     OW23077   4.445   1.667   4.957  0.0901 -0.6502  0.5592
 3814SOL    HW123078   4.393   1.633   5.029 -1.4281 -0.4611 -0.4556
 3814SOL    HW223079   4.423   1.760   4.963  0.7469 -0.4504 -0.1196
 3815SOL     OW23080   0.219   1.132   5.807 -0.3441  0.8819 -0.3600
 3815SOL    HW123081   0.192   1.166   5.721 -0.0529  0.6648 -0.5373
 3815SOL    HW223082   0.226   1.039   5.786 -0.5661  0.5126  1.2632
 3816SOL     OW23083   3.229   3.041   4.166 -0.0935 -0.1062 -0.2492
 3816SOL    HW123084   3.292   3.109   4.142 -2.2304  1.6229 -0.9010
 3816SOL    HW223085   3.162   3.026   4.100  0.5950 -1.0841 -0.7375
 3817SOL     OW23086   2.279   1.547   7.931  0.4706  0.4285 -0.0432
 3817SOL    HW123087   2.285   1.486   7.858  0.0488  0.4354 -0.0855
 3817SOL    HW223088   2.200   1.522   7.979  0.2552 -0.1097 -0.6853
 3818SOL     OW23089   0.877   4.715   4.907  0.1362  0.6960  0.2154
 3818SOL    HW123090   0.794   4.707   4.955 -0.4997 -0.9979 -1.1550
 3818SOL    HW223091   0.893   0.067   4.908  1.0783  0.5241  1.5485
 3819SOL     OW23092   3.823   2.979  13.471  0.2817 -0.1181  0.5741
 3819SOL    HW123093   3.757   2.928  13.518  0.3820 -0.5816  0.2110
 3819SOL    HW223094   3.903   2.955  13.517  0.9955  0.3174 -0.4432
 3820SOL     OW23095   1.512   2.252   0.441 -0.1431 -0.1093  0.6666
 3820SOL    HW123096   1.447   2.317   0.413  0.8918  0.9068  0.6135
 3820SOL    HW223097   1.477   2.179   0.390  0.1931  0.7758 -0.8445
 3821SOL     OW23098   0.025   2.554   2.960 -0.2644 -0.0002 -0.4942
 3821SOL    HW123099   0.005   2.541   2.867 -0.3314 -1.0667 -0.3233
 3821SOL    HW223100   0.031   2.461   2.982 -2.5677  0.1954  0.9406
 3822SOL     OW23101   2.482   4.570   2.911 -0.5413 -0.0955  0.5225
 3822SOL    HW123102   2.411   4.507   2.897 -0.7666  0.6598 -1.6654
 3822SOL    HW223103   2.531   4.527   2.982 -1.0521 -1.0798  0.2834
 3823SOL     OW23104   0.620   3.142   8.845  0.0554 -0.3781  0.1074
 3823SOL    HW123105   0.564   3.202   8.797 -1.1058 -1.5605 -0.0441
 3823SOL    HW223106   0.554   3.108   8.906  0.8239 -0.8526  0.6781
 3824SOL     OW23107   1.309   4.271   5.483  0.1307 -0.6820  0.1982
 3824SOL    HW123108   1.287   4.344   5.541 -0.9194 -1.6899  1.0460
 3824SOL    HW223109   1.314   4.322   5.402 -1.4285  1.1128  1.2370
 3825SOL     OW23110   0.315   0.831   8.610 -0.9272 -0.1982  0.3802
 3825SOL    HW123111   0.225   0.854   8.586 -1.0851  0.0552  1.2449
 3825SOL    HW223112   0.360   0.906   8.572  0.4158 -1.4097 -0.4192
 3826SOL     OW23113   3.088   4.636   5.310  0.2674  0.0101 -0.1487
 3826SOL    HW123114   3.051   4.550   5.292  0.6869 -0.0872 -0.5665
 3826SOL    HW223115   3.009   4.689   5.316  0.5696  0.4940 -0.4263
 3827SOL     OW23116   4.161   3.513   3.324  1.2166 -0.3749 -0.1677
 3827SOL    HW123117   4.164   3.595   3.274 -1.4035  0.9166  1.8145
 3827SOL    HW223118   4.075   3.522   3.363  2.0056  0.3367  1.4093
 3828SOL     OW23119   0.261   1.058   3.596 -0.4119 -0.0375  0.3888
 3828SOL    HW123120   0.231   1.133   3.545 -1.3279 -0.1443  0.7646
 3828SOL    HW223121   0.178   1.011   3.586 -0.1465 -0.8200  1.9737
 3829SOL     OW23122   1.980   4.367  15.754 -0.0772  0.3482  0.2788
 3829SOL    HW123123   2.021   4.313  15.821  1.6764 -0.4524 -1.4364
 3829SOL    HW223124   1.910   4.306  15.731 -1.2781  1.5086  0.8585
 3830SOL     OW23125   3.800   2.176   7.915 -0.0050  0.3278 -0.2941
 3830SOL    HW123126   3.808   2.081   7.920  0.5522  0.3086 -1.5796
 3830SOL    HW223127   3.709   2.186   7.941 -0.3219 -0.8466 -0.9472
 3831SOL     OW23128   3.635   4.188  11.416  0.2027 -0.2232  0.1346
 3831SOL    HW123129   3.565   4.228  11.364  1.1117  2.3401  0.8872
 3831SOL    HW223130   3.584   4.158  11.491  0.1957  2.3822  1.1752
 3832SOL     OW23131   1.912   3.930   8.870  0.2433  0.0684  0.3024
 3832SOL    HW123132   1.905   3.858   8.807 -0.6582  1.3774 -1.1126
 3832SOL    HW223133   1.958   3.994   8.816  0.3971  0.6495  1.1336
 3833SOL     OW23134   3.034   1.957   9.035  0.0253  0.1982 -0.2780
 3833SOL    HW123135   3.112   1.918   9.074  1.3698  2.8435 -0.3136
 3833SOL    HW223136   3.058   2.050   9.032 -0.3403  0.3312  0.6458
 3834SOL     OW23137   0.677   3.837   3.676  0.1643  0.0779  0.6654
 3834SOL    HW123138   0.755   3.829   3.732 -0.3611 -0.9691  1.2353
 3834SOL    HW223139   0.707   3.792   3.597  3.3234  0.8259  1.4385
 3835SOL     OW23140   3.115   1.344   0.459 -0.2628  1.0284  0.0882
 3835SOL    HW123141   3.201   1.353   0.501 -0.0407  1.4501 -0.4580
 3835SOL    HW223142   3.128   1.406   0.387 -1.5380 -0.7442 -1.6478
 3836SOL     OW23143   3.382   1.845   8.696 -0.4153  0.2440 -0.5009
 3836SOL    HW123144   3.314   1.808   8.754  0.5411 -1.4354 -0.4453
 3836SOL    HW223145   3.384   1.779   8.627 -0.7501 -0.6354  0.3258
 3837SOL     OW23146   3.609   2.549   8.192 -0.1898 -0.0674  0.2457
 3837SOL    HW123147   3.615   2.561   8.097 -1.1450 -0.7244  0.0976
 3837SOL    HW223148   3.651   2.628   8.226 -0.2935  0.3032 -0.4745
 3838SOL     OW23149   0.528   4.166   3.868 -0.2774  0.1970  0.4677
 3838SOL    HW123150   0.478   4.202   3.941 -1.1440  0.4154 -0.2406
 3838SOL    HW223151   0.522   4.072   3.881  0.9551  0.0037 -0.3339
 3839SOL     OW23152   2.265   0.491   5.366  0.5435  0.6011 -0.1778
 3839SOL    HW123153   2.199   0.498   5.435  0.7928  0.4185  0.0789
 3839SOL    HW223154   2.253   0.398   5.348 -0.0500  0.7607 -0.6132
 3840SOL     OW23155   1.211   1.789   4.085 -0.5269  0.0851 -0.3691
 3840SOL    HW123156   1.225   1.883   4.079  0.2505 -0.1515 -2.3494
 3840SOL    HW223157   1.147   1.776   4.154  0.2219 -2.8156 -0.2208
 3841SOL     OW23158   2.374   4.710  17.255 -0.3515  0.7823 -0.3069
 3841SOL    HW123159   2.396   0.055  17.287  0.3897  0.8763 -1.1113
 3841SOL    HW223160   2.401   4.656  17.330 -0.4473 -0.6390 -1.2845
 3842SOL     OW23161   4.602   1.577   7.394 -0.1571  0.0574 -0.5988
 3842SOL    HW123162   4.517   1.551   7.430 -0.1779  0.6774 -0.1970
 3842SOL    HW223163   4.648   1.608   7.473  1.0209 -1.6191 -0.6128
 3843SOL     OW23164   3.459   1.273   7.974  0.2517  0.5420 -0.0164
 3843SOL    HW123165   3.369   1.287   8.002  0.9277  1.0879  1.8503
 3843SOL    HW223166   3.493   1.346   8.025 -0.0312  0.8201 -0.2217
 3844SOL     OW23167   4.544   2.835   5.941  0.1503  0.3960  0.0111
 3844SOL    HW123168   4.550   2.752   5.988  2.4566  0.5742  0.0351
 3844SOL    HW223169   4.638   2.838   5.924  0.0270  0.2003 -0.7288
 3845SOL     OW23170   4.008   4.424   7.636 -0.1133  0.0102  0.5423
 3845SOL    HW123171   3.928   4.476   7.625 -0.1010 -0.4465 -1.7843
 3845SOL    HW223172   4.038   4.462   7.718 -1.8057  0.6320  0.8866
 3846SOL     OW23173   0.391   1.613  15.832 -0.3001  0.2819 -0.9886
 3846SOL    HW123174   0.358   1.648  15.749  2.0702 -1.9339 -2.8707
 3846SOL    HW223175   0.366   1.521  15.829  0.0389  0.1716 -0.2330
 3847SOL     OW23176   2.500   1.392  16.056  0.2765  0.4577  0.8109
 3847SOL    HW123177   2.589   1.396  16.021  0.0326  1.2772  0.2966
 3847SOL    HW223178   2.437   1.356  15.994  1.2935 -0.4091  0.2735
 3848SOL     OW23179   1.302   0.132   7.906  0.2218  0.2994  0.1206
 3848SOL    HW123180   1.213   0.123   7.872 -0.0450 -1.5593  1.3602
 3848SOL    HW223181   1.283   0.126   7.999 -0.2852  1.3041  0.0820
 3849SOL     OW23182   4.184   3.362   9.526 -0.1041 -0.0482 -0.1505
 3849SOL    HW123183   4.222   3.446   9.552 -0.5398 -0.3098  1.3445
 3849SOL    HW223184   4.116   3.347   9.592 -1.3840  2.5076 -0.9125
 3850SOL     OW23185   1.966   0.333  11.533  0.2146  0.1109  0.5074
 3850SOL    HW123186   1.880   0.295  11.513 -0.3355  0.0865  2.9028
 3850SOL    HW223187   2.025   0.275  11.485  0.3954  1.0597 -0.4156
 3851SOL     OW23188   4.695   3.239   6.734  0.1228 -0.3215 -0.4162
 3851SOL    HW123189   4.726   3.265   6.820 -0.8416  0.9180 -0.4446
 3851SOL    HW223190   4.600   3.243   6.747  0.0891 -1.7022 -0.2045
 3852SOL     OW23191   3.801   0.947   3.108  0.5828 -0.2824 -0.2693
 3852SOL    HW123192   3.860   0.978   3.040  1.6158 -0.7583  0.4133
 3852SOL    HW223193   3.862   0.898   3.163  0.3677 -0.9514 -0.6206
 3853SOL     OW23194   4.404   3.449   8.799 -0.6328 -0.5810 -0.8872
 3853SOL    HW123195   4.455   3.448   8.718  1.0782 -1.0038  0.2196
 3853SOL    HW223196   4.427   3.531   8.843 -1.7401 -2.2833  2.7662
 3854SOL     OW23197   0.804   1.779   6.386  0.1128 -0.1672 -0.1432
 3854SOL    HW123198   0.876   1.842   6.380  1.4017 -1.5455  0.8453
 3854SOL    HW223199   0.787   1.748   6.297 -1.7216 -1.5714  0.7094
 3855SOL     OW23200   0.933   3.144  15.682 -0.2130  0.0258  0.1664
 3855SOL    HW123201   0.995   3.135  15.755 -0.1686 -0.6577  0.0513
 3855SOL    HW223202   0.860   3.084  15.700 -1.1048  1.3827  1.0611
 3856SOL     OW23203   2.084   4.486  13.772 -0.5039 -0.1920  0.4954
 3856SOL    HW123204   2.165   4.491  13.721 -1.4626 -0.4113 -1.0381
 3856SOL    HW223205   2.081   4.394  13.797 -0.4971 -0.0586  0.9914
 3857SOL     OW23206   2.176   4.302   8.156 -0.0105  0.5415 -0.2965
 3857SOL    HW123207   2.263   4.265   8.169  0.6351  0.8272 -3.7544
 3857SOL    HW223208   2.157   4.269   8.068  2.4137  0.9361 -0.9625
 3858SOL     OW23209   2.576   1.817   5.197 -0.6329 -0.1412  0.4383
 3858SOL    HW123210   2.633   1.888   5.171 -0.5347 -0.3047  0.2061
 3858SOL    HW223211   2.644   1.750   5.193  0.3785  0.8069  1.6946
 3859SOL     OW23212   0.847   1.530   3.872 -0.4382  0.1838  0.0082
 3859SOL    HW123213   0.881   1.444   3.846 -1.1156 -0.2407  0.5239
 3859SOL    HW223214   0.931   1.574   3.887 -0.6260  0.5246  0.0631
 3860SOL     OW23215   1.747   1.327   4.495 -0.7346  0.0943 -0.2627
 3860SOL    HW123216   1.788   1.243   4.474 -0.6645  0.1052 -0.1712
 3860SOL    HW223217   1.669   1.324   4.440 -1.6312  3.9226  0.8299
 3861SOL     OW23218   0.609   4.057  17.638 -0.2927  0.1481  0.8899
 3861SOL    HW123219   0.579   4.026  17.552  1.0061  3.5104 -0.7542
 3861SOL    HW223220   0.637   4.144  17.611 -0.3701 -0.6298 -1.6545
 3862SOL     OW23221   3.124   0.415   3.533  0.1812  0.2221  0.1675
 3862SOL    HW123222   3.059   0.354   3.568 -1.5949  0.9354 -1.8597
 3862SOL    HW223223   3.179   0.346   3.497 -0.3695 -0.4668  0.6617
 3863SOL     OW23224   4.489   0.010   4.263 -0.1793 -0.3252  0.0982
 3863SOL    HW123225   4.430   4.693   4.309 -1.0055  1.1548  0.9288
 3863SOL    HW223226   4.436   0.035   4.187  1.8468 -3.1852 -2.2724
 3864SOL     OW23227   1.438   0.910   6.787  0.2311 -0.0573 -0.3913
 3864SOL    HW123228   1.415   0.878   6.875 -1.4025  0.4027 -0.6420
 3864SOL    HW223229   1.504   0.842   6.779  0.3455 -0.1774  1.4837
 3865SOL     OW23230   0.012   2.745  10.919 -0.2253 -0.2273 -0.0550
 3865SOL    HW123231   0.046   2.664  10.881  2.0148  0.5226  0.2878
 3865SOL    HW223232   0.013   2.722  11.012 -1.0899 -2.5893 -0.6567
 3866SOL     OW23233   0.684   3.473   8.530  0.1817 -0.1642  0.2855
 3866SOL    HW123234   0.780   3.476   8.526  0.1632  0.3467  0.2222
 3866SOL    HW223235   0.658   3.549   8.478  0.1945 -0.2805  0.1121
 3867SOL     OW23236   0.879   2.210  16.698  0.5197 -0.2476 -0.8902
 3867SOL    HW123237   0.940   2.272  16.738  1.9183 -0.6451 -2.3689
 3867SOL    HW223238   0.850   2.256  16.620 -1.7378 -1.8189 -0.9821
 3868SOL     OW23239   1.936   3.764   2.980  0.2307  0.4692 -0.0216
 3868SOL    HW123240   1.851   3.795   2.948  0.4315  1.2748  0.2407
 3868SOL    HW223241   1.929   3.669   2.972 -0.1070  0.7234 -2.7892
 3869SOL     OW23242   4.358   2.505   4.978 -0.2392  0.4287 -0.6610
 3869SOL    HW123243   4.378   2.579   4.921  0.1764  0.1371 -0.8901
 3869SOL    HW223244   4.375   2.527   5.070 -0.0064  0.4004 -0.6989
 3870SOL     OW23245   1.181   4.400   3.807  0.1501 -0.2782  0.7250
 3870SOL    HW123246   1.274   4.389   3.828  0.0546 -2.5215  0.0139
 3870SOL    HW223247   1.163   4.310   3.778 -0.3157 -0.5604  1.8774
 3871SOL     OW23248   2.462   1.150   8.051  0.3114  0.1720 -0.4286
 3871SOL    HW123249   2.523   1.077   8.054 -0.4335 -0.3919  1.3910
 3871SOL    HW223250   2.504   1.207   8.116 -0.8766  1.2773 -0.6351
 3872SOL     OW23251   4.189   1.679   6.554 -0.2772 -0.5193  0.2918
 3872SOL    HW123252   4.169   1.770   6.530 -1.2338 -0.4570  1.2890
 3872SOL    HW223253   4.242   1.657   6.478 -0.8673 -1.6428  0.2109
 3873SOL     OW23254   1.455   1.746   1.633  0.0821  0.2510 -0.3994
 3873SOL    HW123255   1.532   1.728   1.579 -0.5631 -2.1374 -0.5292
 3873SOL    HW223256   1.492   1.799   1.703 -0.8735  2.0279 -1.2474
 3874SOL     OW23257   3.461   4.551   4.991 -0.1200  0.5502 -1.2747
 3874SOL    HW123258   3.545   4.596   4.998  0.1025  0.2203 -1.8158
 3874SOL    HW223259   3.485   4.463   5.022  1.0353  1.0504 -0.7301
 3875SOL     OW23260   3.860   3.506   8.514  0.3812  0.3461  0.3526
 3875SOL    HW123261   3.925   3.480   8.449 -1.1142  1.0030 -1.4048
 3875SOL    HW223262   3.789   3.543   8.461  0.1235 -1.3124 -0.4805
 3876SOL     OW23263   2.449   1.006   8.356  0.3027  0.3227  0.2140
 3876SOL    HW123264   2.533   1.048   8.340 -0.1770  1.5272  0.8956
 3876SOL    HW223265   2.476   0.958   8.433  0.0172  1.6323  1.1265
 3877SOL     OW23266   1.975   2.523   8.827 -0.6900 -0.2391  0.2640
 3877SOL    HW123267   2.064   2.510   8.859 -0.1994  3.3640  0.3753
 3877SOL    HW223268   1.975   2.616   8.806  0.8189 -0.0957  0.9243
 3878SOL     OW23269   3.772   1.220   1.881  0.4139 -0.6005  0.3950
 3878SOL    HW123270   3.803   1.136   1.848 -1.1868 -0.9385 -0.2412
 3878SOL    HW223271   3.757   1.196   1.972  1.5915 -1.9809  0.2191
 3879SOL     OW23272   4.282   2.076   8.763  0.6105  0.4508 -0.7872
 3879SOL    HW123273   4.355   2.017   8.784 -0.2588 -1.1937 -2.3658
 3879SOL    HW223274   4.209   2.030   8.803 -1.2438  1.5136 -2.9191
 3880SOL     OW23275   4.655   2.852   7.738  0.2789 -0.2922  0.4288
 3880SOL    HW123276   4.591   2.786   7.711 -0.4035  0.2006  0.8407
 3880SOL    HW223277   4.648   2.856   7.833 -1.4098  0.3280  0.2768
 3881SOL     OW23278   3.822   2.622  13.991  0.3027  0.1361  0.0078
 3881SOL    HW123279   3.750   2.684  13.976 -0.1275 -0.5522 -0.7949
 3881SOL    HW223280   3.891   2.657  13.935  0.8673  0.5210  0.9563
 3882SOL     OW23281   3.435   4.172   3.505  0.4577 -0.0306 -0.3306
 3882SOL    HW123282   3.377   4.219   3.564  0.2458  1.9416 -2.1114
 3882SOL    HW223283   3.442   4.231   3.430  2.5589 -0.9444 -0.8553
 3883SOL     OW23284   3.716   0.095  13.692 -0.1080 -0.3333  0.1333
 3883SOL    HW123285   3.687   0.132  13.775  1.3161 -0.3937  0.6494
 3883SOL    HW223286   3.777   0.162  13.661  1.3469 -1.3190  0.8385
 3884SOL     OW23287   3.628   1.566   2.336 -0.2647  0.3466 -0.4795
 3884SOL    HW123288   3.535   1.579   2.354 -0.9131 -0.8058 -3.0255
 3884SOL    HW223289   3.642   1.478   2.371  1.4811  0.5756 -0.5906
 3885SOL     OW23290   3.817   1.445   9.124 -0.0843 -0.1061  0.5777
 3885SOL    HW123291   3.874   1.385   9.174  0.5844 -2.3275 -2.8388
 3885SOL    HW223292   3.731   1.404   9.136  0.1516 -0.6352  0.4877
 3886SOL     OW23293   2.066   0.288   1.382  0.4416  0.1355 -0.6251
 3886SOL    HW123294   2.089   0.378   1.407  1.2555  0.0948 -1.2408
 3886SOL    HW223295   1.993   0.313   1.325  0.3452  0.7237 -0.2508
 3887SOL     OW23296   4.601   0.336  10.524  0.2262  0.7153  0.1250
 3887SOL    HW123297   4.539   0.278  10.479  0.6460 -1.0055  1.7394
 3887SOL    HW223298   4.632   0.385  10.448  3.4896 -3.5540 -1.2663
 3888SOL     OW23299   1.063   2.289  13.107  0.6281  0.2206 -0.2109
 3888SOL    HW123300   1.001   2.218  13.122  0.1312  0.7225  0.1075
 3888SOL    HW223301   1.111   2.248  13.035 -0.1867 -0.8515 -0.1446
 3889SOL     OW23302   1.388   0.868  12.350 -0.0740 -0.4043  0.2891
 3889SOL    HW123303   1.470   0.819  12.353  1.8850  2.8818  0.9788
 3889SOL    HW223304   1.359   0.856  12.441  2.0028  0.1206  1.0298
 3890SOL     OW23305   0.663   1.907   8.684  0.3947  0.3280  0.0506
 3890SOL    HW123306   0.576   1.874   8.708  0.0399  2.0628  1.1108
 3890SOL    HW223307   0.661   1.865   8.598 -2.9747 -0.9921  0.7712
 3891SOL     OW23308   3.771   0.833   5.671  0.7647  0.0429 -0.1337
 3891SOL    HW123309   3.858   0.834   5.632  1.0839  0.6263  0.5887
 3891SOL    HW223310   3.769   0.915   5.721  1.7035 -0.1152  0.1563
 3892SOL     OW23311   2.030   4.611  14.715  0.4042 -0.1484 -0.4320
 3892SOL    HW123312   1.974   4.550  14.762 -0.0786  0.9775  0.4253
 3892SOL    HW223313   1.973   4.687  14.701 -0.0441 -0.5205 -0.6194
 3893SOL     OW23314   3.626   3.270   2.224 -0.2235 -0.1885 -0.2076
 3893SOL    HW123315   3.664   3.348   2.265 -1.5027  1.2941 -1.8392
 3893SOL    HW223316   3.559   3.259   2.292 -2.0488  3.2188 -1.4400
 3894SOL     OW23317   0.663   2.343   8.873 -0.5679 -0.3377 -0.0587
 3894SOL    HW123318   0.617   2.425   8.892 -1.8938 -0.6432 -1.9149
 3894SOL    HW223319   0.707   2.358   8.789  0.0632 -1.7854  0.0147
 3895SOL     OW23320   2.816   2.211   7.745  0.4302 -0.1502 -0.8270
 3895SOL    HW123321   2.793   2.164   7.665  0.2728  0.3736 -1.0897
 3895SOL    HW223322   2.850   2.138   7.796 -0.8605 -1.0440 -1.2270
 3896SOL     OW23323   2.560   3.899   6.356  0.5732 -0.4116 -0.1721
 3896SOL    HW123324   2.523   3.812   6.367 -0.2253 -0.0062  0.3233
 3896SOL    HW223325   2.490   3.956   6.388 -1.1164 -1.5538 -1.8582
 3897SOL     OW23326   0.618   0.463  13.611  0.0620 -0.5046 -0.1257
 3897SOL    HW123327   0.677   0.463  13.536 -1.0241 -1.2778 -0.9792
 3897SOL    HW223328   0.677   0.510  13.671 -0.1751 -2.6913  1.8148
 3898SOL     OW23329   2.867   0.793  12.320 -0.3133 -0.4176  0.4773
 3898SOL    HW123330   2.841   0.757  12.235 -0.2561 -3.6780  1.8757
 3898SOL    HW223331   2.942   0.736  12.333 -0.0011 -0.2539 -0.5640
 3899SOL     OW23332   2.517   4.192   4.737 -0.4066  0.4979  0.6028
 3899SOL    HW123333   2.485   4.282   4.744 -0.7822  0.5345 -1.9217
 3899SOL    HW223334   2.498   4.163   4.827  1.2365  0.0444  0.8103
 3900SOL     OW23335   3.713   2.763  17.105 -0.2004  0.7343 -0.4264
 3900SOL    HW123336   3.661   2.801  17.176 -3.0998 -0.6483 -1.7851
 3900SOL    HW223337   3.765   2.832  17.066  1.3595 -2.1082 -3.3633
 3901SOL     OW23338   4.263   3.869   2.796  0.2041  0.5169 -0.0461
 3901SOL    HW123339   4.219   3.942   2.839  0.8331  0.7920  0.1374
 3901SOL    HW223340   4.332   3.926   2.762  1.3662 -0.6540  0.3208
 3902SOL     OW23341   1.590   0.689   6.124  0.2157  0.0496 -0.7089
 3902SOL    HW123342   1.589   0.697   6.219  1.9765 -0.1092 -0.6843
 3902SOL    HW223343   1.673   0.729   6.099  0.1692  0.7985  0.3390
 3903SOL     OW23344   0.944   1.124   5.721 -0.2289  0.3998 -0.0524
 3903SOL    HW123345   0.865   1.169   5.691  0.1132  0.1066 -1.3593
 3903SOL    HW223346   0.898   1.047   5.755 -0.1774 -0.3042 -1.5749
 3904SOL     OW23347   2.827   0.627   2.303  0.5822 -0.1174 -0.6144
 3904SOL    HW123348   2.919   0.601   2.299  0.1333 -2.2804  3.1206
 3904SOL    HW223349   2.830   0.649   2.396 -1.2644  1.5438 -0.9560
 3905SOL     OW23350   4.350   2.222   4.564 -1.1200  0.1077  1.0925
 3905SOL    HW123351   4.261   2.257   4.568 -1.2807 -0.4162  2.1532
 3905SOL    HW223352   4.383   2.257   4.481  0.9454  0.0084  1.8742
 3906SOL     OW23353   1.260   2.314   5.111  0.2746  0.1938 -0.1741
 3906SOL    HW123354   1.284   2.298   5.020 -0.7534  1.7567 -0.7218
 3906SOL    HW223355   1.165   2.318   5.101  0.1353 -1.3294  0.4838
 3907SOL     OW23356   1.984   4.438   6.576  0.2129  0.0408  0.1825
 3907SOL    HW123357   1.896   4.467   6.551  0.1869  0.2005  0.4470
 3907SOL    HW223358   2.023   4.524   6.557 -1.1829  0.4569 -0.7862
 3908SOL     OW23359   2.920   0.328   4.612  0.0342  0.5486  0.6423
 3908SOL    HW123360   2.843   0.335   4.669 -0.4731 -0.4195  0.0623
 3908SOL    HW223361   2.949   0.418   4.628  0.5293  0.4804  0.1377
 3909SOL     OW23362   3.982   1.144   7.514  0.0864 -0.0768  0.2713
 3909SOL    HW123363   4.045   1.099   7.569  3.8597  0.4462 -3.6466
 3909SOL    HW223364   4.034   1.218   7.483  1.0163 -1.1088 -0.6561
 3910SOL     OW23365   4.360   4.107   3.289 -0.1897  0.1789 -0.2602
 3910SOL    HW123366   4.357   4.198   3.260 -0.3231 -0.3493 -1.9113
 3910SOL    HW223367   4.437   4.118   3.345  0.5511  0.1131 -1.2540
 3911SOL     OW23368   2.893   2.935   1.985 -0.1306 -0.0308 -0.4780
 3911SOL    HW123369   2.812   2.985   1.999  0.4778  1.1110 -1.0249
 3911SOL    HW223370   2.932   2.955   2.070  2.0215 -0.0926 -1.4584
 3912SOL     OW23371   1.020   0.073   8.288  0.2659  0.6342  0.1608
 3912SOL    HW123372   1.068   0.123   8.221  0.5489  1.3084  0.8749
 3912SOL    HW223373   1.085   0.013   8.323 -1.2325 -0.9384  0.2560
 3913SOL     OW23374   1.819   0.647   2.245  0.2030  0.4505  0.3964
 3913SOL    HW123375   1.863   0.730   2.262 -0.3842  0.9848 -0.6407
 3913SOL    HW223376   1.752   0.671   2.181  0.3453  2.1653  0.9075
 3914SOL     OW23377   1.917   2.194  10.848 -0.1844  0.0273 -0.3320
 3914SOL    HW123378   1.829   2.227  10.868 -0.6024 -0.5922 -1.1346
 3914SOL    HW223379   1.922   2.122  10.912  1.9676  0.6846  0.2262
 3915SOL     OW23380   0.224   3.070   3.295  0.3291 -0.2459  0.0115
 3915SOL    HW123381   0.215   3.003   3.363  2.5103  0.7707  1.3034
 3915SOL    HW223382   0.207   3.016   3.218  2.4118 -1.5378  0.4587
 3916SOL     OW23383   1.977   3.156  12.167 -0.0884 -0.0105  0.4609
 3916SOL    HW123384   1.926   3.139  12.088  0.6231 -2.5183  0.5238
 3916SOL    HW223385   2.041   3.085  12.162 -1.5792 -1.2369 -1.2860
 3917SOL     OW23386   0.127   0.834   7.544  0.1682  0.1712 -0.5204
 3917SOL    HW123387   0.212   0.874   7.526  1.8351 -2.1835  2.1235
 3917SOL    HW223388   0.099   0.792   7.462  1.6841 -2.9540  0.5424
 3918SOL     OW23389   0.432   0.120   5.317  0.1125  0.0752 -0.0977
 3918SOL    HW123390   0.396   0.199   5.358 -3.4966 -2.4157  1.5397
 3918SOL    HW223391   0.356   0.104   5.261  0.5051  0.9301 -0.8707
 3919SOL     OW23392   3.291   1.857  15.699  0.3891  0.5409  0.4804
 3919SOL    HW123393   3.279   1.880  15.792 -3.1876  0.7832 -0.0570
 3919SOL    HW223394   3.379   1.820  15.710  0.4032  0.2364 -0.6790
 3920SOL     OW23395   1.191   4.375   1.925  0.2839  0.1909 -0.2302
 3920SOL    HW123396   1.222   4.333   1.844 -1.4554 -3.6755  1.0923
 3920SOL    HW223397   1.104   4.335   1.928  0.0006  0.8839  0.7395
 3921SOL     OW23398   3.546   2.112   8.422 -0.3017 -0.0252 -0.0201
 3921SOL    HW123399   3.515   2.131   8.511 -1.6100  0.2919 -0.5370
 3921SOL    HW223400   3.574   2.202   8.403  1.2738 -0.3089  0.9845
 3922SOL     OW23401   1.100   0.904   6.968 -0.7660  0.0447  0.2048
 3922SOL    HW123402   1.059   0.818   6.982 -1.9312 -0.0074 -3.4600
 3922SOL    HW223403   1.191   0.875   6.958 -0.8965 -1.3833  3.1960
 3923SOL     OW23404   3.169   2.813   9.218 -0.1861 -0.0853  0.3842
 3923SOL    HW123405   3.105   2.884   9.207 -1.1802 -0.9943  0.2408
 3923SOL    HW223406   3.137   2.759   9.146  0.4300 -1.3333  1.0597
 3924SOL     OW23407   1.549   4.357   7.701 -0.1016 -0.3394  0.3298
 3924SOL    HW123408   1.551   4.276   7.651  0.3795  1.4624 -2.6095
 3924SOL    HW223409   1.639   4.371   7.732  0.8525 -0.2256 -2.5096
 3925SOL     OW23410   1.484   3.498   8.009  0.1490  0.0407 -0.2302
 3925SOL    HW123411   1.397   3.523   8.039  0.0451 -0.6660  0.0616
 3925SOL    HW223412   1.490   3.555   7.932  0.0501 -0.6235 -0.7306
 3926SOL     OW23413   0.647   0.177   3.700 -0.9077 -0.3223  0.4905
 3926SOL    HW123414   0.666   0.083   3.696 -0.4142 -0.2581  1.5246
 3926SOL    HW223415   0.716   0.217   3.752 -2.4153  1.4893  1.1174
 3927SOL     OW23416   1.079   1.679   8.304  0.6009 -0.1446 -0.0449
 3927SOL    HW123417   1.057   1.752   8.361  1.0629  0.5808 -0.7951
 3927SOL    HW223418   1.100   1.614   8.372 -1.3473  1.0457  1.6983
 3928SOL     OW23419   0.131   0.490   5.762  0.5983 -0.0290 -0.0708
 3928SOL    HW123420   0.212   0.447   5.790  0.0151 -1.3240 -0.3569
 3928SOL    HW223421   0.061   0.425   5.761 -1.3314  1.9890  1.2475
 3929SOL     OW23422   2.903   2.673   2.268  0.5535  0.2633  0.4188
 3929SOL    HW123423   2.963   2.606   2.302  0.1050 -0.3095  0.0829
 3929SOL    HW223424   2.960   2.749   2.258  0.0703  0.4440 -0.9473
 3930SOL     OW23425   0.149   2.204   4.698 -0.3776 -0.1630  0.1705
 3930SOL    HW123426   0.180   2.287   4.664 -0.7177  0.6488  1.8322
 3930SOL    HW223427   0.086   2.191   4.627  1.0674  1.1258 -1.3047
 3931SOL     OW23428   2.806   3.927  15.670 -0.2622 -0.0769  0.0933
 3931SOL    HW123429   2.744   3.856  15.685  0.0511 -0.4609 -0.4126
 3931SOL    HW223430   2.835   3.940  15.760 -2.3205  1.4114  0.5529
 3932SOL     OW23431   2.829   1.593  14.233  0.1056 -0.2655 -0.4192
 3932SOL    HW123432   2.756   1.623  14.179 -0.1882  1.7472  1.1077
 3932SOL    HW223433   2.872   1.529  14.177  0.0651 -0.0749 -0.6663
 3933SOL     OW23434   2.124   3.873  15.415 -0.1371  0.5533 -0.8075
 3933SOL    HW123435   2.083   3.868  15.501  0.4859 -0.6563 -0.5784
 3933SOL    HW223436   2.081   3.952  15.383 -0.5088  0.7824  0.2504
 3934SOL     OW23437   1.978   1.322   9.129 -0.6308 -0.1912  0.5497
 3934SOL    HW123438   1.932   1.239   9.118  1.6969 -1.3469 -0.5094
 3934SOL    HW223439   1.904   1.374   9.097  1.5579  1.1541 -2.3303
 3935SOL     OW23440   0.590   3.024  11.895  0.2099 -0.3045  0.1991
 3935SOL    HW123441   0.514   3.076  11.870 -0.7090 -1.4548  0.6008
 3935SOL    HW223442   0.578   2.998  11.986 -0.6816 -0.1111  0.1326
 3936SOL     OW23443   2.021   1.555  10.060  0.2261  1.0228  0.5056
 3936SOL    HW123444   2.040   1.509   9.979  0.0548  2.4805 -0.3663
 3936SOL    HW223445   1.939   1.597  10.035 -1.2364 -3.5184 -2.2943
 3937SOL     OW23446   0.892   2.535   2.460  0.1149  0.4124 -0.5506
 3937SOL    HW123447   0.863   2.549   2.370  0.4179  0.0192 -0.7129
 3937SOL    HW223448   0.814   2.571   2.502 -1.4794 -0.6624 -2.5956
 3938SOL     OW23449   2.455   4.136   4.081  0.1220  0.5204  0.3987
 3938SOL    HW123450   2.378   4.087   4.053  1.6872 -0.8921 -1.4365
 3938SOL    HW223451   2.476   4.088   4.161  1.6752 -0.4966 -0.6203
 3939SOL     OW23452   4.309   2.595   2.666  0.3293 -0.6410 -0.3562
 3939SOL    HW123453   4.290   2.627   2.577  1.1261  1.5354  0.2744
 3939SOL    HW223454   4.235   2.622   2.720  0.0382 -1.9803 -0.0704
 3940SOL     OW23455   4.377   1.760   7.767 -0.2677  0.1473  0.0803
 3940SOL    HW123456   4.413   1.837   7.811 -0.5672 -0.9083  2.1718
 3940SOL    HW223457   4.286   1.770   7.794 -0.6237  0.2346 -1.1330
 3941SOL     OW23458   0.504   0.317   8.376  0.4892 -0.1343 -0.0292
 3941SOL    HW123459   0.418   0.308   8.416  0.7838  1.9650  1.0558
 3941SOL    HW223460   0.520   0.410   8.388 -1.8044  0.4762 -1.6710
 3942SOL     OW23461   0.636   3.920   6.199 -0.2098 -0.0770 -0.8063
 3942SOL    HW123462   0.588   3.942   6.119  1.3377 -1.4326 -2.1211
 3942SOL    HW223463   0.700   3.856   6.167  1.9565  2.0416 -0.7446
 3943SOL     OW23464   2.319   0.446   0.509  0.0857  0.3097  0.0606
 3943SOL    HW123465   2.269   0.374   0.470 -0.3708  1.0619 -0.7444
 3943SOL    HW223466   2.366   0.487   0.437  0.3864  1.5101  0.9536
 3944SOL     OW23467   3.279   1.086   3.547  0.1643 -0.2859  0.2266
 3944SOL    HW123468   3.206   1.024   3.541 -0.3164  0.1688  1.3984
 3944SOL    HW223469   3.321   1.069   3.462  2.0625 -4.1376  1.9316
 3945SOL     OW23470   0.777   1.005   0.046  0.2482 -0.1807 -0.6807
 3945SOL    HW123471   0.728   0.940   0.097 -0.2993  1.9691  1.5091
 3945SOL    HW223472   0.703   1.062   0.026  0.4335  0.1654 -0.3756
 3946SOL     OW23473   2.009   3.440   2.409 -0.2492  0.6865  0.2688
 3946SOL    HW123474   1.930   3.390   2.430 -0.0275  1.1025  2.1297
 3946SOL    HW223475   2.012   3.495   2.488  0.9912  0.8499  0.1078
 3947SOL     OW23476   4.143   0.208   9.049  0.0286 -0.0832  0.0706
 3947SOL    HW123477   4.071   0.262   9.081  0.2657 -0.0368  0.5354
 3947SOL    HW223478   4.202   0.274   9.012 -0.0778  0.6023  1.1384
 3948SOL     OW23479   4.425   3.341   4.522  0.6543  0.1083 -0.1223
 3948SOL    HW123480   4.461   3.370   4.606 -1.3516 -2.0821  1.5005
 3948SOL    HW223481   4.421   3.246   4.520  2.0010  0.0294  0.6743
 3949SOL     OW23482   3.390   1.687  17.240 -0.3323 -0.1502 -0.1877
 3949SOL    HW123483   3.464   1.662  17.186  0.4082 -0.9985  1.2157
 3949SOL    HW223484   3.320   1.707  17.177  1.8248  0.1350 -2.4861
 3950SOL     OW23485   3.813   3.310   8.140  0.4689  0.3473  0.3890
 3950SOL    HW123486   3.900   3.273   8.155  0.7656  0.0265 -2.1913
 3950SOL    HW223487   3.758   3.239   8.108 -0.8892  2.6568 -2.4628
 3951SOL     OW23488   3.603   2.575  16.622  0.0747  0.3936  0.4922
 3951SOL    HW123489   3.625   2.508  16.687  1.9469 -1.0817 -1.6524
 3951SOL    HW223490   3.628   2.528  16.542  2.5139 -0.8759  1.9863
 3952SOL     OW23491   3.487   2.488   0.374  0.0774 -0.3256  0.0208
 3952SOL    HW123492   3.556   2.535   0.327  1.0792 -2.6741 -0.8839
 3952SOL    HW223493   3.418   2.520   0.317  0.1762 -1.7103 -0.8628
 3953SOL     OW23494   3.390   1.481   5.874  0.2938 -0.4413 -0.3655
 3953SOL    HW123495   3.455   1.481   5.804  0.3901 -2.1559 -0.2514
 3953SOL    HW223496   3.400   1.566   5.918  1.1466 -0.5882 -0.2767
 3954SOL     OW23497   3.901   0.860   3.681 -0.5208 -0.1408 -0.3996
 3954SOL    HW123498   3.933   0.945   3.651 -0.7948 -0.1131 -0.6152
 3954SOL    HW223499   3.968   0.804   3.642  0.2710  0.6741 -0.2129
 3955SOL     OW23500   1.939   4.391  11.975 -0.4721  0.9751 -0.3420
 3955SOL    HW123501   1.915   4.460  11.914  0.9968  0.9374 -0.9601
 3955SOL    HW223502   1.923   4.444  12.053  0.8664 -0.7993  1.1486
 3956SOL     OW23503   2.815   3.424   7.716 -0.0608 -0.3684 -0.1856
 3956SOL    HW123504   2.873   3.428   7.641 -0.7661 -0.5827 -0.7375
 3956SOL    HW223505   2.777   3.336   7.709  2.0672 -1.3801  1.1347
 3957SOL     OW23506   2.863   2.504  14.665  0.1966  0.2900 -0.2191
 3957SOL    HW123507   2.931   2.446  14.699  0.2910 -0.1311 -1.1222
 3957SOL    HW223508   2.801   2.458  14.609  0.5580 -2.2155  1.4298
 3958SOL     OW23509   4.617   4.575   5.461 -0.8428  0.0913  0.0193
 3958SOL    HW123510   4.580   4.495   5.500  2.4773 -0.7989  1.3271
 3958SOL    HW223511   4.573   4.629   5.527 -0.8048  0.5428 -0.3312
 3959SOL     OW23512   2.492   3.185   5.278 -0.1849  0.0175  0.0714
 3959SOL    HW123513   2.586   3.173   5.285  0.1309  1.7599 -1.2589
 3959SOL    HW223514   2.496   3.270   5.234  0.0782  0.5472  1.1226
 3960SOL     OW23515   1.732   2.836   8.430  0.1111 -0.0080 -0.1504
 3960SOL    HW123516   1.813   2.789   8.409  0.5095 -0.1592  1.7875
 3960SOL    HW223517   1.737   2.839   8.525  1.0738 -3.0016 -0.1097
 3961SOL     OW23518   0.722   4.649  14.084 -0.4125 -0.1267 -0.2101
 3961SOL    HW123519   0.769   4.566  14.080  1.4046  0.8413  1.0134
 3961SOL    HW223520   0.701   4.659  14.177 -0.1527 -3.7804  0.2391
 3962SOL     OW23521   1.731   1.557   2.239  0.4930  0.0167 -0.0659
 3962SOL    HW123522   1.653   1.590   2.284  2.3530  1.1866  2.3251
 3962SOL    HW223523   1.797   1.626   2.253  0.1480  0.2527  0.3745
 3963SOL     OW23524   3.955   3.952   5.147  0.0959  0.0341  0.3002
 3963SOL    HW123525   3.932   4.026   5.203 -1.7026 -2.2554  2.5707
 3963SOL    HW223526   4.049   3.970   5.142  0.2631 -1.8227 -3.1904
 3964SOL     OW23527   2.797   2.120   8.990 -0.4373 -0.1040  0.0482
 3964SOL    HW123528   2.858   2.046   8.989 -0.3322 -0.0186  0.4395
 3964SOL    HW223529   2.809   2.139   9.083 -0.6865  0.8325 -0.1060
 3965SOL     OW23530   3.109   3.351   6.779  0.7193 -0.0264  0.5119
 3965SOL    HW123531   3.024   3.327   6.816  0.0020 -1.5684 -2.2026
 3965SOL    HW223532   3.079   3.441   6.762  2.3301  0.4482  0.1734
 3966SOL     OW23533   3.776   3.986   3.028 -0.0600  0.4347  0.1390
 3966SOL    HW123534   3.701   3.933   3.001 -0.9977  1.0285  1.5975
 3966SOL    HW223535   3.816   3.934   3.098  0.1645  1.7159  0.9541
 3967SOL     OW23536   2.085   3.221   5.188 -0.3772  0.3904 -0.5488
 3967SOL    HW123537   2.000   3.194   5.223 -0.6324 -0.0783 -1.5024
 3967SOL    HW223538   2.079   3.315   5.202 -2.4537  0.3406 -1.0662
 3968SOL     OW23539   0.399   1.628   3.191  0.0596 -0.0674 -0.5369
 3968SOL    HW123540   0.455   1.664   3.123 -0.4622  0.1602 -0.8437
 3968SOL    HW223541   0.457   1.575   3.247 -0.7166 -0.5353 -0.1726
 3969SOL     OW23542   2.852   3.762   6.133  0.0320  0.0983  0.5165
 3969SOL    HW123543   2.872   3.801   6.218  1.6520  1.7458 -0.6274
 3969SOL    HW223544   2.768   3.807   6.124  0.5953  1.3443  1.5222
 3970SOL     OW23545   3.259   0.052   8.521 -0.4766  0.5142 -0.0631
 3970SOL    HW123546   3.280   0.145   8.523 -1.0860  0.6386  0.8635
 3970SOL    HW223547   3.335   0.020   8.473  0.4143  2.8008 -0.1680
 3971SOL     OW23548   2.794   1.865  17.188 -0.6558  0.2852  0.4047
 3971SOL    HW123549   2.829   1.926  17.253 -0.8723 -1.6068  2.3112
 3971SOL    HW223550   2.868   1.804  17.195 -1.3421 -0.3548  2.0755
 3972SOL     OW23551   1.143   1.886   2.954 -0.6335 -0.3400 -0.1557
 3972SOL    HW123552   1.119   1.978   2.943 -2.2238 -0.7414 -0.0873
 3972SOL    HW223553   1.235   1.897   2.979 -0.8484  2.2133 -0.5714
 3973SOL     OW23554   3.349   1.016   8.063 -0.1088  0.0651  0.3621
 3973SOL    HW123555   3.436   1.049   8.084 -0.0214 -0.3302  0.6245
 3973SOL    HW223556   3.351   1.016   7.967 -0.3645  0.8118  0.3609
 3974SOL     OW23557   1.177   3.195   2.594 -0.7174  0.2074 -0.7148
 3974SOL    HW123558   1.203   3.272   2.544 -1.1803  1.4886  1.0287
 3974SOL    HW223559   1.153   3.229   2.680 -1.0954  0.5254 -0.9462
 3975SOL     OW23560   0.852   1.625   1.656  0.5717 -0.4125  0.2389
 3975SOL    HW123561   0.765   1.625   1.697  1.7175  2.3175  2.6295
 3975SOL    HW223562   0.837   1.661   1.569  0.2002  0.2500  0.5792
 3976SOL     OW23563   2.351   2.624   3.624 -0.2909  0.8138 -0.1083
 3976SOL    HW123564   2.391   2.673   3.552  0.3902  1.1757  0.5128
 3976SOL    HW223565   2.423   2.586   3.674  0.9740  2.8250 -0.3657
 3977SOL     OW23566   3.817   2.662   0.884  0.1042  0.4537  0.5056
 3977SOL    HW123567   3.729   2.693   0.902 -0.2031  0.7255 -1.4485
 3977SOL    HW223568   3.862   2.694   0.962 -0.7912  1.7753  0.4717
 3978SOL     OW23569   1.818   2.744   7.929  0.4034 -0.0422  0.0309
 3978SOL    HW123570   1.779   2.687   7.995  1.7746 -0.4071  0.5439
 3978SOL    HW223571   1.794   2.829   7.965  0.1204  0.7521 -2.0291
 3979SOL     OW23572   3.474   1.225   8.832 -0.1501  0.0457 -0.5458
 3979SOL    HW123573   3.444   1.166   8.900 -2.4113  1.1350 -0.5973
 3979SOL    HW223574   3.438   1.308   8.864  1.1024  0.6434 -0.6454
 3980SOL     OW23575   2.292   3.858   7.935 -0.4052 -0.2101  0.2172
 3980SOL    HW123576   2.224   3.924   7.927 -0.0020  0.1473 -0.3503
 3980SOL    HW223577   2.258   3.797   7.999  0.9347 -0.7725  0.4061
 3981SOL     OW23578   0.831   2.790   7.922 -0.1150 -0.9861  0.7283
 3981SOL    HW123579   0.809   2.728   7.991  0.0457 -2.1049 -0.2317
 3981SOL    HW223580   0.922   2.810   7.943 -0.3845 -0.0690  1.0298
 3982SOL     OW23581   1.944   3.961   7.707  0.0745  0.6775  0.2507
 3982SOL    HW123582   1.917   3.886   7.759 -2.5538  0.8151 -0.9198
 3982SOL    HW223583   1.907   3.932   7.624 -0.0761  0.0467  0.5394
 3983SOL     OW23584   0.672   2.205   3.884  0.4438 -0.1513 -0.1800
 3983SOL    HW123585   0.611   2.152   3.935 -1.1646 -0.4446 -2.4114
 3983SOL    HW223586   0.684   2.281   3.941 -1.2368 -0.1823  0.2076
 3984SOL     OW23587   4.118   0.885   2.309 -0.7978 -0.1099  0.1447
 3984SOL    HW123588   4.035   0.920   2.276  0.1088  2.9188  1.0802
 3984SOL    HW223589   4.116   0.930   2.393  0.4281  1.2655 -0.5517
 3985SOL     OW23590   2.011   0.492   2.430  0.2301  0.4171 -0.6893
 3985SOL    HW123591   2.052   0.425   2.377  0.3288 -0.2894  0.2847
 3985SOL    HW223592   1.961   0.546   2.369 -1.5402  0.6713  0.9658
 3986SOL     OW23593   3.239   3.357  17.684 -0.7063  0.3837 -0.6656
 3986SOL    HW123594   3.277   3.416  17.619  0.5768 -1.0698 -1.2492
 3986SOL    HW223595   3.183   3.426  17.718  1.3439  2.1009 -0.7954
 3987SOL     OW23596   0.716   1.793   6.049  0.2691  0.1771  0.0512
 3987SOL    HW123597   0.733   1.877   6.091 -1.4694  1.2712 -1.4272
 3987SOL    HW223598   0.621   1.778   6.042  0.2762 -0.5486  1.5670
 3988SOL     OW23599   1.924   0.638   3.527 -0.1420 -0.3989 -0.1984
 3988SOL    HW123600   1.948   0.718   3.573 -1.5809  0.3885 -0.8206
 3988SOL    HW223601   1.980   0.571   3.567  0.6908 -1.9437 -3.9238
 3989SOL     OW23602   0.959   2.281  14.171  0.7187  0.2979 -0.3602
 3989SOL    HW123603   0.907   2.211  14.132 -0.3650  1.7555 -1.5336
 3989SOL    HW223604   1.019   2.312  14.103  1.0757  1.6440  0.5771
 3990SOL     OW23605   3.747   3.247   6.180  0.1297  0.2881 -0.0334
 3990SOL    HW123606   3.719   3.311   6.113 -2.2006  1.5300  2.1058
 3990SOL    HW223607   3.683   3.179   6.160 -0.5997  0.3776  2.0541
 3991SOL     OW23608   0.099   2.291   7.387 -0.3248  0.5557  0.5086
 3991SOL    HW123609   0.122   2.202   7.412 -0.7992 -0.3131 -2.2035
 3991SOL    HW223610   0.183   2.328   7.359  0.6273 -1.5891  0.5825
 3992SOL     OW23611   0.025   2.574  17.254  0.0593  0.0805  0.4179
 3992SOL    HW123612   0.033   2.628  17.333 -0.2510  2.1591 -0.9808
 3992SOL    HW223613   4.721   2.629  17.190  0.7856 -1.5048 -1.4577
 3993SOL     OW23614   0.711   4.294   6.966  0.4223 -0.4904 -0.0463
 3993SOL    HW123615   0.623   4.332   6.969  1.1353  1.2955 -2.1385
 3993SOL    HW223616   0.736   4.283   7.058 -1.6396  2.5039  0.8815
 3994SOL     OW23617   2.656   3.836   8.405  0.7168  0.6162  0.6063
 3994SOL    HW123618   2.650   3.786   8.487  0.0909 -0.3781 -0.0383
 3994SOL    HW223619   2.725   3.800   8.349  0.7297 -1.5820  2.0521
 3995SOL     OW23620   3.155   1.562   4.168 -0.2165  0.1786 -0.4502
 3995SOL    HW123621   3.094   1.515   4.111 -0.2774 -0.8198  0.4258
 3995SOL    HW223622   3.241   1.552   4.127  0.3686 -0.6983  0.9688
 3996SOL     OW23623   1.218   2.715  12.163  0.4049  0.0111 -0.1766
 3996SOL    HW123624   1.218   2.798  12.115  0.4583 -1.2309 -2.2725
 3996SOL    HW223625   1.133   2.674  12.144 -0.7658  0.9703  2.8950
 3997SOL     OW23626   2.017   1.688   5.844  0.5452  0.2134 -0.4223
 3997SOL    HW123627   1.951   1.673   5.912  3.1587 -2.4287  1.4735
 3997SOL    HW223628   2.097   1.690   5.896 -0.2830  0.2941  0.8540
 3998SOL     OW23629   1.667   3.717   8.639 -0.1384 -0.7333  0.3145
 3998SOL    HW123630   1.686   3.759   8.555  0.5500 -2.6303 -0.4940
 3998SOL    HW223631   1.582   3.756   8.657  0.5100  0.7940  0.0300
 3999SOL     OW23632   2.143   3.219   4.907 -0.5084 -0.4668 -0.2277
 3999SOL    HW123633   2.197   3.146   4.876 -0.3870 -0.3055 -0.3978
 3999SOL    HW223634   2.149   3.194   4.999 -1.1269  0.3894  0.0470
 4000SOL     OW23635   1.797   0.293   4.705 -0.7046 -0.1953  0.3982
 4000SOL    HW123636   1.848   0.213   4.688  2.6550  1.7449  1.4001
 4000SOL    HW223637   1.766   0.312   4.617 -0.3443  0.3512  0.3914
 4001SOL     OW23638   1.547   0.184   6.447 -0.6366  0.2825  0.5591
 4001SOL    HW123639   1.558   0.172   6.353 -0.2373 -1.1159  0.7961
 4001SOL    HW223640   1.591   0.108   6.484  1.0237  0.3935 -1.1961
 4002SOL     OW23641   2.149   4.057   0.429  0.1660 -0.6755 -0.6825
 4002SOL    HW123642   2.238   4.079   0.456 -0.6263  1.9608 -0.1411
 4002SOL    HW223643   2.094   4.096   0.497 -2.0708 -2.5745 -1.4298
 4003SOL     OW23644   0.841   0.568   7.146 -0.4326 -0.3859 -0.4608
 4003SOL    HW123645   0.760   0.584   7.196 -0.3361  2.2831 -1.1660
 4003SOL    HW223646   0.819   0.476   7.128  0.8880 -0.3766 -2.0344
 4004SOL     OW23647   0.555   1.851   9.320 -0.0742  0.0713  0.0049
 4004SOL    HW123648   0.538   1.769   9.273  1.1857 -0.2234  0.0568
 4004SOL    HW223649   0.609   1.887   9.250 -3.5384  1.3901 -1.9884
 4005SOL     OW23650   2.385   3.696  10.881  0.2631 -1.1687  0.3357
 4005SOL    HW123651   2.464   3.750  10.881 -2.7302  3.1578 -0.6403
 4005SOL    HW223652   2.353   3.696  10.971 -1.7204 -0.1900 -0.3669
 4006SOL     OW23653   3.277   4.393   2.469 -0.3963  0.5977  0.1569
 4006SOL    HW123654   3.312   4.460   2.528 -1.3034  0.5981  0.6865
 4006SOL    HW223655   3.185   4.420   2.470 -0.2278  1.2272 -1.3771
 4007SOL     OW23656   1.172   4.163   4.083 -0.1115 -0.2514  0.1943
 4007SOL    HW123657   1.213   4.086   4.122  1.2113  0.5119  0.3296
 4007SOL    HW223658   1.132   4.200   4.162 -0.0986  0.4093 -0.1061
 4008SOL     OW23659   2.079   3.287   1.591 -0.3528  0.0586 -0.0653
 4008SOL    HW123660   2.092   3.224   1.662  1.2172  0.3131 -0.1137
 4008SOL    HW223661   2.004   3.249   1.545 -0.3836  0.1075 -0.0541
 4009SOL     OW23662   1.117   1.402  10.942  0.3909 -0.1208 -0.1949
 4009SOL    HW123663   1.188   1.418  10.881  1.5745  1.6229  1.6290
 4009SOL    HW223664   1.169   1.402  11.023 -2.0283  1.3300  1.3895
 4010SOL     OW23665   2.160   1.331   5.408  0.6127 -0.0198 -0.4472
 4010SOL    HW123666   2.198   1.374   5.484 -2.1164  0.2715  0.7776
 4010SOL    HW223667   2.231   1.303   5.351 -4.0984 -3.7124 -4.5011
 4011SOL     OW23668   1.774   1.121   7.780 -0.2412 -0.0789  0.3260
 4011SOL    HW123669   1.817   1.203   7.806  0.7994 -0.7228  0.6522
 4011SOL    HW223670   1.740   1.093   7.864  1.3801  1.9589  1.6733
 4012SOL     OW23671   4.049   2.255   1.252 -0.1650 -0.0723 -0.3822
 4012SOL    HW123672   3.966   2.249   1.204 -0.1616 -0.8979 -0.2816
 4012SOL    HW223673   4.015   2.312   1.321 -1.1638 -1.7121  0.4684
 4013SOL     OW23674   1.007   1.784   3.486 -0.9860 -0.1029 -0.2224
 4013SOL    HW123675   1.024   1.763   3.394  1.1897  2.3349 -0.3859
 4013SOL    HW223676   0.952   1.862   3.473  0.6890  1.8421  4.5553
 4014SOL     OW23677   1.130   3.423  10.989  0.9159 -0.4982  0.1970
 4014SOL    HW123678   1.155   3.462  11.073  1.0550  0.3602 -0.2376
 4014SOL    HW223679   1.208   3.445  10.938  0.6313 -0.2669 -0.1423
 4015SOL     OW23680   1.117   4.038   8.401 -0.0998  0.0224  0.0151
 4015SOL    HW123681   1.200   3.990   8.393 -0.2556 -0.2922  0.2888
 4015SOL    HW223682   1.101   4.058   8.493 -0.2825  0.0839 -0.0311
 4016SOL     OW23683   1.939   0.022   9.260 -0.2396 -0.4099  0.0097
 4016SOL    HW123684   1.879   4.698   9.296  0.8575 -1.0298  0.6868
 4016SOL    HW223685   1.889   0.102   9.276 -0.2788 -0.6284  0.9583
 4017SOL     OW23686   3.127   0.722  13.530 -0.6285  0.5161  0.0311
 4017SOL    HW123687   3.085   0.778  13.465  1.3895  3.2506  1.1008
 4017SOL    HW223688   3.189   0.678  13.471  0.8678  3.6839 -0.7804
 4018SOL     OW23689   1.578   3.473  10.168 -0.1598  0.0026  0.1986
 4018SOL    HW123690   1.665   3.451  10.201 -0.1457  1.1378  0.9311
 4018SOL    HW223691   1.529   3.392  10.179 -0.1052  0.2105  1.9110
 4019SOL     OW23692   0.072   1.342   4.955  0.3798 -0.6367  0.3440
 4019SOL    HW123693   4.726   1.307   4.942  0.3807 -0.6013  0.2457
 4019SOL    HW223694   0.133   1.268   4.948  1.2799  0.2014 -0.6234
 4020SOL     OW23695   1.020   1.452  11.648  0.1405 -0.0197 -0.2717
 4020SOL    HW123696   1.036   1.359  11.665  0.6349  0.3900  1.4605
 4020SOL    HW223697   0.994   1.486  11.733 -1.0945 -0.0576 -0.6311
 4021SOL     OW23698   4.083   0.663   4.204 -0.3427  0.1426  0.4224
 4021SOL    HW123699   4.116   0.657   4.294  2.7905  0.7697 -0.6771
 4021SOL    HW223700   4.048   0.752   4.198 -0.2161  0.1436 -0.2617
 4022SOL     OW23701   3.198   2.425   8.045  0.2735  0.9280 -0.4707
 4022SOL    HW123702   3.214   2.345   8.095  1.1950  1.8521  0.6785
 4022SOL    HW223703   3.275   2.478   8.065 -0.2699  1.5991 -0.1517
 4023SOL     OW23704   2.729   3.647  16.040  0.2510 -0.4265 -0.0617
 4023SOL    HW123705   2.695   3.572  16.088  0.6956 -1.1034 -0.8182
 4023SOL    HW223706   2.811   3.608  16.009 -0.4103 -2.4907  0.7911
 4024SOL     OW23707   0.380   3.115  14.253 -0.5093 -0.0734 -0.1860
 4024SOL    HW123708   0.406   3.197  14.295 -0.6656 -1.4026  2.4864
 4024SOL    HW223709   0.443   3.103  14.182 -1.2045  1.3708 -1.0589
 4025SOL     OW23710   3.114   1.349  13.929  0.2982 -0.7932  0.5869
 4025SOL    HW123711   3.198   1.367  13.972 -0.4077  0.2824  1.5286
 4025SOL    HW223712   3.126   1.255  13.937  0.8576 -0.7849 -0.1110
 4026SOL     OW23713   0.011   4.565   7.091 -0.2365 -0.6914 -0.3938
 4026SOL    HW123714   4.708   4.604   7.165  2.1135  2.5581 -0.6518
 4026SOL    HW223715   0.054   4.488   7.128  3.5686 -0.0368 -3.4180
 4027SOL     OW23716   1.956   3.327   9.119 -0.0038  0.1906  0.3458
 4027SOL    HW123717   2.000   3.245   9.142 -1.2951 -0.9705 -1.3195
 4027SOL    HW223718   1.866   3.298   9.133  0.2458 -0.4156  0.7263
 4028SOL     OW23719   3.454   0.934   7.316  0.1790  0.2581  0.5265
 4028SOL    HW123720   3.524   0.988   7.354  1.0872  0.2248 -1.1207
 4028SOL    HW223721   3.381   0.996   7.316  0.9850  1.2214  0.2996
 4029SOL     OW23722   4.650   1.065   3.795  0.3410 -0.3741 -0.5203
 4029SOL    HW123723   4.624   1.134   3.733 -0.0892  0.2671  0.3821
 4029SOL    HW223724   4.585   1.077   3.864  1.2512 -1.5399  0.5304
 4030SOL     OW23725   4.137   2.163   9.772  0.2955 -0.1585  0.0264
 4030SOL    HW123726   4.081   2.232   9.735 -0.4980 -0.8596 -0.0767
 4030SOL    HW223727   4.106   2.091   9.718 -1.3905  1.5401 -1.2522
 4031SOL     OW23728   0.765   0.140   8.729 -0.0038 -0.0641 -0.0509
 4031SOL    HW123729   0.731   0.167   8.643  0.6243  1.8079  0.2986
 4031SOL    HW223730   0.793   0.052   8.704 -0.0344  0.9804 -3.7330
 4032SOL     OW23731   3.403   2.672  17.738 -0.3945  0.0667 -0.0044
 4032SOL    HW123732   3.366   2.622   0.044  1.7183 -0.8567  0.4426
 4032SOL    HW223733   3.446   2.735   0.028 -0.2443  0.3292 -0.4075
 4033SOL     OW23734   2.488   4.497   7.732 -0.6019  0.2367  0.1889
 4033SOL    HW123735   2.449   4.490   7.645 -0.7401  0.3025  0.2464
 4033SOL    HW223736   2.521   4.587   7.742 -1.3772  0.4160  1.1802
 4034SOL     OW23737   4.370   2.934   9.658 -0.0374  0.0845 -0.4968
 4034SOL    HW123738   4.462   2.949   9.679 -0.6258 -0.6760  2.7845
 4034SOL    HW223739   4.364   3.000   9.590  1.7172  0.3446 -0.3802
 4035SOL     OW23740   1.487   1.701   3.712 -0.0432 -0.3603 -0.4708
 4035SOL    HW123741   1.527   1.628   3.665  1.2128 -0.2370  0.4179
 4035SOL    HW223742   1.395   1.690   3.687  0.2540 -0.8197 -1.3193
 4036SOL     OW23743   3.642   0.825   3.381  0.1075 -0.3776  0.0648
 4036SOL    HW123744   3.652   0.759   3.312 -2.1282  0.3229 -0.9261
 4036SOL    HW223745   3.590   0.780   3.448 -0.0059 -0.3033  0.0265
 4037SOL     OW23746   2.440   0.267   9.251 -0.1096  0.1515 -0.5642
 4037SOL    HW123747   2.521   0.228   9.282 -0.7786 -1.0889 -0.3732
 4037SOL    HW223748   2.389   0.281   9.332 -0.1218 -1.5634 -0.2841
 4038SOL     OW23749   1.098   2.447   8.204 -0.4335 -0.6722  0.2035
 4038SOL    HW123750   1.163   2.515   8.184 -2.4761  1.8779  2.2472
 4038SOL    HW223751   1.061   2.474   8.288  0.1137 -1.1818  0.6074
 4039SOL     OW23752   2.350   3.228   6.620  0.2452 -0.4755 -0.0512
 4039SOL    HW123753   2.267   3.274   6.628  0.5096 -0.1417  0.7274
 4039SOL    HW223754   2.328   3.145   6.662 -2.4877 -0.7637 -1.9970
 4040SOL     OW23755   0.254   0.347  12.344 -0.3903 -0.1174  0.0431
 4040SOL    HW123756   0.337   0.379  12.310  0.2978 -1.3257  0.5851
 4040SOL    HW223757   0.193   0.375  12.276 -2.1709 -0.3940  1.5259
 4041SOL     OW23758   2.010   1.529   1.765  0.2237  0.2370 -0.3859
 4041SOL    HW123759   2.064   1.607   1.754 -1.0650  1.0493 -0.9223
 4041SOL    HW223760   1.929   1.579   1.772  1.8316  2.7373  0.4933
 4042SOL     OW23761   1.767   3.175   3.556 -0.3772  0.0348  0.1566
 4042SOL    HW123762   1.825   3.140   3.489 -1.7866  0.9487 -1.5450
 4042SOL    HW223763   1.751   3.264   3.525  0.0544 -0.2590 -0.9179
 4043SOL     OW23764   1.412   2.286  15.100 -0.6134 -0.3655 -0.4135
 4043SOL    HW123765   1.460   2.222  15.153 -0.6455 -2.0631 -2.4124
 4043SOL    HW223766   1.332   2.239  15.079 -2.9386  1.8765  3.4402
 4044SOL     OW23767   2.956   4.124   6.560  0.7043  0.1032 -0.0573
 4044SOL    HW123768   2.974   4.201   6.506  1.4588 -0.4227 -0.5441
 4044SOL    HW223769   3.042   4.099   6.593 -0.6818 -2.3153  1.6592
 4045SOL     OW23770   3.121   3.660  12.963  0.2743  0.3178  0.5211
 4045SOL    HW123771   3.071   3.578  12.968 -0.2239  0.6470  0.9509
 4045SOL    HW223772   3.092   3.695  12.879  0.8042  1.0506  0.6466
 4046SOL     OW23773   3.661   4.131   5.586 -0.0764  0.1957 -0.0972
 4046SOL    HW123774   3.709   4.208   5.557 -0.4038  0.2323 -0.5463
 4046SOL    HW223775   3.728   4.071   5.620 -1.2600 -2.1029 -1.7898
 4047SOL     OW23776   3.135   0.163  10.093  0.0093 -0.1208 -0.7268
 4047SOL    HW123777   3.091   0.210  10.022  2.9889  1.8437 -1.2782
 4047SOL    HW223778   3.087   0.080  10.086 -0.2309 -0.2652  2.7904
 4048SOL     OW23779   3.044   0.845   0.536  0.0388  0.4395  0.0248
 4048SOL    HW123780   3.026   0.936   0.558 -2.5321 -0.1101  0.2416
 4048SOL    HW223781   3.139   0.847   0.528 -0.2649 -1.4346 -4.2835
 4049SOL     OW23782   0.052   0.908   3.553 -0.0249 -0.0057  0.3173
 4049SOL    HW123783   0.076   0.817   3.534  0.6093  0.3021 -0.3542
 4049SOL    HW223784   4.740   0.900   3.631  0.6927 -1.4354  0.6816
 4050SOL     OW23785   1.807   4.247   6.098  0.5667  0.6220  0.8602
 4050SOL    HW123786   1.844   4.240   6.186  1.6027 -1.6031  0.2690
 4050SOL    HW223787   1.822   4.162   6.055  1.1438  1.5075 -0.6936
 4051SOL     OW23788   0.296   3.914   3.210  0.9327  0.3495  0.4277
 4051SOL    HW123789   0.372   3.857   3.199  0.1992 -0.8331  1.4624
 4051SOL    HW223790   0.298   3.985   3.146 -0.6450 -0.8575 -0.9630
 4052SOL     OW23791   0.150   3.972  11.975  0.7984  0.0282 -0.6087
 4052SOL    HW123792   0.068   3.998  12.018  1.4326 -0.9283  1.1602
 4052SOL    HW223793   0.145   4.015  11.889  2.5159  1.5476  0.0503
 4053SOL     OW23794   2.726   2.935   5.145 -0.0965  0.0896 -0.1677
 4053SOL    HW123795   2.742   2.846   5.176 -0.0668 -0.2378 -1.1571
 4053SOL    HW223796   2.630   2.938   5.140 -0.0693  0.9439 -0.2284
 4054SOL     OW23797   0.506   3.045   6.457 -0.7072  0.7463 -0.5437
 4054SOL    HW123798   0.475   3.117   6.512  2.2669  1.5097  0.1648
 4054SOL    HW223799   0.583   3.003   6.496 -1.1422 -4.0657 -4.8182
 4055SOL     OW23800   0.119   0.465   1.198  0.1263 -0.6500  0.7155
 4055SOL    HW123801   0.210   0.482   1.174 -0.3242  0.5319 -0.1717
 4055SOL    HW223802   0.103   0.519   1.275  0.7027  0.5161  0.0181
 4056SOL     OW23803   2.934   3.933   7.227 -0.2217 -0.1358  0.4766
 4056SOL    HW123804   2.855   3.970   7.189 -0.2950 -0.8520 -0.0806
 4056SOL    HW223805   2.997   3.995   7.189 -1.0992  0.7574  0.5083
 4057SOL     OW23806   3.682   3.293   5.474  0.3748 -0.5012 -0.4346
 4057SOL    HW123807   3.653   3.256   5.391 -1.2834  0.7745 -0.4110
 4057SOL    HW223808   3.759   3.238   5.489 -0.9851 -2.1369  0.5523
 4058SOL     OW23809   2.802   3.954   4.707 -0.2824  0.1177 -0.5086
 4058SOL    HW123810   2.837   4.042   4.723  0.1063 -0.2084  0.4381
 4058SOL    HW223811   2.800   3.955   4.611  1.1236 -0.9626 -0.5446
 4059SOL     OW23812   1.244   2.554  13.799 -0.3068 -0.1301  0.4622
 4059SOL    HW123813   1.314   2.618  13.785  1.0132 -1.9285 -1.1509
 4059SOL    HW223814   1.178   2.585  13.738  2.0487  0.8023 -1.5883
 4060SOL     OW23815   1.964   2.434   9.406  0.4152  0.1134 -0.4285
 4060SOL    HW123816   1.884   2.462   9.362 -1.2943 -2.1331  1.2424
 4060SOL    HW223817   1.922   2.356   9.445 -0.6816  0.5851 -0.6592
 4061SOL     OW23818   4.178   4.322   9.568 -0.1116 -0.2586 -0.3829
 4061SOL    HW123819   4.238   4.284   9.633 -1.0151 -0.5924  0.2535
 4061SOL    HW223820   4.223   4.302   9.486 -1.1554 -1.4270 -0.6690
 4062SOL     OW23821   0.894   1.839  17.351 -0.6771 -0.0371 -0.3523
 4062SOL    HW123822   0.843   1.761  17.332 -1.3952  0.4876 -0.5694
 4062SOL    HW223823   0.975   1.843  17.299 -0.9880  0.6892 -0.7870
 4063SOL     OW23824   3.882   2.333   3.748  0.4475  0.1999  0.1378
 4063SOL    HW123825   3.811   2.379   3.704 -1.9420 -1.8702  1.8903
 4063SOL    HW223826   3.847   2.249   3.777 -1.0217  1.3310  1.6785
 4064SOL     OW23827   4.126   0.018  11.666 -0.2673  0.1723  0.3370
 4064SOL    HW123828   4.088   0.087  11.720  0.3820  0.0603  0.9310
 4064SOL    HW223829   4.064   0.015  11.593 -2.6922  0.9748  2.3750
 4065SOL     OW23830   0.995   3.591   9.196  0.2222  0.1152  0.1732
 4065SOL    HW123831   0.901   3.611   9.194 -0.0740 -1.1865  1.0919
 4065SOL    HW223832   1.025   3.604   9.286  1.4033 -1.6716  0.0359
 4066SOL     OW23833   0.115   1.362   5.640  0.3259  0.0187  0.0614
 4066SOL    HW123834   0.148   1.299   5.576  1.0649  0.7495 -0.2773
 4066SOL    HW223835   0.198   1.403   5.662  0.4466  0.8748 -2.0858
 4067SOL     OW23836   2.351   4.625   5.055  0.3225  0.2123  0.3180
 4067SOL    HW123837   2.421   4.670   5.103  1.9214 -0.6625 -1.2258
 4067SOL    HW223838   2.362   4.663   4.968 -2.8421 -0.0384 -0.1661
 4068SOL     OW23839   0.353   1.985   5.889 -0.1772 -0.1410 -0.3604
 4068SOL    HW123840   0.309   1.932   5.955 -1.4534  2.3262  0.7598
 4068SOL    HW223841   0.290   1.977   5.818 -0.4271  2.6761 -0.4488
 4069SOL     OW23842   2.753   0.936   8.145 -0.3428 -0.0218  0.0492
 4069SOL    HW123843   2.787   0.866   8.200 -0.7069  0.0351  0.3452
 4069SOL    HW223844   2.755   1.016   8.197  2.6227 -0.3019  0.3324
 4070SOL     OW23845   3.119   1.779  11.402  0.5199 -0.0471  0.1962
 4070SOL    HW123846   3.120   1.723  11.324  1.8025 -1.1802  1.0271
 4070SOL    HW223847   3.211   1.806  11.402  0.1139  1.3988 -1.7434
 4071SOL     OW23848   0.622   1.785   8.406  0.1246  0.1531  0.6151
 4071SOL    HW123849   0.608   1.726   8.332  1.3145  1.3284 -0.5432
 4071SOL    HW223850   0.689   1.847   8.379 -1.4602  1.4218 -0.3648
 4072SOL     OW23851   0.862   3.882   3.093  0.2281 -0.2519 -0.2574
 4072SOL    HW123852   0.816   3.799   3.096 -0.4513  0.1775  1.0624
 4072SOL    HW223853   0.811   3.938   3.151  1.3611  0.6645 -0.1290
 4073SOL     OW23854   4.348   3.859   3.564 -0.1278 -0.0364 -0.7493
 4073SOL    HW123855   4.330   3.913   3.488  0.3658  1.7096  0.3696
 4073SOL    HW223856   4.348   3.776   3.517  0.2169 -0.2726 -0.3440
 4074SOL     OW23857   2.921   0.310   8.184 -0.9001 -0.1948 -0.3071
 4074SOL    HW123858   2.985   0.327   8.254 -0.7582  1.6041 -0.8790
 4074SOL    HW223859   2.956   0.234   8.137  3.5944  1.8477 -0.2630
 4075SOL     OW23860   0.811   4.166   4.552 -0.0780  0.3940  0.7592
 4075SOL    HW123861   0.802   4.119   4.470  1.1629 -2.7710  2.4332
 4075SOL    HW223862   0.890   4.214   4.529  1.1306 -1.4985  0.9452
 4076SOL     OW23863   2.323   0.219   8.049  0.3122 -0.1375  0.3317
 4076SOL    HW123864   2.417   0.208   8.032  0.1265  0.5986 -1.1258
 4076SOL    HW223865   2.282   0.142   8.008 -1.7021  1.5020 -0.7025
 4077SOL     OW23866   3.822   0.811  16.504 -0.6297  0.0934 -0.0614
 4077SOL    HW123867   3.742   0.801  16.555 -0.7221 -0.7549 -0.3587
 4077SOL    HW223868   3.817   0.721  16.472 -0.1785  0.2079 -0.4627
 4078SOL     OW23869   4.647   4.711   7.551  0.2813 -0.4944  0.4296
 4078SOL    HW123870   4.656   0.064   7.556 -0.2038 -0.2203 -3.3864
 4078SOL    HW223871   4.707   4.682   7.620 -2.1852 -0.8978  2.3931
 4079SOL     OW23872   1.044   2.882  11.429 -0.5508 -0.2391 -0.1337
 4079SOL    HW123873   1.118   2.838  11.387  0.0465  1.1982 -0.5994
 4079SOL    HW223874   1.078   2.965  11.461  0.4057 -1.5590  2.2752
 4080SOL     OW23875   2.046   1.848   9.755  0.1712 -0.6174 -0.3233
 4080SOL    HW123876   2.088   1.766   9.729 -0.4239 -0.7124 -0.9848
 4080SOL    HW223877   2.030   1.883   9.668  2.0828  0.2037 -0.3389
 4081SOL     OW23878   2.350   3.009   1.856  0.5073  0.6129  0.1288
 4081SOL    HW123879   2.403   3.045   1.928 -0.6218  1.5816  0.4748
 4081SOL    HW223880   2.378   3.067   1.785  0.7519 -0.8071 -0.9458
 4082SOL     OW23881   3.368   1.534   6.886 -0.0776  0.4647  0.1887
 4082SOL    HW123882   3.404   1.446   6.874 -0.9363 -0.4165  3.9735
 4082SOL    HW223883   3.373   1.571   6.798  2.0688 -0.7114 -0.1964
 4083SOL     OW23884   1.795   0.897   5.815 -0.1379  0.5294 -0.2787
 4083SOL    HW123885   1.787   0.858   5.729  1.5558 -0.6208  0.0753
 4083SOL    HW223886   1.700   0.907   5.820 -0.0660  0.9789  0.2372
 4084SOL     OW23887   0.236   0.360  16.493 -0.1400  0.0710  0.0851
 4084SOL    HW123888   0.193   0.286  16.535 -0.4775  0.0887 -0.2298
 4084SOL    HW223889   0.325   0.328  16.506 -0.2426 -0.5772 -0.8241
 4085SOL     OW23890   1.483   1.266   5.176 -0.0208 -0.4917 -0.0551
 4085SOL    HW123891   1.454   1.178   5.198 -0.3676 -0.5185 -0.6071
 4085SOL    HW223892   1.421   1.319   5.226 -0.5241 -0.7298 -0.4225
 4086SOL     OW23893   2.792   2.826   6.870 -0.5957  0.4010  0.1275
 4086SOL    HW123894   2.773   2.736   6.842  0.8117 -0.3370  1.5364
 4086SOL    HW223895   2.704   2.862   6.883  0.1148  0.9854  3.1990
 4087SOL     OW23896   3.270   0.890   7.071 -0.1985  0.2968 -0.3945
 4087SOL    HW123897   3.341   0.947   7.042 -2.0581  2.3191 -0.9954
 4087SOL    HW223898   3.298   0.877   7.162  2.6476 -0.2034 -1.3666
 4088SOL     OW23899   1.488   0.336   5.578 -0.1493  0.5836 -1.0010
 4088SOL    HW123900   1.490   0.296   5.664  1.8355  2.3683 -0.2112
 4088SOL    HW223901   1.557   0.292   5.529 -1.2171 -3.9130  1.5369
 4089SOL     OW23902   2.671   0.823  13.236 -0.2002  0.2070 -0.4748
 4089SOL    HW123903   2.729   0.777  13.177 -1.4381 -0.7039 -0.9816
 4089SOL    HW223904   2.705   0.911  13.218  2.3113 -0.5193  0.7924
 4090SOL     OW23905   1.742   1.619  14.415 -0.0559 -0.1353 -0.0873
 4090SOL    HW123906   1.697   1.648  14.336 -1.5503 -0.0583  0.7941
 4090SOL    HW223907   1.826   1.586  14.382  1.3427  1.4999  1.7954
 4091SOL     OW23908   3.066   0.130  10.358 -0.4491 -0.2182 -0.4861
 4091SOL    HW123909   3.156   0.135  10.387  0.1621 -1.4736 -2.1183
 4091SOL    HW223910   3.088   0.121  10.265  0.8839  0.3129 -0.2172
 4092SOL     OW23911   2.698   2.999   4.487  0.6754  0.0145 -0.7290
 4092SOL    HW123912   2.608   3.033   4.487  1.2602  1.5236 -2.4656
 4092SOL    HW223913   2.739   3.036   4.566 -2.4798  0.4496  0.7065
 4093SOL     OW23914   3.866   4.506   6.036 -0.2892  0.0386  0.0557
 4093SOL    HW123915   3.801   4.532   5.971  0.8875  1.6441 -0.4835
 4093SOL    HW223916   3.856   4.411   6.047 -1.5985  0.1603 -0.0700
 4094SOL     OW23917   0.025   2.900   6.223 -0.2663  0.0432  0.1678
 4094SOL    HW123918   4.683   2.854   6.226  0.7995 -1.9716 -0.3847
 4094SOL    HW223919   0.091   2.832   6.236 -0.0587  0.2944  0.4182
 4095SOL     OW23920   0.073   1.278   1.472  0.4100  0.4764 -0.2566
 4095SOL    HW123921   0.072   1.210   1.403  0.6315 -2.3277  2.5019
 4095SOL    HW223922   0.165   1.303   1.465  1.1837 -2.6710 -1.7094
 4096SOL     OW23923   4.231   3.033   3.080 -0.4772 -0.3432 -0.3176
 4096SOL    HW123924   4.266   3.097   3.018 -0.1883 -0.1896  0.0037
 4096SOL    HW223925   4.181   3.091   3.138 -0.8506 -0.1081 -0.8830
 4097SOL     OW23926   3.957   2.617   4.631  0.1036  0.2069 -0.2205
 4097SOL    HW123927   3.935   2.524   4.618 -0.5112  0.2849  0.2810
 4097SOL    HW223928   4.033   2.627   4.573 -1.2151  0.3459 -1.9354
 4098SOL     OW23929   1.607   3.362   6.945 -0.2505  0.0302 -0.0946
 4098SOL    HW123930   1.623   3.346   6.852  1.2129  1.0200 -0.0178
 4098SOL    HW223931   1.522   3.320   6.953  0.4663 -1.3714  0.0097
 4099SOL     OW23932   1.445   3.570   4.856 -0.0164 -0.6124 -0.0423
 4099SOL    HW123933   1.427   3.662   4.877 -0.6427 -0.7803  0.1765
 4099SOL    HW223934   1.456   3.536   4.945 -1.6912 -0.4146  0.2557
 4100SOL     OW23935   2.482   1.516   1.089  0.1810  0.4733  0.4359
 4100SOL    HW123936   2.513   1.549   1.005 -1.3716 -0.7982 -0.6430
 4100SOL    HW223937   2.532   1.435   1.102  0.8972  0.5053 -2.0516
 4101SOL     OW23938   1.782   4.547   8.330 -0.5213  0.5036 -0.2492
 4101SOL    HW123939   1.781   4.549   8.235 -1.9962 -0.8223 -0.2546
 4101SOL    HW223940   1.693   4.515   8.344 -1.3292  2.8808  0.1667
 4102SOL     OW23941   0.889   2.128  17.248 -0.2337  0.8910  0.7341
 4102SOL    HW123942   0.949   2.114  17.174 -0.4959 -0.1445  0.7201
 4102SOL    HW223943   0.891   2.046  17.298 -1.5925 -0.2481 -1.0790
 4103SOL     OW23944   3.756   3.563   5.460 -0.3260 -0.2498 -0.2489
 4103SOL    HW123945   3.722   3.474   5.461  3.2448 -1.5865 -0.2869
 4103SOL    HW223946   3.761   3.582   5.366  1.4097  0.9610  0.0999
 4104SOL     OW23947   4.318   1.672   6.311  0.7471  0.1324  0.0748
 4104SOL    HW123948   4.341   1.765   6.302  0.1636  0.1270 -1.3157
 4104SOL    HW223949   4.373   1.635   6.242  0.0080 -1.3268  0.2602
 4105SOL     OW23950   1.988   3.542   4.604 -0.0343  0.5219  0.1762
 4105SOL    HW123951   2.061   3.517   4.660  0.8841  2.5436 -0.1268
 4105SOL    HW223952   2.012   3.626   4.564  1.2352  0.2574  0.3878
 4106SOL     OW23953   1.884   4.097   2.090 -0.1405  0.0192  0.0295
 4106SOL    HW123954   1.839   4.075   2.171  0.7972  2.4325  1.2102
 4106SOL    HW223955   1.943   4.021   2.091  1.2433  1.1298  2.2361
 4107SOL     OW23956   2.478   2.235  13.876 -0.0905  0.5990 -0.3641
 4107SOL    HW123957   2.429   2.243  13.957  0.5046  1.2855 -0.0721
 4107SOL    HW223958   2.525   2.319  13.879 -0.5578  0.8652 -0.4308
 4108SOL     OW23959   3.801   3.328   0.853 -0.1839  0.5192 -0.0942
 4108SOL    HW123960   3.814   3.336   0.758 -0.5058 -1.4471 -0.3052
 4108SOL    HW223961   3.750   3.408   0.867 -0.3404  0.5422 -0.7866
 4109SOL     OW23962   1.985   2.258   0.276  0.2750  0.0580  0.2699
 4109SOL    HW123963   1.900   2.217   0.262  0.0792 -0.6190  3.3637
 4109SOL    HW223964   1.997   2.311   0.197 -1.3165  1.7254  1.1450
 4110SOL     OW23965   0.875   2.794   7.354 -0.0301  0.5312 -0.5257
 4110SOL    HW123966   0.928   2.744   7.292 -1.1088 -0.5944 -0.5342
 4110SOL    HW223967   0.947   2.815   7.413 -0.9562  1.2160  0.3554
 4111SOL     OW23968   1.159   4.711   7.473 -0.1533  0.4111 -0.2845
 4111SOL    HW123969   1.133   0.042   7.416  1.4437  0.9266 -0.3537
 4111SOL    HW223970   1.237   0.006   7.514 -0.6539  1.1533 -0.0006
 4112SOL     OW23971   4.200   4.071   5.077 -0.3894 -0.7429 -0.0714
 4112SOL    HW123972   4.174   4.107   4.992  1.2980  3.5859  1.2568
 4112SOL    HW223973   4.291   4.098   5.089 -1.0134  0.8090  1.1492
 4113SOL     OW23974   0.776   2.952   6.202  0.0606  0.2493 -0.1654
 4113SOL    HW123975   0.731   3.034   6.181  0.1773  0.1465 -0.8069
 4113SOL    HW223976   0.863   2.971   6.168  0.2192 -0.3639 -0.0972
 4114SOL     OW23977   3.337   1.688   3.810 -0.2825  0.4293  0.6066
 4114SOL    HW123978   3.375   1.644   3.886 -0.4382  1.5745  1.3464
 4114SOL    HW223979   3.271   1.620   3.796 -0.8702  1.5167 -2.0128
 4115SOL     OW23980   2.162   0.232   5.268 -0.0641  0.3839  0.5859
 4115SOL    HW123981   2.189   0.154   5.316 -1.9106 -0.4827  0.2268
 4115SOL    HW223982   2.079   0.257   5.308  0.7646  0.7171  2.0711
 4116SOL     OW23983   0.730   2.759   1.423 -0.2786 -0.5038 -0.1298
 4116SOL    HW123984   0.739   2.664   1.429  1.5629 -0.4504 -2.2845
 4116SOL    HW223985   0.642   2.764   1.384 -1.2930  2.4607  2.5264
 4117SOL     OW23986   3.549   2.106  15.792  0.1724  0.8197  0.2142
 4117SOL    HW123987   3.466   2.061  15.807 -0.0350  1.9424  2.3893
 4117SOL    HW223988   3.564   2.086  15.699 -1.0706 -1.1307  0.4387
 4118SOL     OW23989   4.178   2.866  16.894  0.1377 -0.5261  0.0779
 4118SOL    HW123990   4.210   2.776  16.884 -0.8710 -0.5992 -2.4169
 4118SOL    HW223991   4.116   2.866  16.821  1.0826 -0.7552 -0.7338
 4119SOL     OW23992   0.147   1.456  12.128 -0.3131 -0.0973 -0.2918
 4119SOL    HW123993   0.183   1.369  12.148  0.4217  0.1631 -0.4959
 4119SOL    HW223994   0.121   1.440  12.037 -0.9103 -0.3020 -0.0862
 4120SOL     OW23995   3.332   3.376  11.443  0.2535 -0.2930  0.0614
 4120SOL    HW123996   3.307   3.284  11.443  2.2163 -0.8182 -0.5221
 4120SOL    HW223997   3.384   3.385  11.363 -1.6226  1.2128 -1.0130
 4121SOL     OW23998   2.787   0.897  13.609 -0.4771 -0.4731  0.0157
 4121SOL    HW123999   2.844   0.911  13.534 -1.4122  3.8045  0.1140
 4121SOL    HW224000   2.728   0.830  13.573  1.3870 -3.3063  2.2115
 4122SOL     OW24001   0.846   0.823   6.011  0.0193  0.1735  0.3892
 4122SOL    HW124002   0.926   0.784   6.045  1.2201  0.8948 -1.6349
 4122SOL    HW224003   0.877   0.914   6.006  3.5222 -1.0137  0.6517
 4123SOL     OW24004   0.623   2.842  11.104 -0.1000 -0.4515 -0.3924
 4123SOL    HW124005   0.664   2.787  11.171 -2.8050 -1.3893  0.4781
 4123SOL    HW224006   0.702   2.877  11.062 -1.8126  0.3689 -2.9552
 4124SOL     OW24007   4.500   0.878  11.207 -0.0482 -0.3472 -0.7066
 4124SOL    HW124008   4.576   0.832  11.171 -1.9359 -3.2670 -0.9513
 4124SOL    HW224009   4.446   0.804  11.233 -0.7172 -0.1435 -1.4970
 4125SOL     OW24010   0.536   3.693   2.675 -0.3722 -0.4321  0.5160
 4125SOL    HW124011   0.548   3.617   2.733  0.6986 -1.3642 -0.9283
 4125SOL    HW224012   0.525   3.642   2.595 -1.9352  0.8896 -0.0950
 4126SOL     OW24013   0.262   1.860   2.646 -0.8759 -0.0505  0.2195
 4126SOL    HW124014   0.199   1.797   2.612 -1.8363  1.1166 -0.1651
 4126SOL    HW224015   0.285   1.904   2.564 -0.5899  2.5517  1.6752
 4127SOL     OW24016   0.154   2.000   8.727 -0.1015 -0.4005 -0.2169
 4127SOL    HW124017   0.246   2.006   8.703  0.5444  0.2706  2.4690
 4127SOL    HW224018   0.121   1.940   8.660 -0.8897 -0.5586  0.3062
 4128SOL     OW24019   1.195   2.608   3.852  0.2688 -0.0682  0.0410
 4128SOL    HW124020   1.141   2.591   3.775  0.4012 -1.7991  0.3342
 4128SOL    HW224021   1.132   2.610   3.924 -1.5625 -1.1813 -1.5303
 4129SOL     OW24022   0.342   3.548  17.105  0.3892  0.0493 -0.0882
 4129SOL    HW124023   0.375   3.552  17.016  0.8547 -0.9655  0.0351
 4129SOL    HW224024   0.270   3.610  17.093  0.0038 -0.5256 -0.6704
 4130SOL     OW24025   4.117   3.631   2.129  0.1033 -0.5300 -0.0066
 4130SOL    HW124026   4.123   3.662   2.220  1.1992 -0.1161 -0.2279
 4130SOL    HW224027   4.207   3.606   2.110 -0.6019 -2.6991 -0.4683
 4131SOL     OW24028   1.767   3.881   2.363  0.2496  0.2844  0.6192
 4131SOL    HW124029   1.673   3.863   2.372  0.1959  0.1413 -0.2387
 4131SOL    HW224030   1.765   3.974   2.386  0.7115 -0.3581  3.2593
 4132SOL     OW24031   0.760   2.307   0.612 -0.2485  0.1360 -0.1907
 4132SOL    HW124032   0.739   2.285   0.521 -0.9859 -0.8696  0.2183
 4132SOL    HW224033   0.756   2.222   0.655 -0.9024 -0.5348 -1.5736
 4133SOL     OW24034   0.699   1.429  11.825 -0.0589  0.2467  0.4100
 4133SOL    HW124035   0.693   1.397  11.735 -2.9545  1.9563 -0.0012
 4133SOL    HW224036   0.772   1.378  11.860  0.4100  0.0813 -0.8332
 4134SOL     OW24037   2.428   2.953   1.361 -0.3779  0.2016 -0.0383
 4134SOL    HW124038   2.395   2.870   1.396  0.4674  0.4857  1.4528
 4134SOL    HW224039   2.348   2.994   1.328  1.3679  3.0295 -0.7435
 4135SOL     OW24040   1.134   1.599   3.176  0.4049  0.0835  0.0437
 4135SOL    HW124041   1.158   1.570   3.088 -1.7556 -0.2769 -0.4316
 4135SOL    HW224042   1.038   1.597   3.177  0.4343 -1.3161 -0.7880
 4136SOL     OW24043   0.928   3.834   3.812 -0.2139  0.7755  0.8210
 4136SOL    HW124044   0.944   3.927   3.827 -1.4426  0.9744  0.9541
 4136SOL    HW224045   0.974   3.807   3.891  0.6448  1.0743  0.4224
 4137SOL     OW24046   2.900   2.610   4.620 -0.1894  0.5114 -0.8629
 4137SOL    HW124047   2.961   2.538   4.637  0.3401  2.0730  3.9882
 4137SOL    HW224048   2.825   2.575   4.572 -0.6378  0.3412 -0.0542
 4138SOL     OW24049   3.562   1.639   1.190  0.0699  0.2786  0.1374
 4138SOL    HW124050   3.532   1.572   1.252  0.8063  0.6969  0.9483
 4138SOL    HW224051   3.540   1.730   1.209  1.0080  0.4245  0.5224
 4139SOL     OW24052   3.634   3.630   3.142  0.2088  0.6853  0.6552
 4139SOL    HW124053   3.654   3.610   3.233  0.1545 -1.3656  0.2123
 4139SOL    HW224054   3.545   3.662   3.157 -0.7958 -1.1204 -1.4059
 4140SOL     OW24055   0.172   3.340  15.416  0.0374 -0.1650  0.0716
 4140SOL    HW124056   0.251   3.304  15.377 -0.7333 -1.0261 -0.6981
 4140SOL    HW224057   0.116   3.262  15.419 -0.2968  0.2578  4.5319
 4141SOL     OW24058   2.347   3.027   2.131  0.0650  0.2000  0.0083
 4141SOL    HW124059   2.351   3.013   2.225 -0.2806  3.6186  0.5246
 4141SOL    HW224060   2.258   3.064   2.127 -0.5266 -1.3054 -0.9248
 4142SOL     OW24061   3.484   2.492   7.090 -0.4009 -0.2387  0.5325
 4142SOL    HW124062   3.503   2.581   7.059  0.1718 -1.1172 -1.6808
 4142SOL    HW224063   3.496   2.443   7.008  0.0922  0.0129  0.4532
 4143SOL     OW24064   2.859   0.898   5.207  0.4066  0.0295  0.1354
 4143SOL    HW124065   2.906   0.822   5.172 -1.2893 -0.3771 -1.2498
 4143SOL    HW224066   2.817   0.930   5.128  1.8505  0.5246 -0.4248
 4144SOL     OW24067   1.223   0.850  13.747 -0.2144  0.9025 -0.0086
 4144SOL    HW124068   1.300   0.829  13.694 -1.2462 -0.0558 -1.1466
 4144SOL    HW224069   1.257   0.906  13.816 -1.0214  0.2339  0.9255
 4145SOL     OW24070   4.720   2.297   4.181  0.2862  0.1180 -0.3814
 4145SOL    HW124071   0.070   2.273   4.187  0.5341  0.9195 -1.0100
 4145SOL    HW224072   4.676   2.221   4.143  0.8361 -0.5261  0.2659
 4146SOL     OW24073   3.209   0.447  13.560  0.5179 -0.2107 -0.3990
 4146SOL    HW124074   3.145   0.514  13.586 -1.4194 -1.7558 -1.1835
 4146SOL    HW224075   3.263   0.504  13.505 -1.9654  0.1084 -2.4950
 4147SOL     OW24076   0.441   1.386  12.706 -0.5681 -0.0941  0.4050
 4147SOL    HW124077   0.438   1.379  12.611  1.6815  0.3883  0.2873
 4147SOL    HW224078   0.458   1.297  12.736  1.1639  0.5955  1.4551
 4148SOL     OW24079   0.839   0.116   3.420 -0.3456  0.2792 -0.1487
 4148SOL    HW124080   0.749   0.098   3.392 -0.8163  1.0918  0.8384
 4148SOL    HW224081   0.872   0.038   3.463 -0.6879  0.4847  0.4833
 4149SOL     OW24082   4.280   2.659   6.022 -0.1575 -0.0024  0.0322
 4149SOL    HW124083   4.353   2.684   6.078 -2.1042  2.1645  1.6121
 4149SOL    HW224084   4.225   2.736   6.035 -0.5907 -0.3747  0.4282
 4150SOL     OW24085   4.630   3.574  11.393  0.2769 -0.1090  0.6441
 4150SOL    HW124086   4.669   3.536  11.472  0.4108 -0.7579  0.2651
 4150SOL    HW224087   4.673   3.659  11.380 -0.9694  0.5815  1.1212
 4151SOL     OW24088   2.738   1.459   4.154  0.4544  0.0339 -0.0025
 4151SOL    HW124089   2.650   1.420   4.153  0.5157 -0.1687  2.5424
 4151SOL    HW224090   2.730   1.532   4.093  0.8887  0.8527  0.9331
 4152SOL     OW24091   1.128   1.335   1.879 -0.7614 -0.5599  0.6886
 4152SOL    HW124092   1.083   1.356   1.798 -0.3305 -1.6404  0.1615
 4152SOL    HW224093   1.196   1.402   1.884 -1.8954  0.4745  2.4441
 4153SOL     OW24094   1.898   0.469   6.159 -0.1816 -0.0904  0.2271
 4153SOL    HW124095   1.829   0.530   6.184  0.1651  0.0113  0.9128
 4153SOL    HW224096   1.966   0.535   6.145 -0.2892 -0.3926 -1.8143
 4154SOL     OW24097   2.251   2.993   2.389 -0.2343 -0.1190 -0.1700
 4154SOL    HW124098   2.255   3.077   2.434 -2.1221  0.0680 -0.3647
 4154SOL    HW224099   2.217   2.943   2.463 -1.4571  2.0532  0.7480
 4155SOL     OW24100   1.060   2.484   5.998 -0.3197  0.1832  0.0210
 4155SOL    HW124101   1.128   2.465   5.934 -0.6342  0.3756 -0.3697
 4155SOL    HW224102   1.008   2.556   5.962 -2.5906 -0.2864  2.2786
 4156SOL     OW24103   2.300   3.931   1.569  0.0367 -0.4473  0.7489
 4156SOL    HW124104   2.353   3.937   1.648  2.1211 -0.4526 -0.6446
 4156SOL    HW224105   2.212   3.914   1.602  0.0553  0.5184  1.2771
 4157SOL     OW24106   3.911   4.539   2.918  0.1550  0.0442 -0.1014
 4157SOL    HW124107   3.891   4.553   3.011 -1.7988 -0.4726 -0.4466
 4157SOL    HW224108   3.867   4.456   2.903 -1.7185  0.8346  0.9355
 4158SOL     OW24109   1.579   1.624   6.229 -0.4710  0.3850  0.6246
 4158SOL    HW124110   1.646   1.632   6.297  2.4228  1.4307 -2.3289
 4158SOL    HW224111   1.630   1.578   6.163 -0.7753 -1.6847  1.8423
 4159SOL     OW24112   0.040   0.283   5.379 -0.2152 -0.2271  0.0371
 4159SOL    HW124113   0.123   0.316   5.413  0.0223 -1.0402  0.2557
 4159SOL    HW224114   0.017   0.214   5.441 -0.4732 -0.5470 -0.4088
 4160SOL     OW24115   3.709   2.575   8.468 -0.1170 -0.2341 -0.7459
 4160SOL    HW124116   3.738   2.622   8.389 -2.2575 -4.0331 -3.7693
 4160SOL    HW224117   3.714   2.656   8.519  0.1851 -2.0320  2.0879
 4161SOL     OW24118   4.242   0.513  15.493 -0.2561 -0.3206  0.1956
 4161SOL    HW124119   4.163   0.476  15.531 -0.9094 -0.9104 -1.7143
 4161SOL    HW224120   4.313   0.476  15.545  1.9933  0.3951 -2.3417
 4162SOL     OW24121   4.322   3.702   8.963 -0.0846  0.6614 -0.3223
 4162SOL    HW124122   4.398   3.760   8.969 -0.2224  0.4110  3.6545
 4162SOL    HW224123   4.288   3.707   9.052  2.6991 -1.9278  0.8671
 4163SOL     OW24124   1.281   3.501   6.751  0.0437 -0.2112 -0.2608
 4163SOL    HW124125   1.236   3.417   6.762  2.6474 -1.5361  0.0948
 4163SOL    HW224126   1.252   3.546   6.830 -0.7334  0.3295 -0.8506
 4164SOL     OW24127   3.937   3.333   5.965 -0.3474  0.3978 -0.7581
 4164SOL    HW124128   3.911   3.404   6.023 -0.4793  0.3716 -0.7834
 4164SOL    HW224129   3.972   3.278   6.035 -1.0770 -0.0553 -0.7489
 4165SOL     OW24130   0.649   4.300  13.375 -0.2060  0.3875 -0.3759
 4165SOL    HW124131   0.558   4.314  13.346 -0.6038  0.9083  1.1202
 4165SOL    HW224132   0.667   4.361  13.447 -1.1651  0.2632 -0.0344
 4166SOL     OW24133   0.894   1.661   4.490 -0.6082  0.3746  0.1697
 4166SOL    HW124134   0.817   1.614   4.457  0.5524 -2.4850  1.5401
 4166SOL    HW224135   0.869   1.671   4.582  0.7303 -0.2130  0.5971
 4167SOL     OW24136   1.649   1.848  17.166 -0.0299  0.2543 -0.2834
 4167SOL    HW124137   1.700   1.826  17.088  0.3687 -1.7250  0.5380
 4167SOL    HW224138   1.610   1.762  17.181  0.8561 -0.2876 -1.0826
 4168SOL     OW24139   1.480   3.082   3.732 -0.1167 -1.0711 -0.2828
 4168SOL    HW124140   1.559   3.027   3.728  0.0818 -0.8150  0.1542
 4168SOL    HW224141   1.520   3.159   3.691 -0.7471 -0.2817  0.5961
 4169SOL     OW24142   4.084   3.208   1.797  0.2847 -0.0998  0.1794
 4169SOL    HW124143   4.085   3.298   1.764 -0.7630  0.0492  0.5567
 4169SOL    HW224144   4.006   3.169   1.757 -0.2046  1.4717 -0.4097
 4170SOL     OW24145   0.593   3.415   7.656 -0.8529 -0.4114  1.0603
 4170SOL    HW124146   0.666   3.446   7.603 -1.4086  1.4394  1.3523
 4170SOL    HW224147   0.590   3.331   7.610 -1.4135  0.2069 -0.0212
 4171SOL     OW24148   1.049   2.623   7.227 -0.1584  0.0823 -0.4586
 4171SOL    HW124149   1.100   2.605   7.148 -1.2926 -1.5040 -0.8155
 4171SOL    HW224150   1.026   2.535   7.258 -1.2810  0.9692  1.2238
 4172SOL     OW24151   1.759   3.961   0.790 -0.1486 -0.0341 -0.2534
 4172SOL    HW124152   1.763   3.874   0.829 -1.4194 -0.5127 -1.2208
 4172SOL    HW224153   1.740   3.946   0.698  2.6518 -1.2418 -0.6560
 4173SOL     OW24154   1.840   1.913   2.263 -0.4193 -0.3149  0.3572
 4173SOL    HW124155   1.870   1.936   2.175  2.5220 -1.1083  1.1520
 4173SOL    HW224156   1.908   1.854   2.297  1.7482  3.4569  2.6368
 4174SOL     OW24157   1.853   0.590   3.091  0.1489 -0.6271 -0.0069
 4174SOL    HW124158   1.854   0.657   3.022 -0.9083 -3.1065 -2.4202
 4174SOL    HW224159   1.883   0.649   3.161  0.9288 -1.6985  0.5633
 4175SOL     OW24160   0.568   0.018   6.428  0.0974  0.4549  0.6633
 4175SOL    HW124161   0.562   0.114   6.424 -0.5819  0.4737  2.0961
 4175SOL    HW224162   0.662   0.001   6.425  0.2995  2.0127 -2.0932
 4176SOL     OW24163   1.668   3.447  10.559 -0.1956 -0.4110  0.2595
 4176SOL    HW124164   1.702   3.364  10.525  0.0996 -0.1149 -0.1618
 4176SOL    HW224165   1.577   3.452  10.529 -0.5361 -3.8838  0.6943
 4177SOL     OW24166   2.825   3.800   4.442  0.0166 -0.1874 -0.4386
 4177SOL    HW124167   2.866   3.887   4.445 -1.1608  0.2423  2.7221
 4177SOL    HW224168   2.829   3.782   4.348 -3.7518  1.2030 -0.8658
 4178SOL     OW24169   0.988   2.533   3.117  0.0033  0.5163 -0.2672
 4178SOL    HW124170   1.059   2.469   3.125 -0.0848  0.6698  1.6792
 4178SOL    HW224171   0.986   2.582   3.199 -2.6385 -2.1330  1.2789
 4179SOL     OW24172   2.206   2.319   7.199  0.5577 -1.1388  0.4121
 4179SOL    HW124173   2.277   2.325   7.263  0.7872 -3.6626  0.3884
 4179SOL    HW224174   2.138   2.360   7.253  0.5181 -0.0881 -0.4301
 4180SOL     OW24175   2.467   0.865   4.982  0.0772  0.1182  0.5471
 4180SOL    HW124176   2.486   0.957   4.997 -0.2762  0.0150  1.6769
 4180SOL    HW224177   2.372   0.865   4.966  0.0652  0.6135  0.6268
 4181SOL     OW24178   1.738   2.497   9.297  0.2476 -0.2598  0.0186
 4181SOL    HW124179   1.676   2.570   9.288  2.0903  1.2266 -0.5136
 4181SOL    HW224180   1.684   2.442   9.354 -0.3930 -0.1433 -0.4663
 4182SOL     OW24181   2.736   2.034   5.142  0.3147 -0.4866  0.0246
 4182SOL    HW124182   2.783   2.059   5.221 -0.3126  0.1042  0.2159
 4182SOL    HW224183   2.800   2.053   5.073  2.1825 -0.8239  1.6837
 4183SOL     OW24184   4.372   4.312  16.045 -0.2139 -0.0162  0.3825
 4183SOL    HW124185   4.300   4.259  16.080 -1.4181  1.0403 -0.4880
 4183SOL    HW224186   4.357   4.294  15.952 -0.5872 -1.3651  0.7025
 4184SOL     OW24187   3.054   3.418   7.864 -0.3472  0.8835  0.3200
 4184SOL    HW124188   2.977   3.415   7.808 -2.0381 -0.7282  2.7192
 4184SOL    HW224189   3.065   3.513   7.870 -1.0049  1.0894 -1.7043
 4185SOL     OW24190   4.429   1.419   6.466  0.3385  0.1450  0.2094
 4185SOL    HW124191   4.338   1.400   6.487  1.6800 -1.9248  4.1830
 4185SOL    HW224192   4.427   1.419   6.370 -3.0101 -0.1604  0.2642
 4186SOL     OW24193   1.537   1.344   6.304  0.0601  0.5049  0.0816
 4186SOL    HW124194   1.480   1.396   6.361 -0.4577 -0.1826  0.1851
 4186SOL    HW224195   1.519   1.370   6.214 -1.4894 -2.0928 -0.3610
 4187SOL     OW24196   2.319   3.981   5.780  0.6765  0.0289  0.1441
 4187SOL    HW124197   2.288   4.005   5.693  2.7281  1.2000 -0.2528
 4187SOL    HW224198   2.358   4.065   5.805 -1.3321  0.9702  0.1541
 4188SOL     OW24199   1.618   1.686   9.219  0.5227  0.3990  0.1823
 4188SOL    HW124200   1.567   1.764   9.237 -2.7317 -1.3766 -1.3200
 4188SOL    HW224201   1.587   1.624   9.286  2.0613 -0.5503  0.0192
 4189SOL     OW24202   3.711   1.750   3.799  0.7459  0.1965 -0.7294
 4189SOL    HW124203   3.686   1.790   3.882 -0.3822 -2.7043  0.3581
 4189SOL    HW224204   3.674   1.662   3.811  0.2249  0.5786  0.4287
 4190SOL     OW24205   2.140   0.311  10.765  0.0695  0.5895 -0.0274
 4190SOL    HW124206   2.183   0.235  10.727 -2.4236 -0.7530 -0.1740
 4190SOL    HW224207   2.168   0.314  10.856 -0.5467 -0.3457  0.1995
 4191SOL     OW24208   4.031   3.775   4.804 -0.3971 -0.3226  0.5567
 4191SOL    HW124209   4.090   3.819   4.743 -1.4497  0.5296  0.1561
 4191SOL    HW224210   4.089   3.752   4.877  0.4203  0.2173  0.0744
 4192SOL     OW24211   1.353   2.843   1.515  0.3810  0.2709  0.8522
 4192SOL    HW124212   1.369   2.768   1.458  1.3649  2.0036 -1.1318
 4192SOL    HW224213   1.439   2.880   1.495 -0.0771  0.7116 -0.2332
 4193SOL     OW24214   3.894   3.570   3.400 -0.2117 -0.0666  0.0470
 4193SOL    HW124215   3.907   3.657   3.437 -3.1177 -0.5490  2.1648
 4193SOL    HW224216   3.800   3.563   3.413 -0.2703  0.7681  0.0475
 4194SOL     OW24217   0.944   2.326   5.712  0.4160 -0.1959 -0.4712
 4194SOL    HW124218   1.017   2.272   5.682 -1.0424 -0.9204 -2.6967
 4194SOL    HW224219   0.871   2.274   5.678 -0.2120  0.5873 -0.3129
 4195SOL     OW24220   2.696   1.363   9.174 -0.0250  0.0126 -0.0430
 4195SOL    HW124221   2.655   1.396   9.254  0.1431 -0.0703  0.0757
 4195SOL    HW224222   2.636   1.294   9.146 -0.3728 -0.3123  1.4962
 4196SOL     OW24223   2.871   3.552   9.123 -0.1533 -0.6431 -0.1006
 4196SOL    HW124224   2.809   3.621   9.099  0.9705  0.2704 -0.3879
 4196SOL    HW224225   2.813   3.488   9.163  0.6456 -0.9554  0.5424
 4197SOL     OW24226   2.421   0.666   8.792 -0.4394  0.1335 -0.0368
 4197SOL    HW124227   2.420   0.570   8.785  1.7418  0.0543  0.4246
 4197SOL    HW224228   2.351   0.695   8.735 -0.6031 -0.3624 -0.0871
 4198SOL     OW24229   1.034   0.199  14.078 -0.6398  0.3986  0.3971
 4198SOL    HW124230   1.009   0.291  14.083  0.4797  0.7442 -0.3705
 4198SOL    HW224231   1.130   0.203  14.077 -0.6529  0.6904  0.4760
 4199SOL     OW24232   4.088   0.072  14.758 -0.6327  0.3366 -0.1910
 4199SOL    HW124233   4.084   0.033  14.670  0.3392  1.3304 -0.6859
 4199SOL    HW224234   4.183   0.087  14.763 -0.8679  0.3759  3.9363
 4200SOL     OW24235   2.399   2.688   9.030  0.1337 -0.2379  0.1501
 4200SOL    HW124236   2.372   2.765   8.979 -0.4020 -0.0106  0.7888
 4200SOL    HW224237   2.490   2.677   9.002  0.3675 -1.2890  1.3540
 4201SOL     OW24238   0.545   2.538  14.969 -0.9485 -0.0070 -0.2849
 4201SOL    HW124239   0.560   2.468  14.906  1.2194  1.2090 -1.1197
 4201SOL    HW224240   0.634   2.570  14.980 -0.6382 -0.8648 -0.3239
 4202SOL     OW24241   3.723   1.125   2.115  0.4284  0.3775 -0.3491
 4202SOL    HW124242   3.739   1.057   2.180 -0.0631 -1.5814 -2.2733
 4202SOL    HW224243   3.629   1.110   2.100  0.9611 -1.2086 -2.1350
 4203SOL     OW24244   2.540   1.367   8.213  0.8425  0.6769  0.2027
 4203SOL    HW124245   2.463   1.412   8.248 -2.4768 -2.4114 -3.1338
 4203SOL    HW224246   2.549   1.436   8.146 -0.3927 -0.2360 -0.9104
 4204SOL     OW24247   3.835   2.154   0.190  0.0624  0.1127 -0.2846
 4204SOL    HW124248   3.810   2.072   0.149  1.0112 -0.8902  1.1016
 4204SOL    HW224249   3.784   2.143   0.270 -1.1418  1.8406 -0.8081
 4205SOL     OW24250   2.340   1.818   7.861  0.0452 -0.5300 -0.2398
 4205SOL    HW124251   2.338   1.725   7.883 -1.6241 -0.4406 -0.0250
 4205SOL    HW224252   2.420   1.852   7.902  1.1246 -2.7155 -0.5823
 4206SOL     OW24253   4.234   4.420   7.268  0.2584 -1.1140  0.4245
 4206SOL    HW124254   4.312   4.404   7.216  0.2012 -0.6550  0.1998
 4206SOL    HW224255   4.267   4.486   7.329 -1.7208  0.1029  0.1725
 4207SOL     OW24256   4.071   4.740   5.634 -0.3334 -0.1642 -0.0468
 4207SOL    HW124257   4.071   0.058   5.708  1.1357 -1.9307  1.4157
 4207SOL    HW224258   4.131   0.042   5.574 -0.0381 -0.6027 -0.0783
 4208SOL     OW24259   1.986   4.493   7.051 -0.5531 -0.4624  0.0177
 4208SOL    HW124260   1.938   4.546   7.115  0.8430 -0.3497  0.9770
 4208SOL    HW224261   2.071   4.535   7.063  0.0387 -1.2347 -1.4447
 4209SOL     OW24262   2.209   0.081  14.677  0.2043 -0.2932 -0.4911
 4209SOL    HW124263   2.155   0.003  14.690 -0.5390  0.6135  1.8400
 4209SOL    HW224264   2.168   0.116  14.598  3.2085  1.1024 -1.4317
 4210SOL     OW24265   3.384   3.604   3.569 -0.4186  0.5733 -0.3981
 4210SOL    HW124266   3.320   3.669   3.542 -1.6105 -0.2237  0.4597
 4210SOL    HW224267   3.340   3.544   3.630 -0.4286 -0.5448 -1.5120
 4211SOL     OW24268   3.854   0.086  11.298  0.4759  0.0601  0.5244
 4211SOL    HW124269   3.936   0.065  11.344  2.0003 -1.1684 -2.7437
 4211SOL    HW224270   3.857   0.017  11.232  0.2446  1.0633 -0.5240
 4212SOL     OW24271   3.728   1.904   0.114 -0.1975 -0.1902 -0.2497
 4212SOL    HW124272   3.654   1.911   0.054 -0.6937  0.9101  0.4878
 4212SOL    HW224273   3.797   1.886   0.050 -2.0377  0.0213 -2.2774
 4213SOL     OW24274   2.084   2.235  11.833 -0.6586  0.2264 -0.3013
 4213SOL    HW124275   2.108   2.149  11.800 -1.3135  0.5714 -1.6881
 4213SOL    HW224276   2.166   2.280  11.852 -0.2185  0.3312 -2.4209
 4214SOL     OW24277   0.978   3.542   8.828  0.3101  0.3998  0.5411
 4214SOL    HW124278   0.924   3.487   8.884  1.9081  0.1022  1.7864
 4214SOL    HW224279   1.061   3.545   8.876  1.2075 -0.3339 -0.9643
 4215SOL     OW24280   1.514   1.456   4.332 -0.3192 -0.3510 -0.0337
 4215SOL    HW124281   1.437   1.506   4.303 -1.7809 -1.8275  1.3251
 4215SOL    HW224282   1.544   1.411   4.253  3.1880 -0.3028  1.2745
 4216SOL     OW24283   4.053   1.401   8.231 -0.1819 -0.3494  0.4010
 4216SOL    HW124284   4.087   1.476   8.181  1.1978 -0.5217  1.1057
 4216SOL    HW224285   4.059   1.335   8.162  0.4395 -1.8350  1.8774
 4217SOL     OW24286   0.721   4.601   9.252 -0.0766 -0.6562 -0.0600
 4217SOL    HW124287   0.640   4.649   9.271 -0.9899 -2.9349  1.9100
 4217SOL    HW224288   0.689   4.511   9.258  1.4265 -1.1650  0.3047
 4218SOL     OW24289   0.177   0.513  12.741 -0.1265 -0.4441 -0.0380
 4218SOL    HW124290   0.191   0.482  12.831  2.4504  0.7157 -0.0353
 4218SOL    HW224291   0.229   0.449  12.691 -0.6709  0.3963 -1.6625
 4219SOL     OW24292   1.114   1.548   7.789 -1.0812 -0.5976 -0.1618
 4219SOL    HW124293   1.158   1.514   7.711 -0.1783  1.8478 -0.7182
 4219SOL    HW224294   1.152   1.493   7.857  0.5792  0.8718  0.0909
 4220SOL     OW24295   1.147   4.143   7.247 -0.4963 -0.1842 -0.6133
 4220SOL    HW124296   1.077   4.094   7.203 -1.0464  0.1832 -0.1405
 4220SOL    HW224297   1.140   4.126   7.341 -0.6345 -1.9661 -0.9491
 4221SOL     OW24298   1.739   2.997   4.150  0.0840  0.0563  0.3117
 4221SOL    HW124299   1.831   2.981   4.127  0.8693  2.0794  2.0299
 4221SOL    HW224300   1.748   3.020   4.243  0.7056  0.3282  0.1823
 4222SOL     OW24301   3.253   2.810   2.368  1.2652  0.6029  0.5796
 4222SOL    HW124302   3.249   2.805   2.464 -0.4149 -0.5248  0.4407
 4222SOL    HW224303   3.300   2.730   2.343 -0.1570 -0.4848  1.4021
 4223SOL     OW24304   2.068   4.223  10.693  0.2504  0.0729  0.3259
 4223SOL    HW124305   2.119   4.186  10.765  3.6342  1.2720 -1.4350
 4223SOL    HW224306   2.066   4.148  10.634 -0.4888  0.8651 -0.6612
 4224SOL     OW24307   0.652   3.796   8.565  0.4041 -0.4359  0.0019
 4224SOL    HW124308   0.744   3.788   8.590  0.1364 -2.0853  0.4518
 4224SOL    HW224309   0.653   3.891   8.553 -1.3388 -0.2751  1.1478
 4225SOL     OW24310   0.474   0.381   4.185 -0.3561 -0.6741 -0.3564
 4225SOL    HW124311   0.392   0.406   4.144 -0.3736  1.3477  0.8648
 4225SOL    HW224312   0.471   0.441   4.260  0.4264 -1.4396  0.2826
 4226SOL     OW24313   0.858   4.509   0.122  0.1851 -0.1990 -0.0404
 4226SOL    HW124314   0.848   4.572   0.193 -0.3749 -1.9568  1.4296
 4226SOL    HW224315   0.932   4.457   0.152 -0.1262 -0.8574 -0.4215
 4227SOL     OW24316   1.207   1.546   4.693 -0.0912  0.0674 -0.0559
 4227SOL    HW124317   1.155   1.626   4.698  1.3675  0.8715  2.0401
 4227SOL    HW224318   1.295   1.569   4.664 -0.5934 -0.0101 -1.6765
 4228SOL     OW24319   2.144   3.717  15.794 -0.0075 -0.3264  0.1800
 4228SOL    HW124320   2.127   3.633  15.838 -0.7371 -1.0061 -1.4104
 4228SOL    HW224321   2.230   3.700  15.756  0.0731 -0.0821  0.2567
 4229SOL     OW24322   4.444   2.546   4.335 -0.1418  0.3819  0.1368
 4229SOL    HW124323   4.424   2.461   4.374 -2.2002  1.0913  0.6143
 4229SOL    HW224324   4.355   2.577   4.322 -0.4516 -1.3024 -1.8243
 4230SOL     OW24325   2.410   3.377   6.128 -0.0055  0.8736  0.2826
 4230SOL    HW124326   2.455   3.295   6.107 -2.6955 -0.9151  1.3606
 4230SOL    HW224327   2.447   3.404   6.212 -2.2156  0.1637  1.4935
 4231SOL     OW24328   4.287   4.104   9.046 -0.4379 -0.7481 -0.0213
 4231SOL    HW124329   4.340   4.066   9.117  1.8744  1.0220 -0.7959
 4231SOL    HW224330   4.199   4.081   9.074  0.0715 -0.2374  2.0383
 4232SOL     OW24331   2.422   4.142  11.313  0.0359  0.0361  0.9528
 4232SOL    HW124332   2.339   4.105  11.342 -0.4166  1.1271  1.0686
 4232SOL    HW224333   2.392   4.212  11.255  0.0045  1.3747  2.5509
 4233SOL     OW24334   1.157   0.198   1.547 -0.6663 -0.4304 -0.2615
 4233SOL    HW124335   1.155   0.166   1.637  2.6864 -1.0146 -0.3609
 4233SOL    HW224336   1.175   0.113   1.505 -0.9531 -0.0578 -1.1416
 4234SOL     OW24337   3.254   4.639  17.711  0.0368 -0.1992 -0.2462
 4234SOL    HW124338   3.227   4.552  17.740  0.4683 -0.0030  0.7447
 4234SOL    HW224339   3.307   4.624  17.632 -0.9202 -2.0656 -0.5346
 4235SOL     OW24340   0.264   0.277   1.577 -0.4390 -0.1652  0.2517
 4235SOL    HW124341   0.179   0.305   1.542  0.8678 -0.2276 -3.0371
 4235SOL    HW224342   0.322   0.281   1.501 -0.6510  1.6295  0.1863
 4236SOL     OW24343   1.893   1.150   6.295 -0.2972 -0.1940  0.5876
 4236SOL    HW124344   1.849   1.200   6.364  2.7507  1.2227  1.5022
 4236SOL    HW224345   1.961   1.209   6.263  0.5167 -1.7680 -0.5839
 4237SOL     OW24346   2.994   0.968  17.521  0.4631 -0.0290  0.0360
 4237SOL    HW124347   3.021   1.035  17.584  2.3993 -0.5584 -0.2458
 4237SOL    HW224348   2.907   0.942  17.551  1.5042 -1.4612  1.7613
 4238SOL     OW24349   3.184   1.473  15.098  0.2835 -0.3222  0.0792
 4238SOL    HW124350   3.159   1.546  15.042 -1.5318 -1.7095 -0.9126
 4238SOL    HW224351   3.142   1.402  15.049  1.8232 -1.5602  0.5458
 4239SOL     OW24352   2.132   4.353   2.706 -0.1881  0.9724 -0.1437
 4239SOL    HW124353   2.054   4.319   2.750 -0.2299  0.8270 -0.3279
 4239SOL    HW224354   2.146   4.297   2.630  1.1313  1.0305  0.0552
 4240SOL     OW24355   1.511   1.189   7.914 -0.2749 -0.3190 -0.1368
 4240SOL    HW124356   1.534   1.108   7.960 -1.9599 -0.2090  0.8760
 4240SOL    HW224357   1.550   1.160   7.831 -1.2541 -0.0233 -0.6917
 4241SOL     OW24358   4.422   0.043   2.245  0.0779  0.4588  0.3275
 4241SOL    HW124359   4.429   0.046   2.149  0.0470 -1.6504  0.2732
 4241SOL    HW224360   4.514   0.065   2.264  1.2193 -2.2878 -2.0150
 4242SOL     OW24361   4.567   1.996   7.552 -0.4581  0.2574 -0.1804
 4242SOL    HW124362   4.544   2.069   7.609  0.7888  1.5395 -1.3146
 4242SOL    HW224363   4.482   1.958   7.531 -0.6423  0.9834 -0.7372
 4243SOL     OW24364   4.107   3.597  11.192 -0.2332 -0.3118  0.1333
 4243SOL    HW124365   4.051   3.656  11.242  0.9503  0.9077  0.0340
 4243SOL    HW224366   4.190   3.629  11.228  0.6649 -2.3677 -0.1435
 4244SOL     OW24367   4.679   1.543   4.294  0.3992  0.1586 -0.1897
 4244SOL    HW124368   0.026   1.511   4.299  0.6843  1.6037  4.0089
 4244SOL    HW224369   4.667   1.580   4.381 -1.5659  1.0144 -0.8233
 4245SOL     OW24370   2.720   3.650   5.010  0.1380 -0.1692  0.2266
 4245SOL    HW124371   2.632   3.620   5.034 -0.5777  1.4087 -0.3509
 4245SOL    HW224372   2.729   3.736   5.051 -2.7083  0.3887 -0.2888
 4246SOL     OW24373   1.371   3.031   5.077  0.1617  0.3655  0.5585
 4246SOL    HW124374   1.395   2.939   5.068 -0.5865  0.1284  0.9182
 4246SOL    HW224375   1.435   3.074   5.022 -0.0284 -0.0110  0.0404
 4247SOL     OW24376   0.648   3.398  15.491  0.1463 -0.3749 -0.0448
 4247SOL    HW124377   0.730   3.442  15.469  0.8548 -2.5438 -1.8468
 4247SOL    HW224378   0.671   3.305  15.494  1.5885 -0.0135 -0.0648
 4248SOL     OW24379   2.514   2.776   4.537 -0.7492 -0.7041  0.2168
 4248SOL    HW124380   2.435   2.826   4.557  1.0917  2.3483 -0.0283
 4248SOL    HW224381   2.577   2.840   4.501  0.6186 -0.7939  2.4510
 4249SOL     OW24382   2.160   0.913   6.525 -0.4260 -0.1592  0.5516
 4249SOL    HW124383   2.174   0.818   6.517  0.9873 -0.1306  2.7039
 4249SOL    HW224384   2.069   0.906   6.497 -0.4235  1.9004  0.0840
 4250SOL     OW24385   1.981   4.703   5.217  0.2325  0.3691 -0.2249
 4250SOL    HW124386   1.906   4.659   5.256 -0.6932 -1.3950 -3.9441
 4250SOL    HW224387   1.943   0.003   5.141 -1.2372 -0.8187 -0.1542
 4251SOL     OW24388   2.454   1.881   8.614  0.4224  0.3891 -0.5262
 4251SOL    HW124389   2.429   1.953   8.673  3.1201 -0.1132  1.1864
 4251SOL    HW224390   2.453   1.815   8.684 -1.2496  1.1600  0.1866
 4252SOL     OW24391   3.400   2.627   4.698  0.5569 -0.1384 -0.0843
 4252SOL    HW124392   3.345   2.557   4.734  0.0893  0.8280  1.0675
 4252SOL    HW224393   3.348   2.703   4.726 -0.2801 -1.0432  0.8596
 4253SOL     OW24394   2.245   1.336   3.545 -0.0861  0.2314 -0.0810
 4253SOL    HW124395   2.210   1.272   3.484  1.2150 -0.5587 -0.0073
 4253SOL    HW224396   2.181   1.407   3.546 -1.0433 -0.6411  0.0056
 4254SOL     OW24397   3.473   3.216   8.776  0.0694 -0.1874 -0.5883
 4254SOL    HW124398   3.483   3.133   8.824  1.4976  0.3962  0.1096
 4254SOL    HW224399   3.536   3.216   8.704 -0.0359 -0.7447 -0.6847
 4255SOL     OW24400   2.934   3.087   2.481 -0.1818 -0.2922 -0.0486
 4255SOL    HW124401   2.970   3.001   2.502  1.2705  0.0629 -0.9924
 4255SOL    HW224402   2.864   3.054   2.425  0.3718  2.1082 -2.1538
 4256SOL     OW24403   2.298   4.452  13.592  0.4784 -0.3856  0.4747
 4256SOL    HW124404   2.336   4.538  13.575 -0.8692  0.2358  0.5915
 4256SOL    HW224405   2.358   4.381  13.572 -2.5919 -2.9941  0.6039
 4257SOL     OW24406   3.064   2.053  15.857  0.2346  0.7537 -0.3251
 4257SOL    HW124407   3.058   2.052  15.761 -1.9620 -3.8179 -0.1164
 4257SOL    HW224408   2.978   2.089  15.882 -0.5002 -0.2878 -1.3771
 4258SOL     OW24409   3.687   3.986   6.365 -0.4011 -0.6264  0.0458
 4258SOL    HW124410   3.769   4.035   6.363 -0.1576 -1.1305 -2.2513
 4258SOL    HW224411   3.636   4.012   6.289  2.9628  2.7369 -1.0916
 4259SOL     OW24412   2.291   1.472   7.221  0.3215 -0.0228 -0.2591
 4259SOL    HW124413   2.276   1.378   7.214  3.2440 -0.4357 -0.7987
 4259SOL    HW224414   2.203   1.499   7.249  1.0469  1.5417  0.5313
 4260SOL     OW24415   3.338   2.022  15.912 -0.0508 -0.6830 -0.3488
 4260SOL    HW124416   3.352   1.949  15.971 -0.0770  1.8529  2.7796
 4260SOL    HW224417   3.242   2.030  15.907  0.0712  1.6037  1.1552
 4261SOL     OW24418   0.636   3.641   5.978  0.1085  0.6865 -0.3906
 4261SOL    HW124419   0.695   3.590   6.033 -1.2823  0.1829  0.6272
 4261SOL    HW224420   0.553   3.610   6.013  0.5645 -0.2305 -0.1040
 4262SOL     OW24421   2.726   4.244   6.657  0.3401 -0.1624  0.3898
 4262SOL    HW124422   2.696   4.164   6.700  0.5483 -0.2755  0.3270
 4262SOL    HW224423   2.804   4.204   6.618  0.5481  2.1128 -1.4993
 4263SOL     OW24424   2.329   1.966   2.862 -0.1835 -0.2688  0.3664
 4263SOL    HW124425   2.335   2.058   2.836  1.8516  0.0727  2.0050
 4263SOL    HW224426   2.249   1.944   2.815 -0.3401  2.2818 -0.5571
 4264SOL     OW24427   0.405   0.042   5.693 -0.4361  0.1223  0.6164
 4264SOL    HW124428   0.435   0.064   5.605  0.9434  0.7926  1.2517
 4264SOL    HW224429   0.468   0.081   5.754  0.7184 -0.0663 -0.4515
 4265SOL     OW24430   3.229   3.788   2.538  0.3848  0.2428 -0.2624
 4265SOL    HW124431   3.171   3.748   2.473 -0.4789  0.4492  0.3917
 4265SOL    HW224432   3.192   3.876   2.532 -2.1994 -0.8365 -0.3182
 4266SOL     OW24433   4.188   2.766   1.886 -0.2581  0.3631 -0.3475
 4266SOL    HW124434   4.168   2.736   1.975 -4.3666  0.4464 -1.2547
 4266SOL    HW224435   4.212   2.858   1.897 -1.2538  0.2539  2.7001
 4267SOL     OW24436   0.519   2.076   9.713 -0.4158 -0.4058 -0.1053
 4267SOL    HW124437   0.595   2.132   9.727  0.3417 -1.2725 -0.7037
 4267SOL    HW224438   0.542   2.002   9.657  3.0131  0.9195 -0.3900
 4268SOL     OW24439   3.773   2.895   0.189  0.4391 -0.0712  0.0657
 4268SOL    HW124440   3.743   2.983   0.167 -3.4845 -1.7426 -1.2592
 4268SOL    HW224441   3.845   2.905   0.251 -0.3654 -1.3449  1.1905
 4269SOL     OW24442   2.402   3.156   1.643  0.3976 -0.3464  0.2175
 4269SOL    HW124443   2.418   3.247   1.618 -1.6413 -0.5217 -1.6458
 4269SOL    HW224444   2.399   3.108   1.560 -2.1598  3.3532 -1.8145
 4270SOL     OW24445   0.161   2.521   5.523 -0.0032  0.0725  0.0194
 4270SOL    HW124446   0.230   2.482   5.470 -2.1683 -2.2718 -1.0897
 4270SOL    HW224447   0.105   2.443   5.522 -0.3202  0.2989  0.0807
 4271SOL     OW24448   0.385   2.286   2.951 -0.1152 -0.0348  0.0667
 4271SOL    HW124449   0.291   2.295   2.938  0.0012  0.5003 -0.3834
 4271SOL    HW224450   0.400   2.224   2.879 -0.3863 -0.4795  0.3921
 4272SOL     OW24451   1.931   3.482   3.633  0.1589  0.2228 -0.0330
 4272SOL    HW124452   1.878   3.492   3.554 -0.3381 -2.1734 -0.0054
 4272SOL    HW224453   1.899   3.558   3.682 -2.2559 -1.3789  0.8381
 4273SOL     OW24454   4.276   4.723  17.480 -0.4007 -0.1806  0.2178
 4273SOL    HW124455   4.221   0.057  17.499 -1.2496  0.0027 -2.9955
 4273SOL    HW224456   4.277   4.682  17.567 -0.4411 -2.4420 -0.8555
 4274SOL     OW24457   2.975   2.165   3.502  0.8482 -0.0717  0.4367
 4274SOL    HW124458   3.047   2.213   3.542  1.6461  0.5322 -1.7194
 4274SOL    HW224459   2.902   2.223   3.524  1.9522  0.8061  1.8113
 4275SOL     OW24460   1.256   0.931   6.243 -0.1231  0.0362  0.6787
 4275SOL    HW124461   1.341   0.902   6.277  0.1188 -2.3739 -1.9486
 4275SOL    HW224462   1.223   0.971   6.324  0.8816  0.2781  0.9656
 4276SOL     OW24463   4.078   3.110   7.516  0.1094  0.3267  0.3938
 4276SOL    HW124464   4.012   3.122   7.448 -1.1700 -0.7854  1.4318
 4276SOL    HW224465   4.030   3.049   7.572 -1.4239  0.6801 -0.5435
 4277SOL     OW24466   4.381   1.069   5.413 -0.1557  0.4216  0.3157
 4277SOL    HW124467   4.319   1.014   5.459  0.5677  0.8603  1.8182
 4277SOL    HW224468   4.465   1.025   5.426 -0.6870 -0.6134  0.1773
 4278SOL     OW24469   4.639   2.668   8.523  0.4339 -0.0780 -0.3190
 4278SOL    HW124470   4.626   2.658   8.617  0.1802  0.2111 -0.3257
 4278SOL    HW224471   4.735   2.660   8.516  0.5938  1.3914  0.2743
 4279SOL     OW24472   1.336   4.705   3.427 -0.0406  0.3101 -0.6030
 4279SOL    HW124473   1.279   4.688   3.352 -0.9865 -2.1579  0.6864
 4279SOL    HW224474   1.273   4.683   3.496  2.1056 -1.5960  0.7341
 4280SOL     OW24475   1.053   3.559  13.625 -0.0764 -0.0152 -0.7155
 4280SOL    HW124476   1.122   3.624  13.614 -0.6385  0.6650 -0.2280
 4280SOL    HW224477   1.104   3.478  13.624 -1.3068 -0.8035  1.1001
 4281SOL     OW24478   1.728   1.044   8.037  0.2888  0.3706 -0.4111
 4281SOL    HW124479   1.819   1.038   8.068  0.0280  1.1542  0.5211
 4281SOL    HW224480   1.708   0.953   8.020  0.2905  0.2324  0.3029
 4282SOL     OW24481   4.532   1.580   1.110 -0.0525  0.0740  0.5411
 4282SOL    HW124482   4.484   1.624   1.039 -1.6140 -1.4730  0.6361
 4282SOL    HW224483   4.608   1.639   1.115  1.1381 -1.4072 -0.3240
 4283SOL     OW24484   4.425   1.770  15.328  0.3159 -0.4266  0.2276
 4283SOL    HW124485   4.502   1.822  15.351 -0.3589  0.6218  0.1319
 4283SOL    HW224486   4.377   1.845  15.291 -0.1975 -1.0516 -0.3614
 4284SOL     OW24487   0.370   2.829   6.051  0.4360  0.0594 -0.1769
 4284SOL    HW124488   0.371   2.854   6.143 -0.5585 -0.9328  0.1052
 4284SOL    HW224489   0.276   2.825   6.033 -0.0058  3.5920  1.3576
 4285SOL     OW24490   1.347   0.849  12.917 -0.4429  0.6657 -0.2216
 4285SOL    HW124491   1.409   0.792  12.870 -0.2998 -1.2819  2.3272
 4285SOL    HW224492   1.379   0.935  12.889  0.5730  0.1049 -0.7996
 4286SOL     OW24493   2.357   0.495   2.851  0.0175  0.5251 -0.4996
 4286SOL    HW124494   2.358   0.533   2.763  2.2763  2.7281  0.4587
 4286SOL    HW224495   2.329   0.405   2.837 -1.5334  1.0155 -0.5343
 4287SOL     OW24496   0.565   0.372   0.460  0.1969  0.1217  0.1949
 4287SOL    HW124497   0.562   0.289   0.413 -1.0295 -0.5164  1.4354
 4287SOL    HW224498   0.473   0.379   0.485  0.1208  0.3196 -0.1305
 4288SOL     OW24499   2.135   2.586   1.406 -0.2140 -0.0463  0.2714
 4288SOL    HW124500   2.213   2.541   1.372 -0.2024  1.4323 -1.6220
 4288SOL    HW224501   2.061   2.566   1.350 -0.5307  0.7679  0.4030
 4289SOL     OW24502   4.599   0.583   5.594 -0.0204  0.1360 -0.3797
 4289SOL    HW124503   4.551   0.543   5.667  2.8249  2.2074  2.6423
 4289SOL    HW224504   4.523   0.614   5.545  0.5870  0.8428 -0.8762
 4290SOL     OW24505   2.391   2.998  13.905  0.5562 -0.6983 -0.6736
 4290SOL    HW124506   2.390   2.919  13.960  2.2199  1.3709  2.3855
 4290SOL    HW224507   2.299   2.995  13.881  1.1493 -0.7341 -2.9053
 4291SOL     OW24508   2.776   1.586   2.758 -0.0973 -0.0181 -0.4423
 4291SOL    HW124509   2.696   1.536   2.771  0.6596 -0.9550  0.5914
 4291SOL    HW224510   2.842   1.521   2.783 -0.2755 -0.4023 -0.9808
 4292SOL     OW24511   2.060   3.288   4.263  0.0920  0.5062  0.7309
 4292SOL    HW124512   2.030   3.378   4.276  0.0628  1.0349 -2.7603
 4292SOL    HW224513   2.014   3.264   4.183  1.4177  1.2803 -0.2762
 4293SOL     OW24514   0.367   1.029   2.722  0.0988 -0.7400  0.1142
 4293SOL    HW124515   0.432   1.041   2.652 -1.2133 -1.5005 -1.2417
 4293SOL    HW224516   0.373   0.933   2.728 -0.1463 -0.8679 -1.6160
 4294SOL     OW24517   2.484   3.813   6.001  0.4237  0.3753  0.3103
 4294SOL    HW124518   2.480   3.908   6.004 -2.4532  0.2935 -0.9481
 4294SOL    HW224519   2.545   3.794   5.930  1.4189 -1.5583  1.6676
 4295SOL     OW24520   1.142   3.631   2.670 -0.0673 -0.0358  0.4325
 4295SOL    HW124521   1.117   3.597   2.584 -0.9017 -1.0648  1.0867
 4295SOL    HW224522   1.072   3.696   2.685 -1.1183 -0.9164 -0.6346
 4296SOL     OW24523   2.548   1.854   8.079 -0.0636  0.1370  0.1769
 4296SOL    HW124524   2.621   1.899   8.037 -1.3839  2.3486  0.2441
 4296SOL    HW224525   2.538   1.908   8.158  1.5609  2.6943 -1.3683
 4297SOL     OW24526   2.424   2.125   6.398 -0.0596  0.6056  0.4627
 4297SOL    HW124527   2.509   2.148   6.435 -0.5098  1.2334  1.1061
 4297SOL    HW224528   2.452   2.096   6.312 -1.2191 -0.3787  0.4136
 4298SOL     OW24529   3.532   2.619  15.941  0.0524  0.0518  0.0600
 4298SOL    HW124530   3.521   2.691  16.003  0.4502  0.0114  0.1777
 4298SOL    HW224531   3.599   2.571  15.990 -1.2554 -0.7603  1.0480
 4299SOL     OW24532   3.673   4.342  14.108  0.0004 -0.0077  0.2635
 4299SOL    HW124533   3.598   4.348  14.050  0.4133 -1.2735 -0.3947
 4299SOL    HW224534   3.678   4.436  14.127 -2.0672  0.2165 -0.3124
 4300SOL     OW24535   0.884   2.365  16.461 -0.0397  0.2661  0.4946
 4300SOL    HW124536   0.822   2.396  16.395 -1.2030 -2.2271  0.3854
 4300SOL    HW224537   0.921   2.445  16.498 -1.7626  1.9948 -1.5721
 4301SOL     OW24538   2.462   3.024   3.929 -0.0906 -0.0724 -0.3088
 4301SOL    HW124539   2.538   3.019   3.988 -1.2713  1.0264  1.2929
 4301SOL    HW224540   2.480   3.090   3.862  1.3940 -0.3623 -0.1936
 4302SOL     OW24541   0.698   2.170   6.413 -0.4342  0.2429 -0.2210
 4302SOL    HW124542   0.648   2.240   6.372 -0.2018 -0.7454 -2.2045
 4302SOL    HW224543   0.694   2.212   6.499 -0.4701 -0.9788  0.3729
 4303SOL     OW24544   1.630   2.323  17.080 -0.1791 -0.3304  1.0114
 4303SOL    HW124545   1.597   2.247  17.129 -2.1310 -0.9346 -1.2256
 4303SOL    HW224546   1.549   2.369  17.057 -0.5105 -0.6052  1.6247
 4304SOL     OW24547   0.553   1.971   7.606 -0.0178 -0.3675  0.2491
 4304SOL    HW124548   0.526   2.040   7.667  0.1041 -0.4267  0.3692
 4304SOL    HW224549   0.514   1.895   7.649  0.1872 -1.3355 -1.2973
 4305SOL     OW24550   0.701   3.329   3.125  0.7831 -0.3139  0.1669
 4305SOL    HW124551   0.659   3.258   3.076 -0.8356  2.4983 -2.5296
 4305SOL    HW224552   0.782   3.282   3.142  0.5792 -0.4051  0.8920
 4306SOL     OW24553   3.612   0.260   4.247 -0.7916  0.1571 -0.1978
 4306SOL    HW124554   3.678   0.325   4.226 -0.1999 -0.8172 -1.3689
 4306SOL    HW224555   3.567   0.301   4.321 -0.0223 -0.9047  0.8638
 4307SOL     OW24556   1.272   4.544  16.524 -0.1524  0.3454 -0.0353
 4307SOL    HW124557   1.317   4.627  16.509  1.0224  0.1217  2.3550
 4307SOL    HW224558   1.188   4.563  16.481 -1.3698 -0.3182  2.0497
 4308SOL     OW24559   1.437   4.377   5.929  0.2240  0.1303  0.3102
 4308SOL    HW124560   1.530   4.379   5.908  0.8434  0.1410  3.2025
 4308SOL    HW224561   1.420   4.283   5.937  0.0650  0.1571  0.2986
 4309SOL     OW24562   0.128   0.192   4.357 -0.3017  0.0489  0.0760
 4309SOL    HW124563   0.157   0.266   4.305  1.8887 -0.3197  0.7895
 4309SOL    HW224564   0.097   0.242   4.433  0.4635  1.8131 -0.7746
 4310SOL     OW24565   0.422   2.255   2.500  0.1589  0.0533  0.2618
 4310SOL    HW124566   0.456   2.336   2.461 -2.1639  1.5300  1.2415
 4310SOL    HW224567   0.498   2.249   2.558  0.5202  0.1586 -0.2066
 4311SOL     OW24568   2.778   0.702   9.757 -0.5470 -0.2989  0.8686
 4311SOL    HW124569   2.858   0.692   9.807  0.5337 -1.1812 -1.0035
 4311SOL    HW224570   2.723   0.755   9.814 -3.1457 -2.4801  0.4209
 4312SOL     OW24571   0.390   3.546  16.841 -0.5703  0.4673  0.0415
 4312SOL    HW124572   0.338   3.467  16.829 -0.3128  0.3964 -0.6029
 4312SOL    HW224573   0.460   3.545  16.775  1.3062 -2.5546  2.0952
 4313SOL     OW24574   4.054   4.094   4.577  0.2134 -0.0165 -0.3276
 4313SOL    HW124575   4.112   4.018   4.570 -0.3823 -0.5782  0.7939
 4313SOL    HW224576   4.065   4.135   4.491 -1.0556 -0.4649 -0.7140
 4314SOL     OW24577   0.531   0.416   1.550 -0.7147  0.1533  0.5154
 4314SOL    HW124578   0.554   0.490   1.606 -2.1917 -0.1161  1.4842
 4314SOL    HW224579   0.617   0.391   1.515 -0.6733  1.3997 -0.3013
 4315SOL     OW24580   0.550   3.410   5.692 -0.3027 -0.3814  1.1011
 4315SOL    HW124581   0.472   3.453   5.656 -0.8157 -0.8584  1.6355
 4315SOL    HW224582   0.529   3.392   5.784 -0.4214 -0.4887  1.0522
 4316SOL     OW24583   1.095   0.085   5.899 -0.3283 -0.1978 -0.0583
 4316SOL    HW124584   1.128   0.006   5.857  0.9296  0.3135 -0.0262
 4316SOL    HW224585   1.171   0.104   5.953  0.9366 -1.8533 -1.2537
 4317SOL     OW24586   0.761   2.431   3.429 -0.0346  0.1815  0.3749
 4317SOL    HW124587   0.719   2.446   3.345  1.2522  0.1924 -0.2666
 4317SOL    HW224588   0.841   2.485   3.428 -1.3295  2.0548 -1.1162
 4318SOL     OW24589   0.789   4.688   8.193  0.0548  0.2138  0.3017
 4318SOL    HW124590   0.868   4.726   8.232  0.2915 -1.8209  1.8101
 4318SOL    HW224591   0.780   0.004   8.117 -2.0916 -2.0452 -1.1866
 4319SOL     OW24592   3.596   3.259   5.086 -0.3816  0.5842 -0.1100
 4319SOL    HW124593   3.564   3.175   5.117  0.6182  0.0529 -0.5139
 4319SOL    HW224594   3.689   3.240   5.072 -0.9145 -1.5503 -0.6419
 4320SOL     OW24595   0.658   2.769  15.371 -0.1737 -1.1864  0.4531
 4320SOL    HW124596   0.619   2.804  15.451 -0.6274 -3.0748  1.0801
 4320SOL    HW224597   0.587   2.719  15.329  0.5812 -2.2124  0.3861
 4321SOL     OW24598   1.802   4.032   5.214  0.0059  0.2755 -0.0316
 4321SOL    HW124599   1.780   3.949   5.172 -0.8280  0.4792  0.0130
 4321SOL    HW224600   1.735   4.051   5.280  0.4792  0.9413  0.2627
 4322SOL     OW24601   0.982   3.553  15.254 -0.0655  0.4983  0.5331
 4322SOL    HW124602   1.040   3.587  15.185  0.4409 -1.5633 -0.0493
 4322SOL    HW224603   1.009   3.461  15.248 -0.9758  0.3887 -1.8111
 4323SOL     OW24604   3.006   3.602   5.341 -0.4713  0.4648  0.8468
 4323SOL    HW124605   3.061   3.655   5.283 -1.6039 -0.4227 -1.0093
 4323SOL    HW224606   3.054   3.625   5.421  0.9843  0.3074  0.0302
 4324SOL     OW24607   1.548   1.257   3.196 -0.3290 -0.1011 -0.0841
 4324SOL    HW124608   1.620   1.311   3.229  0.0659 -0.2428 -0.7191
 4324SOL    HW224609   1.601   1.201   3.140  0.1713  0.5052 -0.2091
 4325SOL     OW24610   3.404   1.321   7.438  0.4198 -0.0151 -0.2546
 4325SOL    HW124611   3.444   1.279   7.514  0.7022 -0.0594 -0.4278
 4325SOL    HW224612   3.375   1.243   7.389  0.4768 -1.2230  1.6593
 4326SOL     OW24613   1.161   4.281   3.490 -0.1120  0.0946  0.5313
 4326SOL    HW124614   1.250   4.262   3.459  0.0133  1.4409  0.0615
 4326SOL    HW224615   1.188   4.334   3.564 -0.0790  0.7096  0.0791
 4327SOL     OW24616   4.262   0.698   8.117  0.0126 -0.2474  0.2138
 4327SOL    HW124617   4.213   0.734   8.191  1.9643 -1.9195  2.3337
 4327SOL    HW224618   4.248   0.603   8.116 -0.4451 -0.1555 -1.4678
 4328SOL     OW24619   3.776   4.399   6.839  0.1283 -0.5430 -0.0724
 4328SOL    HW124620   3.858   4.350   6.835 -0.4478 -1.4853 -0.3483
 4328SOL    HW224621   3.769   4.421   6.932  0.5170 -0.0057 -0.1702
 4329SOL     OW24622   1.173   0.099  10.569 -0.0461  0.7873 -0.4407
 4329SOL    HW124623   1.153   0.116  10.477 -1.7137  0.7438 -0.0800
 4329SOL    HW224624   1.120   0.020  10.577  0.1715  0.9052  2.3000
 4330SOL     OW24625   2.872   1.461   6.406  0.3199 -0.1115  0.5632
 4330SOL    HW124626   2.874   1.470   6.501  0.8812  2.0533  0.3556
 4330SOL    HW224627   2.789   1.504   6.387  0.3448  0.4539  1.7658
 4331SOL     OW24628   0.949   0.699   3.995  0.2973 -0.2168 -0.2727
 4331SOL    HW124629   0.877   0.755   4.023 -0.5531 -2.3059  1.7085
 4331SOL    HW224630   1.017   0.728   4.056 -0.1187 -0.6490  0.3986
 4332SOL     OW24631   1.494   4.538  16.145  0.1588  0.0943  0.5028
 4332SOL    HW124632   1.453   4.624  16.159 -1.5123 -0.1457 -2.7750
 4332SOL    HW224633   1.584   4.564  16.126  0.2717 -0.0586  0.8388
 4333SOL     OW24634   4.004   2.199   8.089 -0.1916 -0.4200 -0.2535
 4333SOL    HW124635   3.961   2.267   8.139  0.9289  1.8372 -2.3427
 4333SOL    HW224636   3.950   2.191   8.010  0.9173 -3.3174 -0.7332
 4334SOL     OW24637   4.273   0.166   3.726  0.3622 -0.3225  0.1565
 4334SOL    HW124638   4.351   0.112   3.739  0.0730 -0.6847  0.4022
 4334SOL    HW224639   4.290   0.225   3.799 -0.2523  1.7098 -1.3622
 4335SOL     OW24640   2.165   3.511  15.108 -0.9468  0.0914 -0.6592
 4335SOL    HW124641   2.098   3.521  15.040 -1.1187 -1.9497 -0.7855
 4335SOL    HW224642   2.137   3.579  15.169  1.0769  0.1424  0.1900
 4336SOL     OW24643   0.327   2.356   9.125 -0.7721  0.6249  0.1657
 4336SOL    HW124644   0.254   2.403   9.164  0.6877  1.2817  2.1164
 4336SOL    HW224645   0.383   2.338   9.200  1.1320  0.5144 -1.2654
 4337SOL     OW24646   1.414   2.211   3.180 -0.1283  0.3018 -0.3181
 4337SOL    HW124647   1.480   2.155   3.219 -0.9686 -1.2274 -1.1216
 4337SOL    HW224648   1.333   2.175   3.217  0.2733 -0.9703 -0.7113
 4338SOL     OW24649   1.126   3.995   7.480 -0.2315 -0.2078 -0.7985
 4338SOL    HW124650   1.072   3.921   7.453  2.6957 -2.3693 -0.6302
 4338SOL    HW224651   1.128   3.980   7.574 -2.5215 -0.6773 -0.8153
 4339SOL     OW24652   0.547   3.127   3.005 -0.4439 -0.3695 -0.5723
 4339SOL    HW124653   0.452   3.135   2.993 -0.5117 -0.3415  0.0135
 4339SOL    HW224654   0.583   3.097   2.921 -3.3688 -0.9001 -1.6360
 4340SOL     OW24655   2.627   3.509  15.607 -0.2017  0.2876  0.6361
 4340SOL    HW124656   2.678   3.452  15.665  0.4511 -0.8820 -1.0804
 4340SOL    HW224657   2.591   3.569  15.671 -1.3640 -1.1835  1.3469
 4341SOL     OW24658   4.459   0.207  10.319 -0.5032  0.0219  0.4921
 4341SOL    HW124659   4.420   0.121  10.336 -0.1792 -0.3062 -0.4325
 4341SOL    HW224660   4.383   0.264  10.307 -0.7426  0.1445  2.6746
 4342SOL     OW24661   3.655   4.485  11.178 -0.6216 -0.1563 -0.4488
 4342SOL    HW124662   3.695   4.471  11.264  0.2643  0.4517 -0.7553
 4342SOL    HW224663   3.691   4.407  11.135 -2.5657  0.3293 -2.9638
 4343SOL     OW24664   1.256   0.275   2.368  0.1554  0.6229 -0.1675
 4343SOL    HW124665   1.253   0.330   2.446 -0.5851  0.2141  0.0952
 4343SOL    HW224666   1.163   0.285   2.347  0.1745 -1.6570 -1.2698
 4344SOL     OW24667   1.316   1.873   3.403  1.2348 -0.2959  0.2377
 4344SOL    HW124668   1.263   1.800   3.437 -0.4608  0.8439  0.0303
 4344SOL    HW224669   1.359   1.818   3.337 -1.2499 -1.3240 -0.5215
 4345SOL     OW24670   1.799   4.165  15.677  0.4190 -0.4668  0.1970
 4345SOL    HW124671   1.830   4.078  15.655 -0.2636 -0.6111 -0.1952
 4345SOL    HW224672   1.733   4.184  15.611  1.5796 -1.7547 -1.3071
 4346SOL     OW24673   0.131   1.104  15.678  0.4478 -0.3219 -0.0196
 4346SOL    HW124674   0.214   1.085  15.634  0.3181 -0.2434 -0.3014
 4346SOL    HW224675   0.063   1.098  15.611 -1.0476 -2.6658  1.6821
 4347SOL     OW24676   3.275   3.442  16.739 -0.0918 -0.1692 -0.0286
 4347SOL    HW124677   3.257   3.415  16.829 -0.1238  0.0019  0.0171
 4347SOL    HW224678   3.323   3.524  16.751  0.8231 -1.0078  1.9679
 4348SOL     OW24679   0.317   3.922   0.214  0.4718  0.2352  0.1330
 4348SOL    HW124680   0.328   3.895   0.305 -1.3134 -0.7474  0.0543
 4348SOL    HW224681   0.324   4.017   0.215 -1.8254  0.3927  0.9453
 4349SOL     OW24682   0.893   1.351   4.918 -0.3612 -0.0500 -0.3729
 4349SOL    HW124683   0.851   1.389   4.995  0.2919  0.8044 -0.4343
 4349SOL    HW224684   0.980   1.389   4.928 -0.3223  0.0178 -0.9385
 4350SOL     OW24685   3.101   4.401  13.094  0.2146  0.0744  0.5202
 4350SOL    HW124686   3.061   4.342  13.030 -2.5537  3.0479 -0.4670
 4350SOL    HW224687   3.024   4.454  13.112 -0.5469 -0.3815 -1.4619
 4351SOL     OW24688   3.451   4.226   7.727  0.0510 -0.4943 -0.6220
 4351SOL    HW124689   3.521   4.209   7.664  0.0299  2.3468 -1.4391
 4351SOL    HW224690   3.461   4.322   7.732 -0.2633 -0.5129  0.3707
 4352SOL     OW24691   3.623   0.154   4.808  0.2645  0.1347 -0.0037
 4352SOL    HW124692   3.548   0.113   4.851 -0.1690  2.0034  1.0027
 4352SOL    HW224693   3.691   0.090   4.829 -0.0224 -1.1851 -3.1579
 4353SOL     OW24694   4.223   0.521  10.665  0.2561  0.4647  0.0079
 4353SOL    HW124695   4.244   0.612  10.645 -0.0699  0.9598  1.8446
 4353SOL    HW224696   4.151   0.505  10.604 -1.4163 -2.2263  2.6815
 4354SOL     OW24697   1.417   1.822   8.861  0.2259 -0.6019  0.0884
 4354SOL    HW124698   1.483   1.884   8.893  0.1594  0.0166 -0.9621
 4354SOL    HW224699   1.393   1.787   8.946 -0.6231 -2.6742 -1.0063
 4355SOL     OW24700   3.542   0.193   9.936 -0.2317 -0.0331  0.0069
 4355SOL    HW124701   3.494   0.234  10.008  0.4503 -0.1355  0.5177
 4355SOL    HW224702   3.516   0.101   9.926 -1.4362  0.3131 -0.0065
 4356SOL     OW24703   0.057   3.042  10.865 -0.3015 -0.1086 -0.5397
 4356SOL    HW124704   0.016   2.957  10.879 -0.0630 -0.1604 -0.1460
 4356SOL    HW224705   0.112   3.046  10.944 -0.1754 -1.6521 -0.5520
 4357SOL     OW24706   2.293   0.484   3.152 -0.0131  0.5702  0.1269
 4357SOL    HW124707   2.343   0.465   3.073 -1.5112 -0.5036 -0.5639
 4357SOL    HW224708   2.203   0.464   3.126 -0.7536  2.1424  1.4830
 4358SOL     OW24709   0.172   4.483   9.347 -0.0957  0.5427 -0.3019
 4358SOL    HW124710   0.219   4.411   9.388 -0.7035  1.5733  2.2245
 4358SOL    HW224711   0.086   4.442   9.334  0.1765  0.2067 -1.0484
 4359SOL     OW24712   4.455   2.184   6.289 -0.0720 -0.3860  0.2410
 4359SOL    HW124713   4.394   2.185   6.363  0.8298  0.7110  0.9647
 4359SOL    HW224714   4.401   2.227   6.223 -0.3930  1.3135  1.6034
 4360SOL     OW24715   2.331   2.895   7.091 -0.4301  0.1236 -0.1661
 4360SOL    HW124716   2.260   2.836   7.068  0.0186  0.1611 -1.6482
 4360SOL    HW224717   2.372   2.828   7.146  2.5855  1.0078 -1.3375
 4361SOL     OW24718   0.590   4.307   8.677 -0.5390 -0.7553  0.1397
 4361SOL    HW124719   0.497   4.329   8.666 -0.3374  0.3201  0.6174
 4361SOL    HW224720   0.603   4.286   8.769 -3.2981 -1.7224  0.3303
 4362SOL     OW24721   2.019   4.008   3.870 -0.0036  0.4377 -0.0281
 4362SOL    HW124722   1.944   4.017   3.929 -0.1658 -0.0474 -0.1610
 4362SOL    HW224723   2.035   4.097   3.838 -0.0527  0.4248 -0.0891
 4363SOL     OW24724   1.808   4.504   2.766 -0.0819 -0.3858  0.6491
 4363SOL    HW124725   1.857   4.574   2.809 -0.8915 -0.1647  1.2288
 4363SOL    HW224726   1.740   4.486   2.831  0.3104 -1.7306  0.6872
 4364SOL     OW24727   3.005   1.615   7.994 -0.5575 -0.1575 -0.2576
 4364SOL    HW124728   2.930   1.556   8.003  0.8666 -2.1479 -1.3885
 4364SOL    HW224729   2.971   1.695   7.955  0.2581 -0.1164 -0.8841
 4365SOL     OW24730   3.978   2.307   3.000 -0.8983  0.4623  0.0201
 4365SOL    HW124731   4.071   2.307   3.023 -1.2135  1.1615  1.2863
 4365SOL    HW224732   3.942   2.261   3.076 -2.2497 -0.2318 -1.0419
 4366SOL     OW24733   4.137   1.633   8.108  0.0431 -0.2936 -0.2893
 4366SOL    HW124734   4.078   1.677   8.046 -2.1290 -1.0099  1.2627
 4366SOL    HW224735   4.111   1.675   8.190 -1.8764  0.3768 -1.2232
 4367SOL     OW24736   4.434   1.975   1.191  0.2524 -0.4773  0.0384
 4367SOL    HW124737   4.388   1.897   1.221 -0.6997  0.2347  0.4228
 4367SOL    HW224738   4.371   2.042   1.163 -0.8126 -1.3674  0.3353
 4368SOL     OW24739   4.652   0.145   8.475 -0.3850 -0.3054  0.0913
 4368SOL    HW124740   4.728   0.150   8.416 -0.8251  0.3298 -0.4192
 4368SOL    HW224741   4.625   0.235   8.495 -2.8057 -0.6441 -1.7209
 4369SOL     OW24742   4.659   3.445   6.551  0.4167 -0.1270 -0.2127
 4369SOL    HW124743   4.680   3.369   6.606  0.1169 -1.9004 -2.5599
 4369SOL    HW224744   4.678   3.516   6.612 -1.0296 -1.3564  1.6941
 4370SOL     OW24745   2.873   0.711  13.078 -0.4138  0.6508  0.0657
 4370SOL    HW124746   2.930   0.639  13.103  1.0364  1.8900  0.3662
 4370SOL    HW224747   2.920   0.752  13.005  0.6705  0.1347  0.4693
 4371SOL     OW24748   0.233   2.179  16.090 -0.5166 -0.4232  0.2838
 4371SOL    HW124749   0.202   2.089  16.086 -4.2282  0.8388  1.3779
 4371SOL    HW224750   0.164   2.214  16.034 -2.2982 -0.7445  2.2693
 4372SOL     OW24751   2.165   0.953   7.254 -0.4003 -0.4440  0.0396
 4372SOL    HW124752   2.078   0.915   7.267 -1.3165  0.5466 -3.2053
 4372SOL    HW224753   2.217   0.874   7.238 -1.2342 -0.9212 -0.3138
 4373SOL     OW24754   2.229   0.933   6.905  0.5801 -0.4223  0.3143
 4373SOL    HW124755   2.222   1.015   6.856  2.9405 -0.9387 -0.9020
 4373SOL    HW224756   2.279   0.883   6.840  2.5296  1.0399  0.6832
 4374SOL     OW24757   1.225   1.616   5.745  0.1301 -0.0617  0.0211
 4374SOL    HW124758   1.272   1.577   5.671  0.6330  0.4437  0.0789
 4374SOL    HW224759   1.134   1.594   5.726  0.1450 -1.7454  1.9130
 4375SOL     OW24760   0.147   1.661   2.885  0.1661 -0.5163  0.0302
 4375SOL    HW124761   0.216   1.625   2.941  0.6855 -0.5248 -0.6134
 4375SOL    HW224762   0.195   1.676   2.804 -0.4811 -3.3077 -0.8688
 4376SOL     OW24763   0.163   0.801   2.981 -0.0306  0.4365 -0.1160
 4376SOL    HW124764   0.248   0.785   3.022 -0.6050 -0.5319  0.6944
 4376SOL    HW224765   0.183   0.890   2.950  0.2280  0.2312 -0.5559
 4377SOL     OW24766   3.432   0.976  11.591  0.6075  0.5563 -0.7319
 4377SOL    HW124767   3.419   0.962  11.498 -0.1687  0.4095 -0.6004
 4377SOL    HW224768   3.508   0.921  11.612  1.1081  1.9816  1.2998
 4378SOL     OW24769   1.409   2.553  17.008  0.4933 -0.6275 -0.0110
 4378SOL    HW124770   1.494   2.593  16.990  0.5260 -0.3260  0.8382
 4378SOL    HW224771   1.412   2.540  17.102  2.5170 -0.6101 -0.0619
 4379SOL     OW24772   4.595   0.386   2.667  0.3829  0.0319  0.2817
 4379SOL    HW124773   4.593   0.345   2.753 -1.6391 -2.8751 -1.1301
 4379SOL    HW224774   4.520   0.351   2.619 -1.3008  0.6153  2.5172
 4380SOL     OW24775   0.912   4.357   8.074  0.4065  0.3476 -0.0085
 4380SOL    HW124776   0.972   4.314   8.013  1.4457 -2.6251  3.0852
 4380SOL    HW224777   0.854   4.412   8.022 -1.1895  0.3600  1.7653
 4381SOL     OW24778   3.706   0.009   4.518  0.1013 -0.3627  0.3738
 4381SOL    HW124779   3.786   0.048   4.554 -0.5413  0.4244  0.9566
 4381SOL    HW224780   3.638   0.059   4.562 -0.3388  1.9102 -2.8623
 4382SOL     OW24781   3.212   0.707   5.095  0.4124  0.3486 -0.0273
 4382SOL    HW124782   3.229   0.770   5.025 -3.2451  0.9949 -0.3411
 4382SOL    HW224783   3.201   0.623   5.051 -0.1413 -0.0403  0.8534
 4383SOL     OW24784   1.768   0.071   7.068 -0.3485 -0.1061  0.6440
 4383SOL    HW124785   1.684   0.108   7.040 -1.6709 -3.5227  0.0825
 4383SOL    HW224786   1.760   0.085   7.162 -1.6832  0.7873  0.4011
 4384SOL     OW24787   0.173   4.547  11.528 -0.0323 -0.9455  0.2950
 4384SOL    HW124788   0.146   4.569  11.617 -0.2881 -0.9325  0.2138
 4384SOL    HW224789   0.187   4.630  11.481 -1.9264 -2.6941 -3.3358
 4385SOL     OW24790   0.815   4.502   7.871 -0.1887  0.2386  0.0193
 4385SOL    HW124791   0.722   4.511   7.894 -0.2486 -0.4825  0.0667
 4385SOL    HW224792   0.837   4.595   7.861 -0.5397  0.2300 -0.9082
 4386SOL     OW24793   1.302   3.294   7.193  0.2987 -0.3533 -0.6923
 4386SOL    HW124794   1.335   3.258   7.111  1.1236  0.1715 -0.5810
 4386SOL    HW224795   1.250   3.220   7.225  1.9616 -0.5129  1.6514
 4387SOL     OW24796   0.255   3.344   0.180  0.2256 -0.1509 -0.3733
 4387SOL    HW124797   0.221   3.289   0.252  2.4735  0.4626  1.1535
 4387SOL    HW224798   0.333   3.387   0.215  0.6351 -0.3194 -1.0724
 4388SOL     OW24799   3.324   4.681   2.853  0.6202  0.1092  1.1713
 4388SOL    HW124800   3.418   4.688   2.838  0.5066  1.3561  0.9853
 4388SOL    HW224801   3.325   4.593   2.891  0.2838 -0.3648  0.0899
 4389SOL     OW24802   0.936   1.004  11.342  0.5116  0.3479 -0.4008
 4389SOL    HW124803   1.000   0.976  11.276  0.7190  0.6889 -0.3441
 4389SOL    HW224804   0.947   0.924  11.393 -0.9994  1.7178  2.0674
 4390SOL     OW24805   0.930   4.526  15.376 -0.1890  0.2450 -0.1764
 4390SOL    HW124806   0.947   4.582  15.452  0.9986  0.5234 -0.6435
 4390SOL    HW224807   0.997   4.457  15.372 -0.7450 -0.3356  0.4587
 4391SOL     OW24808   2.591   0.763  17.011 -0.2567 -0.0127  0.2737
 4391SOL    HW124809   2.541   0.774  17.092 -0.7322  0.8205 -0.1293
 4391SOL    HW224810   2.520   0.785  16.950  0.1805  2.7911  0.7781
 4392SOL     OW24811   4.014   3.286   9.706  0.4394 -0.1375  0.9497
 4392SOL    HW124812   3.972   3.340   9.773 -0.0182 -0.4886  0.9448
 4392SOL    HW224813   3.948   3.279   9.638 -0.4103  2.2449  1.5234
 4393SOL     OW24814   4.599   1.863   1.795  0.0966  0.5912 -0.4976
 4393SOL    HW124815   4.648   1.783   1.776  0.5162  0.9478 -0.9271
 4393SOL    HW224816   4.655   1.921   1.847  0.2573  0.0014 -0.0171
 4394SOL     OW24817   1.142   3.548   7.478 -0.1241 -0.3188  0.3686
 4394SOL    HW124818   1.214   3.514   7.531  2.0269  2.6085 -0.6965
 4394SOL    HW224819   1.187   3.577   7.398  1.2285 -0.8558  0.9358
 4395SOL     OW24820   3.052   0.587  11.781  0.3464 -0.0778  0.0841
 4395SOL    HW124821   3.116   0.633  11.727 -1.1451  0.7232 -0.9936
 4395SOL    HW224822   3.110   0.513  11.799  0.9838  0.2453 -0.6342
 4396SOL     OW24823   0.157   0.304   1.824  0.3566  0.1478  0.8642
 4396SOL    HW124824   0.188   0.390   1.853 -2.2141  1.2952  0.2086
 4396SOL    HW224825   0.204   0.293   1.741  0.2086 -1.2127  0.9706
 4397SOL     OW24826   2.894   2.780   0.743  0.0942 -0.1907 -0.0570
 4397SOL    HW124827   2.861   2.725   0.814  0.8163 -1.2045 -0.5152
 4397SOL    HW224828   2.960   2.727   0.698  0.3611  1.0656 -1.1381
 4398SOL     OW24829   3.116   4.658   1.906  0.6444 -0.1372 -0.2614
 4398SOL    HW124830   3.078   4.647   1.993 -1.6344  3.5708 -0.7584
 4398SOL    HW224831   3.199   4.697   1.936  0.7012  0.5100 -1.2480
 4399SOL     OW24832   2.384   2.141  14.856  0.2608  0.3482 -0.2718
 4399SOL    HW124833   2.478   2.125  14.843  0.7012  2.3816  0.4076
 4399SOL    HW224834   2.381   2.235  14.840 -0.1977  0.5109  0.7924
 4400SOL     OW24835   2.559   2.187  12.082 -0.1767 -0.0177 -0.3332
 4400SOL    HW124836   2.568   2.275  12.045 -0.3613  0.7631  1.4496
 4400SOL    HW224837   2.501   2.207  12.155  0.0203  0.1464 -0.2203
 4401SOL     OW24838   0.279   3.395   8.915 -0.2077  0.1158  0.3645
 4401SOL    HW124839   0.337   3.320   8.929  0.4988  0.1899 -2.1562
 4401SOL    HW224840   0.202   3.356   8.873 -0.4029  0.2583  0.5883
 4402SOL     OW24841   1.868   0.090   3.517 -0.3568  0.2339 -0.4264
 4402SOL    HW124842   1.887   0.094   3.611 -0.2935 -0.0181 -0.4266
 4402SOL    HW224843   1.899   0.002   3.493  0.9867  0.1090  1.7223
 4403SOL     OW24844   2.990   1.692   3.183 -0.8094 -0.1070  0.6831
 4403SOL    HW124845   2.922   1.717   3.246 -2.1454 -1.7610 -0.0775
 4403SOL    HW224846   2.980   1.597   3.184 -0.0785 -0.1823  1.1482
 4404SOL     OW24847   1.219   2.853   3.255  0.2148  0.0827  0.3646
 4404SOL    HW124848   1.126   2.875   3.250  0.4395  0.8525 -0.3928
 4404SOL    HW224849   1.245   2.814   3.171  1.1391  0.0915  0.6460
 4405SOL     OW24850   1.216   3.389   4.845  0.0350  0.5544  0.2375
 4405SOL    HW124851   1.292   3.438   4.815  1.4641 -0.4471  2.2607
 4405SOL    HW224852   1.209   3.411   4.938 -0.4237  0.3897  0.2440
 4406SOL     OW24853   3.851   0.562   7.502  0.1140  0.2047  0.2546
 4406SOL    HW124854   3.814   0.490   7.450 -0.4240  2.0201 -1.8946
 4406SOL    HW224855   3.906   0.601   7.433 -2.1612  1.3301 -0.9105
 4407SOL     OW24856   3.142   3.638   1.456  0.1090  0.1330 -0.3209
 4407SOL    HW124857   3.053   3.621   1.489 -0.1601  0.4347 -0.9048
 4407SOL    HW224858   3.122   3.697   1.384 -0.0398 -2.3596 -2.3320
 4408SOL     OW24859   2.233   0.060   1.307  0.2308 -0.3539  0.4191
 4408SOL    HW124860   2.289   0.137   1.300 -1.9233  1.1925  0.1714
 4408SOL    HW224861   2.144   0.091   1.324  0.8335  1.7252 -0.2278
 4409SOL     OW24862   3.703   2.085   6.726  0.5062 -0.1373 -0.7406
 4409SOL    HW124863   3.704   2.171   6.684  2.6179 -0.4984 -1.3802
 4409SOL    HW224864   3.747   2.033   6.659  1.5304 -1.0945  0.6805
 4410SOL     OW24865   3.902   0.433   9.541  1.0276 -0.7027 -0.1725
 4410SOL    HW124866   3.909   0.511   9.485  0.8303 -1.4802 -1.2680
 4410SOL    HW224867   3.950   0.372   9.486  2.8786 -0.3733  1.0756
 4411SOL     OW24868   1.550   4.093   7.612  0.0817  0.5687  0.0775
 4411SOL    HW124869   1.636   4.102   7.571 -0.7749 -0.0248 -1.8579
 4411SOL    HW224870   1.506   4.034   7.551  0.7376 -0.7074  0.8280
 4412SOL     OW24871   4.291   2.458   5.266 -0.2693 -0.1103  0.3188
 4412SOL    HW124872   4.200   2.462   5.236 -0.8470  3.8926  2.6551
 4412SOL    HW224873   4.316   2.550   5.272  0.8052 -0.4037  0.2797
 4413SOL     OW24874   3.906   4.321   8.174  0.7472  0.3324 -0.0317
 4413SOL    HW124875   3.940   4.266   8.244  0.6873  0.0260 -0.2451
 4413SOL    HW224876   3.893   4.406   8.216  0.0743  1.0335 -1.6745
 4414SOL     OW24877   1.154   1.774   9.407  0.5324 -0.0114  0.0925
 4414SOL    HW124878   1.075   1.754   9.457  0.8740 -0.2330  0.5418
 4414SOL    HW224879   1.220   1.764   9.475 -1.3353 -1.2935  1.7022
 4415SOL     OW24880   2.863   2.657   8.480 -0.3114  0.2286 -0.0285
 4415SOL    HW124881   2.816   2.594   8.534  0.8874 -0.7689 -0.1555
 4415SOL    HW224882   2.868   2.614   8.394 -1.8030 -1.1376  0.5682
 4416SOL     OW24883   1.834   1.381  17.030  0.2820  0.2127  0.3737
 4416SOL    HW124884   1.832   1.290  17.061  1.1507  0.6464  1.7211
 4416SOL    HW224885   1.892   1.429  17.090  1.5672 -1.3692  0.4038
 4417SOL     OW24886   4.640   4.004   9.307  0.5499 -0.2294 -0.7809
 4417SOL    HW124887   4.634   4.053   9.224  1.1654 -0.7348 -1.1266
 4417SOL    HW224888   4.722   3.955   9.305  0.9063  0.3629 -0.8951
 4418SOL     OW24889   2.541   1.268   1.166  0.0584  0.0706 -0.1168
 4418SOL    HW124890   2.597   1.205   1.213  2.5098  0.2492 -2.8107
 4418SOL    HW224891   2.460   1.244   1.211  0.5320  0.9288  1.1834
 4419SOL     OW24892   4.062   4.023   8.173 -0.3693  0.4513 -0.7212
 4419SOL    HW124893   4.141   4.017   8.227  0.6547  3.5156 -1.8927
 4419SOL    HW224894   4.029   3.936   8.195  0.0333  0.6416  0.6688
 4420SOL     OW24895   2.933   1.810   5.364  0.8133 -0.1143 -0.1902
 4420SOL    HW124896   2.990   1.835   5.437 -1.7217  3.3723  0.5693
 4420SOL    HW224897   2.981   1.848   5.290  1.0144  1.3768  0.7101
 4421SOL     OW24898   0.519   2.809  15.601  0.0915  0.4883  0.0817
 4421SOL    HW124899   0.449   2.754  15.636  1.0996  0.5906  2.2497
 4421SOL    HW224900   0.462   2.866  15.549  0.6425  0.6386 -0.3584
 4422SOL     OW24901   3.767   2.051  12.180 -0.3148 -0.3230  0.1608
 4422SOL    HW124902   3.679   2.082  12.160  0.2390  0.1122 -1.5658
 4422SOL    HW224903   3.751   2.003  12.262 -0.7139  0.6562  0.6498
 4423SOL     OW24904   2.441   3.352   7.569  0.0960 -0.5473  0.0560
 4423SOL    HW124905   2.490   3.336   7.650 -1.2084 -4.8528 -0.0580
 4423SOL    HW224906   2.388   3.275   7.552 -1.4360  0.9983 -2.2238
 4424SOL     OW24907   3.180   1.201   9.219 -0.6417  0.3262 -0.5165
 4424SOL    HW124908   3.200   1.288   9.184  0.6822  0.9046  1.6121
 4424SOL    HW224909   3.091   1.188   9.187 -0.8269 -0.4517  0.2932
 4425SOL     OW24910   4.673   2.529  12.681 -0.6177 -0.7761  0.0802
 4425SOL    HW124911   4.730   2.606  12.678 -1.5411 -0.1366 -1.3680
 4425SOL    HW224912   4.737   2.467  12.646  0.4932  0.8012 -0.6762
 4426SOL     OW24913   2.993   0.297  14.677 -0.1757 -0.3354 -0.5460
 4426SOL    HW124914   3.013   0.314  14.585  0.6582 -1.0506 -0.4996
 4426SOL    HW224915   2.914   0.244  14.670 -1.3750  1.3654 -0.0167
 4427SOL     OW24916   3.688   0.822  11.151  0.3200 -0.8175  0.1561
 4427SOL    HW124917   3.608   0.797  11.106  0.5665 -0.4914 -0.4646
 4427SOL    HW224918   3.750   0.851  11.084 -0.2091  0.4606  0.2143
 4428SOL     OW24919   2.821   3.722   8.193  0.6569 -0.0682 -0.1707
 4428SOL    HW124920   2.801   3.673   8.113 -0.7056  0.8644 -0.4060
 4428SOL    HW224921   2.907   3.688   8.215  1.1561  1.6755  0.6003
 4429SOL     OW24922   1.457   3.104   2.456  0.4362  0.6450  0.1483
 4429SOL    HW124923   1.457   3.153   2.537  0.4539 -1.2089  1.2738
 4429SOL    HW224924   1.550   3.114   2.436  0.5428 -1.1619 -0.2955
 4430SOL     OW24925   1.584   0.677  12.355  0.3513  0.0088 -0.1616
 4430SOL    HW124926   1.670   0.675  12.397 -0.3788 -0.0937  1.2988
 4430SOL    HW224927   1.536   0.600  12.385  2.7529 -0.7208  1.7660
 4431SOL     OW24928   0.784   1.925  10.178  0.2375  0.3685 -0.2647
 4431SOL    HW124929   0.828   1.850  10.217  0.1249 -0.1807 -1.1813
 4431SOL    HW224930   0.715   1.883  10.126  0.0226  0.4450 -0.0368
 4432SOL     OW24931   4.003   0.290   6.664 -0.1477 -0.4301  0.4424
 4432SOL    HW124932   4.045   0.308   6.579 -1.7468 -0.8857 -0.4396
 4432SOL    HW224933   4.077   0.284   6.724 -0.7056  0.3672  1.1937
 4433SOL     OW24934   1.531   3.756   6.064 -0.2927 -0.5990  0.7730
 4433SOL    HW124935   1.473   3.690   6.027  1.7766 -2.1513  0.2980
 4433SOL    HW224936   1.485   3.796   6.138  1.1118  0.2887  1.1605
 4434SOL     OW24937   4.207   0.815  11.120 -0.6264  0.0553  0.1399
 4434SOL    HW124938   4.163   0.887  11.165  0.1241  0.9168 -0.5204
 4434SOL    HW224939   4.200   0.852  11.032 -0.1656 -0.2677 -0.0349
 4435SOL     OW24940   4.039   3.893   9.295  0.1833  0.2898 -0.4629
 4435SOL    HW124941   3.971   3.929   9.351  0.3667  1.4008 -0.9574
 4435SOL    HW224942   4.045   3.973   9.243 -0.8937 -0.6106 -1.9692
 4436SOL     OW24943   4.390   0.326   8.925 -0.3807  0.2490  0.7230
 4436SOL    HW124944   4.415   0.405   8.877  0.8160  0.2556  1.3516
 4436SOL    HW224945   4.357   0.271   8.853 -1.1921  0.8212  0.6686
 4437SOL     OW24946   2.397   3.694   7.098 -0.1148  0.0607  0.0783
 4437SOL    HW124947   2.307   3.722   7.117  0.1775  0.9969  0.0913
 4437SOL    HW224948   2.380   3.612   7.051 -1.3882 -0.0422  0.7045
 4438SOL     OW24949   1.124   4.455   6.354 -0.3946 -1.0264 -0.4655
 4438SOL    HW124950   1.030   4.439   6.342 -0.3128 -2.1008  0.3485
 4438SOL    HW224951   1.158   4.416   6.435 -1.4870  1.7068  1.3072
 4439SOL     OW24952   1.536   3.481   7.224  0.0403 -0.3439 -0.0808
 4439SOL    HW124953   1.549   3.490   7.130 -0.8236  0.6953 -0.0995
 4439SOL    HW224954   1.471   3.411   7.230  1.0480 -1.2366  0.4094
 4440SOL     OW24955   2.095   2.854   8.103 -0.2793  0.3826 -0.1082
 4440SOL    HW124956   2.058   2.790   8.043 -0.5876  0.8488 -0.4196
 4440SOL    HW224957   2.045   2.922   8.056 -0.7213 -0.6079 -1.0617
 4441SOL     OW24958   1.669   4.726   5.542 -0.5365 -0.5286 -0.1154
 4441SOL    HW124959   1.575   4.710   5.541 -0.6211  0.0286 -1.3448
 4441SOL    HW224960   1.695   4.684   5.624 -1.9824 -0.7674  0.2150
 4442SOL     OW24961   2.335   4.421   4.687  0.1416 -0.6250 -0.2664
 4442SOL    HW124962   2.251   4.391   4.721  0.5664 -0.5008  0.8983
 4442SOL    HW224963   2.312   4.467   4.606  0.3562  0.4923  0.2964
 4443SOL     OW24964   1.055   2.846  14.393  0.2549 -0.0509  0.0722
 4443SOL    HW124965   1.014   2.795  14.463 -1.9883 -1.2610 -2.1107
 4443SOL    HW224966   1.024   2.936  14.409  2.1971  0.7168 -0.5338
 4444SOL     OW24967   1.675   0.188   0.388  0.6735 -0.5974  0.3128
 4444SOL    HW124968   1.757   0.155   0.425  0.2484 -0.5646  1.2783
 4444SOL    HW224969   1.672   0.277   0.423 -2.3014 -1.2099  1.5108
 4445SOL     OW24970   2.372   2.148   1.970 -0.4065  0.1240  0.2488
 4445SOL    HW124971   2.368   2.207   1.894  1.4622 -0.9206 -0.6759
 4445SOL    HW224972   2.442   2.187   2.024 -0.1327 -1.7838  1.2695
 4446SOL     OW24973   2.310   1.715  16.886 -0.0269  0.3303  0.1417
 4446SOL    HW124974   2.397   1.755  16.895 -0.6784  0.9548  3.3383
 4446SOL    HW224975   2.259   1.782  16.840  2.1608  2.4705  0.8220
 4447SOL     OW24976   4.201   3.561   3.832  0.0940  0.3395  0.1189
 4447SOL    HW124977   4.292   3.585   3.812  0.4610 -0.1435  1.2063
 4447SOL    HW224978   4.156   3.640   3.802  0.8108 -1.0505 -4.5712
 4448SOL     OW24979   4.148   4.598  10.716  0.5751  0.7424  0.1294
 4448SOL    HW124980   4.068   4.567  10.672  1.8130 -2.4853  0.1345
 4448SOL    HW224981   4.208   4.574  10.645 -0.4734  1.1037 -0.8740
 4449SOL     OW24982   1.248   0.130   1.778 -0.4857 -0.3396 -0.4820
 4449SOL    HW124983   1.334   0.156   1.746  1.1490 -3.5326  1.3211
 4449SOL    HW224984   1.264   0.041   1.810  0.2683 -0.0139  0.0416
 4450SOL     OW24985   4.458   0.361   3.838 -0.0999 -0.0519  0.5657
 4450SOL    HW124986   4.485   0.393   3.752 -0.4439 -1.3643 -0.0424
 4450SOL    HW224987   4.483   0.433   3.894  1.0259 -1.7284  2.2218
 4451SOL     OW24988   1.340   4.006   2.400 -0.0870 -0.3585  0.0555
 4451SOL    HW124989   1.267   3.985   2.342 -0.5952  0.0391  0.5401
 4451SOL    HW224990   1.353   3.933   2.461 -0.5803  0.1723  0.8057
 4452SOL     OW24991   3.389   3.042  12.702  0.6762 -0.1650  0.0447
 4452SOL    HW124992   3.385   3.006  12.613 -0.1152 -0.5765  0.2447
 4452SOL    HW224993   3.439   2.971  12.741 -3.2560 -2.3274  1.2127
 4453SOL     OW24994   1.799   3.539  15.244 -0.1893 -0.1791 -0.4765
 4453SOL    HW124995   1.826   3.477  15.176  0.7399 -0.3725  0.0574
 4453SOL    HW224996   1.887   3.577  15.250  0.2873 -1.2998 -0.2961
 4454SOL     OW24997   2.960   1.317   4.109 -0.1604 -0.6407  0.3871
 4454SOL    HW124998   2.882   1.368   4.130  0.4677 -0.2735  1.7602
 4454SOL    HW224999   2.982   1.340   4.019 -0.6759 -1.3052  0.0835
 4455SOL     OW25000   3.647   3.602  15.455  0.1894  0.0762  0.1711
 4455SOL    HW125001   3.734   3.639  15.470  1.4194 -2.3396 -0.9897
 4455SOL    HW225002   3.649   3.596  15.360 -0.4662  4.0420 -0.0789
 4456SOL     OW25003   0.307   1.089   8.097 -0.0228  0.4199  0.3529
 4456SOL    HW125004   0.382   1.040   8.130 -0.2625 -0.8694 -0.9884
 4456SOL    HW225005   0.287   1.151   8.167 -0.3748  0.1628  0.4801
 4457SOL     OW25006   1.782   1.007  12.136 -0.1614  0.8956  0.2001
 4457SOL    HW125007   1.821   0.996  12.223  0.1946 -0.8798 -0.1762
 4457SOL    HW225008   1.693   1.034  12.156  0.2124  1.0685  1.6317
 4458SOL     OW25009   0.471   4.639  13.919 -0.1795 -0.1338 -0.0182
 4458SOL    HW125010   0.524   4.677  13.989  0.8883 -0.1399 -0.8243
 4458SOL    HW225011   0.404   4.708  13.908 -0.6341 -0.6033 -0.2121
 4459SOL     OW25012   4.715   4.303   6.881 -0.8188  0.6286 -0.5572
 4459SOL    HW125013   4.661   4.224   6.875  0.5589 -0.4061  0.6330
 4459SOL    HW225014   0.026   4.284   6.958  1.1424  0.9696 -1.8407
 4460SOL     OW25015   2.175   4.690  12.142  0.3492  0.4982 -0.5971
 4460SOL    HW125016   2.182   4.649  12.228  0.9936  0.6066 -0.5981
 4460SOL    HW225017   2.081   4.697  12.128  0.3760 -1.5731 -1.9228
 4461SOL     OW25018   0.270   4.255   4.318 -0.6175 -0.2647  0.0387
 4461SOL    HW125019   0.246   4.332   4.368  0.5266 -0.5675  1.0550
 4461SOL    HW225020   0.182   4.218   4.315 -0.3961 -0.8295  0.4882
 4462SOL     OW25021   4.017   3.018  12.018 -0.0304 -0.1834 -0.4505
 4462SOL    HW125022   3.977   2.955  11.959 -0.5382 -0.0674 -0.2297
 4462SOL    HW225023   4.084   3.054  11.960 -0.7257 -1.9015 -2.2927
 4463SOL     OW25024   2.336   0.356   5.980  0.0727  0.3891  0.0572
 4463SOL    HW125025   2.306   0.429   6.034 -3.2314  0.6560 -2.1485
 4463SOL    HW225026   2.316   0.390   5.892  1.2978  0.5586 -0.1549
 4464SOL     OW25027   1.586   1.328   1.511 -0.8523 -0.0305 -0.1996
 4464SOL    HW125028   1.573   1.235   1.531 -0.7422  0.5939  2.6330
 4464SOL    HW225029   1.548   1.328   1.422  1.3101  1.2051 -1.1166
 4465SOL     OW25030   3.322   1.745  16.379 -0.3217  0.3641 -0.4010
 4465SOL    HW125031   3.301   1.663  16.423 -0.1656  1.1701  1.1546
 4465SOL    HW225032   3.415   1.754  16.398 -0.4366  2.3912 -0.7772
 4466SOL     OW25033   4.674   4.437   5.899  0.1257  0.6256 -0.0603
 4466SOL    HW125034   0.002   4.406   5.956 -0.0151  2.0294  0.8807
 4466SOL    HW225035   4.718   4.445   5.815 -0.8769  0.9321 -0.5615
 4467SOL     OW25036   4.399   2.885  17.055 -0.5574 -0.6319  0.0362
 4467SOL    HW125037   4.353   2.917  17.133  0.7175 -0.2035  0.6054
 4467SOL    HW225038   4.319   2.877  17.003  0.6803 -0.6900 -1.8379
 4468SOL     OW25039   0.821   2.939   8.511  0.2145  0.0047 -0.0404
 4468SOL    HW125040   0.750   2.924   8.449 -1.5606  3.3039  1.1634
 4468SOL    HW225041   0.787   2.891   8.587 -0.1919  1.8517  0.9507
 4469SOL     OW25042   3.147   1.121   8.803  0.5051 -0.3391  0.6414
 4469SOL    HW125043   3.213   1.136   8.871 -0.3281  0.1557  1.3433
 4469SOL    HW225044   3.146   1.025   8.803  0.3765 -0.3545 -2.6082
 4470SOL     OW25045   0.382   3.756   9.039 -0.2413 -0.6815 -0.1909
 4470SOL    HW125046   0.425   3.816   9.100  0.3892  0.4895 -1.7918
 4470SOL    HW225047   0.418   3.793   8.959 -1.1639 -0.7736 -0.6513
 4471SOL     OW25048   0.638   4.303   4.762 -0.1262 -0.5466 -0.1783
 4471SOL    HW125049   0.624   4.384   4.712 -0.3489  0.0731  0.8906
 4471SOL    HW225050   0.692   4.265   4.693 -1.5003 -1.9897 -0.4521
 4472SOL     OW25051   2.944   0.182   3.529  0.3416  0.5881  0.1834
 4472SOL    HW125052   2.883   0.214   3.463 -0.6799 -0.9565  0.3783
 4472SOL    HW225053   2.870   0.153   3.582  2.2442 -0.9280  2.0123
 4473SOL     OW25054   0.753   2.346   9.909  0.4869  0.4097  0.3395
 4473SOL    HW125055   0.718   2.263   9.941 -3.4190  1.8789 -0.0857
 4473SOL    HW225056   0.723   2.402   9.981  0.2217  0.3917  0.2432
 4474SOL     OW25057   3.007   3.235   1.155  0.5099  0.7823 -0.6879
 4474SOL    HW125058   3.039   3.149   1.185 -1.2638 -0.1542 -1.4993
 4474SOL    HW225059   3.032   3.288   1.230 -1.5042 -1.6468  1.7307
 4475SOL     OW25060   4.651   3.794  15.823 -0.2900  0.4006  0.2855
 4475SOL    HW125061   4.726   3.747  15.860 -0.1490 -0.3728 -1.0125
 4475SOL    HW225062   4.658   3.755  15.736  1.0525  2.5117 -0.5494
 4476SOL     OW25063   0.351   0.524  10.648  0.1239 -0.2454  0.3592
 4476SOL    HW125064   0.359   0.438  10.688  1.0810 -0.9580 -1.3786
 4476SOL    HW225065   0.274   0.552  10.697 -0.0179 -1.4383  0.8182
 4477SOL     OW25066   3.265   3.104  11.549  0.1914 -0.3129  0.0034
 4477SOL    HW125067   3.343   3.053  11.568 -0.4510 -0.8854  1.1679
 4477SOL    HW225068   3.235   3.062  11.469 -0.6906  0.7024 -0.2051
 4478SOL     OW25069   3.671   1.183  13.668  0.1833  0.7400 -0.2520
 4478SOL    HW125070   3.765   1.186  13.646  0.6479 -1.8057  1.4339
 4478SOL    HW225071   3.655   1.090  13.656  0.0661  0.8559 -0.9932
 4479SOL     OW25072   2.465   0.996   7.435  0.2618  0.1866 -0.7357
 4479SOL    HW125073   2.508   1.059   7.377  0.5152 -0.1934 -0.9648
 4479SOL    HW225074   2.489   0.911   7.397  3.0542  0.2290  0.9139
 4480SOL     OW25075   4.369   3.958   9.277  0.2802  0.0021 -0.4443
 4480SOL    HW125076   4.419   3.900   9.335  0.0495  2.0430  1.7798
 4480SOL    HW225077   4.296   3.897   9.264 -0.4301 -0.0647  3.9740
 4481SOL     OW25078   4.013   3.452   7.492 -0.3236 -0.4765  0.5224
 4481SOL    HW125079   3.984   3.435   7.582  0.5263  1.1791  1.1146
 4481SOL    HW225080   4.021   3.547   7.505  1.0881 -0.7581  1.6298
 4482SOL     OW25081   0.324   4.380   2.567 -0.0524  0.0318  0.4081
 4482SOL    HW125082   0.383   4.346   2.633 -3.4699 -0.1829  3.3542
 4482SOL    HW225083   0.343   4.308   2.506 -1.1594 -0.4747  0.6564
 4483SOL     OW25084   0.113   4.687   6.877 -0.2259 -0.2368 -0.2995
 4483SOL    HW125085   0.086   4.645   6.959  0.7217  0.7776  0.5393
 4483SOL    HW225086   0.133   4.610   6.824 -0.0193 -0.6463  0.3660
 4484SOL     OW25087   1.031   0.221   7.728 -0.2985  0.0578  0.0254
 4484SOL    HW125088   1.057   0.309   7.755 -0.1185  0.4399 -1.3746
 4484SOL    HW225089   1.057   0.238   7.637 -0.8984 -0.5688 -0.2614
 4485SOL     OW25090   4.726   3.914  12.572  0.3165 -0.7291 -0.4041
 4485SOL    HW125091   4.663   3.960  12.627  1.6867  2.7299 -1.6963
 4485SOL    HW225092   0.055   3.900  12.634 -0.4386 -0.8524  0.4263
 4486SOL     OW25093   0.753   1.433   8.725 -0.3482  0.0327  0.1945
 4486SOL    HW125094   0.676   1.396   8.681  0.5979  0.0771 -1.5019
 4486SOL    HW225095   0.814   1.453   8.654 -1.0420  0.2895 -0.3341
 4487SOL     OW25096   0.997   1.501   8.101 -0.4232  0.3191  0.0117
 4487SOL    HW125097   0.986   1.571   8.164 -0.0363  1.2713 -0.9756
 4487SOL    HW225098   0.908   1.482   8.070 -0.9338  0.7844  1.2118
 4488SOL     OW25099   3.898   1.467  10.271 -0.2539  0.2147  0.2548
 4488SOL    HW125100   3.970   1.529  10.260 -0.0416 -0.2386 -0.9787
 4488SOL    HW225101   3.883   1.455  10.364  2.2171 -0.6054  0.5342
 4489SOL     OW25102   2.788   1.886   4.141  0.0212 -0.3799 -0.2840
 4489SOL    HW125103   2.872   1.905   4.099 -1.6205  2.9409 -2.1135
 4489SOL    HW225104   2.802   1.892   4.235  0.2117 -0.7402 -0.2927
 4490SOL     OW25105   4.495   1.026   6.503 -0.6336 -0.0321  0.1068
 4490SOL    HW125106   4.558   0.998   6.569  1.4032  1.7599 -1.0391
 4490SOL    HW225107   4.503   1.117   6.532 -0.9771 -0.6252  2.0227
 4491SOL     OW25108   0.758   4.225   2.250 -0.0150  0.3851 -0.2713
 4491SOL    HW125109   0.713   4.307   2.272 -0.4624 -0.6515  2.6965
 4491SOL    HW225110   0.723   4.170   2.321  1.6839 -1.4438 -0.8539
 4492SOL     OW25111   2.905   0.332  11.925 -0.7468 -0.0813  0.0210
 4492SOL    HW125112   2.939   0.349  12.013  0.7830  0.3855 -0.6473
 4492SOL    HW225113   2.984   0.361  11.879 -0.0769 -0.8952  0.6615
 4493SOL     OW25114   0.182   0.655  14.899 -0.2022 -0.1333 -0.6785
 4493SOL    HW125115   0.092   0.669  14.870 -0.4935 -1.2414 -0.3183
 4493SOL    HW225116   0.169   0.580  14.956 -3.1670  1.1498  0.3260
 4494SOL     OW25117   4.739   2.738  17.460 -0.0329 -0.3845  0.4731
 4494SOL    HW125118   4.649   2.771  17.454  0.1846 -0.0031 -0.8248
 4494SOL    HW225119   4.742   2.677  17.533  0.3881 -1.2675 -0.2942
 4495SOL     OW25120   3.324   0.440   5.627 -0.1617  0.5170  0.1838
 4495SOL    HW125121   3.404   0.413   5.582  0.1835 -1.5368  2.0340
 4495SOL    HW225122   3.366   0.474   5.706 -1.1320  1.3921  0.3287
 4496SOL     OW25123   0.174   0.826   1.916  0.0564  0.2122 -0.6446
 4496SOL    HW125124   0.152   0.846   1.825 -0.0681  1.2755 -0.3796
 4496SOL    HW225125   0.193   0.915   1.945  0.8161  0.0187 -0.5277
 4497SOL     OW25126   1.227   4.398   7.540  0.2484 -0.5268  0.1826
 4497SOL    HW125127   1.309   4.447   7.543  1.8182 -3.1927  0.6153
 4497SOL    HW225128   1.185   4.454   7.606  2.8535  0.9287  0.6004
 4498SOL     OW25129   3.015   1.468   6.914  0.4212 -0.0756 -0.2505
 4498SOL    HW125130   2.981   1.403   6.976 -2.0394 -0.0032 -1.5389
 4498SOL    HW225131   3.105   1.439   6.901  0.9829  0.9043  1.3940
 4499SOL     OW25132   1.787   3.084  11.965  0.4005  0.0507 -0.1126
 4499SOL    HW125133   1.742   3.026  12.026  0.0978 -0.2747 -0.6589
 4499SOL    HW225134   1.826   3.028  11.899 -1.0836 -2.2937  1.0296
 4500SOL     OW25135   0.466   1.600   7.094 -0.4320  0.2103  1.0439
 4500SOL    HW125136   0.453   1.509   7.069  4.2697 -0.6482  1.8300
 4500SOL    HW225137   0.412   1.642   7.026 -2.3145 -0.8778  1.8782
 4501SOL     OW25138   4.105   3.738   0.364 -0.3592 -0.5695  0.2295
 4501SOL    HW125139   4.084   3.679   0.437 -0.6215  2.2823  2.4497
 4501SOL    HW225140   4.116   3.821   0.409  2.3867 -0.0313 -1.4364
 4502SOL     OW25141   0.175   4.019   6.905 -0.2407  0.1563  0.0150
 4502SOL    HW125142   0.211   4.015   6.994  0.2488  2.3752 -0.0877
 4502SOL    HW225143   0.173   3.931   6.869  0.9366 -0.1067  0.5979
 4503SOL     OW25144   4.701   3.401   7.805 -0.0199 -0.7982  0.5079
 4503SOL    HW125145   4.734   3.353   7.880  0.7513  1.6214  1.7316
 4503SOL    HW225146   0.026   3.468   7.789 -1.5362  1.2958  2.8690
 4504SOL     OW25147   3.325   1.968   0.368 -0.1739  0.5238 -0.2293
 4504SOL    HW125148   3.415   1.983   0.396 -0.4151  1.0567  0.2550
 4504SOL    HW225149   3.289   2.052   0.395  0.4428 -0.4021  3.4000
 4505SOL     OW25150   4.623   1.709   5.570  0.1073  0.7181  0.0332
 4505SOL    HW125151   4.717   1.710   5.589  0.5549 -0.4424 -2.1162
 4505SOL    HW225152   4.616   1.761   5.490 -0.0024  2.4068  1.1456
 4506SOL     OW25153   3.212   0.640  11.359 -0.1290 -0.5835 -0.3531
 4506SOL    HW125154   3.307   0.644  11.374 -0.4287  0.4431  1.2834
 4506SOL    HW225155   3.221   0.556  11.315  0.0197 -0.4476 -0.5805
 4507SOL     OW25156   1.248   3.688   3.061 -0.7423 -0.3839  0.4474
 4507SOL    HW125157   1.161   3.662   3.031  0.0197 -0.4938 -1.6549
 4507SOL    HW225158   1.236   3.743   3.139  0.1570  0.3438  0.0735
 4508SOL     OW25159   2.815   1.170  10.657  0.5859  0.0040  0.3883
 4508SOL    HW125160   2.775   1.246  10.614 -2.4528 -0.4042  2.4853
 4508SOL    HW225161   2.899   1.183  10.614  1.8772  0.2892  2.9827
 4509SOL     OW25162   0.520   2.894   2.241  0.2243 -0.5373 -0.3291
 4509SOL    HW125163   0.613   2.886   2.264  0.0490 -0.0664  0.5469
 4509SOL    HW225164   0.479   2.925   2.322 -0.2837  0.4221 -0.9465
 4510SOL     OW25165   2.509   3.437   3.567 -0.3873  0.0929  0.1191
 4510SOL    HW125166   2.589   3.476   3.532 -1.0877  1.5971  0.1925
 4510SOL    HW225167   2.462   3.516   3.595 -0.0706  0.9143 -1.6918
 4511SOL     OW25168   2.581   2.343   7.017 -0.3434 -0.2717 -0.1854
 4511SOL    HW125169   2.553   2.367   6.929 -0.0679  0.0447 -0.1847
 4511SOL    HW225170   2.515   2.278   7.040 -0.7241 -0.5344 -2.0013
 4512SOL     OW25171   0.689   2.804   8.834 -0.2468  1.2428  0.0712
 4512SOL    HW125172   0.655   2.872   8.892  0.1027 -0.0206  1.8043
 4512SOL    HW225173   0.694   2.729   8.894  0.0431 -1.2444 -3.0535
 4513SOL     OW25174   0.282   3.077   4.158 -0.6117 -0.2918  0.2868
 4513SOL    HW125175   0.332   3.044   4.233 -1.9279 -1.0256  0.8328
 4513SOL    HW225176   0.190   3.067   4.182 -1.2343 -0.4325 -2.1136
 4514SOL     OW25177   4.312   3.572   6.010  0.0950 -0.5596 -0.6605
 4514SOL    HW125178   4.267   3.585   6.093  1.4346 -0.0741  0.0034
 4514SOL    HW225179   4.322   3.477   6.003 -3.1142 -1.0329  1.2964
 4515SOL     OW25180   3.891   2.133   1.607  0.1867 -0.1849  0.3754
 4515SOL    HW125181   3.874   2.184   1.528 -1.0115 -2.1215 -0.6178
 4515SOL    HW225182   3.978   2.096   1.590  0.1679 -0.3558  0.6588
 4516SOL     OW25183   3.814   2.657   6.175  0.1444  0.1129  0.2386
 4516SOL    HW125184   3.879   2.587   6.166  0.9369  0.8480  0.2505
 4516SOL    HW225185   3.833   2.726   6.112  2.4058  0.4209  1.2821
 4517SOL     OW25186   0.416   0.230  17.363  0.3957  0.8030 -0.3947
 4517SOL    HW125187   0.488   0.192  17.414 -1.0513 -0.9262  0.3603
 4517SOL    HW225188   0.391   0.301  17.424 -1.1862  0.3251 -0.4975
 4518SOL     OW25189   0.936   1.407   7.436 -0.5079 -0.4456 -0.1747
 4518SOL    HW125190   0.941   1.381   7.344  0.0021 -1.4046  0.1279
 4518SOL    HW225191   0.930   1.502   7.428 -0.2351 -0.2930  1.3714
 4519SOL     OW25192   2.696   0.019   1.906  0.4447 -0.5598 -0.0875
 4519SOL    HW125193   2.731   4.692   1.963  2.9046  1.9732  1.4783
 4519SOL    HW225194   2.766   0.013   1.840  0.4314 -2.5109  0.0582
 4520SOL     OW25195   0.717   1.164   8.506 -0.3702 -0.4232 -0.2488
 4520SOL    HW125196   0.766   1.156   8.588 -0.2692 -1.0720 -0.3714
 4520SOL    HW225197   0.759   1.245   8.478  2.1088 -2.0076 -1.1630
 4521SOL     OW25198   2.972   1.095   0.597  0.0549  0.2607  0.1451
 4521SOL    HW125199   3.032   1.166   0.573 -0.4485  1.4069  2.3011
 4521SOL    HW225200   2.891   1.146   0.591 -0.8790 -1.1527  0.5651
 4522SOL     OW25201   2.694   4.724   4.762 -0.1118  0.1767 -0.2010
 4522SOL    HW125202   2.667   4.632   4.758 -1.5542  0.5661  0.5771
 4522SOL    HW225203   2.634   0.024   4.823 -0.9491 -0.4306 -0.6036
 4523SOL     OW25204   2.486   3.473   7.913  0.1957  0.1619 -0.6181
 4523SOL    HW125205   2.478   3.497   8.005 -0.1896 -2.2225 -0.0410
 4523SOL    HW225206   2.548   3.401   7.925  1.3891  0.6689 -3.5116
 4524SOL     OW25207   1.682   3.660   9.030  0.1559 -0.0090  0.7150
 4524SOL    HW125208   1.722   3.595   8.973  3.6548  2.6993  0.1570
 4524SOL    HW225209   1.755   3.709   9.066 -0.4539 -0.5666  2.7217
 4525SOL     OW25210   3.106   2.732  11.419 -0.5472  0.4126 -0.5976
 4525SOL    HW125211   3.148   2.647  11.433 -1.9371 -0.2959 -0.6872
 4525SOL    HW225212   3.106   2.780  11.502  0.5650 -0.9299  0.1835
 4526SOL     OW25213   3.274   4.568   6.988  0.3637 -0.5266 -0.3701
 4526SOL    HW125214   3.228   4.651   6.987  0.1785 -0.6302 -0.6436
 4526SOL    HW225215   3.359   4.597   6.956  0.1896 -0.4203 -0.7338
 4527SOL     OW25216   2.350   3.022  12.267 -0.1850  0.2880 -0.2535
 4527SOL    HW125217   2.445   3.022  12.284 -0.4768 -1.8602  1.3576
 4527SOL    HW225218   2.334   2.941  12.316  0.3647  1.5562  1.9898
 4528SOL     OW25219   3.478   4.352  13.902  0.0968  0.6105 -0.0734
 4528SOL    HW125220   3.465   4.391  13.816  1.1711 -1.0575 -1.0012
 4528SOL    HW225221   3.393   4.362  13.945 -1.3384 -2.1296 -2.2656
 4529SOL     OW25222   2.721   1.775  13.187 -0.1567 -0.4764  0.3190
 4529SOL    HW125223   2.727   1.858  13.139  1.4482 -1.2395 -0.7909
 4529SOL    HW225224   2.813   1.756  13.172 -0.3999 -2.1011  0.8433
 4530SOL     OW25225   2.373   2.600   8.388 -0.2716  0.1691 -0.1166
 4530SOL    HW125226   2.300   2.548   8.420  0.4499 -1.5258 -1.1889
 4530SOL    HW225227   2.334   2.687   8.381  1.3349  0.9524  0.5364
 4531SOL     OW25228   3.421   1.315   0.603 -0.1041 -0.1186  0.7002
 4531SOL    HW125229   3.499   1.333   0.552  0.6650 -1.1302  1.5049
 4531SOL    HW225230   3.416   1.391   0.661  3.6032  0.9096 -0.3558
 4532SOL     OW25231   4.302   4.584   3.443  0.2129 -0.7406 -0.0121
 4532SOL    HW125232   4.365   4.533   3.495 -1.1520 -2.1255  0.2632
 4532SOL    HW225233   4.359   4.653   3.409 -0.9120  0.9155  1.4525
 4533SOL     OW25234   1.658   1.830   5.777 -0.5448 -0.3798  0.3227
 4533SOL    HW125235   1.703   1.882   5.711  1.2415 -2.0187  0.2657
 4533SOL    HW225236   1.709   1.749   5.779 -2.6147 -1.6965  0.3237
 4534SOL     OW25237   2.234   3.478  14.406  0.1283  0.1415 -0.5054
 4534SOL    HW125238   2.173   3.531  14.354 -0.7370 -0.5535 -0.1923
 4534SOL    HW225239   2.221   3.385  14.390 -0.2900  0.3261 -1.2504
 4535SOL     OW25240   3.771   0.901  14.319 -0.5989 -0.2169  0.1002
 4535SOL    HW125241   3.684   0.932  14.291  0.7326  3.0477 -0.4500
 4535SOL    HW225242   3.784   0.962  14.391  1.2658  1.0689 -1.3412
 4536SOL     OW25243   4.115   3.224   3.292 -0.2719  0.0303  0.2374
 4536SOL    HW125244   4.134   3.316   3.277 -1.0601  0.0982 -0.3402
 4536SOL    HW225245   4.157   3.222   3.378  1.0472  0.9132 -0.3969
 4537SOL     OW25246   2.256   2.564   5.252  0.1011  0.2662 -0.3737
 4537SOL    HW125247   2.210   2.632   5.202 -2.7901 -0.3656  1.4160
 4537SOL    HW225248   2.281   2.506   5.179 -0.2905 -1.2774  0.7168
 4538SOL     OW25249   4.514   2.644  11.078  0.2410 -0.4973  0.2343
 4538SOL    HW125250   4.509   2.739  11.070  1.9242 -0.2093  2.6046
 4538SOL    HW225251   4.523   2.631  11.172  0.1671  2.2996  0.6339
 4539SOL     OW25252   4.422   3.054   8.040  0.9059 -0.1115  0.1869
 4539SOL    HW125253   4.399   3.023   7.952  1.3205  0.4279 -0.1094
 4539SOL    HW225254   4.487   2.988   8.064  3.5955  2.8924  1.0925
 4540SOL     OW25255   1.387   2.968   8.831  0.3723 -0.1429  0.3424
 4540SOL    HW125256   1.305   3.007   8.802  0.0468 -1.5970 -0.7014
 4540SOL    HW225257   1.359   2.877   8.835  1.3722 -0.4344  0.6651
 4541SOL     OW25258   2.383   0.973   1.313  0.1978  0.0362 -0.3313
 4541SOL    HW125259   2.332   1.051   1.293 -0.4045  0.1588  1.6405
 4541SOL    HW225260   2.469   1.002   1.284  0.2499  1.8373  1.6335
 4542SOL     OW25261   1.440   2.041  15.347  0.0201  0.0660 -0.6144
 4542SOL    HW125262   1.360   2.005  15.385 -0.7193  0.4244 -1.8227
 4542SOL    HW225263   1.422   2.018  15.256 -0.2288  1.0830 -0.8189
 4543SOL     OW25264   2.583   0.203   9.768 -0.3526 -0.3033 -0.3998
 4543SOL    HW125265   2.638   0.281   9.758  1.5388 -1.0190  4.4696
 4543SOL    HW225266   2.613   0.185   9.857 -2.9864 -0.5269  0.4462
 4544SOL     OW25267   1.058   1.127   5.144 -0.2266  0.0502  0.1483
 4544SOL    HW125268   1.153   1.128   5.131 -0.1664  0.9958  0.6243
 4544SOL    HW225269   1.033   1.072   5.070 -2.3445 -0.0517  0.9552
 4545SOL     OW25270   3.256   2.129   2.207 -0.2886 -0.3335  0.5354
 4545SOL    HW125271   3.321   2.098   2.270  1.4352 -0.1659 -1.1543
 4545SOL    HW225272   3.196   2.054   2.203 -2.0021  1.0576  0.3486
 4546SOL     OW25273   1.535   3.860  11.161  0.4652 -0.1635  0.7677
 4546SOL    HW125274   1.516   3.777  11.118 -2.3549  0.8513  0.0680
 4546SOL    HW225275   1.526   3.840  11.254  0.4796  0.4771  0.9055
 4547SOL     OW25276   1.823   2.522   0.263 -0.7485 -0.1378 -0.3165
 4547SOL    HW125277   1.843   2.581   0.336 -1.8885 -1.7202  1.2729
 4547SOL    HW225278   1.907   2.509   0.219 -0.1820  0.3211  0.6216
 4548SOL     OW25279   1.855   3.375  17.230 -0.1747  0.1927  0.3061
 4548SOL    HW125280   1.924   3.440  17.217  0.2604 -1.0421 -3.7529
 4548SOL    HW225281   1.901   3.308  17.280  1.5010  2.8435  2.3298
 4549SOL     OW25282   4.642   1.215   8.218 -0.2120 -0.5422 -0.2433
 4549SOL    HW125283   4.549   1.202   8.236 -0.2352 -0.0280  0.0216
 4549SOL    HW225284   4.669   1.261   8.297 -0.4332 -0.4840 -0.2022
 4550SOL     OW25285   1.806   2.162   8.292  0.1260  0.0581 -0.0695
 4550SOL    HW125286   1.794   2.095   8.360  1.1217  1.0550  1.0819
 4550SOL    HW225287   1.779   2.230   8.353  0.6749 -0.3366  0.6173
 4551SOL     OW25288   4.408   1.793   3.853 -0.4578  1.0505 -0.3099
 4551SOL    HW125289   4.431   1.743   3.931 -1.1050  1.0511 -0.1134
 4551SOL    HW225290   4.464   1.753   3.786 -3.0935 -2.6663 -0.2891
 4552SOL     OW25291   2.129   2.181   5.527  0.2617  0.0070 -0.1502
 4552SOL    HW125292   2.199   2.140   5.476  1.9733  0.3795  1.9166
 4552SOL    HW225293   2.174   2.185   5.611  0.4547 -0.5748 -0.2290
 4553SOL     OW25294   2.811   0.219   8.890 -0.4122  0.2238  0.1401
 4553SOL    HW125295   2.899   0.222   8.929 -0.7877 -1.5294  1.1385
 4553SOL    HW225296   2.825   0.271   8.810  0.3974  0.5899  0.5149
 4554SOL     OW25297   2.968   2.924  15.892  0.1278  0.3979 -0.0232
 4554SOL    HW125298   2.900   2.862  15.921  2.6944 -1.4342  2.0241
 4554SOL    HW225299   3.052   2.896  15.928  0.5264  0.8675 -0.6037
 4555SOL     OW25300   0.136   0.363   2.616  0.0349 -0.4395  0.0993
 4555SOL    HW125301   0.185   0.392   2.692  0.3787 -3.0398  0.8623
 4555SOL    HW225302   0.050   0.391   2.648  0.2189  0.6121 -0.3192
 4556SOL     OW25303   3.890   4.365   4.479  0.2154 -0.2942  0.0053
 4556SOL    HW125304   3.855   4.288   4.523 -1.2115 -0.5492 -1.5891
 4556SOL    HW225305   3.809   4.389   4.434 -0.0020  2.4449  1.8221
 4557SOL     OW25306   1.520   4.236   1.695 -0.7764 -0.4845 -0.2890
 4557SOL    HW125307   1.599   4.284   1.717 -0.5689  0.6586 -3.5326
 4557SOL    HW225308   1.510   4.189   1.778 -1.4099 -0.4888 -0.3650
 4558SOL     OW25309   4.416   3.706   4.255  0.0860 -0.5527 -0.3203
 4558SOL    HW125310   4.416   3.704   4.159  0.8090  1.4319 -0.3635
 4558SOL    HW225311   4.375   3.624   4.280  0.3572 -0.9113 -1.0551
 4559SOL     OW25312   0.814   2.731   4.546  0.3488 -0.2793 -0.5760
 4559SOL    HW125313   0.719   2.723   4.539  0.2163 -0.6146  1.5521
 4559SOL    HW225314   0.832   2.820   4.516  1.7909 -0.5472 -0.5341
 4560SOL     OW25315   0.260   3.999   9.240  0.5654 -0.1979 -0.0299
 4560SOL    HW125316   0.297   3.934   9.300 -1.2246 -0.9391  0.2423
 4560SOL    HW225317   0.265   3.940   9.165  3.3154  0.0210 -0.0377
 4561SOL     OW25318   3.598   4.451   3.502  0.6265 -0.3116  0.1580
 4561SOL    HW125319   3.536   4.431   3.432 -0.1509  1.5743  0.2788
 4561SOL    HW225320   3.678   4.416   3.462 -0.0086 -0.6244 -0.8347
 4562SOL     OW25321   0.882   2.703   0.211  0.2817  0.9769 -0.3413
 4562SOL    HW125322   0.864   2.703   0.305 -0.1357 -1.7789 -0.4254
 4562SOL    HW225323   0.792   2.678   0.188  1.3121 -2.1526 -0.9466
 4563SOL     OW25324   3.783   4.695  10.387  0.4255 -0.0437 -0.0356
 4563SOL    HW125325   3.695   4.662  10.405  1.1858 -2.5766 -0.9822
 4563SOL    HW225326   3.789   0.012  10.462 -2.5845  0.7945 -0.4467
 4564SOL     OW25327   1.019   1.141   2.355 -0.0094 -0.4276 -0.6616
 4564SOL    HW125328   1.109   1.134   2.390 -0.6846  0.0455  1.2043
 4564SOL    HW225329   1.040   1.098   2.272  2.6353  1.0093 -0.7669
 4565SOL     OW25330   1.772   2.529   8.235 -0.6085 -0.4848 -0.2423
 4565SOL    HW125331   1.830   2.599   8.265 -2.6033 -0.2637  3.1593
 4565SOL    HW225332   1.774   2.469   8.310 -1.3985 -2.7449 -2.0389
 4566SOL     OW25333   2.212   1.717   2.625  0.7727  0.3663  0.1201
 4566SOL    HW125334   2.280   1.694   2.689  1.8062  0.1001 -1.0920
 4566SOL    HW225335   2.167   1.633   2.619  0.7052  0.6734 -3.2330
 4567SOL     OW25336   0.177   4.055   9.556  0.1051  0.2131 -0.1571
 4567SOL    HW125337   0.189   3.984   9.492 -0.5348  0.1625 -0.2213
 4567SOL    HW225338   0.097   4.094   9.520 -0.3369 -1.6119 -1.1828
 4568SOL     OW25339   4.132   3.257   7.257  0.0525 -0.3050 -0.8497
 4568SOL    HW125340   4.199   3.292   7.316 -1.7566 -1.0649  1.6208
 4568SOL    HW225341   4.051   3.284   7.300  0.5387 -1.8108  1.0172
 4569SOL     OW25342   4.200   1.653   2.238 -0.0802  0.2393 -0.0018
 4569SOL    HW125343   4.202   1.619   2.328 -1.3049 -1.8511 -0.7888
 4569SOL    HW225344   4.111   1.689   2.238  0.0066  0.4546 -2.5203
 4570SOL     OW25345   4.487   1.536   5.747  0.9122  0.0457 -0.5024
 4570SOL    HW125346   4.481   1.444   5.719  0.8465 -0.2998  0.6382
 4570SOL    HW225347   4.542   1.575   5.679 -0.5138  0.1379 -1.5993
 4571SOL     OW25348   1.535   0.453   6.837  0.1635  0.4452  0.2372
 4571SOL    HW125349   1.599   0.444   6.766 -1.1998  0.6408 -1.0064
 4571SOL    HW225350   1.460   0.410   6.795  2.2125 -1.6611 -1.2686
 4572SOL     OW25351   4.712   1.337   8.447 -0.0920 -0.2817 -0.0493
 4572SOL    HW125352   4.677   1.298   8.526 -0.4559  2.7794  1.3271
 4572SOL    HW225353   4.669   1.422   8.456 -0.5120 -0.6722  1.6207
 4573SOL     OW25354   4.469   4.296   5.430 -0.0567 -0.5520 -0.2744
 4573SOL    HW125355   4.523   4.252   5.365  0.1337  1.3805 -1.4263
 4573SOL    HW225356   4.485   4.247   5.510 -0.3739 -0.9197 -0.4365
 4574SOL     OW25357   0.335   0.570   8.870  0.3729 -0.2135  0.0367
 4574SOL    HW125358   0.268   0.539   8.931 -0.0769  0.3662 -0.1688
 4574SOL    HW225359   0.347   0.492   8.816 -0.0087 -0.3691  0.1765
 4575SOL     OW25360   3.264   3.431   9.189 -0.0103 -0.1326 -0.3135
 4575SOL    HW125361   3.225   3.410   9.274 -2.5360 -0.3549 -1.5317
 4575SOL    HW225362   3.285   3.523   9.200  0.0168 -0.1547 -0.1803
 4576SOL     OW25363   2.804   0.107   2.858 -0.3846  0.0665  0.3304
 4576SOL    HW125364   2.794   0.047   2.785  0.1340 -0.5272  0.7544
 4576SOL    HW225365   2.734   0.171   2.841 -0.1244 -0.0532 -1.1519
 4577SOL     OW25366   2.938   4.674  16.381 -0.0521  0.3433  0.0892
 4577SOL    HW125367   2.898   4.639  16.460 -0.3725  0.0598 -0.2013
 4577SOL    HW225368   3.002   4.733  16.422  0.6739  0.4903 -1.2324
 4578SOL     OW25369   0.742   0.242  14.761 -0.4455  0.0925  0.3001
 4578SOL    HW125370   0.699   0.176  14.706  1.8184 -0.5037 -0.7585
 4578SOL    HW225371   0.698   0.322  14.731 -0.7121 -0.3004 -0.3554
 4579SOL     OW25372   0.265   1.211   9.142 -0.0101 -0.0496 -0.6232
 4579SOL    HW125373   0.290   1.245   9.056 -2.4480 -0.5245 -1.5434
 4579SOL    HW225374   0.272   1.118   9.120 -2.7210 -0.9020  2.0624
 4580SOL     OW25375   3.145   3.701   3.876  0.3352  0.2324 -0.3592
 4580SOL    HW125376   3.112   3.624   3.924  0.1730 -0.2699 -1.2698
 4580SOL    HW225377   3.106   3.693   3.789  0.0852 -0.7691 -0.1587
 4581SOL     OW25378   3.708   2.479   5.316 -0.3218  0.1623  0.4058
 4581SOL    HW125379   3.799   2.475   5.287 -0.0905 -0.6993  1.2405
 4581SOL    HW225380   3.727   2.422   5.391 -0.6282  2.5188  2.2861
 4582SOL     OW25381   2.335   3.213   5.500  0.2786 -0.0052  0.6316
 4582SOL    HW125382   2.391   3.191   5.426 -2.8142 -0.6974 -1.4643
 4582SOL    HW225383   2.395   3.240   5.570  1.7756  0.2202 -0.7315
 4583SOL     OW25384   4.314   2.065   9.084 -0.4683  0.5790 -0.3860
 4583SOL    HW125385   4.393   2.113   9.109  0.2430 -0.7107 -0.1099
 4583SOL    HW225386   4.346   2.012   9.010  0.6140  0.0718  0.4381
 4584SOL     OW25387   3.314   0.898   4.900 -0.0670  1.0135 -0.7249
 4584SOL    HW125388   3.313   0.994   4.905  3.2618  1.1432 -2.2728
 4584SOL    HW225389   3.325   0.885   4.806  1.3322  0.4899 -0.4878
 4585SOL     OW25390   2.969   3.903   9.605  0.4314  0.0210  0.1250
 4585SOL    HW125391   2.938   3.914   9.695  1.1111 -1.1962  0.5069
 4585SOL    HW225392   3.012   3.984   9.579  0.7652  0.0255  0.6933
 4586SOL     OW25393   4.725   2.869   4.927  0.7964  0.5794 -0.6632
 4586SOL    HW125394   0.014   2.918   5.003  1.1917  0.6811 -0.8897
 4586SOL    HW225395   0.058   2.813   4.908  1.2416  1.0325 -0.2370
 4587SOL     OW25396   3.852   3.495  14.962  0.1596 -0.1550 -0.5320
 4587SOL    HW125397   3.841   3.589  14.948  0.6382  0.0271  0.3054
 4587SOL    HW225398   3.763   3.467  14.943  1.0696 -1.4612 -2.9033
 4588SOL     OW25399   1.037   4.189   5.527  0.2431 -0.2462 -0.3567
 4588SOL    HW125400   1.124   4.228   5.518  0.8246 -1.2755  0.7222
 4588SOL    HW225401   1.041   4.171   5.621 -2.2973 -0.2810 -0.2571
 4589SOL     OW25402   3.551   2.755   2.189  0.2488  0.4995  0.0626
 4589SOL    HW125403   3.528   2.812   2.116  0.0613 -1.4226 -1.3849
 4589SOL    HW225404   3.466   2.727   2.222 -0.0098  1.7467  0.4427
 4590SOL     OW25405   2.938   2.347   6.504  0.6019 -0.0079 -0.1385
 4590SOL    HW125406   2.863   2.303   6.544 -0.6954 -0.5432 -3.1879
 4590SOL    HW225407   2.896   2.431   6.483  1.3811  0.0708 -1.3508
 4591SOL     OW25408   1.018   4.415   5.248 -0.1993 -0.6620 -0.0980
 4591SOL    HW125409   0.968   4.354   5.195  0.6884 -1.9244  0.5192
 4591SOL    HW225410   0.951   4.450   5.307  1.4402 -1.2251  2.1211
 4592SOL     OW25411   0.823   2.078   2.754  0.3809 -0.4520  0.3296
 4592SOL    HW125412   0.752   2.022   2.725  0.9287  0.2337 -2.2921
 4592SOL    HW225413   0.782   2.143   2.812  3.2451  1.1168  0.5941
 4593SOL     OW25414   0.875   0.903   6.695  0.2338 -0.1209 -0.4299
 4593SOL    HW125415   0.875   0.836   6.764 -1.6073  0.8535  0.5026
 4593SOL    HW225416   0.814   0.966   6.732  1.6021  1.4394 -0.8373
 4594SOL     OW25417   3.339   1.890   4.883 -0.4125  0.4556  0.4434
 4594SOL    HW125418   3.313   1.980   4.903  0.2080  1.1046 -1.7039
 4594SOL    HW225419   3.346   1.861   4.974 -2.5811  0.4847  0.6057
 4595SOL     OW25420   4.086   1.132   3.904 -0.2776  0.1909 -0.1088
 4595SOL    HW125421   4.104   1.199   3.838  1.6384 -0.4685 -0.2452
 4595SOL    HW225422   4.079   1.188   3.981  0.5583 -0.0396  0.1298
 4596SOL     OW25423   3.233   0.165   3.551  0.0055  0.0506 -0.0236
 4596SOL    HW125424   3.238   0.130   3.640  2.1902 -1.2289 -0.6376
 4596SOL    HW225425   3.149   0.133   3.518 -1.3208  2.4080  1.0678
 4597SOL     OW25426   3.051   1.134   7.503  0.0411 -0.2215  0.5085
 4597SOL    HW125427   2.963   1.128   7.467  0.8527  1.6237 -1.7832
 4597SOL    HW225428   3.063   1.051   7.549  0.5863 -0.8355 -0.7452
 4598SOL     OW25429   2.860   3.400   6.104 -0.0282 -0.6252 -0.1797
 4598SOL    HW125430   2.839   3.468   6.040 -1.3317  1.7926  2.8347
 4598SOL    HW225431   2.897   3.457   6.172 -1.1280 -2.0707  1.6345
 4599SOL     OW25432   4.381   3.741   7.308  0.2248 -0.0701 -0.1382
 4599SOL    HW125433   4.461   3.785   7.336  1.0813 -1.3122 -0.6605
 4599SOL    HW225434   4.315   3.809   7.323  0.6860  0.4335 -0.4067
 4600SOL     OW25435   2.324   4.353   8.727  0.7485  0.1259 -0.0990
 4600SOL    HW125436   2.254   4.381   8.669 -0.5566 -0.7840  1.0437
 4600SOL    HW225437   2.332   4.420   8.795  0.6767 -0.5387  0.5641
 4601SOL     OW25438   3.372   1.218  11.103 -0.0217 -0.5804 -0.1512
 4601SOL    HW125439   3.291   1.262  11.131  0.0032 -0.2192 -0.6507
 4601SOL    HW225440   3.334   1.186  11.021 -0.8400 -2.0951  0.8161
 4602SOL     OW25441   2.446   0.785  13.072 -0.5754 -0.2812  0.0619
 4602SOL    HW125442   2.488   0.817  12.992 -1.3833  1.0121  0.1527
 4602SOL    HW225443   2.514   0.792  13.139 -0.2141 -0.3188 -0.2977
 4603SOL     OW25444   3.754   3.920   6.848  0.3152 -0.0419  0.5548
 4603SOL    HW125445   3.756   3.828   6.875  0.8527  0.6383  2.8076
 4603SOL    HW225446   3.776   3.963   6.931  0.5367  1.4062 -0.2626
 4604SOL     OW25447   3.113   2.020  11.221 -0.5990  0.2416 -0.8121
 4604SOL    HW125448   3.088   1.932  11.194 -1.2837  0.3154 -0.4263
 4604SOL    HW225449   3.049   2.038  11.291  0.3922 -0.2557  0.2329
 4605SOL     OW25450   1.554   1.630   8.179 -0.5313 -0.3172 -0.4254
 4605SOL    HW125451   1.460   1.633   8.198 -0.9764  0.1475 -2.6250
 4605SOL    HW225452   1.570   1.545   8.139 -0.5581 -1.2191  1.4818
 4606SOL     OW25453   0.424   1.137   7.857 -0.2779 -0.5639  0.3349
 4606SOL    HW125454   0.385   1.081   7.924 -1.8804 -1.0909 -1.0322
 4606SOL    HW225455   0.342   1.174   7.825 -1.6476 -2.4299  1.6293
 4607SOL     OW25456   0.067   2.450   1.658 -0.6976  0.0136 -0.1302
 4607SOL    HW125457   4.739   2.412   1.606 -0.5857 -1.6319  0.9141
 4607SOL    HW225458   0.019   2.484   1.734 -0.2064 -2.5385  1.3397
 4608SOL     OW25459   4.611   4.685   5.959 -0.1098  0.0905  0.1340
 4608SOL    HW125460   4.618   4.591   5.942  1.1172  0.4209 -1.1683
 4608SOL    HW225461   4.523   4.701   5.925 -0.0882  0.3462  0.1950
 4609SOL     OW25462   2.381   3.004   3.600 -0.0887  0.1637  0.0452
 4609SOL    HW125463   2.454   3.009   3.538 -0.7554 -1.3436 -0.8646
 4609SOL    HW225464   2.424   3.052   3.671 -0.1130 -0.3088  0.3773
 4610SOL     OW25465   3.340   2.978   1.941  0.2298  0.2418  0.2401
 4610SOL    HW125466   3.431   2.971   1.914  0.9545  3.1977  1.9371
 4610SOL    HW225467   3.338   3.069   1.970  0.5220 -0.0648  1.2294
 4611SOL     OW25468   2.039   0.451  17.105 -0.5515 -0.5423  0.0751
 4611SOL    HW125469   1.960   0.502  17.086 -1.8079 -1.9080  1.5964
 4611SOL    HW225470   2.081   0.459  17.020 -1.4272 -1.1658 -0.4211
 4612SOL     OW25471   0.980   1.419   5.664 -0.3368 -0.5948 -0.1117
 4612SOL    HW125472   0.951   1.434   5.754 -2.3791 -1.0284 -0.7113
 4612SOL    HW225473   1.012   1.329   5.666 -1.0975 -0.8422  0.7767
 4613SOL     OW25474   4.177   2.003   4.312  0.0078  0.0840 -0.0156
 4613SOL    HW125475   4.177   2.056   4.232  1.2118  0.6358  0.3516
 4613SOL    HW225476   4.243   1.938   4.288  0.8390  1.4902 -1.5684
 4614SOL     OW25477   2.101   3.999  13.065  0.5474  0.0292  0.0100
 4614SOL    HW125478   2.085   3.947  12.986 -0.7452 -0.9901  0.9465
 4614SOL    HW225479   2.036   3.967  13.127 -0.1884  0.7126 -0.3971
 4615SOL     OW25480   3.410   2.549   2.793 -0.1832  0.3899 -0.4918
 4615SOL    HW125481   3.503   2.564   2.807 -0.3568 -0.3631  1.4812
 4615SOL    HW225482   3.396   2.497   2.713 -1.6563 -0.3437  0.2361
 4616SOL     OW25483   1.890   2.814  15.350 -0.2362  0.6158  0.6779
 4616SOL    HW125484   1.823   2.860  15.299  0.6452  0.4752 -0.6267
 4616SOL    HW225485   1.870   2.724  15.325 -1.8420  0.9268  0.8292
 4617SOL     OW25486   1.265   2.409   5.828  0.4190 -0.0988  0.0219
 4617SOL    HW125487   1.359   2.424   5.824  0.2632  0.8649 -0.0048
 4617SOL    HW225488   1.255   2.315   5.812  1.3897 -0.4861  1.7022
 4618SOL     OW25489   2.978   4.652   4.458 -0.0632 -0.5942  0.1608
 4618SOL    HW125490   2.960   4.720   4.523  0.3647  0.5558 -0.9395
 4618SOL    HW225491   3.016   4.702   4.386 -2.3180  0.7730 -0.0911
 4619SOL     OW25492   1.152   2.877   9.716  0.5874  0.4557  0.0712
 4619SOL    HW125493   1.170   2.966   9.684 -0.4535  0.2768 -0.9914
 4619SOL    HW225494   1.061   2.871   9.687  0.3294  1.0993  0.7411
 4620SOL     OW25495   0.175   0.308   3.483 -0.2690  0.1396  0.1813
 4620SOL    HW125496   0.115   0.300   3.408  0.1917  0.2860 -0.2035
 4620SOL    HW225497   0.205   0.217   3.486 -0.9248 -0.0306  1.5183
 4621SOL     OW25498   3.750   3.721   6.329  0.4879  1.0066 -0.1649
 4621SOL    HW125499   3.734   3.811   6.355  0.6221  0.4636  1.8363
 4621SOL    HW225500   3.772   3.681   6.413 -0.9164 -0.0883 -0.3189
 4622SOL     OW25501   2.662   2.697   3.903 -0.1109 -0.4358 -0.6594
 4622SOL    HW125502   2.703   2.701   3.989 -1.4032  0.4211 -0.0846
 4622SOL    HW225503   2.719   2.630   3.866  1.6774  1.1922 -0.8825
 4623SOL     OW25504   3.153   1.397   6.613  0.1151 -0.2687  0.8104
 4623SOL    HW125505   3.193   1.311   6.600  1.7792  0.5457  0.5184
 4623SOL    HW225506   3.223   1.453   6.647 -2.2458  1.8115  2.3072
 4624SOL     OW25507   3.387   2.210   6.279 -0.4071 -0.6410  0.3466
 4624SOL    HW125508   3.338   2.143   6.326 -0.4079 -0.5914  0.4171
 4624SOL    HW225509   3.336   2.280   6.320 -0.4916 -2.0905  2.6752
 4625SOL     OW25510   3.836   0.358  11.138 -0.2356  0.2884  0.7179
 4625SOL    HW125511   3.882   0.416  11.078 -1.4771  1.7757  1.2186
 4625SOL    HW225512   3.901   0.293  11.164 -0.8326  0.5704  2.9322
 4626SOL     OW25513   4.083   0.267   3.345 -0.7178  0.1718  0.7322
 4626SOL    HW125514   4.091   0.342   3.286  3.2757 -0.7057  0.1480
 4626SOL    HW225515   4.051   0.315   3.421 -2.1794  0.7991 -0.2888
 4627SOL     OW25516   1.535   3.719   3.847  0.6238  0.0055 -0.8444
 4627SOL    HW125517   1.527   3.632   3.810  0.1146 -1.2046  2.1392
 4627SOL    HW225518   1.584   3.766   3.780  3.8491 -0.2905  1.3160
 4628SOL     OW25519   0.884   0.263   2.348 -0.6302 -0.0083 -0.0566
 4628SOL    HW125520   0.888   0.252   2.253 -0.9168  1.3142 -0.2221
 4628SOL    HW225521   0.859   0.355   2.354 -1.8534 -0.3541  0.0977
 4629SOL     OW25522   3.628   1.943   6.366  0.3338  0.0346  0.6280
 4629SOL    HW125523   3.613   2.036   6.381  1.6219  0.3479 -0.0233
 4629SOL    HW225524   3.721   1.926   6.381  0.6087 -0.5324 -1.6408
 4630SOL     OW25525   3.642   3.522   3.869  0.1194 -0.2468  0.0704
 4630SOL    HW125526   3.564   3.468   3.856  1.4443 -2.1179 -0.0735
 4630SOL    HW225527   3.604   3.600   3.830 -0.5635 -1.0777 -0.9349
 4631SOL     OW25528   1.746   3.236   2.961 -0.6160 -0.2181  0.1979
 4631SOL    HW125529   1.726   3.329   2.962 -0.2457 -0.1454  0.4850
 4631SOL    HW225530   1.664   3.194   2.933 -0.6390 -0.3837  0.5129
 4632SOL     OW25531   0.659   2.638   2.556  0.2361 -0.0666 -0.2522
 4632SOL    HW125532   0.709   2.710   2.594  0.0027 -0.0060 -0.0564
 4632SOL    HW225533   0.582   2.644   2.612 -1.1861  0.2956 -2.2516
 4633SOL     OW25534   0.284   2.531  16.159 -0.0190 -0.1429  0.1653
 4633SOL    HW125535   0.358   2.541  16.099 -0.5989  1.1248 -0.3278
 4633SOL    HW225536   0.310   2.456  16.213 -0.9400  0.8650  2.0266
 4634SOL     OW25537   4.481   1.233   9.149  0.2415  0.4973 -0.0586
 4634SOL    HW125538   4.568   1.194   9.162 -0.4584 -1.3789 -1.0433
 4634SOL    HW225539   4.429   1.154   9.148  3.1303 -1.4272  1.7981
 4635SOL     OW25540   3.592   2.505  17.588  0.2731 -0.2305  0.8363
 4635SOL    HW125541   3.548   2.578  17.631  0.4653  1.1663 -1.3328
 4635SOL    HW225542   3.617   2.449  17.662  3.0838 -1.0730 -0.7451
 4636SOL     OW25543   0.892   2.263   2.438  0.0077  0.3613 -0.0340
 4636SOL    HW125544   0.815   2.255   2.494 -1.2291  0.1915 -1.7504
 4636SOL    HW225545   0.906   2.357   2.422  3.4233  0.0764  1.2752
 4637SOL     OW25546   0.105   0.203  16.694  0.0746 -0.0735 -0.0312
 4637SOL    HW125547   0.043   0.227  16.763 -0.6149  0.7196 -0.9176
 4637SOL    HW225548   0.158   0.136  16.736  0.3571 -1.1167 -2.0516
 4638SOL     OW25549   1.159   0.274  15.036  0.9086  0.5329  0.3370
 4638SOL    HW125550   1.156   0.218  15.114 -1.1695 -1.0870 -0.9030
 4638SOL    HW225551   1.237   0.239  14.995 -0.9438 -2.1479 -0.9022
 4639SOL     OW25552   1.893   0.445  12.315 -0.1730 -0.4040 -0.6668
 4639SOL    HW125553   1.934   0.386  12.378 -1.1965 -0.7966 -0.3597
 4639SOL    HW225554   1.906   0.529  12.359  1.3281 -0.6043 -0.7344
 4640SOL     OW25555   1.463   3.924   1.065 -0.6119  0.0118  0.3317
 4640SOL    HW125556   1.441   3.968   0.983 -1.0229 -1.1263 -0.1748
 4640SOL    HW225557   1.400   3.852   1.068  0.1764 -0.7162 -0.5265
 4641SOL     OW25558   4.582   2.001  11.039  0.6546  0.1474 -0.1933
 4641SOL    HW125559   4.546   2.003  11.128  0.3055 -1.0030 -0.3028
 4641SOL    HW225560   4.528   2.067  10.995  2.0900  0.3819 -1.6046
 4642SOL     OW25561   1.236   2.705  16.029  0.3004  0.6321  0.2343
 4642SOL    HW125562   1.298   2.634  16.013 -0.7639 -0.8003  2.5195
 4642SOL    HW225563   1.155   2.657  16.042  0.4472  0.1704 -0.5213
 4643SOL     OW25564   2.294   2.184   9.005  0.5393 -0.1009  0.1256
 4643SOL    HW125565   2.230   2.167   9.074 -1.4955 -1.0546 -2.0165
 4643SOL    HW225566   2.374   2.201   9.054  0.0241  2.2791  0.1294
 4644SOL     OW25567   2.176   1.945   5.801  0.8025 -0.1885 -0.3515
 4644SOL    HW125568   2.131   1.874   5.845  1.2689  0.1057  0.6196
 4644SOL    HW225569   2.208   1.900   5.723 -0.9053 -1.2140 -0.4520
 4645SOL     OW25570   1.672   1.772   4.698 -0.0781 -0.1310  0.5638
 4645SOL    HW125571   1.646   1.707   4.763  2.0618  0.1594  1.7176
 4645SOL    HW225572   1.653   1.712   4.625 -2.9468  1.4142  0.0245
 4646SOL     OW25573   0.866   3.007   4.508 -0.2487 -0.0548  0.0905
 4646SOL    HW125574   0.839   3.088   4.465  1.0352  0.1770 -0.2804
 4646SOL    HW225575   0.823   3.012   4.594  1.4486 -1.3982  1.0007
 4647SOL     OW25576   2.308   1.952  11.278  0.2283  0.0703  0.2984
 4647SOL    HW125577   2.264   1.963  11.362  1.8888  0.8022  1.0680
 4647SOL    HW225578   2.243   1.996  11.223 -0.8827 -2.0665 -0.0954
 4648SOL     OW25579   1.578   1.601   8.514 -0.1963 -0.3869 -0.3606
 4648SOL    HW125580   1.498   1.614   8.565  0.9461 -1.4142  1.6809
 4648SOL    HW225581   1.556   1.649   8.434  2.8812 -1.4397 -1.8405
 4649SOL     OW25582   3.388   4.001   2.691 -0.1535 -0.3194  0.3062
 4649SOL    HW125583   3.329   3.998   2.616  0.1794 -3.1685  0.1622
 4649SOL    HW225584   3.445   4.072   2.661 -0.1710 -0.8178 -0.8781
 4650SOL     OW25585   3.085   0.125   4.918 -0.3951  0.5061 -0.5776
 4650SOL    HW125586   3.022   0.171   4.973  0.2608  1.8029 -0.9108
 4650SOL    HW225587   3.036   0.090   4.844  1.6523 -1.3748 -1.0520
 4651SOL     OW25588   1.618   0.868   8.969  0.4279 -0.0238 -0.0635
 4651SOL    HW125589   1.613   0.778   9.001  1.8654 -0.8071 -2.0690
 4651SOL    HW225590   1.681   0.855   8.898 -0.6961  1.0658 -1.2555
 4652SOL     OW25591   4.536   1.973   2.449 -0.4164  0.4717  0.2944
 4652SOL    HW125592   4.463   2.027   2.478 -1.7706 -0.1834 -1.8667
 4652SOL    HW225593   4.533   1.904   2.515  0.1955 -1.6123 -1.8590
 4653SOL     OW25594   2.576   2.135   3.692  0.2394  0.2928  0.3960
 4653SOL    HW125595   2.627   2.168   3.766  0.7803 -0.6211  0.4281
 4653SOL    HW225596   2.486   2.141   3.722 -0.5838 -0.5955 -1.8807
 4654SOL     OW25597   4.541   2.241   6.569 -0.3995  0.2731 -0.6566
 4654SOL    HW125598   4.466   2.296   6.592 -0.2155 -0.7713  2.3903
 4654SOL    HW225599   4.604   2.309   6.544  0.4382 -0.7785 -1.4231
 4655SOL     OW25600   2.177   1.810   6.846  0.3280 -0.3001 -0.4726
 4655SOL    HW125601   2.216   1.753   6.780  0.7433  0.6701 -1.0813
 4655SOL    HW225602   2.175   1.896   6.804 -2.2808  0.3070  0.8861
 4656SOL     OW25603   2.777   0.766   8.650  0.3918  0.3064 -0.1527
 4656SOL    HW125604   2.713   0.838   8.644 -0.5578 -0.3682  2.0377
 4656SOL    HW225605   2.731   0.714   8.584 -0.2844 -0.1434  0.6736
 4657SOL     OW25606   4.640   0.767   1.980  0.7794  0.2842  0.1579
 4657SOL    HW125607   4.656   0.690   1.925  0.6578  0.1060  0.3676
 4657SOL    HW225608   4.653   0.732   2.068  0.5029  1.9119  0.8487
 4658SOL     OW25609   2.564   4.090   6.142  0.1344 -0.2478  0.1612
 4658SOL    HW125610   2.559   4.008   6.190 -0.9234 -0.6703 -0.6782
 4658SOL    HW225611   2.498   4.143   6.186  0.9757 -0.4279  1.6417
 4659SOL     OW25612   1.954   0.507   1.993 -0.0439 -0.1001 -0.7877
 4659SOL    HW125613   2.026   0.512   1.931  1.6956  0.9207  1.2935
 4659SOL    HW225614   1.988   0.577   2.049  0.9949 -1.8165  0.7242
 4660SOL     OW25615   4.728   3.583   4.249 -0.1785  0.4272 -0.2125
 4660SOL    HW125616   4.677   3.515   4.203 -1.3013 -0.0185  1.7183
 4660SOL    HW225617   4.678   3.591   4.330 -4.0488 -0.8606 -2.4654
 4661SOL     OW25618   0.511   3.143   8.278 -0.1243 -0.2170  0.1596
 4661SOL    HW125619   0.512   3.063   8.330  1.5578 -0.5349 -0.3905
 4661SOL    HW225620   0.582   3.125   8.217 -0.6938 -2.1390  0.0580
 4662SOL     OW25621   0.875   2.012   8.805  0.7024  0.2069 -0.0842
 4662SOL    HW125622   0.804   1.968   8.758 -3.4144  1.2701  5.0378
 4662SOL    HW225623   0.929   1.936   8.828 -1.2054 -1.1426 -0.0723
 4663SOL     OW25624   3.964   2.878   8.987 -0.3483 -0.3407 -0.3919
 4663SOL    HW125625   3.919   2.891   9.070 -1.4037  2.4543 -1.4279
 4663SOL    HW225626   4.051   2.844   9.009  0.0230  1.8298  1.4024
 4664SOL     OW25627   1.462   3.904   6.609  0.5495 -0.1790 -0.6369
 4664SOL    HW125628   1.378   3.870   6.579  0.3717 -2.3442  2.2107
 4664SOL    HW225629   1.440   3.908   6.702  0.6141 -1.8169 -0.5565
 4665SOL     OW25630   2.878   2.051   0.603 -0.2149 -0.0312  0.1411
 4665SOL    HW125631   2.956   2.105   0.616 -2.2455  2.9609 -0.0686
 4665SOL    HW225632   2.827   2.106   0.544  1.3164  0.4423 -0.7409
 4666SOL     OW25633   1.603   4.201   4.070 -0.0678 -0.3410 -0.4422
 4666SOL    HW125634   1.532   4.150   4.108 -2.9352  3.3388 -0.7771
 4666SOL    HW225635   1.576   4.293   4.077  0.3238 -0.3221  0.6908
 4667SOL     OW25636   1.958   1.990   3.634  0.0402  0.1161  0.5038
 4667SOL    HW125637   1.877   1.952   3.599  0.9717 -0.7865 -0.6440
 4667SOL    HW225638   1.978   1.928   3.704  0.2502 -1.3008 -0.8089
 4668SOL     OW25639   3.348   0.325   9.282  0.2150  0.2736 -0.2533
 4668SOL    HW125640   3.408   0.386   9.324  1.7241 -0.8061 -0.8672
 4668SOL    HW225641   3.299   0.306   9.362  2.6703 -1.5809  0.8043
 4669SOL     OW25642   2.243   3.345   4.462 -0.5216 -0.1047 -0.4040
 4669SOL    HW125643   2.176   3.276   4.466 -2.8636  2.2649  1.1315
 4669SOL    HW225644   2.244   3.372   4.370 -2.9775 -0.6466 -0.6077
 4670SOL     OW25645   1.162   2.896   3.835  0.3758  0.2207 -0.3673
 4670SOL    HW125646   1.208   2.920   3.915 -0.0119  1.2137 -0.4333
 4670SOL    HW225647   1.192   2.808   3.813 -1.4740 -0.6336  0.5875
 4671SOL     OW25648   1.315   4.483  12.641 -0.3489  0.5326 -0.0388
 4671SOL    HW125649   1.293   4.403  12.689 -1.4242  0.2666 -1.0008
 4671SOL    HW225650   1.398   4.452  12.603  0.3608  2.7797 -0.3059
 4672SOL     OW25651   2.386   0.043  17.005 -0.1168  0.1031  0.1142
 4672SOL    HW125652   2.353   0.130  17.030  0.9969  0.8814 -1.1215
 4672SOL    HW225653   2.404   0.002  17.090  0.7664  0.6024  0.1651
 4673SOL     OW25654   2.804   4.721   7.183  0.0717  0.7426 -0.0087
 4673SOL    HW125655   2.791   0.052   7.243  0.5173  1.9765 -1.4392
 4673SOL    HW225656   2.881   0.013   7.137 -1.1307  3.2624 -0.1137
 4674SOL     OW25657   3.297   3.416   9.653  0.4128 -0.1204  0.1661
 4674SOL    HW125658   3.266   3.463   9.730  0.3153  1.5316 -0.8802
 4674SOL    HW225659   3.381   3.456   9.629 -0.6444  1.2743 -1.1621
 4675SOL     OW25660   3.964   4.022   2.749 -0.0833 -0.1202 -0.3403
 4675SOL    HW125661   3.923   3.949   2.701 -2.0315  0.8987 -0.2196
 4675SOL    HW225662   3.986   4.074   2.672  2.5056  0.3180  0.6801
 4676SOL     OW25663   0.626   4.244   8.963 -0.2345 -0.1371  0.2095
 4676SOL    HW125664   0.608   4.285   9.048  0.1466 -0.4479  0.4438
 4676SOL    HW225665   0.721   4.235   8.977 -0.0120 -0.2842 -1.3899
 4677SOL     OW25666   0.283   4.568   9.993  0.3413 -0.1758 -0.4015
 4677SOL    HW125667   0.215   4.628  10.024  0.9648  1.0355 -1.4040
 4677SOL    HW225668   0.304   4.522  10.074 -0.3241 -0.0565 -0.1607
 4678SOL     OW25669   0.522   2.551   6.351 -0.3804  0.0513 -0.1323
 4678SOL    HW125670   0.610   2.560   6.313 -0.2359 -0.2971  0.1231
 4678SOL    HW225671   0.493   2.466   6.319 -0.3853 -0.2421  0.6734
 4679SOL     OW25672   0.338   4.434   3.066 -0.4199 -0.2812  0.0471
 4679SOL    HW125673   0.252   4.445   3.025 -1.4292 -0.7101  2.0558
 4679SOL    HW225674   0.402   4.463   3.000 -1.6965  2.4019  0.0255
 4680SOL     OW25675   2.277   2.131   5.962 -0.6143  0.3614  0.1384
 4680SOL    HW125676   2.278   2.203   5.899  2.6835  0.5041  0.3654
 4680SOL    HW225677   2.245   2.063   5.904  1.5376  0.0301 -0.6713
 4681SOL     OW25678   0.698   2.542   6.756  0.5223  0.2836 -0.1224
 4681SOL    HW125679   0.686   2.594   6.835 -0.4988 -1.3102  0.7713
 4681SOL    HW225680   0.636   2.591   6.702 -1.7906 -1.9488  0.4961
 4682SOL     OW25681   3.332   2.726   3.544  0.0668  0.2544  0.3229
 4682SOL    HW125682   3.421   2.757   3.523  0.1785  1.2395  2.3081
 4682SOL    HW225683   3.295   2.777   3.616  0.8015 -1.6587  2.0191
 4683SOL     OW25684   1.416   4.314   3.563  0.3289 -0.3829 -0.2484
 4683SOL    HW125685   1.465   4.382   3.517 -3.0309  1.6528 -0.8350
 4683SOL    HW225686   1.443   4.323   3.654 -0.9723 -0.9661  0.2050
 4684SOL     OW25687   2.604   1.314  10.548  0.8863  0.3261 -0.1938
 4684SOL    HW125688   2.576   1.224  10.533  3.0373 -0.0198 -2.1869
 4684SOL    HW225689   2.524   1.364  10.564 -0.6402 -2.1420 -0.1915
 4685SOL     OW25690   3.337   0.600  13.379 -0.4449  0.0979  0.1308
 4685SOL    HW125691   3.431   0.614  13.389 -0.3603  0.3316 -0.9895
 4685SOL    HW225692   3.327   0.591  13.284  2.2903  1.2098 -0.2567
 4686SOL     OW25693   3.601   3.375   4.714  0.0031  0.3881 -0.5040
 4686SOL    HW125694   3.539   3.380   4.787 -0.3695  0.4209 -0.8218
 4686SOL    HW225695   3.554   3.424   4.648  0.3333  0.6244 -0.5649
 4687SOL     OW25696   1.864   2.862   2.938 -0.4767  0.1989  1.2647
 4687SOL    HW125697   1.867   2.804   3.013 -0.0773 -0.4032  0.7889
 4687SOL    HW225698   1.815   2.798   2.887  0.2234 -0.3356  1.2608
 4688SOL     OW25699   1.358   2.869   8.524  0.4273 -0.0822  0.1126
 4688SOL    HW125700   1.414   2.805   8.569  0.5370  0.5365  0.8620
 4688SOL    HW225701   1.289   2.819   8.481 -1.6395  3.2778 -0.4451
 4689SOL     OW25702   2.805   2.595   6.701 -0.2440  0.4116  0.8189
 4689SOL    HW125703   2.836   2.581   6.612  0.5128  2.3333  0.7905
 4689SOL    HW225704   2.709   2.595   6.696 -0.1192 -0.1862 -1.6501
 4690SOL     OW25705   3.768   0.194   3.956  0.4470 -0.2605  0.7204
 4690SOL    HW125706   3.769   0.116   3.900  0.8346 -0.7667  1.4436
 4690SOL    HW225707   3.675   0.217   3.951  0.5200 -0.2592 -0.8214
 4691SOL     OW25708   2.086   2.963  17.374  0.5027 -0.0511  0.4696
 4691SOL    HW125709   2.036   3.045  17.374  0.9106  0.1985  0.3633
 4691SOL    HW225710   2.026   2.903  17.331 -0.2114 -0.0941  1.5142
 4692SOL     OW25711   0.538   0.429   2.433  0.5133 -0.3247 -0.3192
 4692SOL    HW125712   0.583   0.370   2.494  1.0376 -0.4379 -0.8129
 4692SOL    HW225713   0.504   0.363   2.372  2.1550 -0.3295 -1.2416
 4693SOL     OW25714   3.734   0.597   6.693  0.1029 -0.0871  0.6044
 4693SOL    HW125715   3.749   0.512   6.735 -0.0129 -1.6087 -2.4261
 4693SOL    HW225716   3.647   0.628   6.719 -0.5563 -1.6873  0.3618
 4694SOL     OW25717   4.217   4.063  10.431  0.0413 -0.6167 -0.0710
 4694SOL    HW125718   4.289   4.117  10.465 -1.4110  2.0633 -1.2682
 4694SOL    HW225719   4.185   4.020  10.510 -0.9867 -1.9593 -1.2320
 4695SOL     OW25720   3.238   3.750  10.042  0.2644  0.3104  0.9506
 4695SOL    HW125721   3.265   3.798   9.964 -0.6629 -0.0076  0.4367
 4695SOL    HW225722   3.273   3.805  10.112  0.8081 -0.7158  1.4942
 4696SOL     OW25723   2.058   3.834   1.674  0.2379 -0.3259  0.4663
 4696SOL    HW125724   2.049   3.763   1.610  1.2039 -0.4622  0.4828
 4696SOL    HW225725   1.965   3.849   1.690 -0.4211 -3.4322 -0.4914
 4697SOL     OW25726   3.852   2.543   7.139  0.2254  0.6485  0.1999
 4697SOL    HW125727   3.852   2.588   7.055 -2.2768 -1.1994 -0.7679
 4697SOL    HW225728   3.937   2.499   7.146  0.3372  0.6594 -1.1311
 4698SOL     OW25729   1.841   4.259   2.629 -0.2581  0.9518 -0.0054
 4698SOL    HW125730   1.854   4.348   2.663  1.0272  0.2643  1.3037
 4698SOL    HW225731   1.750   4.233   2.641 -0.1041  1.2032  1.6604
 4699SOL     OW25732   3.999   3.853   0.883 -0.3231 -0.1185 -0.1505
 4699SOL    HW125733   3.929   3.849   0.818 -1.1620  0.4090  0.7185
 4699SOL    HW225734   4.063   3.920   0.859  1.0529 -1.0288  0.9746
 4700SOL     OW25735   2.534   3.531   5.531 -0.0874  0.0759  0.4277
 4700SOL    HW125736   2.456   3.564   5.487  0.3378 -1.0888 -1.1891
 4700SOL    HW225737   2.599   3.545   5.463 -1.1272  0.9357 -0.3927
 4701SOL     OW25738   4.124   4.222  13.303 -0.3408 -0.1779  0.0397
 4701SOL    HW125739   4.036   4.190  13.282 -0.5713  0.4945 -0.0260
 4701SOL    HW225740   4.175   4.212  13.222  2.0809  0.9020  1.4456
 4702SOL     OW25741   1.731   0.307  17.119  0.2264  0.4164 -0.7549
 4702SOL    HW125742   1.639   0.305  17.094  0.1828  0.8290 -0.6298
 4702SOL    HW225743   1.745   0.398  17.147 -0.3753  0.2463  0.0962
 4703SOL     OW25744   1.416   3.705   5.650  0.2571  0.2930 -1.0141
 4703SOL    HW125745   1.508   3.681   5.652  0.1500 -0.0562 -0.3791
 4703SOL    HW225746   1.424   3.791   5.609  1.2943  1.3955  1.5182
 4704SOL     OW25747   1.790   0.184   8.535  0.5014  0.0299 -0.1881
 4704SOL    HW125748   1.810   0.223   8.620 -1.4465 -0.6787  0.5789
 4704SOL    HW225749   1.879   0.155   8.514  0.2048 -1.2889  0.3942
 4705SOL     OW25750   0.582   1.488   6.316  0.0887  0.1772 -0.2335
 4705SOL    HW125751   0.644   1.425   6.353 -0.3913 -0.6220 -0.7663
 4705SOL    HW225752   0.624   1.526   6.239 -3.1121  2.6482 -0.7553
 4706SOL     OW25753   4.649   3.822   2.805  0.1672 -0.5891  0.1475
 4706SOL    HW125754   4.596   3.788   2.878  0.7667 -1.5094  0.1553
 4706SOL    HW225755   4.736   3.840   2.841  0.5251 -2.8046  0.3746
 4707SOL     OW25756   3.347   4.315  13.155  0.7518  0.1625  0.5205
 4707SOL    HW125757   3.262   4.350  13.129  1.4100 -0.0242 -1.8725
 4707SOL    HW225758   3.402   4.392  13.140 -0.5474  0.9972  0.0205
 4708SOL     OW25759   1.782   3.486   3.430  0.2960  0.1074  0.7046
 4708SOL    HW125760   1.811   3.415   3.374  0.4425  0.8827 -0.1978
 4708SOL    HW225761   1.744   3.544   3.364 -1.3015 -3.1772 -1.2696
 4709SOL     OW25762   0.218   2.912  17.481 -0.0425 -0.4735  0.0001
 4709SOL    HW125763   0.151   2.942  17.420 -0.4622 -0.9989  0.1985
 4709SOL    HW225764   0.201   2.817  17.481 -0.5050 -0.3844 -1.1100
 4710SOL     OW25765   1.645   4.110   5.411  0.1173  0.1826  0.0888
 4710SOL    HW125766   1.632   4.205   5.419 -0.4441 -0.0785  2.3726
 4710SOL    HW225767   1.569   4.078   5.461 -0.7546  1.2394 -0.5397
 4711SOL     OW25768   1.783   1.699  16.981 -0.0724  0.4808  0.0425
 4711SOL    HW125769   1.816   1.632  17.040  0.2535 -0.7233 -1.5238
 4711SOL    HW225770   1.772   1.644  16.904 -0.5867  0.3180  0.2353
 4712SOL     OW25771   1.112   4.189   5.778 -0.5145  0.1391 -0.5719
 4712SOL    HW125772   1.188   4.133   5.766 -0.4524 -0.5522  3.2247
 4712SOL    HW225773   1.103   4.184   5.873  2.2368 -0.0990 -0.3225
 4713SOL     OW25774   3.719   0.819   9.334 -0.2512 -0.1022 -0.0364
 4713SOL    HW125775   3.742   0.882   9.402 -1.8995  0.5518 -0.0891
 4713SOL    HW225776   3.624   0.822   9.339 -0.2700 -0.7411 -0.0352
 4714SOL     OW25777   2.647   0.364   3.620  0.1364  0.4783 -0.2903
 4714SOL    HW125778   2.582   0.323   3.677  2.5144 -2.7676  0.1179
 4714SOL    HW225779   2.594   0.401   3.550 -0.4950 -1.6219 -0.9369
 4715SOL     OW25780   0.753   3.240   0.005  0.2083 -0.2238  0.4903
 4715SOL    HW125781   0.664   3.245  17.738 -0.2259 -0.8776  1.5598
 4715SOL    HW225782   0.763   3.336   0.008  1.0815 -0.2952 -0.0961
 4716SOL     OW25783   4.508   3.255   3.177  0.4847  0.0429 -0.6238
 4716SOL    HW125784   4.528   3.347   3.194  1.0168 -0.0181 -0.9253
 4716SOL    HW225785   4.417   3.263   3.148  0.5774 -0.3532 -1.0167
 4717SOL     OW25786   2.254   3.229   0.945  0.1085 -0.3994  0.5122
 4717SOL    HW125787   2.207   3.210   0.865  0.1251 -1.1568  0.6721
 4717SOL    HW225788   2.306   3.305   0.920  2.8753 -2.4873 -0.1832
 4718SOL     OW25789   0.774   0.756   5.458 -0.3007 -0.3285 -0.4596
 4718SOL    HW125790   0.772   0.674   5.409  2.1755 -0.3696 -0.5020
 4718SOL    HW225791   0.862   0.761   5.496 -1.0020  0.2821  1.0707
 4719SOL     OW25792   2.400   4.455   8.005 -0.0289 -0.2932  0.0135
 4719SOL    HW125793   2.414   4.371   8.047 -2.1987 -0.1432  0.9820
 4719SOL    HW225794   2.433   4.442   7.916  1.7208  2.1873  0.3098
 4720SOL     OW25795   4.439   3.610   2.027  0.2571 -0.3121  0.5229
 4720SOL    HW125796   4.493   3.682   2.060 -0.3641 -0.8267  2.6671
 4720SOL    HW225797   4.443   3.553   2.103 -2.5360 -1.1385  0.0235
 4721SOL     OW25798   2.275   1.643   6.630 -0.1041 -0.0675 -0.3250
 4721SOL    HW125799   2.316   1.717   6.586  0.0569  0.6623  1.0453
 4721SOL    HW225800   2.355   1.599   6.658 -0.0157  1.3438  1.6308
 4722SOL     OW25801   0.628   2.737  14.572  0.4831  0.0535 -0.2746
 4722SOL    HW125802   0.647   2.780  14.488  0.5221  0.4168 -0.0773
 4722SOL    HW225803   0.541   2.703  14.552  1.1924 -1.1080 -1.3946
 4723SOL     OW25804   2.905   1.717  17.713  0.0116  0.4270 -0.5069
 4723SOL    HW125805   2.821   1.689  17.675 -0.7642 -0.5654  1.9387
 4723SOL    HW225806   2.968   1.658  17.672  1.3870  2.1209 -0.8336
 4724SOL     OW25807   0.798   2.657   0.460  0.3339  0.1158  0.1066
 4724SOL    HW125808   0.860   2.707   0.513  0.7317  0.7064 -0.9156
 4724SOL    HW225809   0.722   2.650   0.517 -1.1190 -1.9429 -2.0735
 4725SOL     OW25810   3.267   1.298   1.805 -0.3394 -0.0212  0.3779
 4725SOL    HW125811   3.318   1.331   1.731 -0.6693  0.1551  0.2286
 4725SOL    HW225812   3.203   1.237   1.769 -0.0961  0.4565 -0.8780
 4726SOL     OW25813   2.881   0.722  17.421  0.7550  0.0945 -0.2147
 4726SOL    HW125814   2.966   0.760  17.442 -0.3216  1.2173  2.1714
 4726SOL    HW225815   2.871   0.753  17.330  0.2837  3.6318  1.0220
 4727SOL     OW25816   1.700   2.498   2.607 -0.0426  0.2481  0.2154
 4727SOL    HW125817   1.675   2.571   2.664  0.9304  1.2608 -0.6568
 4727SOL    HW225818   1.795   2.502   2.618  0.1928  0.1713 -1.7706
 4728SOL     OW25819   2.676   3.661   2.207  0.9375 -0.4837  0.1855
 4728SOL    HW125820   2.723   3.704   2.279 -1.1657 -0.2922  1.4390
 4728SOL    HW225821   2.731   3.583   2.201  0.8800 -0.5366  0.3645
 4729SOL     OW25822   2.193   4.023   5.543  0.0375 -0.7615 -0.1505
 4729SOL    HW125823   2.171   3.977   5.462 -1.4210  1.4551 -1.0031
 4729SOL    HW225824   2.130   4.095   5.548 -0.6860 -1.2511 -1.9867
 4730SOL     OW25825   2.719   3.881   3.135  0.4817 -0.1161  0.0264
 4730SOL    HW125826   2.701   3.791   3.106  0.2800  0.0319 -0.3145
 4730SOL    HW225827   2.642   3.881   3.191 -1.4601  0.4856 -2.6149
 4731SOL     OW25828   0.869   3.975   9.291  0.7725  0.3339 -0.1335
 4731SOL    HW125829   0.788   4.024   9.307  0.9521  0.8185 -0.7138
 4731SOL    HW225830   0.860   3.954   9.198 -0.3002  0.7275 -0.1139
 4732SOL     OW25831   2.785   3.110   7.701  0.8625  0.6254 -0.3759
 4732SOL    HW125832   2.837   3.054   7.643 -0.7836 -0.5411 -0.7468
 4732SOL    HW225833   2.830   3.094   7.784  0.5574  0.2327 -0.2829
 4733SOL     OW25834   0.487   3.442   3.252 -0.3573  0.1233  0.2368
 4733SOL    HW125835   0.516   3.398   3.332  0.0524  0.6162  0.3565
 4733SOL    HW225836   0.552   3.406   3.192 -0.2107 -0.7660  0.9112
 4734SOL     OW25837   2.863   3.997   2.625 -0.2826 -0.2555  0.1282
 4734SOL    HW125838   2.880   4.012   2.717 -1.2010 -0.5304  0.3452
 4734SOL    HW225839   2.796   4.058   2.593  0.0974 -0.0114 -0.2006
 4735SOL     OW25840   0.339   1.789   4.940 -0.4265 -0.3162  0.1407
 4735SOL    HW125841   0.277   1.716   4.934  0.9489 -1.4868  0.1229
 4735SOL    HW225842   0.315   1.834   5.021 -0.9609 -0.1174 -0.1290
 4736SOL     OW25843   3.519   1.534   6.432 -0.4541  0.3300  0.4198
 4736SOL    HW125844   3.600   1.512   6.386 -1.8658  1.1006 -2.4413
 4736SOL    HW225845   3.502   1.446   6.464 -1.2991  0.5756  0.6439
 4737SOL     OW25846   4.446   2.471   8.647 -0.2881 -0.1226 -0.2369
 4737SOL    HW125847   4.380   2.426   8.594  1.1334 -0.3583 -1.8041
 4737SOL    HW225848   4.427   2.564   8.633 -0.4644 -0.2634 -0.9318
 4738SOL     OW25849   4.250   2.174   6.476  0.1328 -0.4531  0.7785
 4738SOL    HW125850   4.158   2.159   6.498  0.0910 -1.7948 -0.3122
 4738SOL    HW225851   4.271   2.248   6.532  0.1704  0.3977 -0.3495
 4739SOL     OW25852   3.842   2.161   3.182  0.2806  0.0320  0.3295
 4739SOL    HW125853   3.791   2.174   3.102  0.6120  0.6449  0.2215
 4739SOL    HW225854   3.773   2.157   3.248  1.1285  0.5742  1.2452
 4740SOL     OW25855   3.067   4.402   8.177  0.0144 -0.3533  0.4594
 4740SOL    HW125856   3.003   4.337   8.147 -0.1337  0.4165 -0.8895
 4740SOL    HW225857   3.021   4.485   8.162  0.8212 -0.0900 -0.5953
 4741SOL     OW25858   0.212   3.939   6.574 -0.4900 -0.5032  0.0860
 4741SOL    HW125859   0.280   3.950   6.508 -1.4546  0.8643 -0.6871
 4741SOL    HW225860   0.268   3.903   6.642  1.1057  0.1388 -0.8897
 4742SOL     OW25861   4.238   3.491   4.249 -0.9408  0.0482  0.4482
 4742SOL    HW125862   4.166   3.487   4.186  0.4598  0.0546 -1.1663
 4742SOL    HW225863   4.255   3.401   4.275  0.3254  0.1348 -0.0634
 4743SOL     OW25864   2.579   2.308   5.433  0.0041 -0.4074 -0.3924
 4743SOL    HW125865   2.559   2.270   5.348 -0.0875 -1.2161 -0.0122
 4743SOL    HW225866   2.491   2.335   5.459  0.3119 -0.3517  0.5932
 4744SOL     OW25867   3.096   3.786   6.040  1.0420 -0.2977 -0.5834
 4744SOL    HW125868   3.144   3.815   6.118 -0.5688  0.9769 -0.0646
 4744SOL    HW225869   3.014   3.766   6.085  0.6060  3.3303  0.2231
 4745SOL     OW25870   3.988   2.066   3.404 -0.3047 -0.0789 -0.2531
 4745SOL    HW125871   3.954   2.153   3.425  2.3357  0.7566  0.5988
 4745SOL    HW225872   3.938   2.057   3.323 -2.6352  2.2555  0.9302
 4746SOL     OW25873   4.579   2.338   7.356 -0.0638  0.1504 -0.5581
 4746SOL    HW125874   4.673   2.334   7.375  0.0625  3.3265 -0.5134
 4746SOL    HW225875   4.568   2.245   7.337 -0.9310  0.7133 -2.7280
 4747SOL     OW25876   4.705   1.269   3.327 -0.2551  0.0926 -0.4429
 4747SOL    HW125877   4.614   1.262   3.298 -0.4105 -2.7983  0.7641
 4747SOL    HW225878   4.727   1.350   3.282  0.6379 -0.1813 -0.5110
 4748SOL     OW25879   0.889   1.516  13.689 -0.0086  0.2038  0.5832
 4748SOL    HW125880   0.873   1.473  13.605 -0.6208  0.4069  0.5979
 4748SOL    HW225881   0.950   1.587  13.667  1.6123 -0.9222  1.4729
 4749SOL     OW25882   3.164   2.287  16.245  0.3552  0.2920  0.2364
 4749SOL    HW125883   3.124   2.371  16.268 -0.7744  0.5374 -2.6617
 4749SOL    HW225884   3.157   2.237  16.327 -1.5717 -0.9077 -0.6602
 4750SOL     OW25885   3.726   2.449  16.079 -0.1951  0.6468 -0.1699
 4750SOL    HW125886   3.676   2.368  16.068  1.4139 -0.1274 -1.6750
 4750SOL    HW225887   3.749   2.443  16.172 -0.6144 -1.2214 -0.1874
 4751SOL     OW25888   4.730   4.032   7.900 -0.2416  0.1979 -0.1421
 4751SOL    HW125889   4.724   3.955   7.845  2.5325 -0.7643  0.8926
 4751SOL    HW225890   0.029   4.004   7.982 -0.8793  0.9164  0.4327
 4752SOL     OW25891   3.344   2.438   6.468 -0.3013  0.6657 -0.2235
 4752SOL    HW125892   3.305   2.370   6.523  0.3357  1.4066  1.1588
 4752SOL    HW225893   3.328   2.515   6.523 -0.5244 -1.3319  2.5458
 4753SOL     OW25894   4.567   1.723   3.640 -0.6645  0.8330 -0.1624
 4753SOL    HW125895   4.654   1.759   3.628 -0.4331 -0.7448 -3.1882
 4753SOL    HW225896   4.541   1.706   3.550 -2.1123 -0.2507  0.4461
 4754SOL     OW25897   3.509   1.941   9.231  0.0725 -0.0719 -0.2876
 4754SOL    HW125898   3.458   1.951   9.312  0.0320  2.7516 -0.6603
 4754SOL    HW225899   3.498   2.025   9.186 -0.2994  0.6230  1.1030
 4755SOL     OW25900   4.265   1.885   6.877  0.5435 -0.2738  0.4645
 4755SOL    HW125901   4.175   1.896   6.909  0.2803 -1.6796  0.2312
 4755SOL    HW225902   4.284   1.958   6.819 -0.1438  0.7691  1.5637
 4756SOL     OW25903   3.078   4.636   8.373 -0.2262  0.3742 -0.5929
 4756SOL    HW125904   3.129   4.698   8.425 -0.5991  0.5763 -0.4683
 4756SOL    HW225905   3.148   4.600   8.319  0.5077  1.5710 -0.4334
 4757SOL     OW25906   4.194   3.528   7.958  0.0507  0.1956 -0.2577
 4757SOL    HW125907   4.124   3.544   8.021  0.5676 -1.2599  0.6834
 4757SOL    HW225908   4.157   3.472   7.889 -1.9141  0.4995  0.5351
 4758SOL     OW25909   2.955   2.955   9.147 -0.2418  0.0438  0.0989
 4758SOL    HW125910   2.922   3.026   9.202  1.0676  0.4154  0.3881
 4758SOL    HW225911   2.881   2.894   9.145 -0.3557  0.2418 -1.5033
 4759SOL     OW25912   0.931   4.257   1.994 -0.3327 -0.2522 -0.8449
 4759SOL    HW125913   0.864   4.325   1.995 -0.5624 -0.4823 -0.7093
 4759SOL    HW225914   0.920   4.212   2.078 -1.2043  1.1762 -0.2025
 4760SOL     OW25915   3.512   1.544   8.138  0.5085  0.2812  0.1606
 4760SOL    HW125916   3.469   1.613   8.088  0.4909  0.3504  0.2714
 4760SOL    HW225917   3.535   1.591   8.219 -1.0109  0.4249  0.5090
 4761SOL     OW25918   2.485   4.434  11.204 -0.2009  0.4454 -0.4441
 4761SOL    HW125919   2.569   4.443  11.250  0.4833  0.4193 -1.6914
 4761SOL    HW225920   2.431   4.457  11.279 -2.0881 -3.8005 -0.4820
 4762SOL     OW25921   1.122   2.390  11.167 -0.4611  0.1883  0.0720
 4762SOL    HW125922   1.145   2.432  11.249 -0.9516  1.6784 -0.5443
 4762SOL    HW225923   1.028   2.380  11.178 -0.6570  0.7331 -1.0745
 4763SOL     OW25924   0.313   0.544   1.429 -0.2491 -0.0166  0.8096
 4763SOL    HW125925   0.385   0.489   1.460  1.7743  1.4109 -1.3139
 4763SOL    HW225926   0.353   0.583   1.351  0.4916 -0.1886  1.1022
 4764SOL     OW25927   4.309   0.921   9.518  0.7119 -0.0128  0.8492
 4764SOL    HW125928   4.271   1.006   9.540 -1.9683 -1.2382  0.9728
 4764SOL    HW225929   4.260   0.895   9.440  1.4353  1.4803 -0.0841
 4765SOL     OW25930   3.029   2.387   4.687 -0.0670 -0.2042  0.0282
 4765SOL    HW125931   2.958   2.322   4.691 -2.1703  1.9650 -1.5720
 4765SOL    HW225932   3.091   2.354   4.622  0.3524  2.5668 -1.0017
 4766SOL     OW25933   4.479   2.673   7.671 -0.1449  0.3546  0.6955
 4766SOL    HW125934   4.461   2.632   7.756  1.0198  0.9657  1.2285
 4766SOL    HW225935   4.471   2.595   7.617 -0.0308  0.0710  1.0856
 4767SOL     OW25936   4.649   0.791  11.615  0.0182  0.4695  0.5227
 4767SOL    HW125937   4.564   0.832  11.631 -0.0898 -0.0300  1.2619
 4767SOL    HW225938   4.624   0.739  11.538 -0.0514 -0.0792  0.9115
 4768SOL     OW25939   0.642   2.604   5.799 -0.7197  0.3979  0.0365
 4768SOL    HW125940   0.631   2.682   5.853  2.0250  0.5017  0.4302
 4768SOL    HW225941   0.553   2.568   5.795 -0.9034  0.9740 -0.9207
 4769SOL     OW25942   1.524   4.049   3.106  0.2413 -0.2597 -0.2847
 4769SOL    HW125943   1.440   4.017   3.074 -0.3366  1.3970 -0.4216
 4769SOL    HW225944   1.503   4.132   3.150 -1.0821 -1.2577  0.9541
 4770SOL     OW25945   4.567   3.735   5.556  0.0802  0.2138 -0.1423
 4770SOL    HW125946   4.554   3.826   5.581 -0.4264  0.7670 -2.4701
 4770SOL    HW225947   4.551   3.699   5.643 -2.0577  0.0957 -0.5698
 4771SOL     OW25948   1.488   1.040  14.626  0.1167 -0.2980 -0.0347
 4771SOL    HW125949   1.573   1.010  14.594  0.6302  1.4793 -0.3425
 4771SOL    HW225950   1.518   1.103  14.692  0.4193 -0.6605  0.1660
 4772SOL     OW25951   3.578   0.197   2.807 -0.0495  0.1449  0.3739
 4772SOL    HW125952   3.620   0.118   2.772 -2.5167 -0.5310 -1.0249
 4772SOL    HW225953   3.638   0.227   2.875  0.5654 -0.1659 -0.0199
 4773SOL     OW25954   3.698   3.074   4.153  0.0489  0.1631  0.2529
 4773SOL    HW125955   3.718   3.062   4.246  1.9825 -0.2003 -0.2120
 4773SOL    HW225956   3.740   3.157   4.132 -0.5419  0.9016  1.9429
 4774SOL     OW25957   0.608   1.064   4.014 -0.9130 -0.1271  0.2120
 4774SOL    HW125958   0.570   1.108   3.938  1.0406  0.1328 -0.6103
 4774SOL    HW225959   0.548   1.079   4.087 -0.1557  0.4754  0.7074
 4775SOL     OW25960   1.680   0.464   8.882  0.1945 -0.0851  0.2267
 4775SOL    HW125961   1.650   0.377   8.856 -0.2676  0.4762 -1.1081
 4775SOL    HW225962   1.761   0.435   8.923  0.6186 -0.3723 -0.8197
 4776SOL     OW25963   0.315   1.505   2.574  0.4079  0.0932  0.0491
 4776SOL    HW125964   0.317   1.514   2.479  0.3430  0.1050  0.0486
 4776SOL    HW225965   0.378   1.433   2.584  1.0025  0.7928  1.3299
 4777SOL     OW25966   0.528   3.091   7.268  0.2856  0.2224  0.3081
 4777SOL    HW125967   0.614   3.123   7.297  1.6344 -1.7467 -1.5815
 4777SOL    HW225968   0.536   2.996   7.266  0.1429  0.2088  0.4328
 4778SOL     OW25969   4.192   3.520   5.640 -0.6646  0.1075  0.5695
 4778SOL    HW125970   4.195   3.551   5.550  0.4528  0.6727  0.8015
 4778SOL    HW225971   4.281   3.485   5.648 -0.9053 -0.5058  0.5696
 4779SOL     OW25972   3.946   1.275  15.135  0.1329 -0.2509 -1.0450
 4779SOL    HW125973   3.964   1.191  15.093 -1.0969 -0.7541 -0.5569
 4779SOL    HW225974   3.854   1.280  15.110  0.1861 -0.5032 -1.2950
 4780SOL     OW25975   2.655   3.122   6.913  0.0025  0.1415  0.3894
 4780SOL    HW125976   2.601   3.043   6.904 -0.6285  0.3265  2.3938
 4780SOL    HW225977   2.628   3.137   7.004 -2.0093 -2.8584  0.3105
 4781SOL     OW25978   3.468   0.646   6.696  0.2132 -0.3716 -0.7794
 4781SOL    HW125979   3.452   0.624   6.604 -2.1978 -0.2907 -0.3941
 4781SOL    HW225980   3.387   0.694   6.713  1.5702  2.4480 -2.2215
 4782SOL     OW25981   2.329   3.344  15.633  0.5039  0.2109  0.8293
 4782SOL    HW125982   2.344   3.373  15.723  1.0496 -1.4723  1.2853
 4782SOL    HW225983   2.300   3.254  15.648  0.1239  0.7222  3.1237
 4783SOL     OW25984   4.715   3.724   3.678 -0.1453  0.0819  0.0488
 4783SOL    HW125985   0.002   3.703   3.767  0.8147 -0.0374 -0.2918
 4783SOL    HW225986   4.721   3.640   3.632 -0.7975 -0.0227  0.1596
 4784SOL     OW25987   4.655   3.687  12.474 -0.3531 -0.0541  0.3474
 4784SOL    HW125988   4.579   3.714  12.423  1.9340  0.8628 -2.5642
 4784SOL    HW225989   4.675   3.779  12.492 -0.2648 -0.2297  1.1645
 4785SOL     OW25990   0.955   3.457  10.753  0.4604 -0.2501 -0.1212
 4785SOL    HW125991   0.889   3.388  10.755  0.3111 -0.0336  2.8194
 4785SOL    HW225992   0.976   3.470  10.846 -1.3223 -1.1580  0.4172
 4786SOL     OW25993   1.056   1.116   8.395 -0.2818  1.0700  0.0244
 4786SOL    HW125994   0.985   1.173   8.424 -0.6895  0.3789  0.3862
 4786SOL    HW225995   1.128   1.179   8.388 -0.6077  1.0891 -2.9749
 4787SOL     OW25996   0.762   2.068   5.877  0.2663 -0.8824  0.0515
 4787SOL    HW125997   0.713   2.048   5.956  2.3763  0.7114  1.7621
 4787SOL    HW225998   0.816   2.132   5.924 -0.9138 -0.3326  0.6524
 4788SOL     OW25999   4.129   2.889   5.926  0.4182 -0.2327 -0.2041
 4788SOL    HW126000   4.203   2.901   5.867 -0.8509  2.0248 -1.3164
 4788SOL    HW226001   4.140   2.942   6.005  2.7119 -1.7459  0.4936
 4789SOL     OW26002   2.298   0.525   5.737 -0.2144 -0.0503  0.3320
 4789SOL    HW126003   2.264   0.583   5.805  1.5763  1.0964  0.2684
 4789SOL    HW226004   2.230   0.535   5.671 -1.3580 -3.3689  1.0408
 4790SOL     OW26005   4.294   0.693   6.358 -0.6809  0.1114  0.6849
 4790SOL    HW126006   4.269   0.641   6.282  0.9279 -0.8334  0.8140
 4790SOL    HW226007   4.389   0.698   6.350 -0.7438  1.7792  0.9680
 4791SOL     OW26008   1.788   1.030  14.252  0.3463 -0.0216  0.1776
 4791SOL    HW126009   1.883   1.026  14.259  0.4175  0.7719 -0.2961
 4791SOL    HW226010   1.749   1.033  14.339 -0.1031 -0.1514 -0.0161
 4792SOL     OW26011   4.490   0.704   2.861 -0.4130 -0.3161  0.4534
 4792SOL    HW126012   4.500   0.704   2.766 -1.4630 -0.3431  0.3359
 4792SOL    HW226013   4.397   0.681   2.874 -1.8545  2.7751 -4.5172
 4793SOL     OW26014   0.073   2.768   2.207 -0.1180  0.1192 -0.6453
 4793SOL    HW126015   0.158   2.735   2.237  0.5325  2.3240 -0.0188
 4793SOL    HW226016   0.055   2.844   2.263  1.7737  1.0919 -1.3775
 4794SOL     OW26017   0.746   2.137   2.238  0.3790 -0.0313 -0.1635
 4794SOL    HW126018   0.782   2.182   2.314  1.3634 -0.2594 -0.4990
 4794SOL    HW226019   0.796   2.186   2.173 -1.1892 -0.3599 -1.6137
 4795SOL     OW26020   2.471   0.956   2.828  0.7405 -0.0752  0.4231
 4795SOL    HW126021   2.513   1.034   2.794  0.5383  1.0525  2.7435
 4795SOL    HW226022   2.491   0.960   2.922  0.1037  0.0936  0.5512
 4796SOL     OW26023   1.480   2.105   6.504 -0.4008 -0.5185  0.5599
 4796SOL    HW126024   1.569   2.138   6.515 -0.5385  0.1052 -0.1608
 4796SOL    HW226025   1.461   2.134   6.414 -0.9965  0.1273  0.8942
 4797SOL     OW26026   3.923   3.844   3.420  0.6694 -0.4787  0.2930
 4797SOL    HW126027   3.915   3.905   3.493 -0.9127 -0.1064 -0.1894
 4797SOL    HW226028   3.986   3.895   3.369 -0.1276  1.5162  1.2736
 4798SOL     OW26029   3.509   3.992  10.808  0.4624  0.3792  0.4093
 4798SOL    HW126030   3.422   4.020  10.781  0.8355  1.2952  0.1532
 4798SOL    HW226031   3.498   3.970  10.901  0.7435 -4.0555 -0.6270
 4799SOL     OW26032   1.537   2.739   8.222  0.2835  0.3184 -0.2750
 4799SOL    HW126033   1.609   2.788   8.264  0.6058  0.4730 -0.9951
 4799SOL    HW226034   1.559   2.647   8.231  0.0716  0.4377  1.4636
 4800SOL     OW26035   4.267   0.611   2.211 -0.1221  0.2496 -0.2139
 4800SOL    HW126036   4.248   0.547   2.142 -1.2076 -0.6689  0.9530
 4800SOL    HW226037   4.234   0.692   2.172  0.6958  1.1426  0.9835
 4801SOL     OW26038   1.449   3.007   3.270  0.2788  0.0245  0.1792
 4801SOL    HW126039   1.374   2.948   3.264 -1.2686  1.9457  0.5188
 4801SOL    HW226040   1.522   2.949   3.248 -0.7432 -0.7482 -1.1241
 4802SOL     OW26041   2.229   1.907  10.438 -0.1713 -0.0010 -0.0098
 4802SOL    HW126042   2.211   1.849  10.364  0.1668 -1.2538  0.8941
 4802SOL    HW226043   2.319   1.879  10.454 -0.4648 -1.1551 -0.4124
 4803SOL     OW26044   4.638   4.033   6.004  0.2402  0.3103 -0.2434
 4803SOL    HW126045   4.701   3.961   6.010  3.3218  2.9819 -0.8191
 4803SOL    HW226046   4.562   3.975   6.011  0.9019 -0.6103 -0.6626
 4804SOL     OW26047   3.922   4.491   6.390 -0.1873  0.4642 -0.2138
 4804SOL    HW126048   3.974   4.422   6.349  0.2568  0.2713  0.6625
 4804SOL    HW226049   3.924   4.477   6.485  0.5220  0.1641 -0.2727
 4805SOL     OW26050   0.070   0.781   9.942 -0.5083  0.0076  0.4820
 4805SOL    HW126051   0.113   0.762  10.025  0.2049 -0.5602 -0.0180
 4805SOL    HW226052   0.138   0.762   9.878 -0.0545  1.2128  0.6118
 4806SOL     OW26053   3.161   2.265   6.613 -0.0451 -0.5069 -0.4765
 4806SOL    HW126054   3.145   2.274   6.707  0.4069  2.5968 -0.6890
 4806SOL    HW226055   3.082   2.308   6.580 -0.1276 -1.1624 -1.1370
 4807SOL     OW26056   2.447   1.983   1.129 -0.6533 -0.3911 -0.5774
 4807SOL    HW126057   2.359   1.996   1.162  0.2222  0.3740  1.4451
 4807SOL    HW226058   2.469   1.893   1.156  2.4617  0.5213 -0.0227
 4808SOL     OW26059   0.194   1.998   6.556  0.1079 -0.1036 -0.1179
 4808SOL    HW126060   0.112   1.974   6.600 -0.4520  1.5166 -0.2589
 4808SOL    HW226061   0.205   2.093   6.565  4.4889 -0.6136 -0.0259
 4809SOL     OW26062   4.361   3.433   2.715 -1.2377 -0.2294  0.0045
 4809SOL    HW126063   4.309   3.503   2.755  0.7407  1.3351 -0.1648
 4809SOL    HW226064   4.323   3.427   2.628  1.6315 -1.4075 -1.1677
 4810SOL     OW26065   4.022   2.483   6.692 -0.1535  0.2553 -0.2106
 4810SOL    HW126066   3.930   2.500   6.711 -0.0405  0.5625  0.0644
 4810SOL    HW226067   4.054   2.565   6.655  1.7943 -0.5428 -0.3169
 4811SOL     OW26068   1.393   4.402   4.074  0.0992 -0.3983  0.0907
 4811SOL    HW126069   1.308   4.358   4.077 -0.3308  0.5505  1.9863
 4811SOL    HW226070   1.380   4.478   4.131  1.3437  0.2967 -0.5544
 4812SOL     OW26071   4.505   3.431   4.769  0.8087 -0.0095 -0.1510
 4812SOL    HW126072   4.453   3.498   4.813 -0.9970 -0.3732 -1.7729
 4812SOL    HW226073   4.588   3.479   4.767  0.0279  1.6417  5.4712
 4813SOL     OW26074   2.490   2.884  13.319 -0.4277  0.7338 -0.1085
 4813SOL    HW126075   2.513   2.909  13.409  1.3126 -1.6417  0.1171
 4813SOL    HW226076   2.513   2.968  13.279  0.2055  1.1875  1.1910
 4814SOL     OW26077   0.624   0.959   6.857 -0.6577 -0.0373 -0.2591
 4814SOL    HW126078   0.619   0.863   6.858 -1.3238 -0.0069 -1.3027
 4814SOL    HW226079   0.544   0.986   6.812 -1.8784  0.2741  2.0941
 4815SOL     OW26080   4.194   3.475   1.680 -0.4682 -0.0723  0.0732
 4815SOL    HW126081   4.262   3.536   1.709 -0.7778  0.4274 -0.2457
 4815SOL    HW226082   4.243   3.440   1.606  0.4266  0.1683  0.5535
 4816SOL     OW26083   3.128   2.880   7.269 -0.7216 -0.4566  0.0217
 4816SOL    HW126084   3.107   2.808   7.208  0.8302  1.6054 -2.9286
 4816SOL    HW226085   3.103   2.950   7.208  2.2166 -0.8960 -1.7112
 4817SOL     OW26086   3.594   2.241  16.019  0.2171 -0.2309  0.2538
 4817SOL    HW126087   3.524   2.198  16.068 -0.3804 -0.1279 -0.5177
 4817SOL    HW226088   3.574   2.201  15.934  1.1098 -0.1828  0.0128
 4818SOL     OW26089   0.308   0.830  15.638 -0.9756  0.4671  0.1740
 4818SOL    HW126090   0.343   0.917  15.659 -0.0214  0.2060 -0.3660
 4818SOL    HW226091   0.282   0.793  15.722  0.2192 -1.0968 -0.1509
 4819SOL     OW26092   1.499   0.098   7.075  0.6063  0.4987  0.1797
 4819SOL    HW126093   1.461   0.011   7.084  2.1869 -0.1731  0.3397
 4819SOL    HW226094   1.491   0.145   7.158 -0.5839  0.4225  0.1111
 4820SOL     OW26095   2.550   3.054   2.846 -0.1853  0.7121  0.2088
 4820SOL    HW126096   2.508   3.140   2.847  0.4198  1.0325 -1.2923
 4820SOL    HW226097   2.639   3.063   2.813 -0.1035  1.6709  0.6979
 4821SOL     OW26098   4.503   1.546  11.982  0.4416 -0.4047 -0.3716
 4821SOL    HW126099   4.433   1.484  12.004  0.0944  0.4754  0.9783
 4821SOL    HW226100   4.566   1.517  12.048  0.4207  0.4482  0.0208
 4822SOL     OW26101   1.641   1.421   4.952 -0.0867 -0.3616 -0.9826
 4822SOL    HW126102   1.609   1.344   5.000 -0.3238  1.0664  1.1457
 4822SOL    HW226103   1.714   1.455   5.004 -1.5745  1.3607 -0.0249
 4823SOL     OW26104   1.278   1.135   5.918 -0.2181  0.2283 -0.5453
 4823SOL    HW126105   1.281   1.230   5.905 -2.5809  0.7912  3.1389
 4823SOL    HW226106   1.332   1.124   5.996  2.0003  1.1156 -1.9509
 4824SOL     OW26107   2.893   3.697   7.362 -0.1314  0.1776 -0.3014
 4824SOL    HW126108   2.802   3.694   7.330 -0.1008 -0.0137 -0.3740
 4824SOL    HW226109   2.907   3.791   7.361  0.3373  0.1026 -0.8261
 4825SOL     OW26110   2.044   0.862   4.656  0.3721 -0.2780  0.1412
 4825SOL    HW126111   1.952   0.880   4.679  0.8765  0.7762  1.3447
 4825SOL    HW226112   2.090   0.883   4.737  0.1829  3.5170 -0.7358
 4826SOL     OW26113   4.383   2.612   4.662  0.0121  0.1310 -0.4217
 4826SOL    HW126114   4.321   2.683   4.677 -1.8874 -1.6171  0.0118
 4826SOL    HW226115   4.314   2.549   4.644  1.6900 -1.2506 -1.9851
 4827SOL     OW26116   2.051   0.170   2.335  0.0203 -0.1411  0.2190
 4827SOL    HW126117   2.009   0.092   2.299 -0.7221 -0.9070  2.7368
 4827SOL    HW226118   2.014   0.242   2.283 -1.8092 -0.5396  1.0002
 4828SOL     OW26119   3.376   0.485   4.182 -0.1616 -0.3440  0.3062
 4828SOL    HW126120   3.434   0.409   4.174 -3.6064 -3.1960  2.4256
 4828SOL    HW226121   3.299   0.469   4.128  1.3659 -1.1920 -1.6111
 4829SOL     OW26122   2.222   3.181   6.176  0.5597  0.4425 -0.6069
 4829SOL    HW126123   2.264   3.261   6.144  1.3684  0.3096  0.1215
 4829SOL    HW226124   2.286   3.120   6.138 -0.9019 -2.3569  1.4783
 4830SOL     OW26125   3.924   2.949   6.270 -0.7467 -0.2478  0.2960
 4830SOL    HW126126   3.845   2.975   6.318 -1.2775  0.7564 -1.1230
 4830SOL    HW226127   3.881   2.920   6.190  0.8495 -0.8610 -0.3373
 4831SOL     OW26128   3.753   4.226  14.395  0.3464 -0.2111 -0.2209
 4831SOL    HW126129   3.736   4.133  14.409  1.0116 -0.7072 -2.7081
 4831SOL    HW226130   3.664   4.260  14.409  0.7277 -0.1579  1.9728
 4832SOL     OW26131   2.983   1.408   5.561 -0.7446  0.2138 -0.1741
 4832SOL    HW126132   2.969   1.347   5.489 -0.7028 -0.0067  0.0033
 4832SOL    HW226133   2.993   1.352   5.639  1.1853 -0.0686 -0.6270
 4833SOL     OW26134   1.541   0.764  12.104 -0.0876 -0.3379  0.2009
 4833SOL    HW126135   1.553   0.771  12.198 -0.3219  0.4409  0.1724
 4833SOL    HW226136   1.622   0.716  12.086  1.1982  1.7074  0.6160
 4834SOL     OW26137   3.550   0.851  16.560  0.4077 -0.4444  0.1200
 4834SOL    HW126138   3.532   0.833  16.653  0.6808  0.1643  0.2893
 4834SOL    HW226139   3.465   0.891  16.541  0.8536 -1.1783 -3.3816
 4835SOL     OW26140   3.524   0.075   7.252  0.3104 -0.1736  0.2265
 4835SOL    HW126141   3.575   4.742   7.222 -0.7664 -1.1728  0.8976
 4835SOL    HW226142   3.460   0.030   7.308  0.4964 -3.2282 -2.0099
 4836SOL     OW26143   1.252   4.316   4.803 -0.2789  0.4663  0.4978
 4836SOL    HW126144   1.317   4.265   4.755  0.9255  0.2932  2.3458
 4836SOL    HW226145   1.273   4.298   4.894 -1.5886  0.0190  0.7183
 4837SOL     OW26146   3.497   2.454   7.824  0.0258  0.8527 -0.4359
 4837SOL    HW126147   3.520   2.494   7.741 -0.3516  0.9534 -0.4931
 4837SOL    HW226148   3.566   2.483   7.885  1.1665 -0.2841 -1.1952
 4838SOL     OW26149   0.522   1.660   7.998  0.6738 -0.5293 -0.4466
 4838SOL    HW126150   0.609   1.677   8.032  0.5898  2.0626 -1.5464
 4838SOL    HW226151   0.547   1.663   7.905 -1.3229  2.7947 -0.8729
 4839SOL     OW26152   1.322   0.139   0.962 -0.5643 -0.3470 -0.2197
 4839SOL    HW126153   1.362   0.054   0.950  0.0696 -0.2192  1.0519
 4839SOL    HW226154   1.389   0.207   0.964 -0.1936 -0.7705  1.6795
 4840SOL     OW26155   4.663   4.360   4.114 -0.0454 -0.0195 -0.3256
 4840SOL    HW126156   4.688   4.305   4.040 -0.8187 -1.9963  0.9009
 4840SOL    HW226157   4.576   4.390   4.090 -0.4759 -0.6794  0.4350
 4841SOL     OW26158   4.113   0.837   7.563  0.2335  0.5395 -0.1372
 4841SOL    HW126159   4.117   0.746   7.534  0.5435  0.3409  0.5292
 4841SOL    HW226160   4.200   0.848   7.600  1.1085 -0.9615 -1.7782
 4842SOL     OW26161   0.648   4.121   5.459  0.7567 -0.3995  0.6379
 4842SOL    HW126162   0.605   4.043   5.493  0.4256 -0.1653  0.7663
 4842SOL    HW226163   0.595   4.150   5.385  1.7300 -2.3801 -0.8224
 4843SOL     OW26164   1.534   2.947   6.289  0.5813  0.7383  0.2703
 4843SOL    HW126165   1.538   2.851   6.291  0.8138  0.7273 -0.6914
 4843SOL    HW226166   1.516   2.954   6.195  1.8470 -3.5298 -0.3108
 4844SOL     OW26167   3.934   1.382   5.789  0.1588  0.6469 -1.2575
 4844SOL    HW126168   3.869   1.324   5.748  2.6002 -1.6727 -1.8227
 4844SOL    HW226169   3.984   1.412   5.713  1.6179 -0.2509 -0.6545
 4845SOL     OW26170   0.493   4.035   9.568 -0.7871 -0.8628 -0.0308
 4845SOL    HW126171   0.544   4.091   9.626 -3.4071 -0.0426  1.5237
 4845SOL    HW226172   0.501   3.955   9.619  1.5647 -0.5145  0.1478
 4846SOL     OW26173   4.434   0.181  14.381 -0.0209 -0.6089  0.3265
 4846SOL    HW126174   4.375   0.226  14.440  0.8418  1.7720 -0.6437
 4846SOL    HW226175   4.370   0.113  14.358 -1.2399  1.2889 -1.8522
 4847SOL     OW26176   0.597   2.629   4.377 -0.2306 -0.2362  1.3134
 4847SOL    HW126177   0.513   2.614   4.334 -0.0609 -2.0344  1.6207
 4847SOL    HW226178   0.621   2.537   4.385 -1.0668 -0.3897  2.0718
 4848SOL     OW26179   1.093   0.884   4.327 -0.4391  0.3098  0.0733
 4848SOL    HW126180   1.021   0.822   4.333 -0.8426  0.6557 -1.2938
 4848SOL    HW226181   1.058   0.963   4.368  1.0598  1.6846 -1.2649
 4849SOL     OW26182   1.080   3.252   5.407 -0.5503 -0.5831  0.2296
 4849SOL    HW126183   1.150   3.195   5.375 -0.1556  0.3361 -0.5547
 4849SOL    HW226184   1.054   3.206   5.487  1.4907 -0.2549  1.0741
 4850SOL     OW26185   1.659   3.861  15.851  1.0026 -0.6963  0.3852
 4850SOL    HW126186   1.638   3.935  15.908 -2.1363 -2.5635  1.6608
 4850SOL    HW226187   1.673   3.789  15.912  0.1416 -0.4057  0.9246
 4851SOL     OW26188   2.911   4.620   1.311 -0.7378  0.3937 -0.3681
 4851SOL    HW126189   2.867   4.657   1.235 -2.3829  0.9309  0.8554
 4851SOL    HW226190   2.986   4.578   1.269 -0.6865 -0.4521  0.5441
 4852SOL     OW26191   0.502   0.004   2.130 -0.8693 -0.7150  0.0701
 4852SOL    HW126192   0.496   4.667   2.076  1.7559 -1.3494  0.7052
 4852SOL    HW226193   0.512   4.716   2.220  1.7800 -3.6286 -1.1842
 4853SOL     OW26194   1.536   2.393   5.821  0.1184  0.5215  0.1187
 4853SOL    HW126195   1.630   2.410   5.819  0.2708 -0.3551 -0.7707
 4853SOL    HW226196   1.530   2.367   5.729 -0.5415 -1.1839  0.6435
 4854SOL     OW26197   4.407   2.472  13.671  0.6499  0.5641  0.0013
 4854SOL    HW126198   4.329   2.421  13.690  0.2398  1.1874 -0.0167
 4854SOL    HW226199   4.455   2.401  13.630 -2.7481 -1.8856  0.2963
 4855SOL     OW26200   2.102   1.092   5.572 -0.4069  0.5264 -0.1338
 4855SOL    HW126201   2.054   1.024   5.619 -0.1028  1.4406  1.4997
 4855SOL    HW226202   2.133   1.042   5.497  0.2128  1.4110 -0.4700
 4856SOL     OW26203   1.519   3.278   2.679 -0.4187  1.0203  0.3531
 4856SOL    HW126204   1.495   3.241   2.764  0.9712  0.4562  0.5054
 4856SOL    HW226205   1.472   3.360   2.692  0.7159  1.7067  0.0827
 4857SOL     OW26206   2.418   4.207  13.550 -0.6364  0.2103 -0.0152
 4857SOL    HW126207   2.449   4.153  13.623 -0.5400  1.9540  1.2421
 4857SOL    HW226208   2.423   4.142  13.481  2.8228  0.3783  0.1028
 4858SOL     OW26209   3.990   2.512   5.600 -0.0010  0.1221  0.6182
 4858SOL    HW126210   4.063   2.559   5.559 -0.1594  0.3448  0.5908
 4858SOL    HW226211   4.017   2.526   5.690  0.3657 -1.0772  0.6944
 4859SOL     OW26212   0.282   4.268   3.751  0.1077 -0.3022  0.1726
 4859SOL    HW126213   0.319   4.233   3.670  1.2646 -0.7681  0.8961
 4859SOL    HW226214   0.366   4.286   3.794 -0.2375  0.8576  0.3570
 4860SOL     OW26215   1.288   3.422   2.485  0.7445 -0.2639 -0.0165
 4860SOL    HW126216   1.312   3.482   2.415 -1.1315 -1.5151 -1.7348
 4860SOL    HW226217   1.367   3.432   2.539  0.0397  2.5093  0.5050
 4861SOL     OW26218   1.731   3.141   4.418 -0.4908 -0.2118 -0.1199
 4861SOL    HW126219   1.696   3.202   4.353 -0.6138  0.9057  0.9897
 4861SOL    HW226220   1.648   3.100   4.443 -0.5597 -1.0627 -1.7440
 4862SOL     OW26221   2.394   2.426   1.831  0.3486  0.6396  1.3455
 4862SOL    HW126222   2.443   2.508   1.829  0.8390  0.3780  2.4046
 4862SOL    HW226223   2.356   2.433   1.744  0.3815 -0.2920  1.2557
 4863SOL     OW26224   3.405   1.296   5.592  0.1685 -0.0971 -0.3345
 4863SOL    HW126225   3.478   1.358   5.596  0.5220 -0.4860 -0.7378
 4863SOL    HW226226   3.447   1.210   5.594  0.1118 -0.2014 -3.4897
 4864SOL     OW26227   0.823   3.710  14.192  0.3768 -0.8987 -0.0271
 4864SOL    HW126228   0.738   3.753  14.180  0.9083  0.3622  0.7765
 4864SOL    HW226229   0.819   3.635  14.132 -1.4470  0.5632 -1.7478
 4865SOL     OW26230   1.116   1.289   6.355  0.0592 -0.0984 -0.5626
 4865SOL    HW126231   1.084   1.304   6.444  0.4058 -0.0996 -0.4360
 4865SOL    HW226232   1.206   1.255   6.360 -1.0101 -2.5832  1.5020
 4866SOL     OW26233   1.810   1.440  15.707 -0.4133  0.1026 -0.6611
 4866SOL    HW126234   1.717   1.436  15.725 -0.4501 -0.8048 -1.0182
 4866SOL    HW226235   1.815   1.492  15.627  0.9458  0.5495 -0.3001
 4867SOL     OW26236   3.225   0.836   0.128  0.1868 -0.0147  0.7568
 4867SOL    HW126237   3.216   0.908   0.066 -2.6137 -2.4285 -1.6456
 4867SOL    HW226238   3.136   0.844   0.161 -0.1714  0.5948 -0.3875
 4868SOL     OW26239   4.676   2.864   7.045  0.1325 -0.1901 -0.4798
 4868SOL    HW126240   4.649   2.857   6.953 -2.6803 -1.8048  0.4543
 4868SOL    HW226241   4.672   2.773   7.074 -2.8788 -0.3748 -1.4188
 4869SOL     OW26242   0.396   4.337   7.857  0.0731 -0.3028  0.1452
 4869SOL    HW126243   0.468   4.389   7.891  2.7998 -3.9438 -0.0632
 4869SOL    HW226244   0.321   4.355   7.914 -0.3900 -2.0179  0.0900
 4870SOL     OW26245   2.397   1.380   5.673 -0.0152 -0.6991  0.5253
 4870SOL    HW126246   2.442   1.300   5.645  1.4990  0.8491 -1.4267
 4870SOL    HW226247   2.464   1.445   5.654 -0.7461 -0.2990 -0.6920
 4871SOL     OW26248   0.120   1.666   6.380 -0.4196  0.6803  0.2295
 4871SOL    HW126249   0.098   1.652   6.472 -0.0025  0.7525  0.3384
 4871SOL    HW226250   0.170   1.747   6.379  1.3918 -0.4411 -0.4925
 4872SOL     OW26251   2.453   2.665  11.107  0.1501  0.1407  0.1433
 4872SOL    HW126252   2.511   2.647  11.033  0.3369  0.3341  0.2451
 4872SOL    HW226253   2.376   2.704  11.067  1.3033  0.9602 -1.2949
 4873SOL     OW26254   4.117   1.340   4.620 -0.0547  0.2032  0.6822
 4873SOL    HW126255   4.057   1.350   4.694 -0.1657  1.5413  0.4080
 4873SOL    HW226256   4.146   1.429   4.599  0.8064 -0.6007 -1.5515
 4874SOL     OW26257   0.774   0.403   1.456  0.5153 -0.2029 -0.6982
 4874SOL    HW126258   0.811   0.469   1.515 -0.0184  0.3984 -1.0394
 4874SOL    HW226259   0.846   0.341   1.445  2.4952  1.8765  0.6665
 4875SOL     OW26260   2.397   1.022   3.433  0.5710  0.4277 -0.0803
 4875SOL    HW126261   2.417   1.033   3.526  0.0921 -0.4014  0.1222
 4875SOL    HW226262   2.454   0.946   3.418  2.4920  1.2049  3.2183
 4876SOL     OW26263   1.442   1.467   9.312 -0.2008  0.3829 -0.5494
 4876SOL    HW126264   1.495   1.397   9.349 -0.5184  0.3439 -0.1768
 4876SOL    HW226265   1.426   1.530   9.382  0.7844  0.4756 -0.3967
 4877SOL     OW26266   3.101   4.480   6.701 -0.2365 -0.5260  0.0583
 4877SOL    HW126267   3.129   4.390   6.720 -2.2731 -0.9415  1.1332
 4877SOL    HW226268   3.086   4.472   6.607  1.0960  3.4336 -0.4916
 4878SOL     OW26269   3.362   3.727  15.444 -0.6356 -0.2649 -0.4125
 4878SOL    HW126270   3.418   3.802  15.425 -0.2271 -0.5268 -0.2232
 4878SOL    HW226271   3.405   3.691  15.521 -1.4329 -2.2813 -0.9206
 4879SOL     OW26272   3.091   2.280  14.630  0.0052 -0.3617 -0.6144
 4879SOL    HW126273   3.077   2.320  14.545  0.0283 -0.3297 -0.6029
 4879SOL    HW226274   3.145   2.348  14.670 -0.1273 -0.4905 -0.2113
 4880SOL     OW26275   2.841   4.558   8.077  0.3524  1.2574 -0.1704
 4880SOL    HW126276   2.763   4.568   8.133  0.2517 -2.3183  0.3057
 4880SOL    HW226277   2.804   4.528   7.994 -0.2477 -2.3721  1.3824
 4881SOL     OW26278   3.046   3.143   5.509 -0.0896  0.3045 -0.3602
 4881SOL    HW126279   2.984   3.207   5.543 -0.6073 -0.2671 -0.2366
 4881SOL    HW226280   3.084   3.205   5.447 -4.4962  4.0327  0.7226
 4882SOL     OW26281   0.734   4.221   3.692  0.4010 -0.3902 -0.2596
 4882SOL    HW126282   0.758   4.290   3.754 -2.5999  0.7461 -0.3564
 4882SOL    HW226283   0.650   4.187   3.723 -0.9445  1.6425 -1.6036
 4883SOL     OW26284   1.728   1.202   5.235  0.5535  0.2125 -0.1362
 4883SOL    HW126285   1.642   1.217   5.196 -0.0385 -0.2785  0.9909
 4883SOL    HW226286   1.700   1.172   5.322  0.6658 -3.4147 -1.3588
 4884SOL     OW26287   3.020   3.695   4.653  0.1103  0.2661  0.2740
 4884SOL    HW126288   3.050   3.696   4.744 -0.8915  1.1009  0.5961
 4884SOL    HW226289   3.076   3.765   4.620  0.2474 -0.0098 -0.0710
 4885SOL     OW26290   1.813   2.230   9.495 -0.1626  0.0912 -0.7198
 4885SOL    HW126291   1.760   2.264   9.567  0.3843  1.6544 -1.0565
 4885SOL    HW226292   1.760   2.181   9.433 -2.8722  0.8042  1.0409
 4886SOL     OW26293   0.641   2.775   6.007  0.0178  0.0379 -0.2735
 4886SOL    HW126294   0.551   2.799   6.026  1.3143  1.8065  3.4515
 4886SOL    HW226295   0.691   2.853   6.033 -0.0805  1.4901 -4.3350
 4887SOL     OW26296   3.823   1.157   9.003 -0.0720 -0.1982  0.4102
 4887SOL    HW126297   3.779   1.181   8.921  0.3151  0.1311  0.2990
 4887SOL    HW226298   3.743   1.137   9.052 -0.1915 -0.7468 -0.0004
 4888SOL     OW26299   2.190   3.251  15.931  0.1264 -0.3374  0.3446
 4888SOL    HW126300   2.157   3.337  15.906 -0.3197 -1.0823 -1.7115
 4888SOL    HW226301   2.139   3.216  16.004 -1.3555 -0.6115 -0.8252
 4889SOL     OW26302   0.544   3.210   0.909 -0.2330 -0.0984 -0.3150
 4889SOL    HW126303   0.540   3.115   0.921  0.5054 -0.1471 -0.4736
 4889SOL    HW226304   0.450   3.230   0.901  0.1553  1.6145 -0.4734
 4890SOL     OW26305   3.056   2.796   6.359  0.6335 -0.7239  0.2518
 4890SOL    HW126306   3.064   2.840   6.274 -0.9536  2.3044  1.6600
 4890SOL    HW226307   3.030   2.866   6.420  1.7007 -0.6447  0.6231
 4891SOL     OW26308   3.828   1.638  14.672  0.4441 -0.7264 -0.4509
 4891SOL    HW126309   3.819   1.579  14.746 -0.6541 -1.0620 -0.8496
 4891SOL    HW226310   3.748   1.625  14.621  0.0989  2.6388 -0.8216
 4892SOL     OW26311   3.850   0.944  10.994 -0.1316  0.6820 -0.6966
 4892SOL    HW126312   3.944   0.937  11.012 -0.1459  0.5554 -0.6704
 4892SOL    HW226313   3.832   1.038  10.989 -1.6370  0.3465 -1.6840
 4893SOL     OW26314   3.553   1.485   3.824  0.0399 -0.7115 -0.1315
 4893SOL    HW126315   3.628   1.448   3.778  1.4910  0.6645  1.1644
 4893SOL    HW226316   3.492   1.478   3.750  0.8436 -2.4747 -0.6192
 4894SOL     OW26317   0.390   2.057   9.392 -0.4117  0.4769 -0.1450
 4894SOL    HW126318   0.456   2.105   9.441 -1.2042  1.0357  0.3603
 4894SOL    HW226319   0.444   1.982   9.366  0.3228  0.4592  1.4320
 4895SOL     OW26320   1.830   3.693   2.580  0.0395  0.1793  0.9234
 4895SOL    HW126321   1.819   3.748   2.502  0.3084  1.3032  1.6789
 4895SOL    HW226322   1.774   3.739   2.642 -0.2841 -2.0422  2.2490
 4896SOL     OW26323   3.993   2.067   4.538 -0.3852  0.1010 -0.0573
 4896SOL    HW126324   3.973   1.979   4.569 -1.2648  0.3478  0.0880
 4896SOL    HW226325   4.062   2.052   4.474  1.0979 -1.2085  1.8610
 4897SOL     OW26326   2.711   0.071   8.535 -0.3804 -0.1654  0.8071
 4897SOL    HW126327   2.770   0.145   8.549 -1.4041  0.4367  1.9654
 4897SOL    HW226328   2.673   0.075   8.447  0.7214  2.5013  0.4373
 4898SOL     OW26329   4.473   2.027   9.430 -0.0953 -0.1646  0.3497
 4898SOL    HW126330   4.556   2.049   9.388 -0.4568  0.6209  0.0482
 4898SOL    HW226331   4.470   2.097   9.495 -0.6975 -0.7813  0.9819
 4899SOL     OW26332   2.705   2.551   5.496 -0.3721 -0.8454  0.3771
 4899SOL    HW126333   2.767   2.506   5.552  1.3858  0.3404 -0.6178
 4899SOL    HW226334   2.644   2.480   5.476 -0.5685 -0.4965 -0.2827
 4900SOL     OW26335   0.808   0.951   3.062  0.3949  1.1120 -0.3103
 4900SOL    HW126336   0.798   0.861   3.033  1.4911  0.9311 -0.1320
 4900SOL    HW226337   0.758   0.951   3.143  0.1925 -2.5433 -0.4525
 4901SOL     OW26338   0.417   4.334   6.984  0.2051 -0.5381 -0.4953
 4901SOL    HW126339   0.383   4.403   7.040  0.5039  0.3355 -1.3874
 4901SOL    HW226340   0.338   4.281   6.994 -1.5417  2.4386  1.2931
 4902SOL     OW26341   0.473   1.054   5.523  0.0442  0.2597  0.5984
 4902SOL    HW126342   0.380   1.042   5.540 -0.3559 -0.2406 -2.1166
 4902SOL    HW226343   0.480   0.983   5.460  0.4504 -1.2256  2.3106
 4903SOL     OW26344   0.181   4.399   5.096 -0.0923 -0.3494 -0.4822
 4903SOL    HW126345   0.106   4.373   5.043 -1.8373 -1.4672  2.4926
 4903SOL    HW226346   0.146   4.443   5.173  0.9698 -0.5493  0.1248
 4904SOL     OW26347   4.504   0.218  12.512  0.3681 -0.2118  0.0953
 4904SOL    HW126348   4.460   0.238  12.430  0.2052 -1.7476 -0.1951
 4904SOL    HW226349   4.591   0.186  12.488 -0.3531 -0.1030 -2.7016
 4905SOL     OW26350   1.045   2.484   0.888 -0.7420  0.5548  0.0776
 4905SOL    HW126351   0.967   2.494   0.834 -0.7567 -2.9745 -0.5806
 4905SOL    HW226352   1.110   2.512   0.823  1.6099 -0.7559  1.8732
 4906SOL     OW26353   1.270   1.301   8.400  0.5791  0.6084 -0.4301
 4906SOL    HW126354   1.263   1.312   8.305  0.3149 -2.5590 -0.7895
 4906SOL    HW226355   1.305   1.384   8.433 -1.1551  0.4648  1.7802
 4907SOL     OW26356   4.464   2.909   6.785 -0.1504  0.3295  0.4713
 4907SOL    HW126357   4.427   2.933   6.700 -0.3213  3.5925  1.4514
 4907SOL    HW226358   4.392   2.919   6.848  0.3065  2.2830  0.6896
 4908SOL     OW26359   1.013   3.919   8.095 -0.3732  0.2411 -0.2258
 4908SOL    HW126360   0.928   3.949   8.062 -1.3210  0.0570  2.0641
 4908SOL    HW226361   1.012   3.835   8.050  0.5885 -0.2213  0.6083
 4909SOL     OW26362   0.951   4.427   8.673  0.5389  0.0725  0.4081
 4909SOL    HW126363   0.929   4.365   8.743 -1.1201 -0.0749 -0.2618
 4909SOL    HW226364   1.043   4.447   8.694  0.0700  0.5775  1.9704
 4910SOL     OW26365   1.931   4.592   7.344 -0.5394  0.2241  1.0605
 4910SOL    HW126366   1.877   4.671   7.347 -0.7372  0.1779 -1.0563
 4910SOL    HW226367   2.003   4.602   7.406 -0.2291  0.8686  0.5922
 4911SOL     OW26368   0.169   2.770   2.882 -0.4567  0.6162 -0.4509
 4911SOL    HW126369   0.116   2.713   2.938 -0.1417 -1.3824 -2.1762
 4911SOL    HW226370   0.142   2.736   2.796  0.4732 -2.1630  0.3402
 4912SOL     OW26371   0.505   2.069   8.511 -0.0184  0.7563 -0.0456
 4912SOL    HW126372   0.555   1.988   8.505 -1.4563 -0.2923  2.1435
 4912SOL    HW226373   0.531   2.106   8.595  1.0107  1.5915 -0.7283
 4913SOL     OW26374   3.594   1.562  14.551 -0.0684 -0.0091  0.4241
 4913SOL    HW126375   3.623   1.489  14.497 -1.5761  0.1100 -0.5451
 4913SOL    HW226376   3.539   1.603  14.485 -3.3632 -1.1011  2.4830
 4914SOL     OW26377   0.831   0.570  13.750 -0.0958 -0.6752 -0.3541
 4914SOL    HW126378   0.754   0.598  13.800 -0.9086  0.2326 -2.1047
 4914SOL    HW226379   0.871   0.657  13.747  0.5184 -1.0874 -3.6651
 4915SOL     OW26380   1.605   0.043  14.538 -0.4589 -0.4407  0.3293
 4915SOL    HW126381   1.569   4.718  14.596  2.5286 -2.0592  0.2863
 4915SOL    HW226382   1.633   0.003  14.456 -0.9446 -3.2817  1.5382
 4916SOL     OW26383   4.470   1.152   2.201  0.1603  0.5358  0.2969
 4916SOL    HW126384   4.460   1.057   2.193  0.1126  0.7469 -2.2203
 4916SOL    HW226385   4.456   1.163   2.295 -1.5261  0.5117  0.0571
 4917SOL     OW26386   1.629   4.098   4.913  0.0090  0.1856  0.4335
 4917SOL    HW126387   1.634   4.003   4.923  1.5224  0.2653  0.3948
 4917SOL    HW226388   1.711   4.125   4.872 -1.2871  1.9775 -0.9805
 4918SOL     OW26389   2.276   2.206  14.588 -0.0818 -0.1221  0.4915
 4918SOL    HW126390   2.305   2.296  14.599  1.8640 -0.6076 -0.7434
 4918SOL    HW226391   2.321   2.163  14.660 -1.0182 -2.1867 -0.1399
 4919SOL     OW26392   0.643   4.102   9.342  0.4427 -0.0525  0.0367
 4919SOL    HW126393   0.650   4.197   9.335  0.4142  0.0326  1.1192
 4919SOL    HW226394   0.605   4.083   9.427  1.5048  0.3987  0.6181
 4920SOL     OW26395   3.807   3.349   7.786  0.2659 -0.1946 -0.1113
 4920SOL    HW126396   3.810   3.417   7.853  0.3376 -0.8230  0.5230
 4920SOL    HW226397   3.843   3.269   7.826 -0.2808 -0.3958 -0.0210
 4921SOL     OW26398   3.193   0.827   3.483 -0.2445  0.1179  0.2985
 4921SOL    HW126399   3.165   0.759   3.422  0.7853 -0.8295  0.9022
 4921SOL    HW226400   3.278   0.851   3.446 -0.5036 -0.1563 -0.4728
 4922SOL     OW26401   0.938   2.839   0.619 -0.7758  0.3867 -0.0262
 4922SOL    HW126402   0.879   2.828   0.693 -2.1061 -1.5970 -1.3657
 4922SOL    HW226403   0.920   2.929   0.595  0.5070  0.8742  0.8359
 4923SOL     OW26404   3.324   2.107  14.606  0.5663  0.5241  0.5802
 4923SOL    HW126405   3.257   2.166  14.573  0.9127  0.2932 -0.5504
 4923SOL    HW226406   3.274   2.025  14.608  0.6539  0.4652  0.3152
 4924SOL     OW26407   1.219   2.551   2.362  0.1102  0.3790  0.2182
 4924SOL    HW126408   1.289   2.528   2.423  1.7380  3.5067 -0.4929
 4924SOL    HW226409   1.157   2.487   2.398  1.8321 -0.3031  1.9703
 4925SOL     OW26410   1.088   2.860   5.249 -0.0966  0.6304 -0.3207
 4925SOL    HW126411   1.155   2.808   5.204 -0.5632  0.7527 -1.1750
 4925SOL    HW226412   1.151   2.915   5.295 -0.2406  2.2678 -2.0692
 4926SOL     OW26413   4.284   4.083   7.924  0.6921  0.0532 -0.8775
 4926SOL    HW126414   4.195   4.047   7.928  1.2576 -1.1974  0.1685
 4926SOL    HW226415   4.328   4.030   7.858  0.9817  0.0751 -0.6989
 4927SOL     OW26416   0.297   0.855  16.429 -0.1089  0.0798 -0.1237
 4927SOL    HW126417   0.278   0.942  16.466 -0.3293 -0.0180 -0.0057
 4927SOL    HW226418   0.388   0.870  16.403 -0.4414  3.3780  0.5838
 4928SOL     OW26419   2.167   2.832   3.891 -0.2759 -0.2338 -0.4271
 4928SOL    HW126420   2.248   2.781   3.903 -0.6216 -0.5098  0.7040
 4928SOL    HW226421   2.165   2.836   3.795 -2.5638  0.7818 -0.3362
 4929SOL     OW26422   4.198   2.800   7.997  0.1119  0.4939  0.1730
 4929SOL    HW126423   4.283   2.844   8.000  0.7322 -0.5703 -1.5570
 4929SOL    HW226424   4.234   2.719   7.961  0.4337  0.2947  0.9343
 4930SOL     OW26425   0.584   4.670   1.051 -0.7603 -0.3295  0.1613
 4930SOL    HW126426   0.662   4.719   1.027 -0.6375  0.7541  2.8097
 4930SOL    HW226427   0.510   4.717   1.012  0.3385  0.0358 -1.4841
 4931SOL     OW26428   1.582   0.959  15.656 -0.0425  0.0972 -0.4276
 4931SOL    HW126429   1.621   0.908  15.726 -1.3748  0.8244  0.8257
 4931SOL    HW226430   1.494   0.936  15.683 -0.0152 -1.3676 -1.5629
 4932SOL     OW26431   3.508   1.647   5.494  0.3530  0.2087 -0.1073
 4932SOL    HW126432   3.568   1.720   5.507 -0.2204  0.3236  1.8588
 4932SOL    HW226433   3.427   1.696   5.504  0.5867  0.8809 -1.4097
 4933SOL     OW26434   4.333   3.262   8.450 -0.2254 -0.2856  0.5294
 4933SOL    HW126435   4.287   3.270   8.534  0.3632 -0.1450  0.8400
 4933SOL    HW226436   4.417   3.303   8.471 -0.4521  0.6594 -0.4286
 4934SOL     OW26437   3.914   2.145   8.567 -0.0200 -0.8696 -0.2091
 4934SOL    HW126438   3.870   2.172   8.648  1.2446  1.0621 -0.1562
 4934SOL    HW226439   3.964   2.225   8.551 -0.4162 -0.9202 -1.6497
 4935SOL     OW26440   0.416   3.383   8.555  0.6985  0.0296 -0.1463
 4935SOL    HW126441   0.388   3.402   8.466 -0.3488  2.1854  0.6302
 4935SOL    HW226442   0.511   3.398   8.557  0.6055  0.6827 -0.9124
 4936SOL     OW26443   4.397   1.691  17.165  0.0025  0.0264  0.0223
 4936SOL    HW126444   4.491   1.709  17.174  0.1767 -1.1440  0.4489
 4936SOL    HW226445   4.388   1.737  17.081  1.4722  0.9334  0.3654
 4937SOL     OW26446   4.608   2.461   2.734 -0.0410 -0.3611  0.3887
 4937SOL    HW126447   4.628   2.407   2.658  2.5282  2.9255 -1.3115
 4937SOL    HW226448   4.513   2.464   2.737 -0.1418 -1.3639 -2.1291
 4938SOL     OW26449   1.860   4.545   4.664  0.0114 -0.3308  0.1892
 4938SOL    HW126450   1.952   4.520   4.658 -0.0654 -0.9269  1.4418
 4938SOL    HW226451   1.835   4.515   4.751  0.3096 -0.1812  0.3283
 4939SOL     OW26452   4.720   2.887  10.539 -0.2476  0.4762  0.3534
 4939SOL    HW126453   0.039   2.815  10.551 -0.5195 -0.3696 -3.0587
 4939SOL    HW226454   4.654   2.865  10.605  0.5239  0.1409  1.0072
 4940SOL     OW26455   4.336   4.257  12.801  0.0506 -0.2266 -0.3493
 4940SOL    HW126456   4.397   4.186  12.821  0.2608 -1.0812 -3.9938
 4940SOL    HW226457   4.312   4.232  12.711  1.1320 -0.2680 -0.6219
 4941SOL     OW26458   1.081   4.683  10.145 -0.0909  0.1685 -0.1119
 4941SOL    HW126459   1.153   4.649  10.093  0.2791  1.1537 -0.2387
 4941SOL    HW226460   1.130   0.009  10.192 -1.1461  0.6497  0.2944
 4942SOL     OW26461   3.148   1.827   2.760  0.3445  0.5222 -0.6738
 4942SOL    HW126462   3.103   1.911   2.764  1.0731  0.8398  0.6838
 4942SOL    HW226463   3.213   1.835   2.830 -0.2367  1.6315 -0.2553
 4943SOL     OW26464   0.076   1.465  12.436 -0.0096  0.0045  0.2176
 4943SOL    HW126465   0.140   1.480  12.366 -0.5058 -1.9722 -0.6470
 4943SOL    HW226466   0.098   1.532  12.500 -1.6860  1.4472 -0.7112
 4944SOL     OW26467   4.615   1.633   5.305  0.2841  0.8855  0.4962
 4944SOL    HW126468   4.530   1.616   5.265  0.1656  3.7195 -0.4411
 4944SOL    HW226469   4.674   1.582   5.250 -1.5237  0.3497 -0.9233
 4945SOL     OW26470   2.596   2.778  12.597  0.0790 -0.1765 -0.5236
 4945SOL    HW126471   2.594   2.800  12.691  1.1820 -0.5900 -0.4073
 4945SOL    HW226472   2.607   2.683  12.596 -0.0007 -0.1783 -0.8979
 4946SOL     OW26473   0.020   0.790   5.577 -0.9923 -0.4840  0.8292
 4946SOL    HW126474   0.015   0.774   5.672  0.2247 -0.4202  0.9113
 4946SOL    HW226475   4.720   0.706   5.560 -2.3978  0.5782 -0.8447
 4947SOL     OW26476   1.204   4.094   6.238  0.2445 -0.0674 -0.2130
 4947SOL    HW126477   1.299   4.084   6.240  0.2018  0.3475  3.2456
 4947SOL    HW226478   1.185   4.128   6.325  0.2181  1.6003 -0.8694
 4948SOL     OW26479   4.618   1.425   5.518  0.2276 -0.0321  0.0233
 4948SOL    HW126480   4.699   1.385   5.550  0.2675  2.1343  2.6938
 4948SOL    HW226481   4.650   1.504   5.474 -0.7458 -0.6486 -1.7636
 4949SOL     OW26482   2.849   0.359   9.264 -0.4233 -0.0021 -0.0348
 4949SOL    HW126483   2.915   0.349   9.195 -0.2383 -1.0381  0.2975
 4949SOL    HW226484   2.794   0.427   9.224  0.6346  1.7010  1.4151
 4950SOL     OW26485   0.858   4.487   9.025  0.2695 -0.3254  0.0807
 4950SOL    HW126486   0.937   4.470   9.076 -0.6665 -0.7723  1.3900
 4950SOL    HW226487   0.815   4.546   9.088 -1.9336  0.4513 -2.1376
 4951SOL     OW26488   4.666   0.068   3.215 -0.4286 -0.1505 -0.1900
 4951SOL    HW126489   4.658   0.012   3.293  1.2633 -0.0010  0.0906
 4951SOL    HW226490   4.579   0.068   3.175 -0.5817  1.1166  0.1586
 4952SOL     OW26491   0.439   1.497   6.850  0.4999  0.1170  0.7402
 4952SOL    HW126492   0.439   1.402   6.848 -2.0621  0.1283 -0.2219
 4952SOL    HW226493   0.486   1.522   6.770  1.0420 -2.8350  0.1516
 4953SOL     OW26494   2.214   3.607   0.753  0.3524  0.2402 -0.4257
 4953SOL    HW126495   2.289   3.555   0.781 -0.7153 -1.2154 -0.2165
 4953SOL    HW226496   2.183   3.564   0.673 -0.1033  0.9865 -0.6474
 4954SOL     OW26497   2.638   3.117   1.817  0.4254  0.1530  0.5002
 4954SOL    HW126498   2.578   3.138   1.745 -0.5331  0.4547  1.3771
 4954SOL    HW226499   2.697   3.058   1.771 -1.5145  0.2321 -2.1161
 4955SOL     OW26500   3.531   2.837   4.142 -0.2715  0.0825 -0.4060
 4955SOL    HW126501   3.596   2.902   4.114  1.3408 -1.0203  0.7928
 4955SOL    HW226502   3.511   2.871   4.229  2.6397 -1.0694  0.7253
 4956SOL     OW26503   1.670   0.385   8.285 -0.3808  0.1113 -0.2155
 4956SOL    HW126504   1.738   0.448   8.310 -0.1289 -0.2873  0.1051
 4956SOL    HW226505   1.726   0.311   8.260 -0.2658 -0.0261  0.4467
 4957SOL     OW26506   3.368   0.862   3.822 -0.3180 -0.0269 -0.0657
 4957SOL    HW126507   3.340   0.782   3.867  0.1402 -0.7236 -1.0422
 4957SOL    HW226508   3.433   0.819   3.767  0.4638  1.5440 -0.3782
 4958SOL     OW26509   4.463   1.951   4.623 -0.6159 -0.1148  0.8049
 4958SOL    HW126510   4.533   2.008   4.591 -0.2634 -1.3861 -0.6709
 4958SOL    HW226511   4.396   2.020   4.627 -1.2055 -0.7198  1.2847
 4959SOL     OW26512   1.864   4.523  15.966 -0.0579 -0.2555  0.3530
 4959SOL    HW126513   1.793   4.463  15.988  0.0006 -0.3206  0.3624
 4959SOL    HW226514   1.907   4.490  15.888  2.9835  1.6965  1.2079
 4960SOL     OW26515   0.593   2.973  12.170 -0.6096  0.1704  1.1343
 4960SOL    HW126516   0.577   2.897  12.225 -2.4033  1.3212  2.1956
 4960SOL    HW226517   0.534   3.039  12.207 -1.2336  0.8624 -1.0923
 4961SOL     OW26518   1.160   0.511   8.500  0.4839 -0.5023 -0.6434
 4961SOL    HW126519   1.156   0.565   8.579  0.1770 -1.1636 -0.2133
 4961SOL    HW226520   1.114   0.433   8.529 -0.0348 -0.4410 -1.2930
 4962SOL     OW26521   0.647   3.505  12.504 -0.1134 -0.2666 -0.1548
 4962SOL    HW126522   0.651   3.513  12.409  0.2154  1.5201 -0.0023
 4962SOL    HW226523   0.568   3.557  12.519 -0.6040 -0.9908 -0.2668
 4963SOL     OW26524   3.645   3.993   5.340  0.3001 -0.0830  0.4466
 4963SOL    HW126525   3.642   4.043   5.421 -0.1710 -2.3664  1.8444
 4963SOL    HW226526   3.737   4.000   5.313 -0.5802 -1.4789 -2.9670
 4964SOL     OW26527   0.122   4.687   1.654 -0.6915  0.3331 -0.7689
 4964SOL    HW126528   0.212   4.701   1.683 -0.2317 -1.1473 -1.4468
 4964SOL    HW226529   0.133   4.613   1.594 -0.8387 -0.8170  0.6158
 4965SOL     OW26530   1.961   0.845   6.973 -0.7688  0.4566 -0.0658
 4965SOL    HW126531   2.035   0.886   6.928  1.3088 -2.9836  0.3107
 4965SOL    HW226532   1.906   0.847   6.894  0.2238  3.5931 -0.6961
 4966SOL     OW26533   1.711   0.804  15.334  0.4044 -0.2140 -0.6511
 4966SOL    HW126534   1.754   0.749  15.398  1.1707  1.2322  0.0834
 4966SOL    HW226535   1.667   0.863  15.396 -0.5635 -2.6597  0.9624
 4967SOL     OW26536   0.158   4.697   8.638 -0.1777 -0.2239  0.1459
 4967SOL    HW126537   0.107   4.733   8.711 -0.6276 -0.9341  0.1849
 4967SOL    HW226538   0.213   0.031   8.622 -1.5826  0.8198  0.3065
 4968SOL     OW26539   0.371   0.217   9.396 -0.3187 -0.3587 -0.6333
 4968SOL    HW126540   0.409   0.139   9.355 -1.2124 -1.3438  0.4081
 4968SOL    HW226541   0.305   0.186   9.458  1.2949  0.5715  1.5633
 4969SOL     OW26542   0.871   4.596   6.211  0.1365 -0.6927 -0.8008
 4969SOL    HW126543   0.959   4.582   6.176  0.2554  0.2267 -0.8685
 4969SOL    HW226544   0.820   4.548   6.145 -0.2589 -0.2303 -0.8394
 4970SOL     OW26545   3.442   0.393   7.360  0.0415 -0.0430 -0.0076
 4970SOL    HW126546   3.488   0.476   7.373 -0.5948  0.1568  0.9198
 4970SOL    HW226547   3.488   0.342   7.426 -0.1469  0.9770  0.9053
 4971SOL     OW26548   2.952   2.859   3.160 -0.7729  0.8330  0.0201
 4971SOL    HW126549   2.963   2.764   3.168  0.3188  1.1709  2.4722
 4971SOL    HW226550   3.029   2.882   3.212 -0.6523 -1.0178  0.6788
 4972SOL     OW26551   4.500   2.466   1.453 -0.6613 -0.1849  0.6839
 4972SOL    HW126552   4.574   2.406   1.453 -0.6744 -0.1968 -0.2026
 4972SOL    HW226553   4.459   2.463   1.367  4.3900  2.0031 -1.8072
 4973SOL     OW26554   1.511   3.124   5.424  0.2117 -0.3548  0.1281
 4973SOL    HW126555   1.533   3.143   5.516  1.3431 -3.7800  0.5928
 4973SOL    HW226556   1.585   3.089   5.374  0.2857 -0.1753  0.1122
 4974SOL     OW26557   1.140   4.606  11.323  0.1048  0.3275  0.7650
 4974SOL    HW126558   1.233   4.629  11.320  0.2782 -0.8002 -1.9293
 4974SOL    HW226559   1.126   4.601  11.418 -0.5473 -0.8422  0.5999
 4975SOL     OW26560   4.372   2.088  13.101  0.0607  0.4431  0.1822
 4975SOL    HW126561   4.321   2.018  13.141  1.3923 -0.9707 -0.5922
 4975SOL    HW226562   4.446   2.042  13.062  2.0275  1.1220  3.0631
 4976SOL     OW26563   1.028   1.398   1.629  0.0009 -0.0819  0.2750
 4976SOL    HW126564   1.075   1.456   1.569 -0.7819  0.7010  0.4123
 4976SOL    HW226565   0.939   1.414   1.599 -1.3848 -2.4493  3.1367
 4977SOL     OW26566   0.169   4.739   3.131 -0.0120  0.1545 -0.3121
 4977SOL    HW126567   0.076   0.009   3.151  0.4634  1.4293  1.1509
 4977SOL    HW226568   0.158   4.700   3.044 -1.2616  2.2514 -1.0928
 4978SOL     OW26569   0.331   2.763  11.888  0.4243  0.0622 -0.2416
 4978SOL    HW126570   0.290   2.679  11.865 -2.0692  0.4637  2.7657
 4978SOL    HW226571   0.424   2.740  11.883  0.0349 -1.5903 -0.0199
 4979SOL     OW26572   2.902   3.263   6.953 -0.0042  0.4250 -0.4363
 4979SOL    HW126573   2.881   3.284   7.045 -1.0422  0.6045 -0.7181
 4979SOL    HW226574   2.816   3.233   6.924 -0.3365 -1.0049  2.0035
 4980SOL     OW26575   2.715   1.154   8.317 -0.2021  0.3563  0.2373
 4980SOL    HW126576   2.693   1.236   8.273  0.3727 -1.1168 -2.7750
 4980SOL    HW226577   2.729   1.184   8.407  1.3243  0.0844  0.0925
 4981SOL     OW26578   1.733   0.776   4.963 -0.2796 -0.3333 -0.1500
 4981SOL    HW126579   1.820   0.763   5.000 -1.4693 -1.3193  2.2742
 4981SOL    HW226580   1.723   0.706   4.898 -2.5222 -1.4188  1.3760
 4982SOL     OW26581   3.779   3.797   8.752 -0.0360 -0.8376 -0.0391
 4982SOL    HW126582   3.752   3.806   8.660  0.5214  0.8652 -0.0377
 4982SOL    HW226583   3.707   3.742   8.785  0.4235 -1.4733 -0.0899
 4983SOL     OW26584   1.433   1.880   9.339 -0.0434  0.1448  0.2023
 4983SOL    HW126585   1.406   1.943   9.406  1.0363  0.9407 -0.0969
 4983SOL    HW226586   1.443   1.805   9.398 -0.0982 -0.5221 -0.6434
 4984SOL     OW26587   3.231   0.997  12.018  0.6328  0.1890 -0.5504
 4984SOL    HW126588   3.230   1.092  12.015 -0.5848  0.2733  2.4576
 4984SOL    HW226589   3.198   0.983  11.929  1.5764  0.3496 -0.9275
 4985SOL     OW26590   0.647   0.282   2.657 -0.7345  0.2678  0.0500
 4985SOL    HW126591   0.740   0.271   2.677 -0.2839  2.1975 -0.9299
 4985SOL    HW226592   0.611   0.348   2.717 -0.5488  1.1929 -0.8612
 4986SOL     OW26593   0.425   0.493   4.441 -0.0411 -0.0156  0.2073
 4986SOL    HW126594   0.335   0.525   4.445  0.9651  2.7080  1.1059
 4986SOL    HW226595   0.418   0.425   4.508  0.1648  0.3223  0.5755
 4987SOL     OW26596   2.575   2.465   3.380 -0.1436 -0.1407  0.1780
 4987SOL    HW126597   2.506   2.431   3.323  0.8007  1.3066 -1.7759
 4987SOL    HW226598   2.567   2.560   3.386  1.8627  0.0757 -0.7748
 4988SOL     OW26599   0.626   3.899   0.693 -0.3353  0.3689  0.3259
 4988SOL    HW126600   0.567   3.935   0.759 -0.0939  0.0843  0.6990
 4988SOL    HW226601   0.690   3.970   0.698 -1.3953  1.5027 -2.1737
 4989SOL     OW26602   3.029   3.596  11.645 -0.4935 -0.0955  0.3029
 4989SOL    HW126603   3.056   3.508  11.670 -2.2248 -0.9641 -0.8153
 4989SOL    HW226604   2.938   3.589  11.674 -0.3001  0.5711  1.0924
 4990SOL     OW26605   1.663   0.798  14.666 -0.5813  0.7073 -0.6493
 4990SOL    HW126606   1.641   0.781  14.757 -1.0302  2.2309 -0.4675
 4990SOL    HW226607   1.610   0.731  14.622 -0.1810 -1.2654  1.8887
 4991SOL     OW26608   4.563   3.032   4.246 -0.1735  0.5658 -0.6925
 4991SOL    HW126609   4.653   3.012   4.275 -0.4713 -1.4147 -1.1438
 4991SOL    HW226610   4.567   3.127   4.235  2.4675  0.7540  1.5518
 4992SOL     OW26611   2.860   1.510   7.224  0.3556 -0.5056 -0.6291
 4992SOL    HW126612   2.766   1.518   7.243  0.3349 -2.0271 -0.1173
 4992SOL    HW226613   2.859   1.433   7.167 -0.7745 -0.5913 -0.5049
 4993SOL     OW26614   2.518   1.310   3.563 -0.0230 -0.4734  0.3886
 4993SOL    HW126615   2.423   1.297   3.562  0.0780 -1.1615  0.0520
 4993SOL    HW226616   2.530   1.364   3.642 -2.4953 -0.2301  0.5856
 4994SOL     OW26617   3.152   0.043  10.718  0.4425  0.6290 -0.6985
 4994SOL    HW126618   3.110   4.705  10.689 -0.6795  0.6682  0.8157
 4994SOL    HW226619   3.234   4.742  10.741 -0.9074 -2.6004 -1.9765
 4995SOL     OW26620   3.008   4.032   2.915 -0.2867 -0.3678  0.9780
 4995SOL    HW126621   2.953   3.993   2.983 -0.3865 -0.8513  0.6222
 4995SOL    HW226622   2.953   4.110   2.905 -2.1884 -1.8143  0.0800
 4996SOL     OW26623   2.179   3.905  16.042  0.4663  0.1616  0.3896
 4996SOL    HW126624   2.261   3.861  16.021 -0.1544  0.7484 -3.3857
 4996SOL    HW226625   2.125   3.880  15.966 -0.9785  3.5522  0.2701
 4997SOL     OW26626   3.457   2.561  17.346  0.1713  0.1364  0.2692
 4997SOL    HW126627   3.399   2.634  17.368 -0.2326 -0.3425  0.8192
 4997SOL    HW226628   3.485   2.533  17.434 -1.3718 -1.8038  0.1578
 4998SOL     OW26629   3.974   0.231   2.643  0.0283 -0.2544  0.3533
 4998SOL    HW126630   3.968   0.222   2.738  0.2169 -0.5369  0.3374
 4998SOL    HW226631   3.991   0.140   2.622 -2.1285 -0.4110 -0.7095
 4999SOL     OW26632   0.742   1.969   9.181 -0.1695 -0.0663 -0.2072
 4999SOL    HW126633   0.828   1.927   9.180 -0.8326 -1.4337  0.1864
 4999SOL    HW226634   0.754   2.048   9.129  0.6055 -0.4654 -0.6384
 5000SOL     OW26635   0.429   1.024   4.996  0.5553  0.5258  0.1038
 5000SOL    HW126636   0.461   1.024   4.906  1.2199 -0.2940  0.3390
 5000SOL    HW226637   0.493   0.972   5.044 -0.9092 -1.1683  0.2445
 5001SOL     OW26638   1.270   3.111   5.851 -0.0765 -0.1158  0.0748
 5001SOL    HW126639   1.216   3.186   5.877  0.6294  0.2834  0.3751
 5001SOL    HW226640   1.213   3.057   5.797 -0.9702 -0.0467  0.9446
 5002SOL     OW26641   4.382   3.054   2.659 -0.3104  0.0336 -0.3065
 5002SOL    HW126642   4.449   2.985   2.663 -0.1546  0.2347  0.4917
 5002SOL    HW226643   4.390   3.095   2.573  0.2147  0.0891 -0.2274
 5003SOL     OW26644   2.064   3.227   8.483  0.7142  0.0388 -0.3300
 5003SOL    HW126645   2.112   3.310   8.481 -0.9315  0.9698 -1.2197
 5003SOL    HW226646   2.009   3.228   8.404 -1.1697 -1.3011  0.9828
 5004SOL     OW26647   1.433   2.793   5.607  0.0676  0.0600  0.3529
 5004SOL    HW126648   1.380   2.727   5.653  1.5080 -0.6088  1.0628
 5004SOL    HW226649   1.362   2.858   5.605  0.7386  0.7341 -0.8264
 5005SOL     OW26650   4.656   4.661   0.147  0.0987  0.6276  0.2531
 5005SOL    HW126651   4.672   4.593   0.212  0.4747 -0.0467 -0.5338
 5005SOL    HW226652   4.612   4.718   0.209 -0.4451 -0.1602  0.5990
 5006SOL     OW26653   0.392   1.377   2.098 -0.1260 -0.0723  0.2202
 5006SOL    HW126654   0.463   1.428   2.057  0.2561 -0.4706  0.3878
 5006SOL    HW226655   0.314   1.433   2.098 -0.5108 -0.6091 -0.6241
 5007SOL     OW26656   1.154   4.537   2.128  0.2958 -0.3548 -0.3385
 5007SOL    HW126657   1.144   4.461   2.186  2.4389 -0.5180 -0.1831
 5007SOL    HW226658   1.170   4.486   2.049  2.1226 -1.3968  0.6842
 5008SOL     OW26659   2.117   0.875   7.557  0.4809 -0.3043  0.1207
 5008SOL    HW126660   2.109   0.789   7.517 -0.5591 -0.8942  1.5923
 5008SOL    HW226661   2.159   0.920   7.484 -0.0237  1.4735  0.9178
 5009SOL     OW26662   1.196   0.048   8.907 -0.1637  0.1646  0.0034
 5009SOL    HW126663   1.231   0.037   8.819  1.1440  1.9684  0.3187
 5009SOL    HW226664   1.222   0.135   8.935  1.9262 -0.2785 -0.6163
 5010SOL     OW26665   1.966   1.174   7.023 -0.0588  0.3296  0.3197
 5010SOL    HW126666   1.951   1.245   6.961 -1.4067  0.1751  0.4740
 5010SOL    HW226667   1.902   1.185   7.094 -0.5313 -0.4919  0.0192
 5011SOL     OW26668   1.093   1.189   0.749 -0.4401 -0.2971  0.4274
 5011SOL    HW126669   1.044   1.170   0.669  1.2397 -0.8622 -0.4563
 5011SOL    HW226670   1.111   1.282   0.734  0.3356 -0.3609  0.9520
 5012SOL     OW26671   2.191   2.136  14.354 -0.3238 -0.1238  0.3004
 5012SOL    HW126672   2.101   2.169  14.349 -0.4320 -0.6963 -1.3594
 5012SOL    HW226673   2.207   2.149  14.448  0.0155 -0.2107  0.2536
 5013SOL     OW26674   0.551   3.750   3.402 -0.4527  0.1104 -0.1887
 5013SOL    HW126675   0.466   3.739   3.445  0.6026  0.0070  1.8538
 5013SOL    HW226676   0.602   3.679   3.440  0.4833  1.0945  0.3907
 5014SOL     OW26677   4.122   0.463   7.465  0.0098  0.3654 -0.2747
 5014SOL    HW126678   4.209   0.468   7.504 -0.2444 -0.6118  0.4160
 5014SOL    HW226679   4.064   0.455   7.541  1.9264  2.3814  1.3990
 5015SOL     OW26680   3.188   0.429   7.481  0.6181 -0.2447 -1.0961
 5015SOL    HW126681   3.167   0.522   7.491  1.1206 -0.3027  0.5316
 5015SOL    HW226682   3.277   0.430   7.448  0.1912 -2.2565 -2.3146
 5016SOL     OW26683   4.456   0.880   7.420  0.5597  0.3798 -0.1078
 5016SOL    HW126684   4.482   0.825   7.346  0.7801  1.3199 -0.7333
 5016SOL    HW226685   4.373   0.916   7.388  0.9137 -0.1531 -1.6077
 5017SOL     OW26686   1.312   2.403  14.159 -0.4739  0.8171  0.0396
 5017SOL    HW126687   1.263   2.353  14.094  0.9628  0.2639 -0.6180
 5017SOL    HW226688   1.368   2.460  14.106  4.2615 -1.3874  2.6349
 5018SOL     OW26689   1.509   2.757   2.191  0.2456  0.4259  0.1876
 5018SOL    HW126690   1.542   2.760   2.280  1.1586 -0.0080 -0.1299
 5018SOL    HW226691   1.475   2.668   2.201  1.4821 -0.1739 -0.9318
 5019SOL     OW26692   3.903   0.905   4.646 -0.4080 -0.2282 -0.2351
 5019SOL    HW126693   3.875   0.994   4.627  2.5217  0.7693  0.1181
 5019SOL    HW226694   3.976   0.928   4.704 -1.5425  0.1061  1.0831
 5020SOL     OW26695   1.134   1.805   6.895  0.3636  0.2474  0.9044
 5020SOL    HW126696   1.087   1.727   6.865  1.5443 -0.1877  0.1881
 5020SOL    HW226697   1.067   1.872   6.883  1.3564  0.8823 -1.0839
 5021SOL     OW26698   3.926   0.541   6.399 -0.3776  0.1760 -0.1336
 5021SOL    HW126699   3.872   0.525   6.477  0.3036 -1.2141  0.0541
 5021SOL    HW226700   3.954   0.451   6.385 -1.5033 -0.4273  1.4764
 5022SOL     OW26701   1.325   2.304   8.146  0.3381  0.3227  0.1653
 5022SOL    HW126702   1.319   2.233   8.082 -0.3495  0.1597  0.4080
 5022SOL    HW226703   1.239   2.344   8.139  0.1436 -0.3524 -1.5674
 5023SOL     OW26704   3.996   1.774  14.857  0.9293  0.1719  0.5885
 5023SOL    HW126705   3.947   1.792  14.777  1.0002 -1.6149  0.1587
 5023SOL    HW226706   3.938   1.707  14.893  3.1046 -0.0746  3.7254
 5024SOL     OW26707   0.073   3.028   4.334  0.2829  0.9743 -0.6548
 5024SOL    HW126708   0.076   2.946   4.384 -0.3246  0.4094 -1.5488
 5024SOL    HW226709   0.138   3.081   4.380  0.3033  1.9620 -1.8380
 5025SOL     OW26710   1.510   0.420   6.148 -0.0705  0.5185 -0.1185
 5025SOL    HW126711   1.547   0.408   6.236  2.2231 -0.6496 -1.2172
 5025SOL    HW226712   1.546   0.504   6.121 -0.5843  1.3106  1.6602
 5026SOL     OW26713   2.946   1.590   4.937 -0.8451  0.6435  0.1330
 5026SOL    HW126714   2.978   1.510   4.979 -0.5273  0.2335 -0.8955
 5026SOL    HW226715   2.963   1.579   4.843 -1.6069 -0.5208  0.1393
 5027SOL     OW26716   0.656   0.714   7.704  0.3200 -0.3095 -0.1699
 5027SOL    HW126717   0.597   0.639   7.693 -2.6710  2.4906 -3.6754
 5027SOL    HW226718   0.624   0.764   7.628 -0.7724 -0.5587  0.1180
 5028SOL     OW26719   4.420   0.440   8.148  0.3688  0.5314  0.0513
 5028SOL    HW126720   4.342   0.425   8.201  0.1761 -1.1507 -0.7055
 5028SOL    HW226721   4.384   0.438   8.059  0.6423  1.5610 -0.0847
 5029SOL     OW26722   3.055   2.695   8.950 -0.3183 -0.6015 -0.6175
 5029SOL    HW126723   3.000   2.624   8.982  0.2136 -0.2939  1.0212
 5029SOL    HW226724   2.997   2.735   8.886 -0.6559  0.7702  0.5281
 5030SOL     OW26725   3.881   0.448  16.525  0.5535 -0.1855  0.4702
 5030SOL    HW126726   3.899   0.517  16.461  0.0622 -2.0435 -1.6946
 5030SOL    HW226727   3.905   0.369  16.475  0.1246  0.2030 -0.3528
 5031SOL     OW26728   1.639   1.262  10.438  0.2127 -0.0509 -0.6095
 5031SOL    HW126729   1.592   1.261  10.521 -1.4775 -0.2561 -1.5651
 5031SOL    HW226730   1.636   1.168  10.421  0.4511 -0.5991  2.3389
 5032SOL     OW26731   1.859   2.705   5.786  0.1901 -0.7756  0.0078
 5032SOL    HW126732   1.814   2.762   5.723 -0.9751  2.0296  3.3691
 5032SOL    HW226733   1.929   2.761   5.819  0.0398 -2.2705  2.8173
 5033SOL     OW26734   4.073   4.566   9.120 -0.2272  0.3069  0.0448
 5033SOL    HW126735   4.139   4.497   9.127  1.9462  2.2837 -1.1046
 5033SOL    HW226736   4.058   4.590   9.212 -1.5224  1.8124 -0.5495
 5034SOL     OW26737   3.377   4.391   2.226 -0.2296  0.6923  0.5955
 5034SOL    HW126738   3.290   4.379   2.186  1.1032 -3.3913 -1.0098
 5034SOL    HW226739   3.343   4.392   2.316  2.3911 -1.9292  1.5724
 5035SOL     OW26740   2.436   2.224  15.217 -0.4980 -0.0785 -0.7819
 5035SOL    HW126741   2.520   2.201  15.257 -0.4131  0.5769 -0.5778
 5035SOL    HW226742   2.437   2.138  15.176  0.6186  0.8566 -2.6885
 5036SOL     OW26743   0.282   2.476  11.124 -0.6684 -0.1765  0.0988
 5036SOL    HW126744   0.272   2.405  11.061 -1.6712 -0.7985  0.9542
 5036SOL    HW226745   0.366   2.466  11.169  0.5580  1.1043 -1.9098
 5037SOL     OW26746   0.774   0.220  16.465  0.0074  1.0026  0.2776
 5037SOL    HW126747   0.794   0.172  16.545 -2.1736  1.4320  1.0767
 5037SOL    HW226748   0.729   0.293  16.508 -0.9093  0.2691  0.5749
 5038SOL     OW26749   0.656   2.660   8.274 -0.3148  0.2600  0.5554
 5038SOL    HW126750   0.620   2.625   8.192 -0.6106  1.3981  0.2057
 5038SOL    HW226751   0.630   2.585   8.328 -0.2684  0.1104  0.3698
 5039SOL     OW26752   4.266   1.518   5.936  0.2200  0.7432 -0.4439
 5039SOL    HW126753   4.266   1.613   5.939 -0.4887  0.6984  0.8956
 5039SOL    HW226754   4.319   1.505   5.857 -0.8966 -0.5713 -0.9764
 5040SOL     OW26755   2.865   2.100   5.824  0.0699  0.0141 -0.3917
 5040SOL    HW126756   2.928   2.031   5.845 -1.2703 -1.0333  0.2013
 5040SOL    HW226757   2.882   2.168   5.890 -0.3617  0.2972 -0.5718
 5041SOL     OW26758   2.267   1.025  10.190  0.4015 -0.2013  0.2858
 5041SOL    HW126759   2.173   1.025  10.175  0.1225 -1.4706  2.1490
 5041SOL    HW226760   2.287   0.951  10.247  1.4044 -1.5320 -1.8077
 5042SOL     OW26761   0.622   4.466   4.378  0.0564  0.3214 -0.3170
 5042SOL    HW126762   0.623   4.511   4.294 -1.1720  1.1161  0.1001
 5042SOL    HW226763   0.716   4.457   4.389  0.0909  0.6179 -0.3866
 5043SOL     OW26764   0.253   1.267   9.865  0.2521 -0.3357  0.1348
 5043SOL    HW126765   0.201   1.346   9.877  0.8113 -0.5338  3.9206
 5043SOL    HW226766   0.234   1.216   9.944 -1.6575 -2.7670 -1.9130
 5044SOL     OW26767   2.878   1.182   4.594  0.3718  0.2046  0.6104
 5044SOL    HW126768   2.900   1.261   4.645  0.5828  0.3255  0.3346
 5044SOL    HW226769   2.897   1.104   4.646 -0.3522 -0.5533 -0.2672
 5045SOL     OW26770   3.613   1.557  12.963 -0.4497 -0.0703  0.2743
 5045SOL    HW126771   3.595   1.651  12.953 -0.4273 -0.1525 -0.5954
 5045SOL    HW226772   3.680   1.558  13.031 -0.2946 -0.7326  0.1345
 5046SOL     OW26773   3.022   2.879   5.347  0.5918 -0.1765  0.4511
 5046SOL    HW126774   2.940   2.855   5.392  0.3219 -0.5290 -0.2368
 5046SOL    HW226775   3.040   2.957   5.400  1.1154  0.1900 -0.2818
 5047SOL     OW26776   3.181   0.904   6.043  0.2787  0.0044 -0.1550
 5047SOL    HW126777   3.108   0.925   5.985  0.2572 -0.0521 -0.1477
 5047SOL    HW226778   3.125   0.879   6.116 -0.5923  0.4909 -0.6630
 5048SOL     OW26779   3.620   0.550  10.163 -0.6078  0.3065 -0.4657
 5048SOL    HW126780   3.637   0.456  10.164 -2.9926 -0.1774 -2.9386
 5048SOL    HW226781   3.525   0.553  10.146 -0.8854 -2.7220  0.5676
 5049SOL     OW26782   0.070   1.849   3.707  0.5402  0.6155  0.3339
 5049SOL    HW126783   0.033   1.876   3.791  1.2733  0.9417  0.5481
 5049SOL    HW226784   0.164   1.855   3.717  0.4183  0.5532  1.4803
 5050SOL     OW26785   2.715   4.165   0.461 -0.2973  0.5766 -0.3163
 5050SOL    HW126786   2.710   4.239   0.522  1.6485  1.5913 -1.3736
 5050SOL    HW226787   2.623   4.138   0.452 -0.3541  0.1159  1.7356
 5051SOL     OW26788   1.988   0.760   5.064  0.6237 -0.5959  0.6466
 5051SOL    HW126789   2.035   0.842   5.082  1.0784 -0.9897  1.2609
 5051SOL    HW226790   2.058   0.729   5.006  0.3525  0.3069 -0.1527
 5052SOL     OW26791   3.799   1.419   6.706  0.1836  0.4870 -0.3665
 5052SOL    HW126792   3.873   1.446   6.761 -0.8992  1.8435  0.4263
 5052SOL    HW226793   3.853   1.409   6.627  0.5965 -0.2163  0.0013
 5053SOL     OW26794   3.448   3.824   7.923  0.2824  0.1571  0.4827
 5053SOL    HW126795   3.362   3.809   7.884  0.9999 -1.7071 -0.3820
 5053SOL    HW226796   3.490   3.740   7.945  0.0310 -0.6395 -1.9946
 5054SOL     OW26797   0.571   3.153   7.600  0.4002 -0.3191 -0.1188
 5054SOL    HW126798   0.644   3.092   7.597  1.4205  0.8640  0.4630
 5054SOL    HW226799   0.494   3.097   7.595  1.6997 -1.9395 -1.9138
 5055SOL     OW26800   4.179   1.768   5.510 -0.3698 -0.0331 -0.4888
 5055SOL    HW126801   4.220   1.682   5.512 -0.6116 -0.1069  0.8813
 5055SOL    HW226802   4.212   1.796   5.596  1.9796  2.4196 -2.1742
 5056SOL     OW26803   2.699   4.543  12.907  0.1580 -0.3945  0.3289
 5056SOL    HW126804   2.787   4.511  12.924  0.3563  0.6517  1.2320
 5056SOL    HW226805   2.706   4.633  12.939 -1.5906 -0.7007  1.5565
 5057SOL     OW26806   4.615   1.416  12.196 -0.1767 -0.4272 -0.6234
 5057SOL    HW126807   4.701   1.458  12.199  0.8208 -2.4107 -1.4348
 5057SOL    HW226808   4.604   1.371  12.280  1.2776  2.7564  1.2682
 5058SOL     OW26809   0.417   4.415  13.244 -0.1528 -0.2756  0.0119
 5058SOL    HW126810   0.429   4.507  13.221 -2.3158 -0.5997 -2.2929
 5058SOL    HW226811   0.324   4.408  13.226  0.1570 -0.1005 -1.6187
 5059SOL     OW26812   4.287   2.575   8.943  0.2292  0.7671  0.2595
 5059SOL    HW126813   4.382   2.588   8.944  0.5777 -1.8248 -0.6515
 5059SOL    HW226814   4.265   2.483   8.931 -0.3252  0.7187  1.6724
 5060SOL     OW26815   0.782   0.037   7.179  0.3058  0.5459  0.4381
 5060SOL    HW126816   0.786   4.694   7.137  3.6055  0.0862  1.7128
 5060SOL    HW226817   0.809   0.013   7.268 -1.3019  1.1269  1.0797
 5061SOL     OW26818   3.235   2.637   6.267  0.4724  0.2397  0.2194
 5061SOL    HW126819   3.177   2.692   6.318 -0.3653  0.3182 -0.8216
 5061SOL    HW226820   3.275   2.581   6.333  1.2270  1.0698  0.4627
 5062SOL     OW26821   2.008   0.602   9.326  0.6081 -0.2459  0.2639
 5062SOL    HW126822   1.968   0.662   9.263  0.4183 -0.2876  0.3437
 5062SOL    HW226823   1.988   0.644   9.410 -1.0572  0.5453 -0.5272
 5063SOL     OW26824   0.816   0.673   1.559 -0.2893 -0.3540  0.4633
 5063SOL    HW126825   0.740   0.723   1.588 -1.1139 -0.3084 -1.7379
 5063SOL    HW226826   0.890   0.693   1.616  0.7246 -0.0594 -0.9624
 5064SOL     OW26827   3.357   1.257   1.379 -0.0910 -0.1544 -0.1243
 5064SOL    HW126828   3.397   1.334   1.420 -1.0749  1.3518 -2.0331
 5064SOL    HW226829   3.430   1.215   1.334  0.7629  1.0351  0.1445
 5065SOL     OW26830   0.960   0.443   4.554  0.0247  0.1086 -0.0472
 5065SOL    HW126831   0.962   0.473   4.644  2.4711 -2.0245  0.6323
 5065SOL    HW226832   0.973   0.349   4.569 -1.9568 -0.3273 -1.0221
 5066SOL     OW26833   3.071   0.318   2.986 -0.0215 -0.4222  0.6098
 5066SOL    HW126834   3.135   0.370   3.035 -1.6651  1.2341  1.0453
 5066SOL    HW226835   3.131   0.293   2.916  0.5942  0.1724  0.9225
 5067SOL     OW26836   0.111   2.417   6.833  0.4130  0.3949  0.3657
 5067SOL    HW126837   0.077   2.332   6.861  0.7177 -0.0699 -0.6543
 5067SOL    HW226838   0.195   2.387   6.798  1.0539  1.7030  0.7971
 5068SOL     OW26839   1.255   2.560   2.693  0.4690  0.2054  0.1134
 5068SOL    HW126840   1.301   2.635   2.654 -1.1154  1.2804  0.3027
 5068SOL    HW226841   1.317   2.487   2.689  0.2633  0.0637 -0.5599
 5069SOL     OW26842   3.645   3.428   5.999  0.0346 -0.0041 -0.3914
 5069SOL    HW126843   3.620   3.404   5.910 -2.6886 -0.4271  0.4544
 5069SOL    HW226844   3.643   3.523   5.988 -0.1688  0.0351 -0.0414
 5070SOL     OW26845   3.735   0.630   5.866 -0.1412  0.3107 -0.0269
 5070SOL    HW126846   3.704   0.697   5.805  1.5977  0.3256 -0.8789
 5070SOL    HW226847   3.656   0.577   5.880 -0.6020  0.7143 -1.0573
 5071SOL     OW26848   3.523   2.671   6.846 -0.5570  0.1371 -0.2015
 5071SOL    HW126849   3.463   2.669   6.772  1.8902 -1.2172 -2.1376
 5071SOL    HW226850   3.528   2.766   6.858  0.6459  0.3272 -2.3544
 5072SOL     OW26851   2.235   0.470   0.777  0.0659 -0.1785 -0.2692
 5072SOL    HW126852   2.294   0.479   0.702 -0.0969  1.0060 -0.2582
 5072SOL    HW226853   2.256   0.545   0.833  2.7356 -0.2082 -1.2382
 5073SOL     OW26854   2.384   0.148   4.031  0.2049  0.8362  0.3339
 5073SOL    HW126855   2.355   0.159   4.122  0.5282  0.8553  0.4342
 5073SOL    HW226856   2.415   0.057   4.037 -1.9267 -0.0276 -2.1385
 5074SOL     OW26857   0.647   1.532   6.068  0.1950  0.2029 -0.0766
 5074SOL    HW126858   0.699   1.612   6.065  0.1755  0.1873 -0.8443
 5074SOL    HW226859   0.712   1.465   6.047 -0.3802 -0.6473  0.8725
 5075SOL     OW26860   2.688   1.709  10.606  0.0709  0.0526 -0.2976
 5075SOL    HW126861   2.633   1.788  10.608  0.6751  0.4969 -1.1857
 5075SOL    HW226862   2.629   1.636  10.587 -1.3123  1.4506 -1.3119
 5076SOL     OW26863   0.268   2.510   7.720  0.0228  0.2264  0.3905
 5076SOL    HW126864   0.183   2.517   7.675  0.6820  1.3630 -0.6795
 5076SOL    HW226865   0.280   2.592   7.767 -0.7508  0.2070  0.6190
 5077SOL     OW26866   0.799   3.608   3.115 -0.9433  0.3430 -0.3912
 5077SOL    HW126867   0.757   3.525   3.093 -0.6983 -0.4579  2.2116
 5077SOL    HW226868   0.823   3.590   3.206  1.5289  0.4000 -1.0475
 5078SOL     OW26869   0.447   3.604  14.064  0.1564 -0.6564 -0.1377
 5078SOL    HW126870   0.501   3.654  14.003  0.3232 -1.9655 -1.0425
 5078SOL    HW226871   0.360   3.630  14.032  0.0328 -0.6395  0.2036
 5079SOL     OW26872   0.470   1.375  11.997 -0.0453 -0.8326 -0.3590
 5079SOL    HW126873   0.547   1.359  11.942 -0.5964  1.4141 -1.7762
 5079SOL    HW226874   0.438   1.459  11.965  0.0673 -0.9772 -0.8533
 5080SOL     OW26875   0.879   2.635   1.076  0.5994  0.4489 -0.6722
 5080SOL    HW126876   0.921   2.582   1.009 -1.7259 -0.2452 -1.5889
 5080SOL    HW226877   0.841   2.702   1.020 -0.3789 -1.8855 -2.7522
 5081SOL     OW26878   3.124   0.954   5.605 -0.0036  0.6940 -0.6304
 5081SOL    HW126879   3.172   0.997   5.535 -1.7504  2.5212 -0.6959
 5081SOL    HW226880   3.037   0.965   5.567 -0.3668 -3.1513 -0.9896
 5082SOL     OW26881   4.008   1.485   6.533 -0.1593  0.0286 -0.2790
 5082SOL    HW126882   4.054   1.418   6.483  2.1455  1.9886 -0.7806
 5082SOL    HW226883   4.079   1.523   6.585  0.8136 -1.0536 -0.8195
 5083SOL     OW26884   0.255   1.245   3.826  0.3142 -0.3644  0.3115
 5083SOL    HW126885   0.350   1.234   3.819  0.5761  1.3701  1.0466
 5083SOL    HW226886   0.219   1.183   3.762  1.2802 -3.0178  2.3799
 5084SOL     OW26887   0.124   3.226   9.911  0.2556 -0.4962  0.8708
 5084SOL    HW126888   0.039   3.228   9.955 -0.6610 -3.2127 -0.8184
 5084SOL    HW226889   0.112   3.291   9.842 -0.3812  0.5943  2.0088
 5085SOL     OW26890   1.348   0.862   1.692  0.1460  0.0757  0.4293
 5085SOL    HW126891   1.288   0.932   1.666  0.9689  0.7972  0.4597
 5085SOL    HW226892   1.342   0.885   1.785  0.3222 -2.5938  1.0873
 5086SOL     OW26893   3.089   1.553  12.958  0.2382  0.5123  0.0476
 5086SOL    HW126894   3.067   1.594  13.041 -1.3921  0.4165 -0.3391
 5086SOL    HW226895   3.183   1.565  12.950  0.7240 -2.4877  1.1383
 5087SOL     OW26896   1.707   3.308   6.211 -0.1267  0.4170 -0.2260
 5087SOL    HW126897   1.794   3.279   6.181 -0.4948 -0.7081 -0.1984
 5087SOL    HW226898   1.659   3.314   6.128 -1.3048  0.0431  0.4303
 5088SOL     OW26899   0.229   3.859  12.719 -0.4271 -0.1394 -0.0421
 5088SOL    HW126900   0.211   3.860  12.813 -0.2504 -0.8007 -0.0030
 5088SOL    HW226901   0.245   3.952  12.707 -1.7083  0.0045 -0.6893
 5089SOL     OW26902   1.775   2.554   3.327  0.6638  0.4448  0.5484
 5089SOL    HW126903   1.761   2.571   3.420  1.1210  1.4161  0.4325
 5089SOL    HW226904   1.828   2.474   3.336  0.7189  0.3723 -0.4534
 5090SOL     OW26905   0.713   0.970   5.324 -0.0755  0.2554  0.1724
 5090SOL    HW126906   0.675   0.916   5.254 -1.2965  0.1555  0.9206
 5090SOL    HW226907   0.736   0.899   5.384 -2.1767 -1.0365 -0.5367
 5091SOL     OW26908   4.448   3.965   1.776 -0.5498 -0.4415  0.0093
 5091SOL    HW126909   4.434   4.020   1.699 -0.6604 -2.0831 -1.1504
 5091SOL    HW226910   4.532   3.998   1.808 -1.3234 -0.0858  1.6839
 5092SOL     OW26911   3.561   1.361   2.985  0.5907 -0.3395 -0.0755
 5092SOL    HW126912   3.596   1.345   2.897 -1.8558 -2.7880 -0.6117
 5092SOL    HW226913   3.487   1.301   2.986  1.0796 -0.9503 -0.3150
 5093SOL     OW26914   1.513   2.323   2.759 -0.4960 -0.9739  0.2060
 5093SOL    HW126915   1.580   2.373   2.713 -1.5875  2.8941  2.8069
 5093SOL    HW226916   1.554   2.309   2.844  1.3296  0.7177 -0.4056
 5094SOL     OW26917   1.802   1.189   3.522 -0.1903  0.4574  0.4480
 5094SOL    HW126918   1.745   1.136   3.467  1.1441 -0.7640  0.2381
 5094SOL    HW226919   1.745   1.220   3.592  0.5926  0.6765  0.9940
 5095SOL     OW26920   1.000   2.981   2.486  0.3635 -0.1947 -0.4842
 5095SOL    HW126921   1.061   3.053   2.503  0.1058 -0.5688  2.0181
 5095SOL    HW226922   1.047   2.915   2.435  0.5799 -0.1372 -0.3598
 5096SOL     OW26923   0.289   3.386   7.138  0.2028  0.5755  0.1211
 5096SOL    HW126924   0.341   3.410   7.215 -1.4283 -2.3878  2.1985
 5096SOL    HW226925   0.249   3.304   7.168 -0.0047  1.1179  1.3623
 5097SOL     OW26926   1.507   0.241   7.310 -0.3425  0.6732  0.4445
 5097SOL    HW126927   1.590   0.283   7.331  0.6589 -1.5839  1.0490
 5097SOL    HW226928   1.457   0.277   7.382 -0.3557  0.8124  0.3645
 5098SOL     OW26929   3.952   0.520   8.437 -0.7372  0.1775  0.0400
 5098SOL    HW126930   3.907   0.558   8.512 -1.1762  0.7918 -0.5391
 5098SOL    HW226931   3.956   0.432   8.474  0.5981  0.5313  0.7531
 5099SOL     OW26932   2.637   2.109   7.285  0.2124 -0.6390 -0.4328
 5099SOL    HW126933   2.665   2.181   7.228 -0.6525  0.4203  0.4707
 5099SOL    HW226934   2.623   2.036   7.225  0.7277 -1.3165  0.2770
 5100SOL     OW26935   4.392   0.698   0.591 -0.4944  0.5878  0.0873
 5100SOL    HW126936   4.340   0.645   0.531 -0.6506 -1.0348  1.6660
 5100SOL    HW226937   4.407   0.626   0.653  1.8672  2.3021  1.4923
 5101SOL     OW26938   3.454   0.935   9.358  0.0595  0.0345  0.4844
 5101SOL    HW126939   3.441   1.014   9.411 -0.4169  0.4532 -0.2715
 5101SOL    HW226940   3.364   0.903   9.363  0.0709  0.2568  2.4601
 5102SOL     OW26941   3.955   1.900   3.957  0.0478 -0.1557  0.0100
 5102SOL    HW126942   4.019   1.829   3.951 -0.9662 -1.1497  0.9985
 5102SOL    HW226943   3.895   1.867   4.024 -0.2664  0.2878 -0.0476
 5103SOL     OW26944   1.836   0.538   9.647 -0.4144 -0.0991 -0.0102
 5103SOL    HW126945   1.744   0.559   9.633  0.3853  1.9887 -2.0603
 5103SOL    HW226946   1.819   0.494   9.730  0.1896 -0.5468 -0.1194
 5104SOL     OW26947   3.223   1.432   7.199  0.6877 -0.6195 -0.0311
 5104SOL    HW126948   3.203   1.370   7.129  0.4366 -0.9501  0.3328
 5104SOL    HW226949   3.234   1.375   7.275 -1.0235 -1.8117 -0.6630
 5105SOL     OW26950   2.671   2.208   3.926  0.3621 -0.3399  0.2000
 5105SOL    HW126951   2.705   2.288   3.964  0.2583  0.0111 -0.4373
 5105SOL    HW226952   2.625   2.168   3.999 -1.5386 -0.7439 -1.2058
 5106SOL     OW26953   3.564   4.356   9.310  0.1744 -0.2333  0.1659
 5106SOL    HW126954   3.584   4.264   9.293  0.6116  0.0427 -0.8187
 5106SOL    HW226955   3.544   4.362   9.404  1.9983  2.4287  0.3859
 5107SOL     OW26956   4.530   2.118   4.080 -0.2635  0.0983  0.0434
 5107SOL    HW126957   4.474   2.142   4.005 -0.6220 -0.5584  0.0989
 5107SOL    HW226958   4.519   2.024   4.085  1.9900 -0.1584  0.0182
 5108SOL     OW26959   4.367   1.933   6.210 -0.0087 -0.0236  0.1628
 5108SOL    HW126960   4.397   2.021   6.234  1.8268 -1.1441  1.8857
 5108SOL    HW226961   4.303   1.958   6.143  3.0188  0.5296 -2.4943
 5109SOL     OW26962   4.542   2.648  16.783  0.4438  0.1095  0.5127
 5109SOL    HW126963   4.447   2.645  16.781  0.3962  1.1154  1.1427
 5109SOL    HW226964   4.545   2.676  16.874  2.2599  1.0967  0.1445
 5110SOL     OW26965   2.682   2.935   1.315  0.1303  0.1082  0.3169
 5110SOL    HW126966   2.586   2.933   1.322  0.1884 -1.0275  0.7633
 5110SOL    HW226967   2.702   3.026   1.336 -0.6731  0.1807  0.7791
 5111SOL     OW26968   4.291   3.762  11.544  0.1172  0.1420  0.1629
 5111SOL    HW126969   4.325   3.786  11.458  1.7096 -1.9469  0.2276
 5111SOL    HW226970   4.235   3.838  11.561  0.6601  1.0241 -1.9994
 5112SOL     OW26971   3.897   2.353  16.784 -0.4001 -0.3983  0.0502
 5112SOL    HW126972   3.885   2.276  16.840 -4.2190 -0.0766 -0.2896
 5112SOL    HW226973   3.914   2.423  16.847 -1.2747 -0.6545  0.5890
 5113SOL     OW26974   4.699   0.174   1.688  0.1734  0.6248 -0.7594
 5113SOL    HW126975   4.732   0.085   1.676 -0.0908  0.2403  1.3697
 5113SOL    HW226976   0.006   0.219   1.756 -2.0679  1.2570  0.4292
 5114SOL     OW26977   0.689   3.394   7.128 -0.1322  0.0699  0.4207
 5114SOL    HW126978   0.730   3.452   7.064  1.3247 -2.5739 -1.0371
 5114SOL    HW226979   0.640   3.332   7.075 -0.1285  0.4700 -0.0440
 5115SOL     OW26980   4.024   3.207   6.212  0.1216 -0.2790 -0.6437
 5115SOL    HW126981   3.931   3.224   6.202 -0.1040 -0.2594  1.3922
 5115SOL    HW226982   4.007   3.120   6.249  1.1887  0.7187  2.1869
 5116SOL     OW26983   4.471   2.299  11.216 -0.1858  0.1280 -0.0500
 5116SOL    HW126984   4.501   2.210  11.233 -0.3893 -0.3140 -2.1153
 5116SOL    HW226985   4.553   2.339  11.245  0.7654 -0.3666 -2.1020
 5117SOL     OW26986   0.911   2.503   4.393  0.0471  0.3537 -0.0596
 5117SOL    HW126987   0.920   2.426   4.448  1.7523 -0.1644 -1.0482
 5117SOL    HW226988   0.860   2.562   4.449  1.3791  0.5811  0.9309
 5118SOL     OW26989   0.681   2.101   9.969  0.1178 -0.0753  0.1742
 5118SOL    HW126990   0.719   2.038  10.030  2.9339  1.6346  0.2181
 5118SOL    HW226991   0.622   2.052   9.912 -1.2833  2.2684 -0.3677
 5119SOL     OW26992   0.848   0.238   8.010  0.0430 -0.5472  0.0171
 5119SOL    HW126993   0.772   0.249   8.067  0.1164  1.1815 -0.2014
 5119SOL    HW226994   0.918   0.283   8.058 -1.3349  0.5371  1.0203
 5120SOL     OW26995   4.123   4.342  17.253 -0.0433  0.1184 -0.0922
 5120SOL    HW126996   4.149   4.314  17.165 -1.6137  1.4350 -0.9569
 5120SOL    HW226997   4.184   4.414  17.269  0.9234 -0.9094  0.9292
 5121SOL     OW26998   0.007   4.275   4.879 -0.4832  0.1607 -0.0733
 5121SOL    HW126999   4.725   4.240   4.794  0.2780 -1.1381  0.2460
 5121SOL    HW227000   4.699   4.357   4.881  2.3953  1.9414 -0.0447
 5122SOL     OW27001   2.367   1.058   2.078  0.2978 -0.1516  0.0241
 5122SOL    HW127002   2.419   1.044   1.999  0.3078 -0.2601  0.0500
 5122SOL    HW227003   2.343   1.151   2.073 -0.2522 -0.2249  1.3407
 5123SOL     OW27004   0.741   2.006   7.968  0.0549 -0.2094 -0.3421
 5123SOL    HW127005   0.766   2.084   7.918  0.8311  0.5196  1.1861
 5123SOL    HW227006   0.658   2.034   8.007  0.4169  0.4924 -0.0705
 5124SOL     OW27007   2.953   3.849   9.902 -0.2644  0.2392  0.5264
 5124SOL    HW127008   3.003   3.767   9.897 -1.9757 -0.7717 -0.0905
 5124SOL    HW227009   2.997   3.909   9.962 -0.0445 -0.4333  1.0280
 5125SOL     OW27010   3.490   2.128   5.096  0.8535 -0.1022  0.3703
 5125SOL    HW127011   3.477   2.099   5.186 -0.5084  1.2702  0.6145
 5125SOL    HW227012   3.514   2.217   5.119 -2.3495  1.0585 -0.7584
 5126SOL     OW27013   2.745   0.180   4.232  0.4460  0.1626  0.5456
 5126SOL    HW127014   2.807   0.227   4.287 -0.7365  0.8161  1.3069
 5126SOL    HW227015   2.735   0.230   4.151  0.7679 -1.6162 -0.5927
 5127SOL     OW27016   0.127   1.089   4.936  0.2460 -0.2300 -0.3881
 5127SOL    HW127017   0.212   1.045   4.926  1.2459  1.5382  0.3492
 5127SOL    HW227018   0.076   1.022   4.890 -0.0191 -0.2971  0.0059
 5128SOL     OW27019   0.991   1.479  17.605  0.1275 -0.1846  0.8686
 5128SOL    HW127020   0.907   1.523  17.616  0.5688  1.0470 -0.6113
 5128SOL    HW227021   1.044   1.539  17.551  0.0248 -0.1421  0.8163
 5129SOL     OW27022   0.079   2.644  11.167  0.1219  0.1220 -0.2414
 5129SOL    HW127023   0.155   2.591  11.142 -0.6703 -1.5767  0.9158
 5129SOL    HW227024   0.102   2.689  11.248  1.1031 -0.8478  0.0152
 5130SOL     OW27025   3.976   2.686   5.349 -0.0670  0.0250  0.3647
 5130SOL    HW127026   4.001   2.601   5.311 -1.3728 -0.0549 -0.3482
 5130SOL    HW227027   4.062   2.704   5.385  0.9920 -1.9650 -1.1165
 5131SOL     OW27028   1.895   4.157  16.903 -0.0982 -0.1470  0.1799
 5131SOL    HW127029   1.918   4.247  16.928 -1.4852  0.4460 -0.6351
 5131SOL    HW227030   1.844   4.179  16.825  0.6266  0.3445 -0.1549
 5132SOL     OW27031   0.937   1.629  16.161  0.2073  0.2012  0.2235
 5132SOL    HW127032   0.848   1.662  16.173  0.3875 -0.7515  4.0061
 5132SOL    HW227033   0.948   1.549  16.213 -0.5054 -0.3841 -0.5190
 5133SOL     OW27034   0.865   1.910   6.824 -0.1562  0.2265  0.0505
 5133SOL    HW127035   0.779   1.932   6.789 -1.2194 -0.4509  2.2412
 5133SOL    HW227036   0.913   1.897   6.742  0.0462 -1.3041  0.4103
 5134SOL     OW27037   2.591   0.127   6.256 -0.1383 -0.3907 -0.6831
 5134SOL    HW127038   2.550   0.148   6.172  0.2392 -0.2292 -0.8260
 5134SOL    HW227039   2.675   0.172   6.249  0.3026 -0.8987  1.2088
 5135SOL     OW27040   1.778   3.734   0.942  0.0264 -0.0445  0.0865
 5135SOL    HW127041   1.794   3.658   0.886  1.3984  0.3919 -0.1259
 5135SOL    HW227042   1.742   3.672   1.006 -0.6827  2.2427  1.9182
 5136SOL     OW27043   3.675   1.366   0.478  0.3790  0.1786  0.0564
 5136SOL    HW127044   3.769   1.384   0.474  0.4239 -0.4510 -1.7323
 5136SOL    HW227045   3.656   1.371   0.384 -2.1027  1.6098  0.6461
 5137SOL     OW27046   3.999   4.142   7.953 -0.3543 -0.2494  0.3020
 5137SOL    HW127047   4.016   4.100   8.037  2.4939 -0.8207 -0.5610
 5137SOL    HW227048   3.938   4.206   7.989 -0.2443  0.1735 -0.2660
 5138SOL     OW27049   1.914   0.449  16.385  0.2226 -0.2668 -0.1802
 5138SOL    HW127050   1.903   0.502  16.464 -3.6133 -2.4256  0.7362
 5138SOL    HW227051   1.865   0.502  16.323  1.1327  0.5181 -0.2359
 5139SOL     OW27052   3.671   1.295   1.640  0.1857  0.0587  0.3379
 5139SOL    HW127053   3.762   1.317   1.618 -0.3240  1.9048  0.0371
 5139SOL    HW227054   3.679   1.281   1.734 -1.7102  1.1909  0.6502
 5140SOL     OW27055   4.520   4.301   9.960  0.2733  0.1585  0.9782
 5140SOL    HW127056   4.521   4.250  10.041 -1.6027  0.6643  1.3125
 5140SOL    HW227057   4.606   4.343   9.972  1.7799 -2.9530  1.0596
 5141SOL     OW27058   3.951   1.795   3.610  0.3764 -0.1192 -0.2638
 5141SOL    HW127059   3.869   1.800   3.660  0.0817  1.1273 -0.8776
 5141SOL    HW227060   3.989   1.883   3.613  0.3453 -0.0363 -2.5432
 5142SOL     OW27061   4.011   2.432   5.253 -0.3989  0.2741  0.1021
 5142SOL    HW127062   3.966   2.409   5.172  2.8168 -0.7034 -1.4259
 5142SOL    HW227063   4.052   2.351   5.283  1.6890  0.8106 -1.2862
 5143SOL     OW27064   1.971   1.616   4.926  0.0021 -0.0419  0.0636
 5143SOL    HW127065   1.956   1.546   4.862  0.3317  1.7484 -1.9629
 5143SOL    HW227066   1.942   1.587   5.012  1.6404  0.3274  0.7391
 5144SOL     OW27067   0.837   4.580   2.419  0.2769 -0.8937 -0.1636
 5144SOL    HW127068   0.884   4.499   2.441  0.6972 -1.0307 -1.5629
 5144SOL    HW227069   0.913   4.637   2.433 -0.3550 -0.2498  0.6902
 5145SOL     OW27070   0.804   2.354   7.635 -0.4034 -0.1903  0.9474
 5145SOL    HW127071   0.885   2.402   7.653 -0.7574  1.7440 -2.5161
 5145SOL    HW227072   0.767   2.332   7.720 -1.5350  1.4620  0.8751
 5146SOL     OW27073   0.441   0.765  13.666 -0.6346 -0.3297 -0.3401
 5146SOL    HW127074   0.450   0.729  13.578 -1.0799  3.3995 -1.9165
 5146SOL    HW227075   0.518   0.729  13.710  1.0589  0.9634 -2.1921
 5147SOL     OW27076   3.591   0.429  16.532 -0.0826 -0.7599 -0.3696
 5147SOL    HW127077   3.564   0.406  16.621 -3.6635  0.9774 -1.0121
 5147SOL    HW227078   3.684   0.421  16.554  0.1685 -0.1961 -1.2277
 5148SOL     OW27079   0.987   2.336   5.033 -0.6653  0.1535 -0.6778
 5148SOL    HW127080   1.017   2.416   4.990 -1.2796  0.0379 -1.3269
 5148SOL    HW227081   0.930   2.375   5.099 -0.4099 -4.2841  2.1676
 5149SOL     OW27082   1.321   1.504  11.548  0.3944 -0.3096 -0.7360
 5149SOL    HW127083   1.226   1.507  11.562  0.3771  2.8611 -1.4346
 5149SOL    HW227084   1.366   1.570  11.601  0.5727  0.4390 -1.8197
 5150SOL     OW27085   4.051   3.147  17.059  0.1109  0.0751  0.1181
 5150SOL    HW127086   4.115   3.211  17.090 -0.0529 -0.9292  2.4989
 5150SOL    HW227087   4.067   3.153  16.965  2.1946  1.5794  0.5482
 5151SOL     OW27088   4.262   0.023   9.220  0.3350  0.0296  0.4252
 5151SOL    HW127089   4.168   0.026   9.240  0.0289  0.9076 -1.1757
 5151SOL    HW227090   4.265   0.093   9.155 -1.4021 -1.6869 -1.5016
 5152SOL     OW27091   1.410   2.013   7.809  0.0222  0.2303 -0.4749
 5152SOL    HW127092   1.338   1.978   7.757  1.4788 -0.7493 -1.8626
 5152SOL    HW227093   1.397   1.981   7.898  2.9176 -0.9441 -0.4569
 5153SOL     OW27094   0.142   2.072   3.869 -0.2171 -0.3346  0.1741
 5153SOL    HW127095   0.215   2.117   3.826  0.2146  0.2887  1.5760
 5153SOL    HW227096   0.077   2.143   3.865 -1.3920 -1.4052  0.0908
 5154SOL     OW27097   2.488   3.871  17.746  0.0817 -0.2574 -0.1330
 5154SOL    HW127098   2.530   3.819  17.677  0.2701  2.4220 -2.0591
 5154SOL    HW227099   2.417   3.808  17.761  0.4695 -0.9439 -1.1907
 5155SOL     OW27100   2.594   2.595   7.678 -0.5050 -0.5370  0.5946
 5155SOL    HW127101   2.610   2.545   7.759  1.0473  1.4061  1.4836
 5155SOL    HW227102   2.510   2.563   7.646  0.5181 -1.0628 -1.5278
 5156SOL     OW27103   2.171   3.484   8.192 -0.0712 -0.4450 -0.0800
 5156SOL    HW127104   2.257   3.506   8.229 -0.6865  1.5540  0.1745
 5156SOL    HW227105   2.185   3.479   8.097 -1.7042  3.1699 -0.5154
 5157SOL     OW27106   2.515   0.765   6.971 -0.4010 -0.2048  0.4711
 5157SOL    HW127107   2.470   0.816   6.903  0.5592 -0.0379 -0.0387
 5157SOL    HW227108   2.519   0.679   6.931 -3.5737 -0.2477  0.2588
 5158SOL     OW27109   0.078   4.260   9.803  0.5133  0.1014 -0.0494
 5158SOL    HW127110   0.082   4.193   9.734  0.6318 -0.9552  0.9763
 5158SOL    HW227111   0.135   4.232   9.874  1.8173  2.0724 -0.3257
 5159SOL     OW27112   0.499   4.498   6.711 -0.1560  0.1261 -0.2543
 5159SOL    HW127113   0.441   4.424   6.695 -0.2336  0.7321 -2.7620
 5159SOL    HW227114   0.484   4.522   6.802  1.4011  2.8628 -0.7213
 5160SOL     OW27115   3.069   3.539   8.242  0.6707  0.1979 -0.1913
 5160SOL    HW127116   3.066   3.519   8.336 -1.4108  1.3206 -0.0368
 5160SOL    HW227117   3.060   3.451   8.206 -0.2591  0.2987 -0.1968
 5161SOL     OW27118   1.791   1.558   4.069 -0.3240  0.5142  0.1095
 5161SOL    HW127119   1.698   1.576   4.056 -0.0766  0.6751 -1.4023
 5161SOL    HW227120   1.781   1.463   4.056 -0.7365  0.7542 -1.2568
 5162SOL     OW27121   0.213   2.900  15.181  0.1161  0.1163  0.0073
 5162SOL    HW127122   0.293   2.863  15.142 -1.3125 -1.9931 -0.9365
 5162SOL    HW227123   0.142   2.844  15.148  1.8171 -2.8199  1.3146
 5163SOL     OW27124   1.318   0.649   1.273  0.1417  0.6286  0.1966
 5163SOL    HW127125   1.346   0.613   1.357 -2.3371 -0.7281  0.4482
 5163SOL    HW227126   1.235   0.677   1.311  0.9909 -0.4429  2.8132
 5164SOL     OW27127   1.141   2.848   7.918  0.0221  0.0297 -0.5381
 5164SOL    HW127128   1.210   2.878   7.977 -1.0456 -0.5362  1.0101
 5164SOL    HW227129   1.191   2.833   7.837  0.2946 -0.8208 -0.2167
 5165SOL     OW27130   1.943   0.732   9.091  0.0843  0.1055 -0.0243
 5165SOL    HW127131   1.900   0.756   9.009 -1.7356  0.2928  0.9874
 5165SOL    HW227132   2.024   0.782   9.084  0.2256 -0.0619  0.3910
 5166SOL     OW27133   2.385   1.803   2.125 -0.2516 -0.5247 -0.0506
 5166SOL    HW127134   2.376   1.731   2.187  0.8083  0.1016  0.8361
 5166SOL    HW227135   2.480   1.813   2.119 -0.3392  0.4811  0.3575
 5167SOL     OW27136   1.995   3.594  16.148  0.2603 -0.2474 -0.3944
 5167SOL    HW127137   2.090   3.598  16.161 -0.0806  1.5451  1.5715
 5167SOL    HW227138   1.957   3.561  16.230 -0.9062 -0.6008 -1.0923
 5168SOL     OW27139   2.941   4.095  12.387  0.0251  0.2717  0.3461
 5168SOL    HW127140   2.928   4.190  12.393  0.1706  0.2295  1.2871
 5168SOL    HW227141   2.855   4.063  12.413 -0.1282 -0.2733 -0.8277
 5169SOL     OW27142   3.032   3.798   5.138 -0.3141 -0.5411 -0.0929
 5169SOL    HW127143   2.972   3.848   5.082 -0.6461  2.3247  2.8306
 5169SOL    HW227144   2.983   3.716   5.133  0.1064 -0.7759 -0.3482
 5170SOL     OW27145   3.971   4.667   2.243  0.3327  0.2820  0.4153
 5170SOL    HW127146   4.007   4.624   2.320  1.6799  0.2629 -0.2098
 5170SOL    HW227147   3.987   4.608   2.169  1.7833 -0.3706  1.2514
 5171SOL     OW27148   0.792   3.760   4.232 -0.4592  0.4223 -0.9679
 5171SOL    HW127149   0.782   3.738   4.324 -0.2384 -0.0295 -1.0493
 5171SOL    HW227150   0.877   3.718   4.219  0.6845  2.6938 -0.7612
 5172SOL     OW27151   1.864   1.709  13.617 -0.4049  0.1406  0.0590
 5172SOL    HW127152   1.841   1.792  13.659  0.9858 -0.5895  2.2789
 5172SOL    HW227153   1.842   1.647  13.686 -0.2626 -1.9072 -1.7260
 5173SOL     OW27154   3.995   0.694   1.154  0.1689  0.4425  0.0385
 5173SOL    HW127155   4.016   0.775   1.108  2.3321  0.0949  0.3977
 5173SOL    HW227156   3.904   0.708   1.181  0.2812 -0.4841  0.9059
 5174SOL     OW27157   3.020   4.483   7.304 -0.2691 -0.2044  0.5404
 5174SOL    HW127158   2.935   4.440   7.301  0.5786 -1.9095  1.0519
 5174SOL    HW227159   3.064   4.434   7.373 -1.7389 -2.8128 -0.3922
 5175SOL     OW27160   4.423   1.670   8.332 -0.7204  0.1175  0.0508
 5175SOL    HW127161   4.489   1.738   8.345 -0.4549  0.0764 -1.0307
 5175SOL    HW227162   4.348   1.727   8.348 -1.4908 -0.9149  0.0648
 5176SOL     OW27163   1.842   4.242   6.388  0.4375 -0.3790 -0.2581
 5176SOL    HW127164   1.864   4.204   6.473  0.9644  0.9589  0.2052
 5176SOL    HW227165   1.747   4.234   6.378  0.4628  1.4678 -2.0901
 5177SOL     OW27166   1.354   0.630   7.659  0.1044  0.2406  0.1504
 5177SOL    HW127167   1.408   0.646   7.736  1.9898 -1.5087 -0.7965
 5177SOL    HW227168   1.296   0.706   7.656 -1.0716 -0.6752 -0.3750
 5178SOL     OW27169   0.163   4.497   4.080  0.2056 -0.5851 -0.1175
 5178SOL    HW127170   0.204   4.411   4.076  1.5686  0.0728 -0.5183
 5178SOL    HW227171   0.071   4.472   4.082  1.0390 -3.5391  0.5249
 5179SOL     OW27172   0.541   4.587   4.154 -0.4659  0.3550 -0.2773
 5179SOL    HW127173   0.454   4.591   4.194  0.4690 -0.5679  1.8906
 5179SOL    HW227174   0.551   4.682   4.164 -1.2061  0.2319  1.7092
 5180SOL     OW27175   1.840   2.351   9.064  0.0120 -0.4845 -0.1215
 5180SOL    HW127176   1.935   2.356   9.061  0.0157 -1.1043 -0.8447
 5180SOL    HW227177   1.820   2.395   9.147  4.5316  0.5001  0.4382
 5181SOL     OW27178   1.227   2.565  14.380 -0.4908 -0.2039 -0.7212
 5181SOL    HW127179   1.262   2.541  14.294 -0.1917  0.0077 -0.6569
 5181SOL    HW227180   1.246   2.481  14.424  3.1915  0.9471 -0.0958
 5182SOL     OW27181   3.297   4.567  15.875 -0.4937 -0.1684  0.0870
 5182SOL    HW127182   3.379   4.613  15.896 -0.8420 -0.0312  1.1352
 5182SOL    HW227183   3.226   4.630  15.890 -0.2597 -0.4950  2.6080
 5183SOL     OW27184   2.259   4.571   3.835 -0.4336 -0.1448  0.1525
 5183SOL    HW127185   2.256   4.551   3.928 -0.3075  1.2560  0.4435
 5183SOL    HW227186   2.331   4.509   3.818 -0.9120 -1.1753  1.9588
 5184SOL     OW27187   0.851   2.437  17.696  0.6417 -0.1238 -0.7999
 5184SOL    HW127188   0.929   2.486  17.672  1.7467 -0.7896  1.4430
 5184SOL    HW227189   0.888   2.374  17.759 -0.1638 -0.3520 -0.5516
 5185SOL     OW27190   0.531   2.341  11.210 -0.2487 -0.5623  0.3144
 5185SOL    HW127191   0.554   2.282  11.138 -1.6721 -1.2963  0.4674
 5185SOL    HW227192   0.538   2.283  11.286 -0.6865 -0.8516  0.1329
 5186SOL     OW27193   2.275   1.204   6.345  0.4694 -0.1083 -0.1656
 5186SOL    HW127194   2.181   1.195   6.362  0.8850 -0.3164  2.0211
 5186SOL    HW227195   2.309   1.120   6.373 -0.0980  0.1455  1.2886
 5187SOL     OW27196   3.937   0.749   2.808 -0.1447 -0.3564  0.1214
 5187SOL    HW127197   3.994   0.770   2.883  0.8266  1.4111 -1.1182
 5187SOL    HW227198   4.000   0.700   2.756 -0.5451 -0.1403 -0.5611
 5188SOL     OW27199   2.210   2.260   1.150  0.1951 -0.1458 -0.0581
 5188SOL    HW127200   2.152   2.186   1.169  1.7003 -1.2530  0.2311
 5188SOL    HW227201   2.214   2.254   1.055 -0.5620 -0.2769 -0.0807
 5189SOL     OW27202   1.316   3.981   2.949  0.0474 -0.2403  0.2245
 5189SOL    HW127203   1.320   4.036   2.870  0.4785 -2.0105 -0.9889
 5189SOL    HW227204   1.235   3.932   2.938  1.4908 -2.4804 -0.3121
 5190SOL     OW27205   2.704   2.724   8.082 -0.3301 -0.2689  0.1604
 5190SOL    HW127206   2.621   2.757   8.047 -0.4087  3.2477  3.6355
 5190SOL    HW227207   2.669   2.669   8.152  0.4463 -0.2517  0.5640
 5191SOL     OW27208   2.067   2.006  10.163 -0.5037  0.6573  0.2209
 5191SOL    HW127209   2.103   1.917  10.157  0.1450  0.9177  0.2991
 5191SOL    HW227210   2.145   2.056  10.182  0.0201  0.3330 -1.0300
 5192SOL     OW27211   2.901   2.025  15.409 -0.1081  0.1734 -0.0181
 5192SOL    HW127212   2.982   2.023  15.460  0.9550  0.1102 -1.6760
 5192SOL    HW227213   2.948   2.024  15.325  2.1645 -1.7439  1.2716
 5193SOL     OW27214   2.301   3.900   4.862  0.1466  0.2650  0.3596
 5193SOL    HW127215   2.360   3.915   4.789  0.3140  3.5606  1.1803
 5193SOL    HW227216   2.326   3.977   4.913 -0.6711  0.3732  0.5967
 5194SOL     OW27217   2.186   0.458   4.049  0.0239 -0.5500  0.4081
 5194SOL    HW127218   2.227   0.448   3.962  0.0054  0.4292  0.2860
 5194SOL    HW227219   2.097   0.465   4.015 -0.1453 -0.4770  0.8665
 5195SOL     OW27220   0.830   0.536   2.329 -0.7186  0.2603  0.1060
 5195SOL    HW127221   0.910   0.588   2.337  0.5280 -2.1084  2.9782
 5195SOL    HW227222   0.761   0.595   2.299  0.1649  0.8206 -0.8682
 5196SOL     OW27223   2.459   0.451  17.330  0.2272  0.4005 -0.0305
 5196SOL    HW127224   2.516   0.510  17.380  0.2244  1.3524 -1.1665
 5196SOL    HW227225   2.428   0.390  17.398  2.1256 -0.5041  0.0387
 5197SOL     OW27226   2.045   2.124   1.341  0.9429  0.0991  0.4196
 5197SOL    HW127227   2.056   2.135   1.435 -1.0058 -0.5631  0.7231
 5197SOL    HW227228   1.965   2.175   1.327  1.7382  1.1487 -0.3418
 5198SOL     OW27229   1.890   1.285   1.842  0.2558 -0.7470 -0.2883
 5198SOL    HW127230   1.795   1.289   1.832  0.1906  1.2709  1.0434
 5198SOL    HW227231   1.912   1.377   1.827  0.9364 -1.0455 -1.1081
 5199SOL     OW27232   3.370   2.008   5.380 -0.8044 -0.2949 -0.9505
 5199SOL    HW127233   3.280   1.978   5.390 -0.6497 -0.1625  0.7330
 5199SOL    HW227234   3.380   2.069   5.452 -0.8176  0.3209 -1.4672
 5200SOL     OW27235   2.431   1.085  10.484  0.8199 -0.4144  0.5546
 5200SOL    HW127236   2.340   1.072  10.458  1.0694 -0.3149 -0.3876
 5200SOL    HW227237   2.433   1.043  10.570  0.1826 -2.3403 -0.3692
 5201SOL     OW27238   0.217   1.372  15.765 -0.0380 -0.3570  0.2632
 5201SOL    HW127239   0.155   1.302  15.742  1.2515 -1.5712  0.4787
 5201SOL    HW227240   0.159   1.448  15.755 -0.2769 -0.2731  2.3523
 5202SOL     OW27241   4.421   1.537   0.488  0.3492 -0.3523 -0.2300
 5202SOL    HW127242   4.496   1.579   0.446  0.5638 -0.5518 -0.0449
 5202SOL    HW227243   4.419   1.451   0.445  0.7851 -0.0482 -0.8596
 5203SOL     OW27244   0.643   2.000   6.715 -0.3592  0.1154 -0.2967
 5203SOL    HW127245   0.592   1.969   6.640 -0.0356  0.6891 -0.7548
 5203SOL    HW227246   0.668   2.089   6.690  0.8656  0.2085  1.3035
 5204SOL     OW27247   0.274   0.557   7.823  0.0283  0.4294 -0.4634
 5204SOL    HW127248   0.281   0.497   7.897 -0.9217  1.7077  0.6653
 5204SOL    HW227249   0.358   0.550   7.778 -0.1050  2.2136 -0.9936
 5205SOL     OW27250   3.767   1.472   1.342  0.4666 -0.3844 -0.4041
 5205SOL    HW127251   3.771   1.494   1.435 -0.6543 -1.9278 -0.0094
 5205SOL    HW227252   3.807   1.385   1.343 -0.1283 -0.6024  2.9725
 5206SOL     OW27253   0.763   3.500   5.042  0.1894  0.1937  0.4186
 5206SOL    HW127254   0.845   3.478   5.087  1.0922  2.0820 -0.3086
 5206SOL    HW227255   0.739   3.584   5.081 -2.4234 -1.1795  1.7742
 5207SOL     OW27256   2.170   3.808  16.922  0.1017  0.2394 -0.3379
 5207SOL    HW127257   2.105   3.869  16.887 -2.0560 -1.7709  0.1716
 5207SOL    HW227258   2.117   3.732  16.947 -1.0751  1.3790  0.6913
 5208SOL     OW27259   4.076   3.409   4.004  0.3113  0.0440 -0.1642
 5208SOL    HW127260   4.104   3.473   3.938 -2.8501  1.1052 -0.4607
 5208SOL    HW227261   3.997   3.454   4.033 -0.4029 -0.9649 -0.5236
 5209SOL     OW27262   1.208   1.753   2.416  0.0858  0.0701  0.1030
 5209SOL    HW127263   1.173   1.668   2.444 -1.5418  0.1528 -1.6483
 5209SOL    HW227264   1.131   1.805   2.394  1.3600  0.5136 -3.4288
 5210SOL     OW27265   2.371   2.632  13.559 -0.0070 -0.1189 -0.0213
 5210SOL    HW127266   2.310   2.619  13.632  0.4716 -2.8448 -0.1085
 5210SOL    HW227267   2.398   2.724  13.565 -2.0375  0.5258 -0.6263
 5211SOL     OW27268   4.414   0.746   8.365  0.2271  0.0251 -0.1943
 5211SOL    HW127269   4.366   0.822   8.332 -0.1811  0.5592  1.6659
 5211SOL    HW227270   4.431   0.695   8.286  1.7029  0.7334 -0.3351
 5212SOL     OW27271   1.119   2.614   6.945 -0.0679 -0.2582 -0.0503
 5212SOL    HW127272   1.215   2.608   6.947 -0.0293 -0.4077 -2.6998
 5212SOL    HW227273   1.096   2.600   6.853 -0.6772  0.5041 -0.0128
 5213SOL     OW27274   0.100   1.389   8.818  0.8422 -0.1950  0.1463
 5213SOL    HW127275   0.009   1.372   8.843  0.7898  0.5222  0.4578
 5213SOL    HW227276   0.122   1.297   8.831  0.3279 -0.5729 -1.5450
 5214SOL     OW27277   2.048   0.189   5.692 -0.0153 -0.0668 -0.6514
 5214SOL    HW127278   2.137   0.157   5.704 -0.3163 -1.1139 -1.1750
 5214SOL    HW227279   2.023   0.187   5.784 -0.7614 -0.2962 -0.8608
 5215SOL     OW27280   4.568   0.665  12.542  0.5263 -0.2686  0.5441
 5215SOL    HW127281   4.488   0.660  12.490  0.3960  3.3285  0.4197
 5215SOL    HW227282   4.630   0.699  12.477  0.0701 -0.4679  0.0076
 5216SOL     OW27283   4.288   0.714   9.022 -0.7677 -0.2297 -0.3182
 5216SOL    HW127284   4.336   0.639   8.987 -1.1090 -1.0266  0.8910
 5216SOL    HW227285   4.332   0.719   9.107  1.0585  0.6949 -1.3342
 5217SOL     OW27286   0.190   2.837   1.877 -0.1365  0.2430 -0.5970
 5217SOL    HW127287   0.141   2.882   1.808 -2.0379 -0.4941  0.2935
 5217SOL    HW227288   0.134   2.861   1.951 -1.1731  2.3143 -2.0563
 5218SOL     OW27289   1.134   3.562   9.463 -0.7132  0.3716  0.2757
 5218SOL    HW127290   1.229   3.564   9.456 -0.5610  1.1850  2.5507
 5218SOL    HW227291   1.107   3.591   9.550  2.7433  1.7074  0.8912
 5219SOL     OW27292   1.624   2.080   2.089  0.1539  0.5606  0.2323
 5219SOL    HW127293   1.599   2.160   2.134  2.3215  2.6974 -2.3624
 5219SOL    HW227294   1.665   2.024   2.156  0.8393 -0.2852 -0.8936
 5220SOL     OW27295   1.714   1.613   4.467 -0.2557  0.4897  0.0984
 5220SOL    HW127296   1.650   1.614   4.396  0.4299  0.2134 -0.5225
 5220SOL    HW227297   1.737   1.520   4.477  2.5555  1.1107 -0.5867
 5221SOL     OW27298   3.036   2.611   3.225  0.0007 -0.3618  0.6670
 5221SOL    HW127299   3.093   2.586   3.298  1.0104 -0.4537 -0.1567
 5221SOL    HW227300   2.962   2.550   3.222  0.1878 -0.4869 -1.4785
 5222SOL     OW27301   0.142   0.810   7.825 -0.0008  0.1190 -0.0800
 5222SOL    HW127302   0.177   0.722   7.818  0.6818  0.1176  3.1134
 5222SOL    HW227303   0.127   0.832   7.733 -0.2344 -0.6671 -0.2239
 5223SOL     OW27304   3.200   3.267   0.302 -0.1507  0.1350 -0.1619
 5223SOL    HW127305   3.287   3.228   0.308 -0.8405 -1.2094  0.9847
 5223SOL    HW227306   3.222   3.329   0.232  0.7812 -2.3362 -2.0455
 5224SOL     OW27307   3.187   3.297  13.970  0.0395 -0.1544 -0.2726
 5224SOL    HW127308   3.199   3.387  14.001  0.7627 -0.5741  0.6935
 5224SOL    HW227309   3.277   3.268  13.979 -0.0168  0.5950  2.7577
 5225SOL     OW27310   3.883   3.678   5.163 -0.0421 -0.6055 -0.4332
 5225SOL    HW127311   3.970   3.639   5.172  0.3375  0.6125  1.2398
 5225SOL    HW227312   3.905   3.769   5.145  1.6636 -0.8961  0.2115
 5226SOL     OW27313   0.962   4.524   3.986 -0.4744 -0.9141 -0.0115
 5226SOL    HW127314   0.892   4.468   3.950 -0.1927 -1.3555  0.1242
 5226SOL    HW227315   1.033   4.470   3.951  0.8855  1.1277 -0.3513
 5227SOL     OW27316   1.843   0.983  12.694  0.5150  0.6614  0.0701
 5227SOL    HW127317   1.778   1.000  12.763  1.2050  0.0014  0.8786
 5227SOL    HW227318   1.924   1.002  12.741  0.4731  0.8664  0.0605
 5228SOL     OW27319   1.169   2.605   9.653 -0.0711  0.4962  0.5665
 5228SOL    HW127320   1.180   2.695   9.685 -0.3726 -0.2681  2.7952
 5228SOL    HW227321   1.095   2.582   9.709  0.7165 -1.5283  0.7873
 5229SOL     OW27322   1.893   3.490   0.750 -0.5360 -0.3855  0.1203
 5229SOL    HW127323   1.860   3.488   0.660 -1.8238 -0.6228  0.5869
 5229SOL    HW227324   1.848   3.411   0.780  1.2679 -1.6581 -0.6054
 5230SOL     OW27325   0.646   3.348  14.081  0.6141 -0.0654  0.0080
 5230SOL    HW127326   0.572   3.405  14.101  0.7225 -1.0034  3.0937
 5230SOL    HW227327   0.693   3.396  14.013 -1.0322 -1.0037 -1.8013
 5231SOL     OW27328   2.159   3.086   3.470 -0.1168 -0.0804  0.2616
 5231SOL    HW127329   2.239   3.090   3.524 -1.4336  0.2116  2.1833
 5231SOL    HW227330   2.195   3.060   3.385 -2.8567  0.3390 -1.0021
 5232SOL     OW27331   3.266   4.476   9.523  0.5447 -0.0404 -0.4733
 5232SOL    HW127332   3.222   4.430   9.452 -1.8999  0.6437  0.5878
 5232SOL    HW227333   3.224   4.562   9.520  0.5187 -0.0342  0.0348
 5233SOL     OW27334   3.740   0.318   6.732  0.0398  0.3111 -0.6678
 5233SOL    HW127335   3.703   0.308   6.644 -0.1463  0.0178 -0.5582
 5233SOL    HW227336   3.833   0.298   6.725  0.4728  2.8975 -2.2933
 5234SOL     OW27337   3.516   4.501   7.668 -0.4478  0.0957  0.3473
 5234SOL    HW127338   3.483   4.501   7.579 -1.9372  0.9986  0.9045
 5234SOL    HW227339   3.610   4.515   7.660 -0.3341 -0.7144  0.2541
 5235SOL     OW27340   4.056   0.076  12.641  0.3237 -0.0581  0.0602
 5235SOL    HW127341   4.150   0.086  12.631  0.2855  0.3947  0.1566
 5235SOL    HW227342   4.047   4.724  12.629 -0.5772  0.0054  0.2020
 5236SOL     OW27343   2.358   2.595   7.976 -0.6120 -0.4122  0.5805
 5236SOL    HW127344   2.291   2.582   8.043  0.4450 -1.2300  1.4966
 5236SOL    HW227345   2.410   2.515   7.990  0.5700  0.4112  0.9120
 5237SOL     OW27346   3.856   2.022  14.786 -0.2563 -0.0003 -0.3127
 5237SOL    HW127347   3.933   1.995  14.736  1.2174  1.7012  1.0103
 5237SOL    HW227348   3.887   2.090  14.846 -0.0673  0.0276 -0.4439
 5238SOL     OW27349   1.470   3.558   4.173 -0.0406 -0.2245 -0.4570
 5238SOL    HW127350   1.441   3.487   4.116 -0.2808 -1.6582  1.4553
 5238SOL    HW227351   1.390   3.605   4.193  0.2948  0.3566 -0.4817
 5239SOL     OW27352   0.506   2.394   7.721 -0.2395  0.4686  0.0905
 5239SOL    HW127353   0.558   2.472   7.743 -0.2363  0.1442  1.2054
 5239SOL    HW227354   0.420   2.435   7.731 -1.1931 -0.8095 -2.8262
 5240SOL     OW27355   4.132   3.078   7.897  0.3128  0.4262  0.1369
 5240SOL    HW127356   4.205   3.040   7.848  0.4817  0.1756  0.5833
 5240SOL    HW227357   4.080   2.998   7.905 -1.6902  1.6084 -1.2015
 5241SOL     OW27358   0.421   2.959   4.351  0.5775 -0.6262 -0.0175
 5241SOL    HW127359   0.413   2.884   4.409 -0.6788 -1.1452 -0.8590
 5241SOL    HW227360   0.369   3.024   4.397  0.3083 -1.4956  0.8970
 5242SOL     OW27361   0.760   1.995   8.296 -0.0129 -0.4880  0.4055
 5242SOL    HW127362   0.684   2.034   8.252 -1.9450 -4.6249  0.1379
 5242SOL    HW227363   0.839   2.026   8.251 -1.8148  1.2009 -1.6209
 5243SOL     OW27364   2.088   1.277   4.866 -0.5627  0.2134  0.1426
 5243SOL    HW127365   2.030   1.315   4.933 -0.1957 -2.5288  2.0520
 5243SOL    HW227366   2.084   1.340   4.795  0.9636 -0.8507 -0.8710
 5244SOL     OW27367   2.894   2.242   2.918  0.7263 -0.5318  0.1509
 5244SOL    HW127368   2.813   2.241   2.970  1.2410  1.7966  1.0068
 5244SOL    HW227369   2.887   2.331   2.883  0.3847  0.2471  2.1757
 5245SOL     OW27370   1.009   3.147   0.117 -0.6230 -0.2098  0.1081
 5245SOL    HW127371   0.951   3.189   0.055 -0.7241  1.8285  1.5844
 5245SOL    HW227372   1.060   3.219   0.154  0.1214 -0.3494 -0.6342
 5246SOL     OW27373   2.452   3.307   2.764  0.3272 -0.0080 -0.4961
 5246SOL    HW127374   2.497   3.384   2.730 -0.5500 -0.3949 -2.5447
 5246SOL    HW227375   2.425   3.339   2.849 -2.9752 -2.2670 -0.6814
 5247SOL     OW27376   0.082   2.655   2.648 -0.5342  0.4396 -0.4415
 5247SOL    HW127377   4.738   2.620   2.629  0.2968 -3.1813  2.4419
 5247SOL    HW227378   0.130   2.614   2.576 -0.5785  0.3773 -0.4356
 5248SOL     OW27379   1.617   2.531   8.020  0.5121 -0.1344  0.6012
 5248SOL    HW127380   1.658   2.516   8.105  0.1635  0.3300  0.8538
 5248SOL    HW227381   1.640   2.451   7.973 -0.6937 -0.0174 -0.1789
 5249SOL     OW27382   1.509   0.897   6.353 -0.4869  0.1189 -0.0745
 5249SOL    HW127383   1.571   0.945   6.407 -0.3453  0.6899 -0.7331
 5249SOL    HW227384   1.534   0.807   6.374  0.0593  0.4691  0.7498
 5250SOL     OW27385   0.092   0.024   5.542  0.2611  0.5675  0.1157
 5250SOL    HW127386   0.005   4.728   5.549  1.4534 -1.9192  1.3296
 5250SOL    HW227387   0.129   0.007   5.629  1.5473 -0.2013 -0.5775
 5251SOL     OW27388   0.632   3.160  11.629  0.0148  0.2797  0.0934
 5251SOL    HW127389   0.639   3.128  11.719 -0.3580  0.0721  0.0499
 5251SOL    HW227390   0.537   3.173  11.624  0.0542  1.4537  2.4852
 5252SOL     OW27391   1.076   0.558  17.647 -0.0227 -0.3438 -0.2089
 5252SOL    HW127392   1.089   0.474  17.604  1.8242 -0.6421  0.9226
 5252SOL    HW227393   1.030   0.525  17.724 -1.6008 -0.7963 -1.3434
 5253SOL     OW27394   4.488   4.239   5.732 -0.2045 -0.3039 -0.7989
 5253SOL    HW127395   4.402   4.280   5.729 -0.7663 -1.5891 -2.1845
 5253SOL    HW227396   4.544   4.308   5.767 -0.7574  0.0663 -0.6387
 5254SOL     OW27397   1.246   2.596   5.635  0.6113 -0.1702  0.0711
 5254SOL    HW127398   1.175   2.599   5.571  1.5348 -0.3103 -0.9618
 5254SOL    HW227399   1.230   2.518   5.688 -0.1414  0.3124  0.5400
 5255SOL     OW27400   3.768   1.884   6.927  0.2055  0.3103 -0.1006
 5255SOL    HW127401   3.702   1.815   6.920 -0.0366  0.5941 -0.5775
 5255SOL    HW227402   3.729   1.950   6.870  0.5142 -2.2887 -3.3103
 5256SOL     OW27403   1.821   0.887  11.097 -0.1405  0.2410 -0.1883
 5256SOL    HW127404   1.894   0.946  11.077  1.1324 -1.1306  0.3139
 5256SOL    HW227405   1.770   0.893  11.017  1.8409  0.6838 -1.4232
 5257SOL     OW27406   0.252   3.199   2.922  0.7076  0.0145  0.5888
 5257SOL    HW127407   0.192   3.249   2.977  0.8543  0.3082  0.4863
 5257SOL    HW227408   0.283   3.267   2.862  1.9627 -0.8517  0.2390
 5258SOL     OW27409   1.410   0.055   1.355 -0.1126  0.0616 -0.2829
 5258SOL    HW127410   1.378   0.142   1.330 -0.8249 -0.0503  0.2045
 5258SOL    HW227411   1.461   0.070   1.434 -0.4757 -1.8260  0.3174
 5259SOL     OW27412   3.604   2.834   3.653 -0.2292 -0.4413 -0.2576
 5259SOL    HW127413   3.681   2.836   3.709 -2.0417 -0.5691  2.2324
 5259SOL    HW227414   3.644   2.800   3.573  2.4537  1.5307  0.2294
 5260SOL     OW27415   1.476   2.323   7.784  0.2637 -0.4809 -0.0828
 5260SOL    HW127416   1.540   2.260   7.818  0.4619  0.5323  1.4229
 5260SOL    HW227417   1.469   2.297   7.692  0.0418  1.1493 -0.5196
 5261SOL     OW27418   3.099   0.641  12.313 -0.2667 -0.5752  0.6276
 5261SOL    HW127419   3.153   0.712  12.347  0.4961 -2.5039  3.4343
 5261SOL    HW227420   3.150   0.607  12.239 -0.5177  1.8055 -0.6362
 5262SOL     OW27421   4.590   1.554   1.498  0.4762  0.3535 -0.5532
 5262SOL    HW127422   4.562   1.521   1.584 -0.5906  0.6270 -0.7976
 5262SOL    HW227423   4.677   1.515   1.489  0.7222  0.9402 -0.7200
 5263SOL     OW27424   3.625   3.880  16.174  0.1644 -0.7317 -0.1857
 5263SOL    HW127425   3.681   3.805  16.190  1.8963  0.9650  1.7160
 5263SOL    HW227426   3.698   3.942  16.176  1.9755 -2.8553 -0.7434
 5264SOL     OW27427   1.643   2.832   1.240  0.0608  0.1161 -0.1234
 5264SOL    HW127428   1.717   2.890   1.258 -0.8200  1.5702 -1.1587
 5264SOL    HW227429   1.608   2.872   1.160 -1.1381 -0.7105 -0.0098
 5265SOL     OW27430   0.487   1.107   4.263 -0.0467 -0.2276 -0.1916
 5265SOL    HW127431   0.450   1.021   4.282 -1.4314  0.2752 -0.6180
 5265SOL    HW227432   0.572   1.096   4.306 -1.3594  1.0209  2.7328
 5266SOL     OW27433   1.058   3.994   4.313 -0.1209  0.5268 -0.2403
 5266SOL    HW127434   1.036   3.990   4.406 -0.5707 -4.5016 -0.5486
 5266SOL    HW227435   1.027   4.081   4.289 -0.8116  0.4561  0.4136
 5267SOL     OW27436   3.244   3.443   4.781 -0.5402 -0.0221  0.0399
 5267SOL    HW127437   3.311   3.427   4.848  0.2100  2.5187 -0.1101
 5267SOL    HW227438   3.247   3.537   4.769 -1.2781  0.1760  1.4393
 5268SOL     OW27439   2.621   3.881  16.502 -0.9033 -0.1354  0.1570
 5268SOL    HW127440   2.710   3.884  16.537 -0.3940  1.3934 -1.2850
 5268SOL    HW227441   2.570   3.922  16.572 -2.3166  0.5741 -1.2542
 5269SOL     OW27442   4.335   1.957  15.139  0.4878 -0.1829 -0.1118
 5269SOL    HW127443   4.287   1.943  15.057  0.2218  0.0892 -0.0044
 5269SOL    HW227444   4.426   1.944  15.113  1.3901  2.5429  1.6671
 5270SOL     OW27445   3.709   3.477   0.607 -0.1200 -0.2072 -0.1271
 5270SOL    HW127446   3.640   3.425   0.567 -0.8588  0.7365 -0.0894
 5270SOL    HW227447   3.661   3.511   0.683 -0.0733  0.6932 -0.4940
 5271SOL     OW27448   4.652   0.831   7.003  0.0696  0.2289  0.6870
 5271SOL    HW127449   4.663   0.776   6.925 -0.1636  0.6763  0.3376
 5271SOL    HW227450   4.718   0.899   6.983 -0.3077  0.7943  1.3886
 5272SOL     OW27451   4.565   2.556   3.649  0.5127 -0.1038 -0.3231
 5272SOL    HW127452   4.591   2.467   3.626 -1.8410 -0.8613 -0.0673
 5272SOL    HW227453   4.644   2.578   3.699  1.0786  1.2199 -1.7944
 5273SOL     OW27454   3.488   3.155   5.826  0.6211  0.1133  0.0758
 5273SOL    HW127455   3.425   3.119   5.763 -0.8412  0.2713  1.4374
 5273SOL    HW227456   3.558   3.090   5.821  1.1734  0.5699  1.9202
 5274SOL     OW27457   0.762   1.821   2.309 -0.1368 -0.0485  0.0840
 5274SOL    HW127458   0.786   1.912   2.324 -1.1948  0.0890  0.9227
 5274SOL    HW227459   0.846   1.774   2.305  0.0364  0.3195 -0.7591
 5275SOL     OW27460   0.320   0.571   5.550 -0.2215 -0.2816  0.6876
 5275SOL    HW127461   0.389   0.592   5.613  0.0734 -3.5865  1.4733
 5275SOL    HW227462   0.241   0.563   5.604 -1.4404 -0.3456 -1.1341
 5276SOL     OW27463   3.036   2.628   1.587  0.2216 -0.6411  0.1366
 5276SOL    HW127464   2.984   2.603   1.663  0.6550 -0.7062  0.4165
 5276SOL    HW227465   2.982   2.678   1.526  0.7572 -1.7321 -1.2330
 5277SOL     OW27466   1.339   0.511   1.927 -0.1925 -0.4182 -0.3005
 5277SOL    HW127467   1.419   0.522   1.874  3.0172 -1.0417  4.4187
 5277SOL    HW227468   1.384   0.476   2.003 -0.1959  0.5379  0.1422
 5278SOL     OW27469   1.420   1.561  12.245 -0.3194 -0.0302 -0.5088
 5278SOL    HW127470   1.487   1.629  12.228  2.5263 -3.2795 -2.2636
 5278SOL    HW227471   1.489   1.494  12.247 -0.1146  0.1438 -1.8505
 5279SOL     OW27472   1.496   2.143   6.872 -0.1903 -0.7847  0.5212
 5279SOL    HW127473   1.583   2.177   6.853 -1.5967  2.7984  0.6149
 5279SOL    HW227474   1.515   2.084   6.946 -1.8846 -3.0454 -0.8445
 5280SOL     OW27475   1.872   0.024   8.929  0.5428  0.5143 -0.4846
 5280SOL    HW127476   1.814   0.095   8.901  0.3790  1.1054  1.3591
 5280SOL    HW227477   1.848   0.031   9.021 -0.1190  0.2753 -0.6395
 5281SOL     OW27478   4.501   3.391   1.599  0.0677  0.3872 -0.2578
 5281SOL    HW127479   4.548   3.340   1.532  0.6812 -1.0646  1.2937
 5281SOL    HW227480   4.420   3.417   1.555 -0.2729  0.2625  0.3058
 5282SOL     OW27481   3.605   2.756   4.570  0.0420  0.4059 -0.3070
 5282SOL    HW127482   3.554   2.716   4.641 -0.5257  2.2937  0.3605
 5282SOL    HW227483   3.665   2.808   4.624  0.4065  0.5869 -0.8903
 5283SOL     OW27484   2.156   0.273   0.363 -0.0491  0.6634 -0.6260
 5283SOL    HW127485   2.128   0.271   0.271  0.8117 -0.1500 -0.8637
 5283SOL    HW227486   2.154   0.180   0.384  2.8207  0.6048 -0.6267
 5284SOL     OW27487   2.662   1.353   6.801 -0.2498 -0.1642  0.1446
 5284SOL    HW127488   2.629   1.275   6.755  0.4607  0.2225 -1.0175
 5284SOL    HW227489   2.612   1.344   6.882  1.6662  2.5041  1.5807
 5285SOL     OW27490   1.267   4.649   2.527  0.6671 -0.4193 -0.2983
 5285SOL    HW127491   1.272   4.704   2.605  1.2496  0.5671 -1.0340
 5285SOL    HW227492   1.210   4.701   2.470  0.8201  0.3160  0.2230
 5286SOL     OW27493   3.814   2.128   2.869 -0.2908 -0.3025 -0.2367
 5286SOL    HW127494   3.837   2.086   2.786  0.9323  0.6054 -0.3569
 5286SOL    HW227495   3.882   2.194   2.885 -0.1633  0.2595 -3.1231
 5287SOL     OW27496   4.308   1.492  16.919  0.0570  0.1778  0.2555
 5287SOL    HW127497   4.352   1.576  16.929 -0.3243  0.6365 -1.9792
 5287SOL    HW227498   4.218   1.504  16.892  0.3536  0.1621 -0.7228
 5288SOL     OW27499   2.311   4.603  16.816  0.2210  0.2662 -0.1083
 5288SOL    HW127500   2.230   4.576  16.859 -1.2430  2.8996 -1.2547
 5288SOL    HW227501   2.354   4.647  16.889  0.1356 -1.0280  0.7151
 5289SOL     OW27502   1.393   4.695   5.539 -0.3008  0.5026 -0.0176
 5289SOL    HW127503   1.336   4.624   5.571  0.4232 -0.1566 -0.1979
 5289SOL    HW227504   1.365   0.034   5.580 -0.5991  0.6040 -0.4184
 5290SOL     OW27505   4.662   4.184   8.108 -0.6560  0.2234  0.2489
 5290SOL    HW127506   4.683   4.131   8.031  2.4344 -1.4586  2.2657
 5290SOL    HW227507   4.669   4.118   8.176  2.1914  1.0434  0.7601
 5291SOL     OW27508   3.880   1.982  16.495 -0.3314 -0.1592  0.8609
 5291SOL    HW127509   3.824   2.045  16.540 -1.5783 -0.1561 -0.6987
 5291SOL    HW227510   3.862   2.007  16.404  0.7660  1.3643  1.0726
 5292SOL     OW27511   0.204   0.757  14.228  0.1339  0.1428 -0.7266
 5292SOL    HW127512   0.122   0.765  14.277  0.2197  0.9160 -0.7154
 5292SOL    HW227513   0.188   0.827  14.165  1.5416  1.3096  0.2336
 5293SOL     OW27514   2.048   0.899  10.665  0.1031 -0.4079 -0.3059
 5293SOL    HW127515   1.956   0.919  10.682 -0.0523 -0.7678 -0.7029
 5293SOL    HW227516   2.093   0.936  10.741 -0.2336 -0.7988  0.0870
 5294SOL     OW27517   0.678   0.753   8.420  0.0870  0.4437 -0.4253
 5294SOL    HW127518   0.606   0.690   8.422 -0.2499  0.8447  0.1322
 5294SOL    HW227519   0.694   0.765   8.514 -2.7648 -0.9671  0.2505
 5295SOL     OW27520   1.268   4.677   4.823  0.3325  0.0399  0.0197
 5295SOL    HW127521   1.357   4.674   4.858 -0.0010  1.7627  0.9840
 5295SOL    HW227522   1.219   4.642   4.897  0.0424  1.7733  0.6340
 5296SOL     OW27523   2.790   3.748   2.866  0.4717  0.1864 -0.4844
 5296SOL    HW127524   2.766   3.781   2.779  2.1674 -0.8995 -1.3576
 5296SOL    HW227525   2.869   3.695   2.855 -0.2287 -0.4607 -2.3637
 5297SOL     OW27526   3.235   1.180   5.143  0.5484 -0.6511 -0.3088
 5297SOL    HW127527   3.264   1.145   5.228  1.3889 -0.5597 -0.5575
 5297SOL    HW227528   3.314   1.174   5.090  0.3214 -1.8826 -0.5107
 5298SOL     OW27529   1.536   3.782   6.343 -0.5379  0.2727  0.3100
 5298SOL    HW127530   1.606   3.719   6.362  0.1884  0.8375 -0.4927
 5298SOL    HW227531   1.512   3.811   6.431 -0.3875 -1.0096  0.7864
 5299SOL     OW27532   1.018   1.192   4.048 -0.1272  0.5787 -0.2316
 5299SOL    HW127533   1.079   1.261   4.023 -2.1935  2.5905  0.2991
 5299SOL    HW227534   0.951   1.229   4.107 -2.8710 -1.2983 -2.1625
 5300SOL     OW27535   0.181   3.063   6.057 -0.1272 -0.6810  0.1805
 5300SOL    HW127536   0.133   3.019   6.128  0.6679  0.3604  1.3836
 5300SOL    HW227537   0.195   3.150   6.095 -2.4519 -0.3252  0.2539
 5301SOL     OW27538   4.210   1.951  14.904  0.6927 -0.1451  0.3686
 5301SOL    HW127539   4.249   1.923  14.821 -1.4089  0.2760 -0.7414
 5301SOL    HW227540   4.135   1.893  14.914  1.2595 -0.7010  1.4565
 5302SOL     OW27541   3.665   2.264   6.333  0.2744 -0.3252 -0.4347
 5302SOL    HW127542   3.570   2.252   6.329  0.1398  1.3219 -2.1074
 5302SOL    HW227543   3.688   2.313   6.254 -2.5992 -0.1750 -1.1825
 5303SOL     OW27544   2.890   0.659   6.330 -0.9359 -0.1248 -0.1072
 5303SOL    HW127545   2.868   0.713   6.406  0.5680  2.0313 -1.1770
 5303SOL    HW227546   2.854   0.576   6.359 -0.0554 -0.7511 -0.8197
 5304SOL     OW27547   0.611   1.870  16.457 -0.1287 -0.5211 -0.3702
 5304SOL    HW127548   0.525   1.839  16.485 -0.5788  2.2491  1.3596
 5304SOL    HW227549   0.620   1.930  16.531  0.2426  0.5952 -1.3314
 5305SOL     OW27550   3.881   1.484  15.938  0.0175  0.4837  0.0884
 5305SOL    HW127551   3.945   1.433  15.888  0.1623  0.4283  0.3279
 5305SOL    HW227552   3.801   1.480  15.886  0.2357 -1.4565 -0.0980
 5306SOL     OW27553   1.768   3.729  16.056 -0.2100 -0.0391  0.2730
 5306SOL    HW127554   1.845   3.673  16.064 -0.7614 -0.6710  1.1331
 5306SOL    HW227555   1.775   3.759  16.146 -1.1863 -1.3770  0.7884
 5307SOL     OW27556   1.716   3.887   3.215 -0.1410 -0.3780  0.2548
 5307SOL    HW127557   1.662   3.937   3.154  0.2681  0.6725  0.7546
 5307SOL    HW227558   1.673   3.887   3.300 -0.9725  0.0160 -0.1649
 5308SOL     OW27559   0.409   4.085   3.008 -0.1636 -0.2501 -0.0968
 5308SOL    HW127560   0.496   4.102   3.043  0.3076 -1.3345 -0.7285
 5308SOL    HW227561   0.432   4.002   2.965  0.3555  0.5831 -1.4373
 5309SOL     OW27562   4.741   3.655   3.953 -0.0557 -0.3511 -0.0279
 5309SOL    HW127563   0.089   3.626   3.948  0.4403  1.5666 -1.6517
 5309SOL    HW227564   0.001   3.675   4.047 -2.0259 -0.2517  0.0152
 5310SOL     OW27565   1.000   2.992   3.611 -0.0515  0.3389  0.0670
 5310SOL    HW127566   0.996   2.964   3.702 -0.5698 -0.0317 -0.0704
 5310SOL    HW227567   1.069   2.931   3.585 -0.6327  0.0518 -0.8031
 5311SOL     OW27568   3.627   1.107   7.444 -0.6655  0.4786 -0.4713
 5311SOL    HW127569   3.668   1.135   7.526 -2.2523 -2.7441  1.4231
 5311SOL    HW227570   3.669   1.154   7.372 -0.6105  0.6526 -0.3273
 5312SOL     OW27571   1.486   3.062   4.483  0.2031 -0.3985 -0.1173
 5312SOL    HW127572   1.418   3.003   4.450 -0.7913 -0.0528  1.2890
 5312SOL    HW227573   1.441   3.145   4.498 -0.6486 -0.3765 -2.7537
 5313SOL     OW27574   3.336   2.042   0.875  0.1337 -0.3425  0.1023
 5313SOL    HW127575   3.409   1.988   0.906  0.8186  0.6717  0.2563
 5313SOL    HW227576   3.277   2.052   0.950 -0.9942 -0.1517 -0.8063
 5314SOL     OW27577   1.745   4.559   5.720  0.1069  0.0559 -0.2175
 5314SOL    HW127578   1.691   4.484   5.745  2.0631 -1.0285  0.7553
 5314SOL    HW227579   1.783   4.581   5.805 -0.7254  0.0993  0.1454
 5315SOL     OW27580   2.025   0.893   9.337 -0.3163 -0.6555  0.6669
 5315SOL    HW127581   1.947   0.865   9.385 -1.2005  2.5490  1.0912
 5315SOL    HW227582   1.988   0.954   9.274  2.0682  1.4839  1.3565
 5316SOL     OW27583   0.754   3.496   4.533  0.2969  0.5457  0.0113
 5316SOL    HW127584   0.786   3.474   4.621 -2.3806 -0.0566  0.8453
 5316SOL    HW227585   0.774   3.589   4.527 -1.1808  0.8557 -0.1555
 5317SOL     OW27586   1.173   4.243   0.882 -0.5520  0.2729  0.4972
 5317SOL    HW127587   1.136   4.219   0.797 -1.2227  0.2745  0.7838
 5317SOL    HW227588   1.104   4.229   0.947 -0.7974 -2.7509 -0.3987
 5318SOL     OW27589   4.166   0.295   2.963 -0.2247 -0.6265 -0.3378
 5318SOL    HW127590   4.138   0.208   2.990 -0.3373 -0.8987 -1.3318
 5318SOL    HW227591   4.130   0.345   3.037 -0.1983 -0.1795 -0.6268
 5319SOL     OW27592   4.155   3.842   3.750  0.0956 -0.1264  0.3548
 5319SOL    HW127593   4.238   3.844   3.702 -0.2679 -1.3783 -0.3234
 5319SOL    HW227594   4.101   3.861   3.674  0.1443  1.2599  0.6690
 5320SOL     OW27595   1.015   2.092   8.239 -0.4985  0.0479  0.2862
 5320SOL    HW127596   1.049   2.094   8.150 -2.2522 -2.4987 -0.4634
 5320SOL    HW227597   1.095   2.058   8.278 -1.1115  0.8726  2.2459
 5321SOL     OW27598   3.916   3.394   6.881 -0.1258  0.2779  0.3828
 5321SOL    HW127599   3.881   3.347   6.957  0.2806  2.3419  1.8320
 5321SOL    HW227600   3.864   3.474   6.882 -1.2677 -0.4857  2.3801
 5322SOL     OW27601   3.846   0.696   7.762 -0.7321 -0.3494  0.1404
 5322SOL    HW127602   3.852   0.704   7.666 -0.3755 -0.2368  0.1717
 5322SOL    HW227603   3.886   0.782   7.774 -0.3905 -0.4342 -0.3730
 5323SOL     OW27604   3.404   3.936   9.911 -0.1680  0.1144  0.1973
 5323SOL    HW127605   3.407   3.939  10.006 -1.4653  1.2754  0.1965
 5323SOL    HW227606   3.416   4.027   9.885 -4.3021  0.3963 -0.7889
 5324SOL     OW27607   0.323   4.197  17.544  0.0372  0.0306  0.1487
 5324SOL    HW127608   0.378   4.243  17.607 -0.1841 -0.1751  0.4914
 5324SOL    HW227609   0.242   4.247  17.553 -0.9386 -1.5019 -0.1734
 5325SOL     OW27610   1.238   1.407   5.979 -0.0005 -0.4468  0.2369
 5325SOL    HW127611   1.250   1.469   6.051 -0.0116 -0.0541 -0.1005
 5325SOL    HW227612   1.164   1.445   5.932  0.8254  1.4680  0.4550
 5326SOL     OW27613   1.992   2.477  10.816  0.0108 -0.1555 -0.6128
 5326SOL    HW127614   1.979   2.391  10.856 -0.9445  0.8655  1.2645
 5326SOL    HW227615   1.900   2.501  10.817  0.1252  0.2534  0.1799
 5327SOL     OW27616   4.495   2.769   2.768  0.0114  0.0657 -0.0375
 5327SOL    HW127617   4.432   2.794   2.835  1.9652  0.4958  1.6610
 5327SOL    HW227618   4.452   2.697   2.722 -2.5238  2.5503 -1.5696
 5328SOL     OW27619   2.212   3.576  11.267  0.1712  0.0211 -0.0912
 5328SOL    HW127620   2.170   3.534  11.342 -1.5360  0.7919 -0.6191
 5328SOL    HW227621   2.136   3.574  11.209  1.1679 -1.0652 -1.3622
 5329SOL     OW27622   1.896   2.579  14.796  0.2569 -0.4329  0.1487
 5329SOL    HW127623   1.982   2.549  14.827 -0.0166 -0.2796  1.0710
 5329SOL    HW227624   1.857   2.608  14.879  0.3669  0.4784 -0.1245
 5330SOL     OW27625   2.113   2.473   0.420  0.6159 -0.0192 -0.0223
 5330SOL    HW127626   2.134   2.446   0.330  2.9002 -1.3249  0.9018
 5330SOL    HW227627   2.144   2.396   0.468 -1.0096 -0.5496  0.1758
 5331SOL     OW27628   0.194   3.426   6.457  0.1192 -0.2152  0.6110
 5331SOL    HW127629   0.110   3.466   6.480 -0.6095 -1.4888  0.1174
 5331SOL    HW227630   0.199   3.361   6.527 -0.6145  1.9322  2.6614
 5332SOL     OW27631   1.070   3.265   2.143 -0.9065  0.2079  0.3143
 5332SOL    HW127632   1.047   3.186   2.094  0.6369 -2.5410  4.0312
 5332SOL    HW227633   1.119   3.222   2.212 -0.2455  2.3821  1.1849
 5333SOL     OW27634   4.245   4.575   2.336 -0.2988  0.1871  0.6091
 5333SOL    HW127635   4.319   4.515   2.341 -1.0470 -0.6605  1.5591
 5333SOL    HW227636   4.300   4.648   2.309  1.6378 -0.2830  3.3247
 5334SOL     OW27637   2.588   0.680   6.053  0.6019  0.4388 -0.4953
 5334SOL    HW127638   2.684   0.675   6.048  0.6797  0.9244  0.4997
 5334SOL    HW227639   2.573   0.748   5.987  0.2024  0.7649 -0.0619
 5335SOL     OW27640   2.584   3.052   8.968  0.1057  0.2821 -0.3567
 5335SOL    HW127641   2.654   2.988   8.981  0.4732  0.9066  0.6958
 5335SOL    HW227642   2.501   3.004   8.958  0.0258 -0.2221  2.8160
 5336SOL     OW27643   4.484   1.338   4.974 -0.4914 -0.0427 -0.4621
 5336SOL    HW127644   4.529   1.369   5.052 -1.6086  0.4556 -0.0213
 5336SOL    HW227645   4.475   1.421   4.927  0.9049  0.3650 -0.0030
 5337SOL     OW27646   3.926   3.806   8.298 -0.2128 -0.1703  0.0017
 5337SOL    HW127647   3.979   3.873   8.341  0.3082 -1.0115  0.6828
 5337SOL    HW227648   3.858   3.799   8.365 -1.2422  0.8412 -0.9297
 5338SOL     OW27649   0.347   4.245   9.190 -0.2705 -0.2072 -0.1824
 5338SOL    HW127650   0.320   4.154   9.202  0.5285  0.0846  3.9577
 5338SOL    HW227651   0.317   4.283   9.272 -0.0822  0.7315 -0.5518
 5339SOL     OW27652   1.293   4.684   6.400  0.3298 -0.6748 -0.4383
 5339SOL    HW127653   1.239   4.608   6.378  2.0935 -1.6367 -1.4607
 5339SOL    HW227654   1.363   4.683   6.334  2.0880 -1.2349  1.4394
 5340SOL     OW27655   4.394   3.446  11.047  0.0627 -0.2265  0.2347
 5340SOL    HW127656   4.358   3.497  10.974  2.0784  0.5989 -0.2095
 5340SOL    HW227657   4.375   3.514  11.111  0.3907 -0.3129  0.4227
 5341SOL     OW27658   0.501   0.478   7.640 -0.3417 -0.1741  0.1991
 5341SOL    HW127659   0.576   0.471   7.582  0.6209 -0.4506  1.4838
 5341SOL    HW227660   0.527   0.415   7.707  0.0670  0.0623  0.2612
 5342SOL     OW27661   2.796   3.402  15.806  0.1942  0.2204  0.2437
 5342SOL    HW127662   2.821   3.312  15.826  2.1000  1.1314  2.0553
 5342SOL    HW227663   2.870   3.451  15.843  0.1261  2.7341 -2.8972
 5343SOL     OW27664   0.637   1.837   7.347 -0.0311  0.0717  0.2199
 5343SOL    HW127665   0.627   1.933   7.342 -0.8206 -0.0653 -0.8181
 5343SOL    HW227666   0.637   1.831   7.442 -1.9615 -3.1148 -0.0147
 5344SOL     OW27667   3.004   3.547   5.764 -0.2317  0.1812  0.5025
 5344SOL    HW127668   3.046   3.614   5.710 -2.3231  0.4740 -0.7904
 5344SOL    HW227669   3.082   3.511   5.806 -0.0380 -0.7987 -0.7191
 5345SOL     OW27670   1.169   4.455   6.874 -0.4790 -0.1459 -0.4436
 5345SOL    HW127671   1.165   4.507   6.793 -0.5858  1.8005  0.8080
 5345SOL    HW227672   1.174   4.523   6.940  0.6930 -0.6695 -0.0030
 5346SOL     OW27673   1.155   1.741  17.722  0.2241  1.0454 -1.0908
 5346SOL    HW127674   1.184   1.731  17.632  4.6039 -1.6457  0.6294
 5346SOL    HW227675   1.188   1.830  17.734  0.0644  0.8128  1.1025
 5347SOL     OW27676   1.027   3.835  12.549 -0.2890  0.3968 -0.4162
 5347SOL    HW127677   0.989   3.888  12.619  0.0740 -0.7572  0.6482
 5347SOL    HW227678   0.977   3.754  12.555  3.0905 -1.4926  2.2984
 5348SOL     OW27679   0.483   4.665   8.293 -0.0499 -0.1559 -0.1847
 5348SOL    HW127680   0.482   0.010   8.254 -0.8676  1.4879  3.5748
 5348SOL    HW227681   0.391   4.656   8.317  0.7568  0.7641  3.3258
 5349SOL     OW27682   1.097   2.117   9.924 -0.2398 -0.2150  0.0242
 5349SOL    HW127683   1.154   2.193   9.914 -0.0704 -0.4887 -1.1056
 5349SOL    HW227684   1.106   2.109  10.019 -1.3606  0.4596  0.1820
 5350SOL     OW27685   1.155   2.022   9.005 -0.2851  0.6349  0.0877
 5350SOL    HW127686   1.227   1.961   9.022  0.2177  0.2466 -3.3579
 5350SOL    HW227687   1.118   2.035   9.092  2.9002 -1.1215  1.6792
 5351SOL     OW27688   3.737   0.317   8.808 -0.5856 -0.1990  0.0588
 5351SOL    HW127689   3.664   0.362   8.766  1.7823  2.7919 -0.8046
 5351SOL    HW227690   3.736   0.355   8.896 -0.2899 -0.9571  0.3957
 5352SOL     OW27691   1.481   4.552  10.792  0.5124 -0.0749 -0.9548
 5352SOL    HW127692   1.554   4.578  10.736 -0.5160 -0.8160 -2.6328
 5352SOL    HW227693   1.486   4.456  10.786  0.9969  0.0020 -1.8655
 5353SOL     OW27694   2.635   3.192   3.243  0.1465  0.7254  0.1031
 5353SOL    HW127695   2.662   3.194   3.151 -0.7131 -1.7903 -0.2034
 5353SOL    HW227696   2.721   3.185   3.285 -0.0790  0.2102  0.4729
 5354SOL     OW27697   3.739   4.034   7.137  0.3800 -0.0282 -0.4016
 5354SOL    HW127698   3.728   3.946   7.173  0.4605  0.6658  1.3489
 5354SOL    HW227699   3.804   4.079   7.192  1.7774 -0.2996 -1.8366
 5355SOL     OW27700   2.398   1.094   5.166  0.5598  0.1430 -0.2887
 5355SOL    HW127701   2.456   1.043   5.223  1.8060  3.0151  0.9908
 5355SOL    HW227702   2.399   1.174   5.217  1.3543 -0.7603  1.1204
 5356SOL     OW27703   4.226   2.446  17.052  0.0808  0.2293  0.1322
 5356SOL    HW127704   4.312   2.466  17.089 -0.5181  2.2148  0.4243
 5356SOL    HW227705   4.183   2.530  17.061  0.4212  0.9368 -5.0603
 5357SOL     OW27706   3.144   3.409   6.427 -0.6677  0.1106 -0.2621
 5357SOL    HW127707   3.060   3.451   6.410 -1.4781 -1.9293 -1.3442
 5357SOL    HW227708   3.188   3.395   6.343 -0.8881  0.3459 -0.4160
 5358SOL     OW27709   1.475   0.469   8.110  0.5376 -0.4771 -0.4519
 5358SOL    HW127710   1.530   0.452   8.186  1.6781 -1.7067 -1.5700
 5358SOL    HW227711   1.394   0.480   8.160  0.4556  1.2270 -0.9360
 5359SOL     OW27712   2.764   0.584   9.509 -0.1366  0.2040  0.5833
 5359SOL    HW127713   2.683   0.577   9.460 -0.2617 -0.8342  0.9321
 5359SOL    HW227714   2.736   0.621   9.593  0.9304  0.0848  1.0029
 5360SOL     OW27715   3.430   0.500  11.513  0.4976  0.2735 -0.0149
 5360SOL    HW127716   3.366   0.429  11.508 -0.9408  1.5899 -0.5005
 5360SOL    HW227717   3.483   0.491  11.434 -0.1748  0.3379 -0.4785
 5361SOL     OW27718   4.061   1.107   2.482 -0.2488 -0.7323  0.0606
 5361SOL    HW127719   4.119   1.170   2.438 -0.5000 -0.0543  0.6892
 5361SOL    HW227720   4.079   1.121   2.575 -1.3656 -0.4286  0.2310
 5362SOL     OW27721   2.944   1.449  14.470  0.2200  0.1573  0.0031
 5362SOL    HW127722   2.893   1.510  14.417 -2.9988  0.2504  3.1944
 5362SOL    HW227723   2.894   1.452  14.552 -1.3854 -2.0951 -0.8938
 5363SOL     OW27724   0.252   0.128   5.094  0.2746  0.2202 -0.5924
 5363SOL    HW127725   0.170   0.093   5.059  0.0741 -0.0667  0.1810
 5363SOL    HW227726   0.226   0.217   5.118  0.5082 -0.1597  1.0495
 5364SOL     OW27727   4.734   0.733   8.540 -0.1599 -0.0164 -0.9203
 5364SOL    HW127728   4.684   0.652   8.537  2.0042 -1.4239  1.0772
 5364SOL    HW227729   0.059   0.705   8.478  1.4677 -0.2750  0.9894
 5365SOL     OW27730   0.974   0.810  12.161 -0.2522  0.7332 -0.2630
 5365SOL    HW127731   1.061   0.845  12.144  0.8680 -1.7784  0.3362
 5365SOL    HW227732   0.995   0.717  12.164 -0.4875  0.6044 -2.4942
 5366SOL     OW27733   1.692   1.307   8.936 -0.6119  0.1994 -0.0772
 5366SOL    HW127734   1.695   1.276   8.846 -1.3984 -1.3775  0.4287
 5366SOL    HW227735   1.638   1.237   8.974 -0.5214  0.0904 -0.1506
 5367SOL     OW27736   3.586   0.458   8.366 -0.1839  0.7195 -0.3258
 5367SOL    HW127737   3.593   0.553   8.362 -0.3327  0.7604  0.4367
 5367SOL    HW227738   3.602   0.434   8.275 -0.0227 -0.7508  0.0834
 5368SOL     OW27739   2.630   0.715  13.469 -0.2209 -0.5200  0.7953
 5368SOL    HW127740   2.568   0.653  13.431  0.1531 -0.1437 -0.4176
 5368SOL    HW227741   2.659   0.756  13.387 -1.6223 -0.8673  0.1286
 5369SOL     OW27742   3.688   1.623   6.967  0.4496 -0.0613 -0.4256
 5369SOL    HW127743   3.665   1.620   6.874 -0.5627 -4.7256 -0.0159
 5369SOL    HW227744   3.674   1.533   6.996  1.6385 -1.0376 -2.8511
 5370SOL     OW27745   1.059   3.056  15.447  0.1484  0.1684 -0.1286
 5370SOL    HW127746   1.000   2.988  15.412  0.7069 -0.0651 -0.6206
 5370SOL    HW227747   0.999   3.097  15.509 -0.0272 -1.5724  0.8584
 5371SOL     OW27748   0.508   2.990  17.603  0.1317  0.3449  0.0106
 5371SOL    HW127749   0.457   3.065  17.632 -1.6001 -1.3402  1.3250
 5371SOL    HW227750   0.457   2.940  17.539  1.5013 -0.3452 -0.5670
 5372SOL     OW27751   4.115   3.113   5.353  0.2370 -0.2105 -0.1657
 5372SOL    HW127752   4.046   3.066   5.400 -0.4662  0.7153 -0.2566
 5372SOL    HW227753   4.060   3.156   5.287  0.3434  1.4508  0.8172
 5373SOL     OW27754   1.112   1.989   4.493 -0.0371  0.5122 -0.0959
 5373SOL    HW127755   1.068   2.054   4.549 -0.8428  0.5944 -0.8197
 5373SOL    HW227756   1.201   2.025   4.489 -0.0173  0.1833 -2.4204
 5374SOL     OW27757   2.416   2.957   8.248  0.6241 -0.5802 -0.6756
 5374SOL    HW127758   2.427   2.931   8.156  0.1488 -1.7102 -0.4110
 5374SOL    HW227759   2.387   3.048   8.241  0.6876 -0.4671  0.4722
 5375SOL     OW27760   3.499   2.949   8.915 -0.5352  0.0857  0.2903
 5375SOL    HW127761   3.526   2.861   8.943 -1.5272 -0.2390  0.2253
 5375SOL    HW227762   3.413   2.934   8.876 -0.3137 -1.0473  0.2233
 5376SOL     OW27763   0.332   2.699   6.504 -0.0880 -0.0512  0.0743
 5376SOL    HW127764   0.403   2.738   6.555  0.1628 -0.2605 -0.1198
 5376SOL    HW227765   0.383   2.637   6.453 -0.1164 -0.2979  0.3425
 5377SOL     OW27766   2.197   4.565  15.776 -0.2379 -0.6876 -0.0763
 5377SOL    HW127767   2.125   4.509  15.803  0.4682 -2.1072 -1.1555
 5377SOL    HW227768   2.259   4.552  15.848 -1.3416  0.2037  1.0421
 5378SOL     OW27769   1.825   3.994   8.099 -0.4421 -0.3701  0.0396
 5378SOL    HW127770   1.811   3.900   8.088  0.3706 -0.4410 -0.3996
 5378SOL    HW227771   1.787   4.028   8.018 -2.0965  1.6027  1.6408
 5379SOL     OW27772   4.091   2.715   6.307 -0.0706 -0.0579  0.0877
 5379SOL    HW127773   4.013   2.765   6.282  0.4013  0.1039 -1.0502
 5379SOL    HW227774   4.053   2.628   6.312  0.8059 -0.5895 -2.5551
 5380SOL     OW27775   0.641   3.880   4.675 -0.1714 -0.2274  0.2596
 5380SOL    HW127776   0.595   3.869   4.758 -0.2630 -0.9921  0.1060
 5380SOL    HW227777   0.575   3.942   4.642  0.0308  0.5594  1.3442
 5381SOL     OW27778   0.475   1.322   2.880 -0.0206  0.1954 -0.6926
 5381SOL    HW127779   0.528   1.283   2.950 -0.4123  2.1899  0.6970
 5381SOL    HW227780   0.480   1.261   2.806 -1.6823 -0.6837 -0.0664
 5382SOL     OW27781   0.817   1.311   2.387  0.0777 -0.3809  0.2521
 5382SOL    HW127782   0.879   1.347   2.323 -0.1537 -0.8506 -0.2314
 5382SOL    HW227783   0.864   1.229   2.403 -0.7034 -1.1628 -1.5481
 5383SOL     OW27784   0.265   0.950   9.049  0.0929 -0.3713 -0.0446
 5383SOL    HW127785   0.337   0.888   9.044  1.2178  1.1324 -2.1057
 5383SOL    HW227786   0.235   0.927   9.137 -1.8176 -0.9800 -0.8465
 5384SOL     OW27787   0.738   2.053   0.756  0.1213 -0.0356 -0.1462
 5384SOL    HW127788   0.767   2.090   0.839 -0.7888 -2.8955  1.4444
 5384SOL    HW227789   0.662   2.003   0.788 -0.2202  0.6526  0.1299
 5385SOL     OW27790   3.699   3.777   8.475  0.0556 -0.0424 -0.8437
 5385SOL    HW127791   3.665   3.758   8.387 -1.6891 -0.3265 -0.1012
 5385SOL    HW227792   3.659   3.864   8.480 -0.5279 -0.2217 -2.2765
 5386SOL     OW27793   3.083   2.656  10.787  0.5368 -0.5757 -0.1749
 5386SOL    HW127794   3.085   2.640  10.693 -1.4788  0.9704 -0.4784
 5386SOL    HW227795   3.052   2.570  10.814 -0.2581 -0.8495 -1.9561
 5387SOL     OW27796   1.746   2.948  15.127 -0.6440  0.0906  0.0291
 5387SOL    HW127797   1.767   2.996  15.047  2.7223 -0.8319  0.3516
 5387SOL    HW227798   1.669   3.001  15.145 -2.0356 -1.8813 -0.1055
 5388SOL     OW27799   3.700   2.797  11.186 -0.0240  0.1208  0.0763
 5388SOL    HW127800   3.683   2.769  11.096  2.3126  5.4157 -1.9939
 5388SOL    HW227801   3.795   2.799  11.186 -0.0418  0.8838  1.8851
 5389SOL     OW27802   1.605   4.026   7.905  0.4499 -0.2975 -0.1800
 5389SOL    HW127803   1.577   4.060   7.821  1.7235  2.7675  0.6470
 5389SOL    HW227804   1.527   3.985   7.942  0.1128  0.8589  0.3917
 5390SOL     OW27805   4.590   0.914   5.424 -0.8122 -0.6397  0.1658
 5390SOL    HW127806   4.638   0.901   5.342  0.4693 -0.8092  0.9428
 5390SOL    HW227807   4.657   0.877   5.482 -0.2345 -1.6769 -1.1514
 5391SOL     OW27808   3.279   4.067   6.905  0.0644 -0.4091 -0.0944
 5391SOL    HW127809   3.245   4.155   6.886 -2.0756 -0.4755  3.4440
 5391SOL    HW227810   3.364   4.082   6.947  0.5697 -0.8768 -0.9581
 5392SOL     OW27811   4.394   3.794  13.833  0.1117  0.1562  1.1681
 5392SOL    HW127812   4.480   3.832  13.850  1.5589 -1.9533 -1.5935
 5392SOL    HW227813   4.427   3.716  13.790  0.1427 -0.4070  2.2161
 5393SOL     OW27814   3.080   3.910   7.658  0.1024  0.3919 -0.3633
 5393SOL    HW127815   3.116   3.984   7.707  0.6409 -1.5207  2.1316
 5393SOL    HW227816   3.040   3.961   7.587 -1.6383  0.3519  0.5734
 5394SOL     OW27817   1.874   3.780  13.144 -0.3054  0.1205  0.3684
 5394SOL    HW127818   1.957   3.745  13.173 -1.0644 -0.7845  1.4143
 5394SOL    HW227819   1.831   3.698  13.119 -1.5846 -0.1280  3.4217
 5395SOL     OW27820   3.048   1.468  17.593  0.2637  0.5137 -0.2535
 5395SOL    HW127821   3.110   1.488  17.663 -1.4623  1.4376  0.9878
 5395SOL    HW227822   3.098   1.453  17.512  2.1044 -2.9244  1.5082
 5396SOL     OW27823   3.824   2.173  17.587  0.3640 -0.0246  0.2920
 5396SOL    HW127824   3.823   2.161  17.492  0.2850 -1.6343  0.4880
 5396SOL    HW227825   3.895   2.236  17.597  0.3914 -0.6430  3.9349
 5397SOL     OW27826   4.443   4.728   4.825 -0.1329  0.1770 -0.2523
 5397SOL    HW127827   4.388   0.063   4.839  0.4308  0.6022 -0.4104
 5397SOL    HW227828   4.389   4.681   4.761  0.7678 -1.7418  0.3884
 5398SOL     OW27829   4.007   1.274  11.510  0.6581  0.0038  0.1387
 5398SOL    HW127830   4.027   1.358  11.468 -0.0177 -0.0520 -0.3131
 5398SOL    HW227831   4.068   1.211  11.474  0.5967 -1.1219  2.0336
 5399SOL     OW27832   1.623   2.476   7.314  0.4437 -0.2595  0.3961
 5399SOL    HW127833   1.627   2.539   7.386 -2.6525  2.7591 -2.0178
 5399SOL    HW227834   1.658   2.530   7.242  0.9913 -0.3964  0.5618
 5400SOL     OW27835   2.369   3.762  15.560 -0.1454  0.1107  0.5958
 5400SOL    HW127836   2.339   3.693  15.501  0.2504 -0.0265  0.5548
 5400SOL    HW227837   2.340   3.841  15.514 -0.0222  0.1454  0.5770
 5401SOL     OW27838   4.627   3.079   9.691 -0.2012 -0.0057  0.2492
 5401SOL    HW127839   4.571   3.141   9.737 -1.1169 -0.1211 -0.7234
 5401SOL    HW227840   4.633   3.132   9.612  1.5372  0.2146  0.5260
 5402SOL     OW27841   0.962   1.286   0.498 -0.1137  0.1330 -0.1137
 5402SOL    HW127842   0.983   1.265   0.406  0.3636  2.8255 -0.6303
 5402SOL    HW227843   1.011   1.369   0.498 -0.5015  0.3499  1.8366
 5403SOL     OW27844   3.066   3.648   8.926  0.5501 -0.1084  0.1383
 5403SOL    HW127845   3.089   3.559   8.953  1.6933 -0.7321 -2.8810
 5403SOL    HW227846   2.987   3.648   8.980  0.0887 -2.2371 -0.5387
 5404SOL     OW27847   2.568   1.755   5.989 -0.4173  0.3662  0.0083
 5404SOL    HW127848   2.603   1.844   5.994 -0.1371  0.2268  0.4382
 5404SOL    HW227849   2.605   1.728   5.905  0.9750  0.2795  0.6518
 5405SOL     OW27850   4.085   4.533   1.654 -0.5546 -0.1911  0.2743
 5405SOL    HW127851   4.121   4.445   1.664  0.2754  0.0668 -0.3968
 5405SOL    HW227852   4.025   4.533   1.729 -2.2764 -0.5626 -1.1007
 5406SOL     OW27853   4.248   2.041   3.498  0.0651 -0.1565 -0.1907
 5406SOL    HW127854   4.158   2.040   3.465 -0.8927  1.2910  2.3738
 5406SOL    HW227855   4.238   2.052   3.593 -1.9267 -1.2196 -0.2780
 5407SOL     OW27856   4.343   0.396   2.495 -0.5031 -0.5823 -0.1831
 5407SOL    HW127857   4.287   0.473   2.491 -0.2499 -0.3477  0.9137
 5407SOL    HW227858   4.298   0.329   2.443 -0.0029 -2.8540  2.2903
 5408SOL     OW27859   1.949   2.595   3.608 -0.5954 -0.2558 -1.2875
 5408SOL    HW127860   1.961   2.579   3.515  3.4415  0.4865 -0.8857
 5408SOL    HW227861   2.039   2.620   3.631 -0.5656 -0.9497 -0.6317
 5409SOL     OW27862   0.264   0.639   8.383 -0.0727 -0.3114 -0.0277
 5409SOL    HW127863   0.329   0.700   8.417 -0.6714  1.1680 -1.5193
 5409SOL    HW227864   0.284   0.664   8.293 -0.7365 -0.8445 -0.3254
 5410SOL     OW27865   0.149   0.601   2.821  0.1446  0.1343  0.2540
 5410SOL    HW127866   0.133   0.522   2.874 -2.7586  0.5214 -0.0731
 5410SOL    HW227867   0.142   0.672   2.884 -0.3087 -0.6841  1.1261
 5411SOL     OW27868   1.447   2.546   3.980  0.2167 -0.0320  0.0657
 5411SOL    HW127869   1.489   2.625   4.016 -0.3369 -0.9090  2.6377
 5411SOL    HW227870   1.363   2.573   3.943  1.2849  0.2601 -2.1958
 5412SOL     OW27871   1.590   0.980   7.657 -0.0971 -0.0124 -0.1042
 5412SOL    HW127872   1.671   1.027   7.678 -0.9890  0.9075  1.2632
 5412SOL    HW227873   1.618   0.920   7.587  1.1437  1.5978 -0.9899
 5413SOL     OW27874   3.293   1.984   2.976 -0.2208  0.4314 -0.5600
 5413SOL    HW127875   3.213   2.032   2.995 -0.3880  0.6811 -1.9195
 5413SOL    HW227876   3.344   2.060   2.948  0.5850  0.5727  1.2737
 5414SOL     OW27877   4.375   3.258   2.031  0.0494  0.2448 -0.7344
 5414SOL    HW127878   4.448   3.288   2.084  0.7397 -0.0713 -1.4868
 5414SOL    HW227879   4.318   3.334   2.029 -0.7028 -0.2919  0.9730
 5415SOL     OW27880   1.525   1.362   2.776 -0.5265 -0.4756 -0.3704
 5415SOL    HW127881   1.485   1.372   2.690 -1.6061  0.1645  0.2083
 5415SOL    HW227882   1.536   1.267   2.774  0.0552 -0.4618  1.4181
 5416SOL     OW27883   0.617   2.811  14.316 -0.1409 -0.1902  0.2271
 5416SOL    HW127884   0.693   2.857  14.280 -1.8871  0.6570 -2.4012
 5416SOL    HW227885   0.573   2.793  14.233  0.1962  3.4367 -0.7259
 5417SOL     OW27886   3.257   1.672   8.247  0.5808 -0.0022  0.0582
 5417SOL    HW127887   3.239   1.765   8.231  3.2580  0.3406 -0.9432
 5417SOL    HW227888   3.203   1.631   8.180 -0.4833  0.2464  0.7741
 5418SOL     OW27889   0.402   0.366   0.080 -0.5696 -0.2166 -0.2229
 5418SOL    HW127890   0.341   0.367   0.006 -0.9630 -3.1113  0.0495
 5418SOL    HW227891   0.425   0.457   0.095  1.6605 -0.5421 -1.6751
 5419SOL     OW27892   3.577   1.338   4.458 -0.6484  0.0044  0.6952
 5419SOL    HW127893   3.583   1.245   4.481  0.3023 -0.4781 -1.4951
 5419SOL    HW227894   3.486   1.364   4.473 -0.8731  1.2765 -2.9118
 5420SOL     OW27895   2.433   0.712   5.321 -0.1828 -0.0855 -0.0547
 5420SOL    HW127896   2.378   0.636   5.340  0.5388  0.0390  2.4873
 5420SOL    HW227897   2.512   0.664   5.297 -0.7625 -0.8184 -0.4745
 5421SOL     OW27898   0.978   1.918  10.639  0.0924 -0.1007 -0.8753
 5421SOL    HW127899   0.911   1.872  10.588  0.6348 -0.7931 -0.9582
 5421SOL    HW227900   0.935   1.992  10.683 -1.2356 -1.5150  0.2128
 5422SOL     OW27901   2.581   2.331  14.818  0.3766 -0.5044 -0.2093
 5422SOL    HW127902   2.643   2.357  14.885  1.3357  0.8972 -1.6452
 5422SOL    HW227903   2.628   2.344  14.735  1.0144 -0.7079  0.1236
 5423SOL     OW27904   0.113   2.783   4.472  0.8448 -0.1449 -0.0938
 5423SOL    HW127905   0.031   2.788   4.522 -0.4442  2.1222 -2.4037
 5423SOL    HW227906   0.168   2.807   4.546  1.2712 -1.3078 -0.0294
 5424SOL     OW27907   0.224   4.333   8.313  0.1151  0.2605 -0.2181
 5424SOL    HW127908   0.205   4.414   8.360 -0.7803  0.2190 -0.5128
 5424SOL    HW227909   0.319   4.328   8.317  0.1418  0.2819 -0.9730
 5425SOL     OW27910   3.842   0.415   6.993 -0.5771  0.3050 -0.4983
 5425SOL    HW127911   3.914   0.352   7.004 -0.3189  0.3233 -2.0933
 5425SOL    HW227912   3.773   0.356   6.962 -1.2668  1.0039 -0.2871
 5426SOL     OW27913   3.728   3.191   0.152  0.2808  0.1845  0.0176
 5426SOL    HW127914   3.722   3.275   0.107 -0.5500  0.1516  0.0606
 5426SOL    HW227915   3.793   3.201   0.221  1.6736 -0.8649 -1.1424
 5427SOL     OW27916   3.712   1.666   5.888 -0.4672  0.0063 -0.2820
 5427SOL    HW127917   3.702   1.585   5.837 -2.1028  0.2636 -0.3758
 5427SOL    HW227918   3.756   1.628   5.964  0.8789  0.4103 -0.8725
 5428SOL     OW27919   0.971   1.014   8.137 -0.2736  0.7342 -0.5415
 5428SOL    HW127920   0.935   1.097   8.105 -0.3462  1.3161  1.0855
 5428SOL    HW227921   0.978   1.026   8.231 -1.1702 -0.0259 -0.3723
 5429SOL     OW27922   4.552   2.317   2.488 -0.0840  0.1648  0.4637
 5429SOL    HW127923   4.496   2.377   2.439 -1.0478 -1.7287 -0.7510
 5429SOL    HW227924   4.567   2.255   2.416  0.5168  0.9547 -0.0916
 5430SOL     OW27925   4.172   2.773   4.725  0.4751 -0.0889  0.0665
 5430SOL    HW127926   4.173   2.848   4.667  3.7236 -1.8817 -2.1664
 5430SOL    HW227927   4.080   2.745   4.715 -0.1383  0.7595  3.2942
 5431SOL     OW27928   3.245   0.405   9.010  0.3773 -0.3855 -0.8512
 5431SOL    HW127929   3.233   0.499   9.015  2.4913 -0.1980  0.7447
 5431SOL    HW227930   3.285   0.389   9.096  0.8379 -0.5615 -1.0956
 5432SOL     OW27931   1.395   3.789   2.558  0.1586 -0.1956  0.1408
 5432SOL    HW127932   1.429   3.738   2.485  1.2416  2.0787 -0.9290
 5432SOL    HW227933   1.311   3.743   2.561  0.4466 -0.8908 -2.3318
 5433SOL     OW27934   2.036   3.222   7.287 -0.1926 -0.1128 -0.5602
 5433SOL    HW127935   1.948   3.258   7.277 -0.3277 -0.1817  0.3862
 5433SOL    HW227936   2.072   3.235   7.199  3.8249 -0.9692  0.9781
 5434SOL     OW27937   2.822   1.679   2.329  0.4828 -0.6426  0.3242
 5434SOL    HW127938   2.836   1.588   2.304 -0.7261 -0.2786 -1.7255
 5434SOL    HW227939   2.778   1.704   2.247  1.9353  1.6266  0.2352
 5435SOL     OW27940   3.336   0.018   8.138  0.3059 -0.3099 -0.8481
 5435SOL    HW127941   3.355   0.033   8.230 -1.9142  0.5072 -0.5170
 5435SOL    HW227942   3.416   4.729   8.097  0.6400 -1.3233  0.6097
 5436SOL     OW27943   0.137   4.093  11.739  0.1730 -0.2590 -0.0112
 5436SOL    HW127944   0.196   4.085  11.664 -0.2537  1.6516 -0.5708
 5436SOL    HW227945   0.120   4.186  11.724  1.1684  0.2458  1.9760
 5437SOL     OW27946   2.767   4.651   4.195 -0.2928  0.3075 -0.1045
 5437SOL    HW127947   2.740   4.739   4.220 -2.2571  0.0401 -1.2751
 5437SOL    HW227948   2.861   4.650   4.214 -0.4787 -1.9947  0.6397
 5438SOL     OW27949   4.316   2.664  10.893 -0.8422 -0.6499  0.0352
 5438SOL    HW127950   4.392   2.633  10.941 -1.0508 -1.4854 -0.1838
 5438SOL    HW227951   4.305   2.737  10.954 -0.6597 -2.6677  2.4824
 5439SOL     OW27952   1.848   0.198   8.207 -0.2834 -0.1762 -0.2923
 5439SOL    HW127953   1.914   0.147   8.160 -0.6333  0.3781 -1.3882
 5439SOL    HW227954   1.854   0.168   8.297  0.8298  0.0434 -0.2881
 5440SOL     OW27955   1.691   3.672   4.395  0.2307  0.7233 -0.0464
 5440SOL    HW127956   1.741   3.737   4.443 -0.1074  2.1068 -1.5797
 5440SOL    HW227957   1.619   3.652   4.455 -0.6539  3.6050 -0.1817
 5441SOL     OW27958   1.578   0.719   4.409 -0.0068  0.3519 -0.0010
 5441SOL    HW127959   1.610   0.661   4.339  1.4981  1.5770 -0.3216
 5441SOL    HW227960   1.484   0.712   4.393 -0.2738  0.1176  1.6591
 5442SOL     OW27961   4.533   0.566  17.031  0.4056  0.1895  0.1763
 5442SOL    HW127962   4.500   0.653  17.053 -0.3856  0.0524 -0.4776
 5442SOL    HW227963   4.582   0.584  16.950  2.4099  1.3835  1.6571
 5443SOL     OW27964   4.405   4.281   8.567 -0.1639  0.1861 -0.0718
 5443SOL    HW127965   4.499   4.281   8.545  0.0383 -1.0846  0.8177
 5443SOL    HW227966   4.362   4.299   8.483  3.3507  0.2251 -1.8669
 5444SOL     OW27967   2.386   1.917   0.742  0.4626 -0.0824  0.4870
 5444SOL    HW127968   2.476   1.886   0.730  0.6534  1.2893 -1.7280
 5444SOL    HW227969   2.357   1.830   0.770 -0.7004  0.2510  0.2993
 5445SOL     OW27970   4.729   4.635  11.757  0.0880  0.1560  0.1974
 5445SOL    HW127971   0.038   4.684  11.821  0.4512 -1.6415  1.2709
 5445SOL    HW227972   4.639   4.650  11.786  0.0592  1.4878 -0.6074
 5446SOL     OW27973   0.580   3.545  14.306  0.0417 -0.2657 -0.3105
 5446SOL    HW127974   0.629   3.627  14.313  1.0865 -0.8805 -0.4859
 5446SOL    HW227975   0.524   3.571  14.233 -1.3994  0.2603  0.9642
 5447SOL     OW27976   3.598   1.128   3.607  0.1934 -0.2075  0.1533
 5447SOL    HW127977   3.507   1.157   3.597  0.3212  0.2600  0.3505
 5447SOL    HW227978   3.634   1.205   3.652  1.2910 -0.4883 -0.2518
 5448SOL     OW27979   0.416   3.426   6.729  0.0867 -0.0666 -0.1087
 5448SOL    HW127980   0.342   3.367   6.711  0.5757 -0.4522 -0.8143
 5448SOL    HW227981   0.428   3.459   6.640  0.7382 -2.0480 -0.7550
 5449SOL     OW27982   2.272   1.078  17.442  0.3066 -0.2552  0.7260
 5449SOL    HW127983   2.242   1.093  17.352  1.2518  1.5460  0.6993
 5449SOL    HW227984   2.197   1.108  17.494 -0.3873 -0.1087 -0.3356
 5450SOL     OW27985   3.996   3.791   8.913  0.0266  0.2937  0.0834
 5450SOL    HW127986   3.930   3.801   8.844  0.3531  2.4382  0.0733
 5450SOL    HW227987   4.070   3.839   8.875  0.0851 -0.8038 -1.2130
 5451SOL     OW27988   3.788   1.163  16.040 -0.2854 -0.1232 -0.4215
 5451SOL    HW127989   3.711   1.169  15.983 -0.9704  4.3866  0.9874
 5451SOL    HW227990   3.811   1.254  16.060 -0.1489  0.1316 -1.7475
 5452SOL     OW27991   2.195   2.282   4.466 -0.9258 -0.6549 -0.4099
 5452SOL    HW127992   2.199   2.369   4.508 -0.7284 -0.4236 -0.9137
 5452SOL    HW227993   2.185   2.235   4.549 -2.1824  0.0563 -0.1501
 5453SOL     OW27994   1.161   3.652   6.937 -0.1345  0.0637 -0.3184
 5453SOL    HW127995   1.083   3.597   6.931 -1.0140  1.4121 -1.1564
 5453SOL    HW227996   1.115   3.735   6.922  0.2412  0.5023  0.9286
 5454SOL     OW27997   3.490   3.633   7.067 -0.5885  0.1121 -0.6171
 5454SOL    HW127998   3.405   3.675   7.052 -0.6146 -0.5971 -2.3689
 5454SOL    HW227999   3.507   3.644   7.161 -1.0977  1.2234 -0.6517
 5455SOL     OW28000   1.230   4.274   8.983 -0.4240  0.0581 -0.5400
 5455SOL    HW128001   1.318   4.236   8.982 -0.5372 -0.1930 -1.2506
 5455SOL    HW228002   1.188   4.215   9.045 -0.4414  0.2403 -0.3797
 5456SOL     OW28003   3.534   2.905   0.733  0.0982  0.4013 -0.0289
 5456SOL    HW128004   3.474   2.963   0.778  1.8965  0.4954  2.2468
 5456SOL    HW228005   3.584   2.868   0.806 -0.7659 -0.4533  0.1173
 5457SOL     OW28006   2.333   1.368   2.342  0.0249 -0.1136  0.0607
 5457SOL    HW128007   2.318   1.349   2.249 -0.7889 -0.1628  0.2012
 5457SOL    HW228008   2.331   1.282   2.384  2.1453 -0.3431 -0.2959
 5458SOL     OW28009   2.616   1.698  16.112 -0.5275 -0.0960 -0.1824
 5458SOL    HW128010   2.646   1.608  16.120  0.2114  0.1599 -0.0071
 5458SOL    HW228011   2.648   1.711  16.022  0.6470  1.2998  0.4330
 5459SOL     OW28012   3.976   1.530   6.883 -0.0479 -0.3204  0.0301
 5459SOL    HW128013   3.956   1.557   6.972  2.2986 -1.2044  0.8171
 5459SOL    HW228014   4.061   1.571   6.870 -0.9838  1.5194 -0.2697
 5460SOL     OW28015   1.248   1.678  12.430  0.2072  0.0010 -0.1799
 5460SOL    HW128016   1.301   1.631  12.366  0.8409 -0.3279  0.5877
 5460SOL    HW228017   1.268   1.768  12.405  1.0458  0.3247  1.7004
 5461SOL     OW28018   3.049   2.278   6.271  0.4345 -0.3560  0.2961
 5461SOL    HW128019   2.991   2.203   6.282  0.4320 -0.5209 -0.8522
 5461SOL    HW228020   3.028   2.324   6.353  0.0548 -0.9637  0.5382
 5462SOL     OW28021   0.272   3.450   5.627  0.2233 -0.1393 -0.3001
 5462SOL    HW128022   0.210   3.461   5.700 -0.7008  0.9663 -1.2549
 5462SOL    HW228023   0.224   3.393   5.568  0.6057  0.4875 -1.2159
 5463SOL     OW28024   3.197   0.600  16.624 -0.6732  0.7855 -0.7190
 5463SOL    HW128025   3.282   0.640  16.645 -1.1313  0.1916  2.2864
 5463SOL    HW228026   3.171   0.571  16.711  0.0964  4.1113  0.5981
 5464SOL     OW28027   4.394   0.378   9.675  0.0299 -0.1919  0.1007
 5464SOL    HW128028   4.359   0.420   9.754 -1.3083  0.3691 -0.7963
 5464SOL    HW228029   4.325   0.316   9.653 -1.9026  1.0368  2.6260
 5465SOL     OW28030   3.259   1.336  14.721 -0.0331 -0.1870 -0.0967
 5465SOL    HW128031   3.318   1.265  14.694 -0.0867 -0.4535  0.4813
 5465SOL    HW228032   3.317   1.391  14.774  3.0120 -4.3985  0.9575
 5466SOL     OW28033   4.555   2.344   7.000  0.4411  0.1929  0.2567
 5466SOL    HW128034   4.477   2.297   7.029 -0.3328  0.7564 -0.9258
 5466SOL    HW228035   4.622   2.279   6.980  0.5333 -0.2171  1.9067
 5467SOL     OW28036   2.172   2.089   0.891 -0.2438 -0.6098  0.4455
 5467SOL    HW128037   2.109   2.020   0.867 -1.2393  0.1233  0.9515
 5467SOL    HW228038   2.245   2.061   0.836 -0.7739  0.7882 -0.9606
 5468SOL     OW28039   0.452   1.529   5.507  0.0861  0.5837  0.2986
 5468SOL    HW128040   0.424   1.596   5.569  0.1229  0.4282  0.4824
 5468SOL    HW228041   0.535   1.498   5.543 -0.4696 -1.5493 -0.2549
 5469SOL     OW28042   3.782   2.683   4.334 -0.1792  0.5546  0.0486
 5469SOL    HW128043   3.710   2.654   4.278  0.1038 -0.4430  0.2147
 5469SOL    HW228044   3.741   2.701   4.418  2.3491 -0.6772  1.5437
 5470SOL     OW28045   2.456   3.697   5.042 -1.2066  0.6836 -0.2048
 5470SOL    HW128046   2.379   3.646   5.069 -0.9319 -0.3276 -1.3543
 5470SOL    HW228047   2.420   3.755   4.975 -0.5133  0.2181 -0.9766
 5471SOL     OW28048   0.103   2.800   7.532  0.2838 -0.3090 -0.0663
 5471SOL    HW128049   0.093   2.732   7.465 -2.0752  0.1795 -0.2029
 5471SOL    HW228050   0.071   2.772   7.617  1.3499 -0.1676  0.3849
 5472SOL     OW28051   1.814   2.678   4.967 -0.4014 -0.7940 -0.1365
 5472SOL    HW128052   1.845   2.588   4.957  1.3682 -0.2153  0.0590
 5472SOL    HW228053   1.867   2.738   4.914 -1.3525 -0.3890 -0.6289
 5473SOL     OW28054   2.109   3.682  13.208  0.1111  0.2939 -0.0796
 5473SOL    HW128055   2.156   3.685  13.291 -1.9063  2.2205  0.9631
 5473SOL    HW228056   2.162   3.619  13.159  0.1489 -0.0274  0.3721
 5474SOL     OW28057   3.031   3.593   2.849 -0.2448 -0.2372  0.2129
 5474SOL    HW128058   2.992   3.553   2.772 -1.7683  0.8372  0.4094
 5474SOL    HW228059   3.119   3.609   2.815 -0.0724 -1.2370  0.1856
 5475SOL     OW28060   4.548   3.516   3.158 -0.2594 -0.4549 -0.0746
 5475SOL    HW128061   4.555   3.565   3.240 -0.6180 -0.0263 -0.3028
 5475SOL    HW228062   4.523   3.584   3.095 -0.3882 -0.5748 -0.1510
 5476SOL     OW28063   3.826   1.609  14.994 -0.4479  0.4147 -0.3831
 5476SOL    HW128064   3.762   1.590  15.063 -2.0341  2.1281 -1.3924
 5476SOL    HW228065   3.832   1.520  14.960  0.2482 -0.9200  3.2286
 5477SOL     OW28066   1.724   2.693   1.503 -0.5808 -0.3139 -0.0007
 5477SOL    HW128067   1.706   2.722   1.414 -0.7962 -0.6377 -0.0654
 5477SOL    HW228068   1.640   2.706   1.546  0.2170 -0.0744  1.4816
 5478SOL     OW28069   0.374   3.539   4.475 -0.1583  0.0382 -0.3082
 5478SOL    HW128070   0.452   3.574   4.520  0.4342  1.5439 -2.5372
 5478SOL    HW228071   0.413   3.507   4.394 -2.0947 -0.1994 -1.1425
 5479SOL     OW28072   0.801   0.089  12.885  0.2074 -0.3960 -0.3895
 5479SOL    HW128073   0.889   0.059  12.862  0.4075  1.2843 -1.8995
 5479SOL    HW228074   0.750   0.009  12.884  0.9001 -0.8337 -0.2555
 5480SOL     OW28075   1.811   0.294   2.594  0.5118  0.6492  0.4675
 5480SOL    HW128076   1.864   0.334   2.526  0.8118 -1.4166 -0.4983
 5480SOL    HW228077   1.761   0.372   2.618 -0.2590  0.8738 -1.8916
 5481SOL     OW28078   0.054   2.355  13.607  0.2103  0.2353 -0.0701
 5481SOL    HW128079   0.123   2.371  13.542  0.2329  0.2823 -0.0345
 5481SOL    HW228080   0.072   2.430  13.664  2.7733  0.1879 -0.8283
 5482SOL     OW28081   1.370   1.498  15.354  0.6333  0.5477 -0.2828
 5482SOL    HW128082   1.439   1.468  15.295  0.3814 -1.9328  0.6578
 5482SOL    HW228083   1.392   1.442  15.429  1.7327  0.1956 -0.8689
 5483SOL     OW28084   3.696   2.617   6.509 -0.1109  0.0459 -0.0757
 5483SOL    HW128085   3.737   2.703   6.521  1.1052 -0.6774  0.9515
 5483SOL    HW228086   3.644   2.634   6.431 -1.1535  0.4520  0.6953
 5484SOL     OW28087   0.946   0.681   4.447  0.9634 -0.1423 -0.5505
 5484SOL    HW128088   0.851   0.678   4.457  0.8172 -0.8834 -2.0542
 5484SOL    HW228089   0.964   0.588   4.462 -0.8340 -0.5239 -0.7927
 5485SOL     OW28090   2.088   2.291   6.888  0.7029  0.1550 -0.6663
 5485SOL    HW128091   2.048   2.357   6.945  0.9391 -1.7046  1.6771
 5485SOL    HW228092   2.106   2.226   6.956  1.1035 -0.1276 -1.0521
 5486SOL     OW28093   3.093   3.873   6.944  0.1802 -0.1331  0.2130
 5486SOL    HW128094   3.038   3.951   6.934 -1.0268 -1.0323 -0.2438
 5486SOL    HW228095   3.176   3.920   6.934  0.0404 -0.2034 -1.2803
 5487SOL     OW28096   0.047   1.649   7.923 -1.0593  0.7058 -0.2496
 5487SOL    HW128097   0.086   1.589   7.987 -2.7881  0.3155  0.4428
 5487SOL    HW228098   4.717   1.601   7.884 -0.5678 -0.1353 -0.1356
 5488SOL     OW28099   3.363   3.438  16.165  0.2151 -0.1937 -0.2837
 5488SOL    HW128100   3.285   3.410  16.213  0.0020 -1.4741 -1.3816
 5488SOL    HW228101   3.402   3.497  16.229  0.4949  1.3081 -1.8473
 5489SOL     OW28102   4.291   4.629   4.617  0.1883  0.3276  0.2787
 5489SOL    HW128103   4.334   4.583   4.544  0.3773  0.0200  0.5874
 5489SOL    HW228104   4.209   4.655   4.575  0.3117  1.3219  0.6447
 5490SOL     OW28105   3.766   2.767   8.269 -0.0785 -0.4734  0.4019
 5490SOL    HW128106   3.836   2.768   8.204  0.8476  0.0247  1.4242
 5490SOL    HW228107   3.802   2.840   8.319  0.3997 -1.8006  1.9798
 5491SOL     OW28108   3.300   3.132   4.874 -0.0630  0.6795 -0.3693
 5491SOL    HW128109   3.275   3.154   4.963  3.0643 -2.2832  1.2540
 5491SOL    HW228110   3.363   3.199   4.848 -1.7004  2.0057 -0.9555
 5492SOL     OW28111   4.393   0.905   2.237  0.2105  0.7447 -0.6423
 5492SOL    HW128112   4.316   0.874   2.284 -0.9455  2.5497 -1.3526
 5492SOL    HW228113   4.449   0.828   2.223 -0.0314  0.2188  1.3420
 5493SOL     OW28114   0.037   2.490   7.585  0.4705  0.0794  0.1204
 5493SOL    HW128115   0.006   2.419   7.641  1.0359 -1.5936 -1.6566
 5493SOL    HW228116   0.070   2.435   7.514 -0.2802  0.6170 -0.6520
 5494SOL     OW28117   4.080   2.581   5.866 -0.4842 -0.1619 -0.4352
 5494SOL    HW128118   4.052   2.670   5.843 -0.6765 -0.3931 -1.0867
 5494SOL    HW228119   4.169   2.600   5.895 -0.6208 -0.4432  0.1789
 5495SOL     OW28120   1.999   2.231  14.675 -0.1944  0.3413 -0.0034
 5495SOL    HW128121   1.982   2.138  14.684  0.0116  0.2503 -0.5119
 5495SOL    HW228122   2.094   2.237  14.678  0.0366 -1.9571 -2.3773
 5496SOL     OW28123   0.212   1.623   1.598 -0.3609 -0.4362  0.1537
 5496SOL    HW128124   0.195   1.537   1.635  2.7013 -1.4968 -0.8944
 5496SOL    HW228125   0.186   1.681   1.669 -0.0414  1.4599 -1.2599
 5497SOL     OW28126   1.045   2.724  15.080  0.3810  0.1738  0.1699
 5497SOL    HW128127   1.034   2.691  15.169 -0.3298 -1.9175 -0.6941
 5497SOL    HW228128   1.034   2.819  15.087  2.0139  0.4698 -1.2604
 5498SOL     OW28129   4.316   4.038   3.876 -0.1491  0.2238 -0.1659
 5498SOL    HW128130   4.257   3.963   3.868 -0.1943  0.2177  0.2590
 5498SOL    HW228131   4.277   4.081   3.952  0.3208  1.2251 -0.4932
 5499SOL     OW28132   4.067   4.214   8.700 -0.0530 -0.1205 -0.2215
 5499SOL    HW128133   4.002   4.228   8.769  0.1046 -1.8819  0.2961
 5499SOL    HW228134   4.053   4.302   8.664  0.0640 -0.0396 -0.0709
 5500SOL     OW28135   4.629   2.552   1.862  0.4242  0.7459 -0.1583
 5500SOL    HW128136   4.597   2.621   1.803 -0.7395  1.0995  0.8683
 5500SOL    HW228137   4.645   2.601   1.943  1.3515 -0.4111  0.3602
 5501SOL     OW28138   0.262   1.739  14.134  1.0627 -0.3292 -0.6113
 5501SOL    HW128139   0.284   1.788  14.213  0.3647  1.0239 -1.2663
 5501SOL    HW228140   0.175   1.779  14.124  0.6850 -1.3897 -1.5670
 5502SOL     OW28141   3.777   0.125  10.172 -0.1777 -0.0172  0.5641
 5502SOL    HW128142   3.708   0.182  10.207  1.4582  2.1023  0.2756
 5502SOL    HW228143   3.776   0.046  10.226 -1.1552  1.4127  2.6634
 5503SOL     OW28144   0.148   3.499  14.115  1.1246 -0.4887 -0.0940
 5503SOL    HW128145   0.190   3.562  14.057  1.7849 -1.3509 -0.5627
 5503SOL    HW228146   0.163   3.417  14.067  0.4050 -0.1754 -0.8387
 5504SOL     OW28147   3.105   0.551   9.646 -0.3761  0.2621  0.3076
 5504SOL    HW128148   3.081   0.616   9.580 -1.7251  0.9333  1.4544
 5504SOL    HW228149   3.075   0.473   9.598  0.5459 -0.2780  0.6080
 5505SOL     OW28150   0.048   4.349   3.837 -0.0467 -0.4959  0.3696
 5505SOL    HW128151   0.127   4.326   3.787  0.7605  1.0627  0.9344
 5505SOL    HW228152   4.727   4.284   3.806 -0.4429 -0.8324  1.8860
 5506SOL     OW28153   1.586   4.355   2.157 -0.1863  0.2386  0.3081
 5506SOL    HW128154   1.562   4.395   2.241  1.1225  0.2161  0.6936
 5506SOL    HW228155   1.565   4.427   2.097  0.3659  0.2487  0.1265
 5507SOL     OW28156   1.773   2.242   6.895 -0.3786 -0.1836 -0.7122
 5507SOL    HW128157   1.818   2.281   6.969  0.9390 -0.2766 -1.4535
 5507SOL    HW228158   1.849   2.206   6.848  1.6735  1.8450  1.0644
 5508SOL     OW28159   1.312   3.984   0.337  0.4809 -0.7182  0.7164
 5508SOL    HW128160   1.347   3.912   0.285  1.5779  1.0944 -1.0392
 5508SOL    HW228161   1.382   4.047   0.326 -1.7481  1.2716 -2.0329
 5509SOL     OW28162   3.937   1.343  12.733  0.0590  0.0408 -0.5235
 5509SOL    HW128163   3.934   1.250  12.710 -0.3324 -0.2264  0.6018
 5509SOL    HW228164   4.032   1.353  12.735  0.2126 -1.8172  3.0331
 5510SOL     OW28165   1.403   2.559   6.935  0.2101 -0.0341  0.2124
 5510SOL    HW128166   1.469   2.584   6.870  0.6201 -1.0886  0.2162
 5510SOL    HW228167   1.445   2.487   6.981 -0.7062 -0.6612  0.0755
 5511SOL     OW28168   0.099   1.133   4.286 -0.5644  0.5537  0.0175
 5511SOL    HW128169   0.097   1.118   4.381  0.7573  1.0626  0.1237
 5511SOL    HW228170   0.013   1.105   4.256 -0.2936 -0.0618 -0.2035
 5512SOL     OW28171   0.597   1.918  15.127 -0.0244 -0.2800  0.1970
 5512SOL    HW128172   0.613   1.883  15.214 -0.2450 -1.9057 -0.4095
 5512SOL    HW228173   0.634   2.006  15.119  0.1339 -0.5211 -1.6824
 5513SOL     OW28174   0.001   1.524   6.178  0.1224  0.2117 -0.5616
 5513SOL    HW128175   0.044   1.439   6.188  0.0466  0.4599  1.7133
 5513SOL    HW228176   0.052   1.572   6.243  0.8299 -0.4629 -0.6052
 5514SOL     OW28177   0.604   1.137   3.082  0.0682  0.2500  0.0992
 5514SOL    HW128178   0.580   1.091   3.163 -1.0014 -0.1825 -0.4676
 5514SOL    HW228179   0.682   1.089   3.053  0.5225  1.3974 -0.5762
 5515SOL     OW28180   4.320   4.585   7.500 -0.2249 -0.3132  0.0433
 5515SOL    HW128181   4.395   4.639   7.477  0.4853 -1.5627 -0.5366
 5515SOL    HW228182   4.352   4.517   7.558 -0.6064  1.5448  2.4476
 5516SOL     OW28183   1.359   1.424   6.491  0.2141 -0.5170 -0.2180
 5516SOL    HW128184   1.358   1.501   6.549  0.1804  0.4153 -1.4606
 5516SOL    HW228185   1.408   1.365   6.550 -1.1811 -1.3749  0.0790
 5517SOL     OW28186   3.106   2.887  11.630  0.4816 -0.1751  0.1341
 5517SOL    HW128187   3.139   2.977  11.619  0.9431 -0.3974 -0.2910
 5517SOL    HW228188   3.018   2.909  11.661  0.3748  0.0128 -0.2886
 5518SOL     OW28189   4.589   0.598   1.664  0.0551  0.1015 -0.1570
 5518SOL    HW128190   4.667   0.596   1.608 -0.1621 -0.4979 -0.4347
 5518SOL    HW228191   4.621   0.542   1.734  0.7863 -0.9859 -1.3586
 5519SOL     OW28192   1.317   3.740  12.456  0.5185 -0.2566 -0.4344
 5519SOL    HW128193   1.228   3.740  12.491  0.2374 -2.4258 -1.1634
 5519SOL    HW228194   1.325   3.820  12.404  1.0803 -0.5626 -0.8254
 5520SOL     OW28195   1.855   2.100   3.070 -0.4209 -0.0740 -0.1390
 5520SOL    HW128196   1.918   2.147   3.016 -1.9642  0.3599 -1.5928
 5520SOL    HW228197   1.902   2.064   3.145  0.0299  2.1687  0.6548
 5521SOL     OW28198   2.615   3.960   7.632  0.7050  0.0694 -0.2487
 5521SOL    HW128199   2.546   3.898   7.656 -0.1499  0.4664 -1.6537
 5521SOL    HW228200   2.697   3.913   7.646  0.3876  0.1449  1.7939
 5522SOL     OW28201   2.968   3.563  15.974  0.0257  0.0121 -0.0425
 5522SOL    HW128202   3.012   3.488  16.014 -0.0246 -0.9364 -1.7668
 5522SOL    HW228203   3.036   3.624  15.943 -0.8931  0.2825 -1.5205
 5523SOL     OW28204   3.295   1.053   5.388  0.5833  0.7460 -1.1182
 5523SOL    HW128205   3.316   0.960   5.394 -1.0187  0.4110 -0.5858
 5523SOL    HW228206   3.379   1.091   5.413  0.7321 -0.2110 -0.1756
 5524SOL     OW28207   3.123   4.342   7.018  0.1020 -0.0790 -0.3772
 5524SOL    HW128208   3.188   4.412   7.009 -0.6942  0.7024 -0.1111
 5524SOL    HW228209   3.046   4.399   7.011  0.7125  0.7744 -0.1974
 5525SOL     OW28210   1.725   2.436   5.237 -0.3111  0.1187 -0.1489
 5525SOL    HW128211   1.638   2.399   5.247 -1.3567  2.8823  1.0473
 5525SOL    HW228212   1.775   2.374   5.290 -2.3584 -0.0629  1.5681
 5526SOL     OW28213   3.176   0.843  13.235  0.3304 -0.2648  0.3293
 5526SOL    HW128214   3.252   0.901  13.236  1.6841 -2.0479  1.5066
 5526SOL    HW228215   3.188   0.759  13.191  1.3564 -0.5821  1.2320
 5527SOL     OW28216   2.142   0.903   9.034  0.3064  0.0791  0.2655
 5527SOL    HW128217   2.175   0.955   8.961 -1.0161  1.4434  0.6523
 5527SOL    HW228218   2.156   0.961   9.109 -0.9773  0.5267  0.1610
 5528SOL     OW28219   1.244   2.338   3.027 -0.5526  0.5140 -0.2272
 5528SOL    HW128220   1.319   2.318   3.084  0.6873 -0.2198 -2.1030
 5528SOL    HW228221   1.212   2.250   3.006  1.8975  0.0895 -2.1358
 5529SOL     OW28222   3.373   4.575   6.443 -0.6027 -0.5158 -0.5642
 5529SOL    HW128223   3.419   4.499   6.408  1.1587  0.2289  0.1144
 5529SOL    HW228224   3.284   4.557   6.413  0.0972  2.0329 -4.3034
 5530SOL     OW28225   2.497   2.867   2.471  0.6556  0.0180 -0.1544
 5530SOL    HW128226   2.517   2.774   2.479  1.6170  0.3321  1.1761
 5530SOL    HW228227   2.408   2.868   2.437  0.0183 -3.8946  1.3869
 5531SOL     OW28228   4.321   0.458  10.920  0.0674 -0.1844  0.0469
 5531SOL    HW128229   4.294   0.477  10.830 -1.0253  0.2345  0.4687
 5531SOL    HW228230   4.384   0.387  10.907 -0.0806 -0.4536  0.8378
 5532SOL     OW28231   0.385   2.900   7.605  0.4945  0.3728  0.3502
 5532SOL    HW128232   0.324   2.828   7.588  1.9535 -0.3402 -1.8518
 5532SOL    HW228233   0.345   2.955   7.672 -0.1770  1.4305 -0.9222
 5533SOL     OW28234   2.973   3.577   1.790  0.0817  0.3128  0.1338
 5533SOL    HW128235   2.951   3.498   1.841  1.0398 -0.4398 -0.6207
 5533SOL    HW228236   2.900   3.596   1.732  0.1931 -2.8547 -1.0706
 5534SOL     OW28237   3.526   0.404   3.879  0.6557  0.8486 -0.3245
 5534SOL    HW128238   3.541   0.352   3.800 -0.8652 -1.0095  0.6142
 5534SOL    HW228239   3.436   0.435   3.865  0.5048  0.5626  0.0338
 5535SOL     OW28240   2.953   0.580  15.842  0.3142  0.0192 -0.1540
 5535SOL    HW128241   2.965   0.636  15.766 -0.1635  0.4195  0.0681
 5535SOL    HW228242   3.035   0.590  15.891 -0.2265 -0.7203  0.8948
 5536SOL     OW28243   0.333   3.367   7.991 -0.4728 -0.4090  0.0499
 5536SOL    HW128244   0.408   3.394   8.045 -0.3703  0.7669 -0.6905
 5536SOL    HW228245   0.382   3.363   7.909 -0.8109  0.7582 -0.2001
 5537SOL     OW28246   2.702   2.362   3.590 -0.2144  0.1237  0.1610
 5537SOL    HW128247   2.629   2.301   3.605 -0.2010 -0.4961 -2.2591
 5537SOL    HW228248   2.675   2.407   3.510  3.2172  0.3373 -0.8701
 5538SOL     OW28249   3.358   3.889   3.699 -0.1191  0.0366 -0.4004
 5538SOL    HW128250   3.445   3.870   3.734 -1.0256 -1.9329  0.7765
 5538SOL    HW228251   3.329   3.973   3.737  0.1949 -0.0241 -0.0235
 5539SOL     OW28252   4.403   1.231   7.238  0.0392  0.2899 -0.1432
 5539SOL    HW128253   4.351   1.164   7.194 -0.0069 -0.3082  0.8183
 5539SOL    HW228254   4.425   1.284   7.161 -0.6617 -1.2201 -1.3849
 5540SOL     OW28255   0.320   1.006   6.324  0.6788  0.1664  0.2492
 5540SOL    HW128256   0.277   1.074   6.377  0.2446  1.3692 -1.6300
 5540SOL    HW228257   0.406   1.016   6.364  1.2866 -0.7345 -0.8073
 5541SOL     OW28258   4.242   0.121  10.723 -0.3537  0.1181 -0.2035
 5541SOL    HW128259   4.215   0.175  10.648  1.1607  0.9908 -0.1050
 5541SOL    HW228260   4.197   0.037  10.713 -0.2797 -0.1855  1.9465
 5542SOL     OW28261   2.570   3.571  14.294  0.0545  0.0021 -0.3316
 5542SOL    HW128262   2.516   3.536  14.364  1.1231  0.6903  0.8307
 5542SOL    HW228263   2.551   3.513  14.220  2.0407 -0.8849 -0.1548
 5543SOL     OW28264   0.652   0.231   4.966 -0.1597  0.0056 -0.4939
 5543SOL    HW128265   0.634   0.231   4.872 -0.2436 -3.2572 -0.4922
 5543SOL    HW228266   0.643   0.137   4.983  3.0719 -0.2040 -0.0074
 5544SOL     OW28267   2.090   3.964   6.391 -0.2339  0.4120 -0.0436
 5544SOL    HW128268   2.074   3.878   6.431  0.2345  0.3647  0.0433
 5544SOL    HW228269   2.040   4.018   6.452  1.3006  0.7520  0.9223
 5545SOL     OW28270   4.216   2.250   9.400  0.3846  0.4593 -0.3247
 5545SOL    HW128271   4.217   2.291   9.313 -1.2191  0.4532 -0.3488
 5545SOL    HW228272   4.142   2.190   9.389  1.3699 -0.4224 -2.1423
 5546SOL     OW28273   2.140   2.698   7.057 -0.0954 -0.8158 -0.0539
 5546SOL    HW128274   2.147   2.688   6.962 -0.3826 -1.3762 -0.0172
 5546SOL    HW228275   2.220   2.652   7.085  1.3378  2.5594  1.4130
 5547SOL     OW28276   3.455   3.589   8.494 -0.0446 -0.1953 -0.2256
 5547SOL    HW128277   3.428   3.522   8.431 -1.0774 -0.4731  0.5234
 5547SOL    HW228278   3.537   3.623   8.458 -0.7614 -0.3436 -2.0437
 5548SOL     OW28279   2.682   2.011  11.427 -0.2835  0.4121  0.2764
 5548SOL    HW128280   2.643   1.987  11.343 -0.9313  2.5198 -0.0196
 5548SOL    HW228281   2.673   1.936  11.485  1.6373  0.2802  0.3923
 5549SOL     OW28282   1.437   4.440  14.003  0.0315  0.0937  0.0101
 5549SOL    HW128283   1.485   4.476  13.928  0.5224  0.1761  0.3610
 5549SOL    HW228284   1.408   4.524  14.039  0.4957  0.4535 -0.4623
 5550SOL     OW28285   3.031   0.960   2.384  0.6392  0.3787  0.0361
 5550SOL    HW128286   3.110   1.012   2.397 -0.3627  2.0246 -0.4157
 5550SOL    HW228287   2.966   1.026   2.358 -0.2535 -0.9024 -0.9881
 5551SOL     OW28288   3.139   1.581  14.635 -0.3272  0.4787  0.0706
 5551SOL    HW128289   3.064   1.539  14.593 -0.1508  0.3603 -0.1264
 5551SOL    HW228290   3.194   1.504  14.648  0.5635  1.1965  0.5307
 5552SOL     OW28291   2.320   2.414   5.471 -0.5250  0.1118 -0.3592
 5552SOL    HW128292   2.237   2.406   5.517  0.9244 -2.1992  1.8774
 5552SOL    HW228293   2.290   2.455   5.390  0.4500  0.3331 -0.6134
 5553SOL     OW28294   1.336   2.831   4.077 -0.3163 -0.0713 -0.2813
 5553SOL    HW128295   1.325   2.865   4.166  0.6681  1.7784 -0.8739
 5553SOL    HW228296   1.425   2.796   4.075 -0.3951 -0.3629  1.2184
 5554SOL     OW28297   3.824   1.046   5.053 -0.5188  0.0636  0.2420
 5554SOL    HW128298   3.794   0.959   5.027  0.1362  0.4889 -1.9205
 5554SOL    HW228299   3.877   1.021   5.128  0.5666 -0.1251 -0.5878
 5555SOL     OW28300   3.990   4.271   1.819  0.1498  0.1264 -0.2956
 5555SOL    HW128301   3.901   4.266   1.855 -1.3170 -1.1773 -4.1508
 5555SOL    HW228302   4.015   4.178   1.819  0.3004  0.1647  0.1109
 5556SOL     OW28303   3.965   2.911  11.140  0.6992  0.3121  0.1151
 5556SOL    HW128304   3.908   2.945  11.071  0.1002 -0.8964  0.0171
 5556SOL    HW228305   4.040   2.967  11.117  0.3564  0.8393  0.2648
 5557SOL     OW28306   1.696   0.558   7.564 -0.3877 -0.2136  0.1669
 5557SOL    HW128307   1.641   0.616   7.616 -2.6986 -2.8763  0.7107
 5557SOL    HW228308   1.752   0.522   7.633  0.5681 -1.4199 -1.2254
 5558SOL     OW28309   1.695   2.117   2.649 -0.0936 -0.6829  0.0645
 5558SOL    HW128310   1.782   2.088   2.676 -0.4758 -1.1467  0.8082
 5558SOL    HW228311   1.661   2.149   2.733  0.5124 -2.6191  1.0392
 5559SOL     OW28312   2.327   1.723   3.864  0.0775 -0.2645 -0.2872
 5559SOL    HW128313   2.289   1.697   3.948 -2.7277 -0.8077 -1.7360
 5559SOL    HW228314   2.405   1.774   3.884 -1.4919  2.8995 -2.3518
 5560SOL     OW28315   1.919   1.566  13.406 -0.0285  0.5119 -0.5807
 5560SOL    HW128316   1.910   1.626  13.480  3.1891 -1.3403  1.3682
 5560SOL    HW228317   1.995   1.518  13.441 -0.6881  0.4289  0.7503
 5561SOL     OW28318   0.979   2.825   1.335  0.2208  0.2338  0.0262
 5561SOL    HW128319   0.891   2.810   1.369  0.3381  1.3038  0.8022
 5561SOL    HW228320   0.970   2.760   1.265 -1.2718 -1.1652  1.5151
 5562SOL     OW28321   2.512   2.892   6.867  0.3965  0.7847  0.2586
 5562SOL    HW128322   2.432   2.938   6.840  0.7183  3.0699  3.2478
 5562SOL    HW228323   2.471   2.848   6.942 -1.1017 -0.0725 -1.0507
 5563SOL     OW28324   0.535   1.630   4.791  0.0247 -0.5619 -0.0062
 5563SOL    HW128325   0.607   1.637   4.853 -0.3863  2.3180  0.1226
 5563SOL    HW228326   0.507   1.720   4.805 -0.5405 -0.6627 -0.4690
 5564SOL     OW28327   0.365   2.185   8.296 -0.6134 -0.2316  0.1436
 5564SOL    HW128328   0.398   2.176   8.385  0.5304  0.3680 -0.2287
 5564SOL    HW228329   0.271   2.179   8.314 -0.9030 -1.6137 -1.7322
 5565SOL     OW28330   4.014   1.553  14.480 -0.1418  0.5581 -0.9704
 5565SOL    HW128331   3.948   1.579  14.544  0.2027  1.9092 -1.1743
 5565SOL    HW228332   3.968   1.609  14.418 -1.9810  1.2893  1.0510
 5566SOL     OW28333   3.882   2.420   8.168  0.3360 -0.5330  0.7692
 5566SOL    HW128334   3.790   2.414   8.193 -0.5232  0.0901 -2.2328
 5566SOL    HW228335   3.894   2.515   8.168  0.2956 -0.5304  1.3948
 5567SOL     OW28336   0.655   1.419   3.355 -0.0054 -0.3030  0.0514
 5567SOL    HW128337   0.605   1.474   3.416  1.1010  0.3471  0.3836
 5567SOL    HW228338   0.614   1.336   3.378 -1.5493  0.2120 -0.8971
 5568SOL     OW28339   3.313   2.253   8.280 -0.5361  0.3259 -0.3942
 5568SOL    HW128340   3.386   2.197   8.306  0.5286  2.8111  1.9741
 5568SOL    HW228341   3.349   2.339   8.300 -1.5393  1.1473 -2.1571
 5569SOL     OW28342   1.161   4.582   3.606  0.5665 -0.2580 -0.4361
 5569SOL    HW128343   1.072   4.618   3.611 -1.5646 -5.8678  2.1445
 5569SOL    HW228344   1.156   4.529   3.686  2.4375  0.1007 -0.0930
 5570SOL     OW28345   3.614   2.553   3.984  0.2280 -0.4629  0.6931
 5570SOL    HW128346   3.575   2.639   3.994  1.0259 -0.0038 -0.1250
 5570SOL    HW228347   3.707   2.573   3.988  0.2387 -0.1024 -1.2396
 5571SOL     OW28348   1.405   3.892   1.882  0.4869 -0.3086  0.1026
 5571SOL    HW128349   1.353   3.956   1.834  2.6782  2.1886  1.0403
 5571SOL    HW228350   1.491   3.935   1.882  0.2708  0.1252  0.8293
 5572SOL     OW28351   3.744   3.696   2.912  0.6360  0.8517  0.1159
 5572SOL    HW128352   3.659   3.700   2.868 -0.1291  1.8403  1.6406
 5572SOL    HW228353   3.715   3.643   2.987  0.9983  0.9526  0.3261
 5573SOL     OW28354   2.496   3.368  17.440 -0.8032 -0.2911  0.0035
 5573SOL    HW128355   2.559   3.297  17.430  1.1668  1.2451  1.4928
 5573SOL    HW228356   2.536   3.410  17.516 -1.6847  0.0295  0.2957
 5574SOL     OW28357   2.271   3.743  16.617  0.0589 -0.7722 -0.3767
 5574SOL    HW128358   2.304   3.724  16.530  3.8195 -0.5173  0.9753
 5574SOL    HW228359   2.288   3.838  16.622  1.1750 -0.9084 -1.6389
 5575SOL     OW28360   1.442   3.779  11.432 -0.4062 -0.3783  0.4209
 5575SOL    HW128361   1.356   3.822  11.431  1.1385  2.8241  2.7304
 5575SOL    HW228362   1.446   3.764  11.527 -1.0457  0.1640  0.5391
 5576SOL     OW28363   0.435   2.334   5.726  1.0139 -0.2324 -0.0556
 5576SOL    HW128364   0.413   2.426   5.711 -2.3554 -1.2897 -1.7696
 5576SOL    HW228365   0.361   2.285   5.689 -0.2404  0.1729  1.9058
 5577SOL     OW28366   1.731   3.383   1.820  0.0340 -0.3143 -0.4305
 5577SOL    HW128367   1.748   3.370   1.913  0.8680  1.5717 -0.3115
 5577SOL    HW228368   1.744   3.477   1.811 -1.5002 -0.0231  0.3732
 5578SOL     OW28369   0.379   2.524  14.564  0.3221 -0.2229  0.0502
 5578SOL    HW128370   0.439   2.465  14.611  0.4148 -1.0167 -1.0675
 5578SOL    HW228371   0.350   2.570  14.643 -0.9011  0.0501 -0.5726
 5579SOL     OW28372   1.635   0.082   2.483 -0.1137 -0.7432  0.0154
 5579SOL    HW128373   1.671   0.157   2.530 -3.1096  0.0311  1.0844
 5579SOL    HW228374   1.708   0.022   2.491  1.6549  1.5075  0.6631
 5580SOL     OW28375   4.019   4.704   9.373  0.2707  0.2256  0.0567
 5580SOL    HW128376   3.992   0.046   9.407 -2.0596 -0.8212  0.8667
 5580SOL    HW228377   3.938   4.654   9.388 -0.2492  1.9498  2.8307
 5581SOL     OW28378   2.683   3.585   3.041 -0.2082  0.1826  0.1297
 5581SOL    HW128379   2.706   3.648   2.974 -1.5822  1.3230  0.7154
 5581SOL    HW228380   2.604   3.547   3.002  0.4363 -0.5313 -0.4777
 5582SOL     OW28381   2.914   4.586   6.509  0.1137 -0.4342 -0.1795
 5582SOL    HW128382   2.869   4.592   6.593  1.2774 -2.9667  0.6419
 5582SOL    HW228383   2.971   4.663   6.510 -0.2187 -0.1785 -0.7153
 5583SOL     OW28384   0.376   1.726   7.358  0.4795 -0.7391  0.1437
 5583SOL    HW128385   0.375   1.677   7.275  2.3815 -1.4838  0.5674
 5583SOL    HW228386   0.446   1.787   7.337  0.1989 -0.7174 -0.7259
 5584SOL     OW28387   2.066   0.790   8.157 -0.2001 -0.2394 -0.1865
 5584SOL    HW128388   2.129   0.848   8.199 -0.0749  0.6817 -1.6520
 5584SOL    HW228389   2.093   0.699   8.174 -0.3084 -0.2678 -0.1684
 5585SOL     OW28390   1.314   4.440   2.806 -0.0998  0.2007  0.0777
 5585SOL    HW128391   1.382   4.482   2.753 -1.1688  1.7451 -0.0665
 5585SOL    HW228392   1.259   4.415   2.732  0.7584  0.0742 -0.5127
 5586SOL     OW28393   4.574   4.580   2.041  0.1378 -0.0133 -0.0060
 5586SOL    HW128394   4.536   4.660   2.077  0.5909  0.5799 -0.8557
 5586SOL    HW228395   4.662   4.583   2.078 -0.0843 -0.6282  0.5722
 5587SOL     OW28396   2.216   3.081   4.033 -0.2548 -0.6515  0.3422
 5587SOL    HW128397   2.286   3.083   3.968 -0.9327 -0.4370 -0.3788
 5587SOL    HW228398   2.167   3.007   3.996 -1.1013  0.1049 -0.0336
 5588SOL     OW28399   2.184   2.815   6.065  0.6220 -0.2373  0.3286
 5588SOL    HW128400   2.095   2.815   6.101  1.1623 -0.7504  1.6591
 5588SOL    HW228401   2.167   2.829   5.971 -2.3728 -0.0163  0.9033
 5589SOL     OW28402   1.933   0.061  12.863  0.1420 -0.3251  0.1346
 5589SOL    HW128403   2.026   0.056  12.883 -0.7489 -0.7986  4.1463
 5589SOL    HW228404   1.936   0.010  12.782 -1.3705  0.1977 -0.2511
 5590SOL     OW28405   1.279   3.563  12.262  0.0736  0.4227  0.2643
 5590SOL    HW128406   1.287   3.620  12.339  0.9618 -2.5811  2.4052
 5590SOL    HW228407   1.265   3.618  12.186 -1.3077 -0.6718 -0.2716
 5591SOL     OW28408   2.561   0.434   5.657  0.2390 -0.2092  0.4579
 5591SOL    HW128409   2.615   0.511   5.641 -0.4190  0.0407 -0.5357
 5591SOL    HW228410   2.482   0.482   5.683 -0.7397  0.3068 -3.4367
 5592SOL     OW28411   3.536   4.521   4.138  0.1179 -0.4011 -0.0359
 5592SOL    HW128412   3.591   4.502   4.062  1.4769  0.0232  0.8395
 5592SOL    HW228413   3.473   4.585   4.105 -2.1217 -0.9107  3.2080
 5593SOL     OW28414   4.448   3.857   5.172  0.4991  0.1274  0.2626
 5593SOL    HW128415   4.477   3.874   5.082 -0.4824  0.5137  0.0179
 5593SOL    HW228416   4.504   3.783   5.194  2.6452  1.8995  0.8135
 5594SOL     OW28417   4.544   3.116   5.996 -0.1003 -0.3746  0.1496
 5594SOL    HW128418   4.475   3.103   6.061 -0.8141 -0.5924 -0.6452
 5594SOL    HW228419   4.555   3.023   5.975  1.0539 -0.4903  1.2880
 5595SOL     OW28420   0.858   3.785   5.841 -0.3135 -0.4864 -0.2360
 5595SOL    HW128421   0.825   3.757   5.926  1.3142  0.8053  0.8228
 5595SOL    HW228422   0.794   3.731   5.794  0.3413 -0.2113 -1.4370
 5596SOL     OW28423   3.091   0.887   4.056 -0.6201  0.0637  0.3264
 5596SOL    HW128424   3.042   0.920   3.981 -2.0333 -1.2832  0.6619
 5596SOL    HW228425   3.069   0.945   4.129 -0.5674  0.5468 -0.0459
 5597SOL     OW28426   4.123   0.216  11.067 -0.3503  0.3740  0.3837
 5597SOL    HW128427   4.108   0.295  11.015 -0.6945  0.0533 -0.0062
 5597SOL    HW228428   4.216   0.236  11.082 -0.2772  0.6468 -0.4064
 5598SOL     OW28429   1.864   0.881   6.734  0.4103  0.1211  0.7505
 5598SOL    HW128430   1.886   0.898   6.642 -0.7245  1.0936  0.6581
 5598SOL    HW228431   1.783   0.830   6.730 -0.4150  1.5593 -1.4354
 5599SOL     OW28432   3.935   2.395   3.413 -0.3304  0.1579 -0.4904
 5599SOL    HW128433   4.009   2.442   3.452 -0.2652 -0.7393  0.4482
 5599SOL    HW228434   3.928   2.449   3.334  3.8970  1.4498 -0.0047
 5600SOL     OW28435   4.406   1.618   8.054  0.0402 -0.0559 -0.4758
 5600SOL    HW128436   4.311   1.613   8.059  0.1301 -0.0929  1.1353
 5600SOL    HW228437   4.429   1.633   8.146  0.3324 -0.7735 -0.4329
 5601SOL     OW28438   4.285   4.159   6.139 -0.4480  0.1552  0.2652
 5601SOL    HW128439   4.367   4.192   6.103 -0.4690  1.2037  1.1782
 5601SOL    HW228440   4.304   4.070   6.168  1.8836  0.3335 -0.7710
 5602SOL     OW28441   0.598   1.538   1.994  0.3956 -0.7164 -0.6282
 5602SOL    HW128442   0.583   1.558   1.902  0.1749  0.0825 -0.4200
 5602SOL    HW228443   0.600   1.626   2.032 -2.7383 -1.8415  2.2066
 5603SOL     OW28444   3.441   0.618   2.673 -0.8180 -0.0899 -0.1776
 5603SOL    HW128445   3.445   0.690   2.610  2.5285  0.9718  1.2453
 5603SOL    HW228446   3.494   0.546   2.637 -0.5231  1.3408 -2.5670
 5604SOL     OW28447   1.252   0.859  12.115 -0.3844  0.1419 -0.0254
 5604SOL    HW128448   1.287   0.878  12.202  1.1017 -2.8259  0.0420
 5604SOL    HW228449   1.222   0.945  12.087 -0.0852 -0.0062 -0.7960
 5605SOL     OW28450   3.438   3.131   2.396 -0.3574 -0.0192 -0.0439
 5605SOL    HW128451   3.473   3.042   2.387  2.9913  1.0585  2.5665
 5605SOL    HW228452   3.460   3.161   2.484 -0.6297 -0.1983  0.0868
 5606SOL     OW28453   4.140   1.305   6.386  0.2761 -0.5066 -0.3662
 5606SOL    HW128454   4.166   1.217   6.416  2.5126 -0.4658 -2.1615
 5606SOL    HW228455   4.184   1.326   6.304 -0.0920  1.3553 -0.0749
 5607SOL     OW28456   2.201   3.456   7.926 -0.3969 -0.2289 -0.5345
 5607SOL    HW128457   2.139   3.442   7.855 -1.7642 -0.8411  0.7883
 5607SOL    HW228458   2.284   3.470   7.880  0.3463 -2.2141  0.2054
 5608SOL     OW28459   2.170   2.846   2.605 -0.7710 -0.3114 -0.0417
 5608SOL    HW128460   2.254   2.803   2.622 -0.8341  0.1889  1.5199
 5608SOL    HW228461   2.114   2.770   2.623 -0.7921 -0.2879 -0.0088
 5609SOL     OW28462   3.123   1.339  15.351 -0.5696 -0.5967  0.6035
 5609SOL    HW128463   3.075   1.380  15.424  2.0519  2.3353  0.6851
 5609SOL    HW228464   3.123   1.414  15.292 -0.7443 -1.3851 -0.3953
 5610SOL     OW28465   3.523   0.233   9.049 -0.1908 -1.1662 -0.2201
 5610SOL    HW128466   3.599   0.289   9.060 -0.6414 -0.4197 -0.9426
 5610SOL    HW228467   3.471   0.252   9.127  1.1767 -2.1460  0.9437
 5611SOL     OW28468   1.045   2.988   6.757  0.1134  0.3341 -0.1506
 5611SOL    HW128469   0.998   2.920   6.805  0.8243  0.6477  1.0129
 5611SOL    HW228470   1.117   2.935   6.723  0.0299 -0.2118  0.5179
 5612SOL     OW28471   2.927   4.142   6.117  0.2938  0.3473  0.0825
 5612SOL    HW128472   3.015   4.138   6.154  0.1277  0.6482  0.5059
 5612SOL    HW228473   2.867   4.116   6.187  0.0281 -0.3705 -0.4184
 5613SOL     OW28474   1.096   1.247  11.367  0.0079  0.2074 -0.3728
 5613SOL    HW128475   1.121   1.243  11.459  1.2927  3.1304 -0.6134
 5613SOL    HW228476   1.042   1.168  11.357 -0.4275  0.6105 -1.2149
 5614SOL     OW28477   1.405   3.151   3.990 -0.4428  0.3103 -0.4940
 5614SOL    HW128478   1.405   3.124   3.898 -0.7758 -1.5345  0.0431
 5614SOL    HW228479   1.495   3.182   3.997 -0.7130  0.6876  1.4121
 5615SOL     OW28480   0.951   4.548   1.404  0.8049 -0.5103 -0.0437
 5615SOL    HW128481   0.973   4.560   1.312  1.0329  1.7934  0.3128
 5615SOL    HW228482   1.042   4.546   1.433  0.2926  1.0248  1.6294
 5616SOL     OW28483   0.277   0.962   6.748  0.1132 -0.1071 -0.2370
 5616SOL    HW128484   0.228   1.030   6.701 -0.8393 -0.0256  0.8887
 5616SOL    HW228485   0.238   0.970   6.834  1.2436 -2.1312  0.4656
 5617SOL     OW28486   4.342   1.574   7.522  0.3597  0.1132  0.2161
 5617SOL    HW128487   4.300   1.657   7.498 -0.1907  0.3664  2.0743
 5617SOL    HW228488   4.276   1.543   7.585 -0.6568  0.2181 -0.7915
 5618SOL     OW28489   3.548   2.360  15.316 -0.6334  0.1306  0.3290
 5618SOL    HW128490   3.549   2.453  15.294 -0.3039 -0.4812 -2.2768
 5618SOL    HW228491   3.617   2.323  15.261  0.2662  2.0006  0.1839
 5619SOL     OW28492   2.044   1.519   3.474 -0.0099  0.1813  0.0210
 5619SOL    HW128493   2.074   1.610   3.472  0.8505 -0.0867  1.1122
 5619SOL    HW228494   1.988   1.528   3.550 -0.6519  0.1079 -0.4452
 5620SOL     OW28495   3.676   0.521   9.310  0.3669  0.0408  0.0118
 5620SOL    HW128496   3.646   0.476   9.388 -2.8938 -1.9259 -2.4103
 5620SOL    HW228497   3.732   0.593   9.341  0.9839 -1.3330  2.0241
 5621SOL     OW28498   4.074   1.400   3.091  0.4742 -0.7856 -0.7428
 5621SOL    HW128499   4.060   1.473   3.031 -3.4120  0.2154  1.3539
 5621SOL    HW228500   3.983   1.368   3.097  0.2311  0.1035  0.2819
 5622SOL     OW28501   3.080   3.443   3.651  0.1574 -0.1439  0.2486
 5622SOL    HW128502   3.041   3.471   3.569 -1.9435  0.1312  1.3339
 5622SOL    HW228503   3.097   3.351   3.630 -1.6577 -0.4357  0.0426
 5623SOL     OW28504   3.503   1.060   5.114  0.4190  0.3953 -0.8445
 5623SOL    HW128505   3.587   1.085   5.077  0.6467 -0.4932 -0.9086
 5623SOL    HW228506   3.496   0.970   5.082 -1.2116  0.0596  0.4426
 5624SOL     OW28507   1.996   4.212   5.499 -0.3079 -0.0604 -0.3026
 5624SOL    HW128508   1.971   4.159   5.423  1.3776 -2.1953  0.6210
 5624SOL    HW228509   2.029   4.293   5.460 -0.3996 -0.3922 -1.0787
 5625SOL     OW28510   1.285   2.486   8.536  0.4930 -0.2428 -0.3945
 5625SOL    HW128511   1.332   2.407   8.507 -0.8260 -1.3327  0.4498
 5625SOL    HW228512   1.315   2.474   8.626  1.5374 -3.2503 -1.1381
 5626SOL     OW28513   0.508   1.732  13.073  0.0347  0.2388 -0.4414
 5626SOL    HW128514   0.505   1.757  13.166 -0.8609 -1.9840  0.1199
 5626SOL    HW228515   0.563   1.654  13.071 -2.0562 -1.2404  0.3789
 5627SOL     OW28516   1.683   0.871   2.881  0.9235 -0.3156  0.1636
 5627SOL    HW128517   1.773   0.843   2.864 -0.4144 -3.6570 -1.4381
 5627SOL    HW228518   1.633   0.808   2.932 -0.6891  0.4310 -0.4709
 5628SOL     OW28519   1.290   0.250   6.506 -0.3485 -0.1256 -0.1780
 5628SOL    HW128520   1.384   0.233   6.509 -0.2791  0.3865  0.3983
 5628SOL    HW228521   1.288   0.281   6.596 -1.1965  1.6373 -0.8129
 5629SOL     OW28522   0.521   1.065   2.492  0.3267  0.0533  0.1264
 5629SOL    HW128523   0.489   1.092   2.406  0.7946  2.2708  0.6635
 5629SOL    HW228524   0.520   0.971   2.473 -1.3485  0.4192 -1.6053
 5630SOL     OW28525   3.768   1.204   7.643 -0.4966 -0.0357  0.3614
 5630SOL    HW128526   3.842   1.184   7.586 -1.0079 -0.9157  0.0097
 5630SOL    HW228527   3.804   1.274   7.697  2.2102 -1.8990  0.9760
 5631SOL     OW28528   3.908   0.934   7.367  0.8979 -0.3586 -0.3418
 5631SOL    HW128529   3.946   1.008   7.415  1.5597 -1.8605  1.4604
 5631SOL    HW228530   3.976   0.868   7.377 -1.3042 -2.3168  1.5427
 5632SOL     OW28531   3.924   1.883   3.136 -0.0920 -0.2002  0.0991
 5632SOL    HW128532   3.870   1.871   3.057  1.1350  0.4568 -0.8421
 5632SOL    HW228533   3.918   1.977   3.152 -2.0208 -0.0562 -1.4201
 5633SOL     OW28534   2.621   0.580   4.123 -0.3462 -0.6081 -0.8043
 5633SOL    HW128535   2.641   0.491   4.094  2.9652  0.7594 -2.7643
 5633SOL    HW228536   2.666   0.632   4.056 -1.3131  2.0069  0.5693
 5634SOL     OW28537   2.446   4.377   3.777  0.0415 -0.3715  0.5167
 5634SOL    HW128538   2.393   4.315   3.726  0.4394  1.2561 -1.8407
 5634SOL    HW228539   2.482   4.320   3.845  0.8645 -1.2680 -0.6703
 5635SOL     OW28540   1.090   0.371   6.915  0.1316  0.1867 -0.1304
 5635SOL    HW128541   1.024   0.434   6.887  0.6692 -0.3971 -2.6721
 5635SOL    HW228542   1.033   0.294   6.915  1.1725 -0.5938  0.2962
 5636SOL     OW28543   1.974   2.505   7.364  0.1767  0.3773  0.2062
 5636SOL    HW128544   1.915   2.552   7.422 -2.8224 -0.8741 -1.8700
 5636SOL    HW228545   2.037   2.576   7.348 -1.1935  1.2276 -1.3918
 5637SOL     OW28546   1.531   2.043   0.941  0.5875 -0.4711  0.5243
 5637SOL    HW128547   1.473   2.063   0.868 -0.5853 -2.3327  0.9265
 5637SOL    HW228548   1.618   2.060   0.906  0.9334 -2.9120  0.2307
 5638SOL     OW28549   3.569   1.379  17.223 -0.0871  0.4220 -0.0594
 5638SOL    HW128550   3.527   1.293  17.224  2.1543 -0.6505  2.9774
 5638SOL    HW228551   3.506   1.438  17.182  0.1911 -0.0705 -1.1806
 5639SOL     OW28552   0.322   3.825  11.310 -0.8423 -0.0917 -0.0875
 5639SOL    HW128553   0.271   3.850  11.233  0.4019 -1.0817 -1.2176
 5639SOL    HW228554   0.413   3.816  11.281 -1.0188 -1.0631 -0.3285
 5640SOL     OW28555   2.736   2.311  13.540 -0.0193  0.2695  0.0751
 5640SOL    HW128556   2.640   2.313  13.534 -0.1281  0.4296  2.0469
 5640SOL    HW228557   2.769   2.388  13.493 -0.8998  0.3663 -0.3971
 5641SOL     OW28558   2.500   2.378  10.863 -0.1172 -0.2022  0.2592
 5641SOL    HW128559   2.592   2.374  10.836  0.1644  0.4227  1.1102
 5641SOL    HW228560   2.489   2.470  10.838  0.6275 -0.8359 -2.3425
 5642SOL     OW28561   3.206   4.620   5.681  0.2359 -0.0898 -0.6565
 5642SOL    HW128562   3.243   4.697   5.637  0.9381 -0.5212 -0.8074
 5642SOL    HW228563   3.277   4.558   5.667  0.5515 -0.2249  1.5243
 5643SOL     OW28564   1.774   0.433  14.176  0.3343 -0.4834  0.0389
 5643SOL    HW128565   1.752   0.524  14.197 -0.5560 -0.3363 -1.5409
 5643SOL    HW228566   1.742   0.435  14.086  0.6318  0.4046 -0.0401
 5644SOL     OW28567   4.712   1.128   9.809  0.3217  0.3575  0.0470
 5644SOL    HW128568   4.700   1.217   9.776 -1.3601 -0.6939 -2.1441
 5644SOL    HW228569   4.654   1.079   9.752  1.1984 -0.6174  0.0055
 5645SOL     OW28570   0.635   3.933   6.994 -0.2455 -0.3916 -0.3799
 5645SOL    HW128571   0.663   3.960   7.082 -2.3576  2.6683 -0.6556
 5645SOL    HW228572   0.648   4.010   6.940 -0.5725 -2.5598 -3.5569
 5646SOL     OW28573   4.198   0.536  15.136 -0.3898  0.0589 -0.6089
 5646SOL    HW128574   4.250   0.472  15.088  1.2554  2.1225 -1.5841
 5646SOL    HW228575   4.263   0.556  15.204 -1.3545 -0.2254  0.3929
 5647SOL     OW28576   1.069   3.805   1.828 -0.2117 -0.1005 -0.2930
 5647SOL    HW128577   1.113   3.882   1.790  0.2177  0.3967  1.2169
 5647SOL    HW228578   0.983   3.837   1.856 -1.2840 -1.0154 -2.4708
 5648SOL     OW28579   2.543   0.311   8.596  0.4139  0.0931  0.1404
 5648SOL    HW128580   2.503   0.265   8.522 -0.3935 -1.6694  1.6638
 5648SOL    HW228581   2.633   0.322   8.566  0.3451 -0.0605 -0.1247
 5649SOL     OW28582   0.652   2.817  10.149  0.2071 -0.2040 -0.2871
 5649SOL    HW128583   0.664   2.823  10.244 -1.3905  1.4249 -0.1832
 5649SOL    HW228584   0.654   2.909  10.124 -2.1343 -0.3537 -0.9674
 5650SOL     OW28585   2.016   1.626   6.557  0.3296  0.2122 -0.0883
 5650SOL    HW128586   2.106   1.639   6.587  0.1352  2.1698 -0.3630
 5650SOL    HW228587   1.975   1.620   6.643  1.3153  0.0537  0.3611
 5651SOL     OW28588   0.526   0.204   6.886  0.7613 -0.5644  0.1444
 5651SOL    HW128589   0.499   0.144   6.816 -0.9738 -0.9294  1.1226
 5651SOL    HW228590   0.479   0.173   6.963 -0.4611 -3.0273 -1.5933
 5652SOL     OW28591   3.881   3.671   9.689  0.2766 -0.2051  0.5331
 5652SOL    HW128592   3.859   3.647   9.600 -0.4847  0.2614  0.5981
 5652SOL    HW228593   3.976   3.678   9.681  0.1496  0.5373 -0.3362
 5653SOL     OW28594   0.318   1.560  16.221 -0.2969 -0.4274  0.1683
 5653SOL    HW128595   0.343   1.528  16.307 -1.5247 -0.7995  0.3871
 5653SOL    HW228596   0.364   1.498  16.164  0.6780  1.2957 -0.9173
 5654SOL     OW28597   3.348   0.588  10.124  0.3412  0.0654 -0.3465
 5654SOL    HW128598   3.261   0.583  10.165  0.1014 -0.2682 -0.8914
 5654SOL    HW228599   3.332   0.629  10.039 -0.4569 -1.9989 -1.2079
 5655SOL     OW28600   0.589   1.592   1.730  0.2532 -0.1058 -0.1570
 5655SOL    HW128601   0.551   1.679   1.736 -0.1008 -0.3421  1.0475
 5655SOL    HW228602   0.504   1.548   1.723 -0.7578  1.8033  0.3703
 5656SOL     OW28603   2.794   4.188  16.610 -0.1390 -0.0030  0.3901
 5656SOL    HW128604   2.739   4.265  16.625 -1.4775 -0.9852  0.5141
 5656SOL    HW228605   2.840   4.215  16.530 -0.1314 -1.5623 -0.1328
 5657SOL     OW28606   4.307   3.515   9.930  0.5670  0.2330 -0.2329
 5657SOL    HW128607   4.262   3.437   9.963 -0.2555  0.8840  0.1782
 5657SOL    HW228608   4.362   3.536  10.005 -0.6953  2.3525  0.1146
 5658SOL     OW28609   0.959   0.149  14.351  0.1746 -0.8776  0.5202
 5658SOL    HW128610   0.987   0.232  14.389 -3.5962  1.3790 -1.5772
 5658SOL    HW228611   0.969   0.168  14.258 -1.8118  0.1232  0.5016
 5659SOL     OW28612   2.362   2.354   4.047 -0.3158  0.5630  0.2581
 5659SOL    HW128613   2.375   2.328   4.138 -2.1311 -0.6462  0.1690
 5659SOL    HW228614   2.276   2.395   4.039 -0.2604  0.8804  1.3247
 5660SOL     OW28615   1.956   1.338  17.397  0.1453  0.1754 -0.6892
 5660SOL    HW128616   1.974   1.431  17.387  0.5407  0.4091  2.2304
 5660SOL    HW228617   1.888   1.317  17.461  1.3549 -2.9190 -0.3829
 5661SOL     OW28618   1.371   3.892   8.421  0.0289  0.4758 -0.0587
 5661SOL    HW128619   1.449   3.858   8.377  0.2856 -1.5825  2.0228
 5661SOL    HW228620   1.414   3.970   8.458 -0.6276  1.4073 -1.2472
 5662SOL     OW28621   2.534   2.471  11.961  0.4366 -0.4517 -0.5578
 5662SOL    HW128622   2.628   2.465  11.944  0.4514  1.7628 -1.3752
 5662SOL    HW228623   2.524   2.543  12.023  3.3924  0.9532 -1.6846
 5663SOL     OW28624   3.918   0.112  10.901 -0.0183  0.0336  0.1792
 5663SOL    HW128625   3.886   0.046  10.963 -0.5283  1.6227  1.6041
 5663SOL    HW228626   3.985   0.150  10.958 -0.0848  2.1324 -1.1223
 5664SOL     OW28627   4.574   3.240  15.512 -0.2427  0.2243  0.4663
 5664SOL    HW128628   4.638   3.170  15.504 -0.9484 -0.4545  0.7259
 5664SOL    HW228629   4.554   3.231  15.606  0.3069  0.2702  0.5847
 5665SOL     OW28630   3.961   4.653   0.746  0.0237 -0.1751  0.1778
 5665SOL    HW128631   3.958   4.718   0.676  2.1581  3.5728  3.5180
 5665SOL    HW228632   4.033   4.597   0.716  1.8665  1.1910  2.1198
 5666SOL     OW28633   3.275   4.156  15.339 -0.1029  0.0406  0.1459
 5666SOL    HW128634   3.302   4.081  15.286 -1.5038 -1.9554  2.2705
 5666SOL    HW228635   3.286   4.217  15.266 -0.8771  1.9134  1.6005
 5667SOL     OW28636   4.558   3.830  12.911  0.3897 -0.1582 -0.0429
 5667SOL    HW128637   4.622   3.829  12.982  0.2446  2.3493  0.1007
 5667SOL    HW228638   4.511   3.747  12.922  1.0840 -0.8137 -1.9973
 5668SOL     OW28639   3.525   0.891   1.405  0.1417  0.1407  0.0088
 5668SOL    HW128640   3.536   0.971   1.354  0.3581  1.4108  2.0447
 5668SOL    HW228641   3.443   0.898   1.453 -0.5495  0.3190 -1.1954
 5669SOL     OW28642   3.069   1.179   3.016  0.0512 -0.0243  0.0101
 5669SOL    HW128643   3.068   1.085   3.002 -0.3526 -0.1176  0.6465
 5669SOL    HW228644   2.998   1.180   3.081 -1.3846 -0.8152 -1.5317
 5670SOL     OW28645   4.384   0.543   5.766 -0.5254 -0.4182 -0.2909
 5670SOL    HW128646   4.386   0.517   5.858 -1.0472  1.6207  0.2849
 5670SOL    HW228647   4.401   0.637   5.770  1.9437 -0.8940  0.2339
 5671SOL     OW28648   2.060   0.493   8.202 -0.2784  0.0855  0.1355
 5671SOL    HW128649   2.103   0.413   8.234 -0.0355  0.6808  1.3064
 5671SOL    HW228650   2.012   0.517   8.282  0.2177  1.5651 -0.0090
 5672SOL     OW28651   4.260   0.877   6.877  0.3599 -0.4449  0.2367
 5672SOL    HW128652   4.177   0.901   6.835  0.2822 -1.1476 -0.0081
 5672SOL    HW228653   4.274   0.794   6.831 -2.1321 -0.5208 -0.3901
 5673SOL     OW28654   2.201   3.439   3.243 -0.2287 -0.3450  0.0854
 5673SOL    HW128655   2.142   3.407   3.312 -1.7151  0.5910 -0.7546
 5673SOL    HW228656   2.283   3.397   3.268 -0.0446 -0.5691 -0.9000
 5674SOL     OW28657   3.369   3.452   5.418  0.2579 -0.2320 -0.1256
 5674SOL    HW128658   3.349   3.539   5.453  0.3310 -0.6059  0.8448
 5674SOL    HW228659   3.452   3.426   5.458 -0.6355 -0.3634  1.6016
 5675SOL     OW28660   3.461   0.973   6.245 -0.1742 -0.0835 -0.1052
 5675SOL    HW128661   3.385   0.983   6.187 -0.3506 -0.0741  0.1260
 5675SOL    HW228662   3.442   0.892   6.292 -1.7977  0.0748 -0.4820
 5676SOL     OW28663   4.028   0.768   8.274  0.0304  0.1075 -0.0982
 5676SOL    HW128664   3.975   0.690   8.292  0.3719  0.4095  2.1872
 5676SOL    HW228665   3.974   0.832   8.319  1.2332  1.0993 -0.0423
 5677SOL     OW28666   4.400   3.726   7.921 -0.0668 -0.3609  0.1590
 5677SOL    HW128667   4.453   3.735   8.000  0.4486 -0.0019 -0.2298
 5677SOL    HW228668   4.338   3.657   7.946  0.8270 -0.7795  1.2512
 5678SOL     OW28669   3.893   0.061   6.452  0.1613  0.0193 -0.8295
 5678SOL    HW128670   3.958   0.043   6.520 -1.8350 -0.0278  1.0938
 5678SOL    HW228671   3.829   4.736   6.474 -0.4502  0.2349 -1.9808
 5679SOL     OW28672   2.880   4.254   7.664  0.1263 -0.2160  0.1645
 5679SOL    HW128673   2.914   4.204   7.590  3.1029  0.9421  0.7790
 5679SOL    HW228674   2.954   4.292   7.711 -0.1023  2.0798 -1.3404
 5680SOL     OW28675   4.086   1.022   8.041 -0.0529  0.2945 -0.2169
 5680SOL    HW128676   4.098   0.937   8.083 -0.0412  0.3381 -0.1302
 5680SOL    HW228677   4.178   1.045   8.024 -0.3079  0.7501 -0.9845
 5681SOL     OW28678   2.684   2.832  11.256 -0.5050  0.3878  0.5685
 5681SOL    HW128679   2.600   2.794  11.283 -1.3122  1.2242 -0.7964
 5681SOL    HW228680   2.656   2.874  11.175 -2.0085 -1.2173  0.2486
 5682SOL     OW28681   0.084   2.892   3.804  0.2076 -0.2254 -0.2179
 5682SOL    HW128682   0.059   2.801   3.823  0.1476  0.0321  0.9439
 5682SOL    HW228683   0.014   2.936   3.852 -0.0624  0.2361 -1.0348
 5683SOL     OW28684   2.686   4.303  13.512  0.1618  0.8061  0.1293
 5683SOL    HW128685   2.598   4.273  13.534 -0.1180  1.1276 -0.5730
 5683SOL    HW228686   2.679   4.312  13.417 -2.6543 -0.9322  0.1767
 5684SOL     OW28687   0.304   3.794   9.418  0.4112 -0.4328 -0.4254
 5684SOL    HW128688   0.369   3.806   9.487  0.3621  1.1995 -0.6662
 5684SOL    HW228689   0.308   3.698   9.419 -0.5265 -0.4692 -0.2470
 5685SOL     OW28690   3.442   3.414   4.943 -0.5736  0.4200  0.4480
 5685SOL    HW128691   3.433   3.477   5.014 -0.9168  0.3835  0.4339
 5685SOL    HW228692   3.502   3.354   4.986 -0.9021 -0.0427  0.2554
 5686SOL     OW28693   2.320   3.536   8.922 -0.1696 -0.0660  0.3022
 5686SOL    HW128694   2.384   3.578   8.864 -0.7735 -0.6813 -0.8280
 5686SOL    HW228695   2.269   3.481   8.861  0.9633  0.3139 -0.9817
 5687SOL     OW28696   1.199   1.967  15.432 -0.2268 -0.0334  0.0021
 5687SOL    HW128697   1.223   1.882  15.471  0.9613  0.7120  0.8849
 5687SOL    HW228698   1.113   1.935  15.403 -0.1324  0.6927 -1.0519
 5688SOL     OW28699   1.955   2.708   4.072 -0.2475  0.6515 -0.1225
 5688SOL    HW128700   1.997   2.782   4.029  2.5252  0.4079  2.1495
 5688SOL    HW228701   1.905   2.671   4.000 -1.4473 -2.8980  2.5132
 5689SOL     OW28702   4.324   4.167   2.530 -0.1834 -0.0550  0.3220
 5689SOL    HW128703   4.403   4.118   2.553 -0.3066  1.0768  3.1353
 5689SOL    HW228704   4.260   4.099   2.550  0.7937 -1.6497 -2.1000
 5690SOL     OW28705   4.234   2.364  17.737 -0.0380  0.0100 -0.1607
 5690SOL    HW128706   4.225   2.272  17.711 -1.1480 -0.4191  1.7277
 5690SOL    HW228707   4.293   2.360   0.045  0.1767 -3.0400 -0.5141
 5691SOL     OW28708   0.986   0.285  11.328 -0.1504  0.2722  0.2374
 5691SOL    HW128709   0.892   0.282  11.311  0.6714  0.1178 -4.4681
 5691SOL    HW228710   1.013   0.310  11.239 -0.7491  1.2755  0.3418
 5692SOL     OW28711   2.561   1.778   5.469  0.3202  0.1908 -0.1987
 5692SOL    HW128712   2.559   1.837   5.394  1.9032  2.4909  1.5556
 5692SOL    HW228713   2.641   1.732   5.443 -1.3013 -2.0937 -1.1605
 5693SOL     OW28714   2.012   0.926   6.182 -0.0761  0.1566 -0.5297
 5693SOL    HW128715   1.981   1.010   6.216  2.9237  0.3590  1.6562
 5693SOL    HW228716   2.097   0.943   6.142  0.1543  0.4937  0.1178
 5694SOL     OW28717   3.734   0.153  13.092 -1.1166  0.5095 -0.3057
 5694SOL    HW128718   3.712   0.197  13.009  0.2271  0.6896 -0.5703
 5694SOL    HW228719   3.759   0.067  13.058 -1.6136  0.2951 -0.1264
 5695SOL     OW28720   1.333   0.825  14.635  0.5289  0.6523 -0.1172
 5695SOL    HW128721   1.376   0.910  14.641  0.6637  0.7145 -1.7788
 5695SOL    HW228722   1.385   0.779  14.569 -0.1138  1.3895 -1.1513
 5696SOL     OW28723   0.445   3.449   9.674  0.7107 -0.3540  0.0539
 5696SOL    HW128724   0.391   3.504   9.730  0.4141 -0.2543 -0.3301
 5696SOL    HW228725   0.390   3.444   9.596 -0.2349  2.7959  0.5261
 5697SOL     OW28726   0.995   3.235   7.677  0.2911 -0.1732 -0.3768
 5697SOL    HW128727   1.068   3.181   7.648 -0.2518 -0.1978 -1.7108
 5697SOL    HW228728   0.945   3.162   7.714  0.0855 -0.6391 -1.5913
 5698SOL     OW28729   3.144   4.607   4.678  0.4464  0.0355  0.0579
 5698SOL    HW128730   3.107   4.592   4.591 -1.8858  0.0452  1.0364
 5698SOL    HW228731   3.074   4.661   4.715  0.8647  0.1124  0.7253
 5699SOL     OW28732   4.026   1.073   3.545 -0.3145 -0.5357 -0.2835
 5699SOL    HW128733   4.044   1.167   3.553 -1.0297 -0.5785  1.7581
 5699SOL    HW228734   3.987   1.057   3.459  3.7372  1.4842 -2.4869
 5700SOL     OW28735   1.774   1.347   6.472 -0.5277  0.2341 -0.0273
 5700SOL    HW128736   1.728   1.378   6.393 -0.3380  1.3438  0.2877
 5700SOL    HW228737   1.735   1.399   6.542 -1.0596  0.0695 -0.1954
 5701SOL     OW28738   1.615   0.666   7.317 -0.4757  0.0461 -0.2604
 5701SOL    HW128739   1.671   0.617   7.377 -2.3291 -1.5056  0.2164
 5701SOL    HW228740   1.625   0.754   7.351  1.3937 -1.5964  3.4095
 5702SOL     OW28741   2.546   4.552   5.377 -0.1647  1.0251 -0.1651
 5702SOL    HW128742   2.501   4.636   5.372 -0.0032  1.1839  0.9191
 5702SOL    HW228743   2.526   4.541   5.470 -0.3536 -0.8298 -0.4195
 5703SOL     OW28744   4.275   2.980   7.164 -0.1216  0.4634  0.0814
 5703SOL    HW128745   4.183   2.996   7.185 -0.7868  1.1117 -3.3037
 5703SOL    HW228746   4.315   3.004   7.247 -0.8448  0.0239  0.5540
 5704SOL     OW28747   0.181   0.047  10.742  0.3295  0.0147  0.3166
 5704SOL    HW128748   0.200   0.003  10.824 -0.5683  0.3790  0.7184
 5704SOL    HW228749   0.232   0.128  10.751 -0.5636  0.4932  1.0288
 5705SOL     OW28750   3.788   4.580   7.590  0.1088  0.0264 -0.3224
 5705SOL    HW128751   3.734   4.651   7.555  0.3799 -0.5868 -1.9644
 5705SOL    HW228752   3.874   4.612   7.563 -0.3182  1.8664  0.4743
 5706SOL     OW28753   1.731   4.412   1.862  0.0531  0.2441  0.8951
 5706SOL    HW128754   1.774   4.394   1.946  0.1599 -1.8455  0.3952
 5706SOL    HW228755   1.806   4.405   1.803 -2.1036  0.0524 -1.8262
 5707SOL     OW28756   2.675   0.418   4.758 -0.5254  0.1292  0.2653
 5707SOL    HW128757   2.656   0.461   4.842  2.8879  0.8374  0.6733
 5707SOL    HW228758   2.708   0.490   4.704 -2.0164  1.2690  0.8757
 5708SOL     OW28759   1.392   4.737  13.366  0.1685 -0.0771 -0.0140
 5708SOL    HW128760   1.399   4.688  13.448 -2.1700 -0.8728 -0.2881
 5708SOL    HW228761   1.310   0.039  13.387  1.6627  1.5109  2.3566
 5709SOL     OW28762   1.667   1.064   6.543  0.4583  0.2265 -0.0771
 5709SOL    HW128763   1.675   1.061   6.638 -2.7394  1.8591  0.2593
 5709SOL    HW228764   1.661   1.157   6.521  2.4791 -0.1840 -2.3812
 5710SOL     OW28765   2.706   4.392   4.187 -0.1742 -0.3880 -0.4026
 5710SOL    HW128766   2.617   4.379   4.221  0.1457 -1.9964 -0.2104
 5710SOL    HW228767   2.730   4.484   4.200  2.6128 -1.0500 -0.9604
 5711SOL     OW28768   2.398   2.826   6.431 -0.2747  0.1721 -0.2313
 5711SOL    HW128769   2.348   2.908   6.441  2.6710  1.9466  0.0671
 5711SOL    HW228770   2.408   2.812   6.337  0.7774  1.0785 -0.2573
 5712SOL     OW28771   3.068   0.558   2.393  0.0818  0.7026 -0.3841
 5712SOL    HW128772   3.112   0.590   2.472  1.9002  0.1471 -1.1535
 5712SOL    HW228773   3.143   0.519   2.347 -1.5242  0.1994 -2.5959
 5713SOL     OW28774   3.596   1.477   5.300 -0.2367  0.2844 -0.2939
 5713SOL    HW128775   3.583   1.382   5.301  2.9937 -0.1377  3.8716
 5713SOL    HW228776   3.570   1.507   5.387 -1.3083  0.6581 -0.7418
 5714SOL     OW28777   0.694   1.516   9.573 -0.4630 -0.2026 -0.6734
 5714SOL    HW128778   0.675   1.520   9.479  3.0129 -1.5937 -1.4438
 5714SOL    HW228779   0.615   1.469   9.599  0.3588 -0.7081  0.9330
 5715SOL     OW28780   0.834   0.228   4.055  0.6738  0.3877  0.1639
 5715SOL    HW128781   0.785   0.299   4.094  0.1892 -0.3900  0.9654
 5715SOL    HW228782   0.888   0.275   3.991  2.2429 -1.6018  0.0157
 5716SOL     OW28783   4.294   3.625   6.770  0.1675 -0.4763  0.1349
 5716SOL    HW128784   4.265   3.648   6.858 -3.2050 -1.0993 -0.8091
 5716SOL    HW228785   4.229   3.557   6.755 -0.1156 -0.2183  0.1916
 5717SOL     OW28786   1.650   2.985   8.052 -0.1418 -0.1772  0.2147
 5717SOL    HW128787   1.621   2.989   7.961 -1.9164 -1.4450  0.7249
 5717SOL    HW228788   1.581   2.932   8.093 -3.2523  2.0488 -2.1505
 5718SOL     OW28789   3.751   3.807   3.733 -0.4115 -0.4957 -0.1816
 5718SOL    HW128790   3.754   3.902   3.737 -0.1503 -0.5650  0.9936
 5718SOL    HW228791   3.748   3.788   3.639 -0.4215  1.3610 -0.5512
 5719SOL     OW28792   0.526   1.958   4.900  0.0629 -0.0741 -0.7809
 5719SOL    HW128793   0.461   1.888   4.913  1.1091 -1.1528 -1.3635
 5719SOL    HW228794   0.597   1.918   4.950 -0.3831 -1.5702 -1.3524
 5720SOL     OW28795   0.536   1.654   9.130 -0.1343 -0.2175  0.5147
 5720SOL    HW128796   0.447   1.672   9.101 -0.0050  0.7626  0.7450
 5720SOL    HW228797   0.573   1.649   9.042  0.6610 -1.9005  0.9345
 5721SOL     OW28798   0.771   0.496   1.201  0.6131 -0.0283  0.5098
 5721SOL    HW128799   0.744   0.426   1.142  3.8450 -0.1843 -0.8102
 5721SOL    HW228800   0.772   0.442   1.280  0.3292 -1.5674 -0.5435
 5722SOL     OW28801   1.309   2.725   5.128 -0.2435 -0.0502 -0.2798
 5722SOL    HW128802   1.299   2.719   5.033  0.2999  0.3288 -0.3633
 5722SOL    HW228803   1.397   2.693   5.145  0.4601  2.0355 -0.0450
 5723SOL     OW28804   2.173   1.043  10.471  0.1983 -0.3519  0.6118
 5723SOL    HW128805   2.127   0.996  10.540 -0.4822 -0.4608  0.0833
 5723SOL    HW228806   2.097   1.089  10.435  0.7236  0.4856  0.5869
 5724SOL     OW28807   4.040   3.183   2.402  0.3815  0.0245 -0.1153
 5724SOL    HW128808   4.002   3.267   2.427  3.0348  1.0816  0.3801
 5724SOL    HW228809   4.036   3.199   2.308  1.0806 -0.2551 -0.1928
 5725SOL     OW28810   2.632   0.930   6.522 -0.4420 -0.3044  0.0089
 5725SOL    HW128811   2.696   0.872   6.564 -0.1279 -0.0273 -0.0840
 5725SOL    HW228812   2.665   1.014   6.554 -1.3698  0.0273  0.0786
 5726SOL     OW28813   1.249   1.724   9.656 -0.3753  0.0582  0.1192
 5726SOL    HW128814   1.202   1.784   9.714  2.1655  1.8133  0.3737
 5726SOL    HW228815   1.246   1.647   9.713 -0.0606  0.9514  1.3426
 5727SOL     OW28816   4.132   3.318  10.029 -0.0192 -0.5614 -0.0593
 5727SOL    HW128817   4.087   3.355  10.105  0.6619  1.1127 -0.4886
 5727SOL    HW228818   4.062   3.320   9.964 -0.0665  0.3630  0.0177
 5728SOL     OW28819   3.441   2.789   8.375 -0.2871  0.0196  0.2052
 5728SOL    HW128820   3.361   2.805   8.424 -0.6527 -2.7628  0.4893
 5728SOL    HW228821   3.509   2.803   8.441 -0.2206  0.8764 -0.0418
 5729SOL     OW28822   0.544   0.938   8.051  0.2376 -0.1141  0.1469
 5729SOL    HW128823   0.600   0.955   8.127  0.4427  1.5224 -0.3692
 5729SOL    HW228824   0.608   0.933   7.980  0.0112  0.9131 -0.1359
 5730SOL     OW28825   3.992   1.393   2.321 -0.1005 -0.5568  1.1400
 5730SOL    HW128826   4.065   1.343   2.283  0.6709  0.8311  0.8180
 5730SOL    HW228827   3.928   1.348   2.266 -0.5818 -0.6847  1.8043
 5731SOL     OW28828   1.179   2.511  11.412 -0.3167  0.4508  0.0792
 5731SOL    HW128829   1.246   2.570  11.446 -0.2577 -0.3133  1.2983
 5731SOL    HW228830   1.218   2.425  11.428 -2.8534 -0.7394  0.0079
 5732SOL     OW28831   1.171   3.556   1.775 -1.0781  0.2226 -0.1634
 5732SOL    HW128832   1.260   3.591   1.766 -0.6881 -0.7515 -0.1228
 5732SOL    HW228833   1.121   3.637   1.787 -0.7112  0.5013 -0.5029
 5733SOL     OW28834   0.647   4.024   7.829 -0.9443  0.0446 -0.8248
 5733SOL    HW128835   0.723   4.078   7.809  0.0881 -0.2417  2.3125
 5733SOL    HW228836   0.661   3.938   7.789  0.7218 -0.1344  0.1542
 5734SOL     OW28837   0.876   1.118   3.414 -0.3922 -0.4889  0.4318
 5734SOL    HW128838   0.932   1.186   3.376 -4.4980  3.2631  1.1878
 5734SOL    HW228839   0.949   1.056   3.415 -0.5815 -0.7367 -1.0763
 5735SOL     OW28840   0.081   1.225   2.144  1.0183  0.2343 -0.0875
 5735SOL    HW128841   0.032   1.302   2.175 -0.3928  0.1582 -2.1546
 5735SOL    HW228842   0.014   1.167   2.109 -1.3862  2.8545  0.1222
 5736SOL     OW28843   2.440   3.178  15.964 -0.0422 -0.5197  0.3598
 5736SOL    HW128844   2.415   3.097  16.008 -1.3720 -1.1126 -1.4696
 5736SOL    HW228845   2.363   3.232  15.983 -0.9988 -1.3447 -1.1807
 5737SOL     OW28846   4.161   1.165  11.933  0.0371  0.1456 -0.3271
 5737SOL    HW128847   4.101   1.142  11.863 -1.1699  0.4111  0.6192
 5737SOL    HW228848   4.134   1.103  12.000  1.7018 -0.5794 -0.3200
 5738SOL     OW28849   2.055   0.265   9.010  0.1379  0.2263 -0.1320
 5738SOL    HW128850   2.149   0.259   8.992  0.0816 -2.6947  0.6376
 5738SOL    HW228851   2.059   0.244   9.103 -0.6245 -3.7321 -1.0148
 5739SOL     OW28852   0.334   4.444  14.119  0.1437 -0.3298  0.2247
 5739SOL    HW128853   0.368   4.491  14.043  0.6744 -0.5578  0.3283
 5739SOL    HW228854   0.405   4.449  14.182  0.1413  0.0199  0.2020
 5740SOL     OW28855   3.066   4.716   2.171 -0.2080 -0.4990 -0.2210
 5740SOL    HW128856   2.972   4.730   2.170 -0.0968  0.0480 -2.4733
 5740SOL    HW228857   3.083   4.712   2.265 -1.0241 -0.5767 -0.0778
 5741SOL     OW28858   3.005   2.686   3.893  0.0901 -0.3386  0.4083
 5741SOL    HW128859   3.064   2.640   3.953  0.7227  1.2898  1.0332
 5741SOL    HW228860   2.935   2.621   3.894 -0.4456  0.2140 -1.2040
 5742SOL     OW28861   0.701   3.781   7.509 -0.7645 -0.1570  0.6009
 5742SOL    HW128862   0.787   3.749   7.482 -1.4561 -1.1113 -0.4696
 5742SOL    HW228863   0.638   3.708   7.505 -1.3106  0.3508 -0.0523
 5743SOL     OW28864   3.149   1.436   2.272 -0.0980 -0.1887  0.3949
 5743SOL    HW128865   3.151   1.370   2.341 -0.7845  0.4425  1.0278
 5743SOL    HW228866   3.054   1.438   2.258  0.4299  3.5216 -2.5311
 5744SOL     OW28867   2.742   4.133  12.774  0.3003  0.4254  0.1206
 5744SOL    HW128868   2.805   4.089  12.717 -1.6730 -1.2662 -0.7699
 5744SOL    HW228869   2.679   4.165  12.710 -1.1912 -0.3404  1.1931
 5745SOL     OW28870   0.342   1.645   2.332 -0.8792  0.2592 -0.4117
 5745SOL    HW128871   0.327   1.727   2.285 -0.3027 -0.6124 -2.1086
 5745SOL    HW228872   0.316   1.577   2.270  1.7875 -2.0024  0.9381
 5746SOL     OW28873   1.567   1.989  12.384  0.6291 -0.0398 -0.1013
 5746SOL    HW128874   1.585   2.057  12.448 -0.5514 -1.3811  1.6473
 5746SOL    HW228875   1.472   1.979  12.375  0.3220 -0.0177  3.2012
 5747SOL     OW28876   3.001   0.053  13.064  0.2158 -0.3656 -0.4130
 5747SOL    HW128877   2.957   4.728  13.116  1.2585  0.0869  1.0359
 5747SOL    HW228878   2.938   0.079  12.996 -3.1908 -1.5445  2.2851
 5748SOL     OW28879   0.903   1.706  11.514 -0.5045  0.1704 -0.4715
 5748SOL    HW128880   0.898   1.770  11.585 -0.7601  2.7254 -2.7925
 5748SOL    HW228881   0.913   1.623  11.560  1.0963  0.1718 -0.8278
 5749SOL     OW28882   1.136   3.540  14.982  0.3143 -0.2606 -0.3657
 5749SOL    HW128883   1.206   3.594  15.019 -1.2285  0.1827  1.8827
 5749SOL    HW228884   1.154   3.563  14.891 -0.0638  0.6994 -0.2069
 5750SOL     OW28885   1.136   4.405   8.213 -0.2220 -0.5931 -0.2377
 5750SOL    HW128886   1.098   4.418   8.299  0.2791  1.1547 -0.2707
 5750SOL    HW228887   1.054   4.404   8.162 -0.5712  0.6786  0.2847
 5751SOL     OW28888   0.688   1.400  17.157 -0.4947 -0.2276  0.4086
 5751SOL    HW128889   0.668   1.316  17.115 -0.2330 -0.8242  1.4972
 5751SOL    HW228890   0.618   1.459  17.128  0.0812 -0.0105 -0.5311
 5752SOL     OW28891   2.558   0.877   9.348 -0.3404  0.5969 -0.2759
 5752SOL    HW128892   2.470   0.907   9.371  0.9376  2.5006  2.1121
 5752SOL    HW228893   2.542   0.783   9.340  1.7592  0.1992  0.2448
 5753SOL     OW28894   1.332   1.104   4.178  0.1349  0.6908  0.4117
 5753SOL    HW128895   1.291   1.129   4.260  2.0241 -0.8728  1.8448
 5753SOL    HW228896   1.398   1.172   4.169  0.3449  0.6615  1.7112
 5754SOL     OW28897   2.788   0.166   5.115 -0.2790  0.3726  0.1252
 5754SOL    HW128898   2.761   0.075   5.104  1.6201  0.1822 -3.0652
 5754SOL    HW228899   2.722   0.195   5.178 -0.5764  2.3316 -1.0716
 5755SOL     OW28900   2.865   3.093   4.126  0.0951  0.6261  0.0321
 5755SOL    HW128901   2.779   3.122   4.094  0.1357  2.1940  1.3208
 5755SOL    HW228902   2.842   3.028   4.192  1.2481  0.6262  0.4422
 5756SOL     OW28903   1.928   2.489   1.211 -0.0896  0.2261  0.5805
 5756SOL    HW128904   1.935   2.461   1.120  0.3027 -1.3722  1.1160
 5756SOL    HW228905   1.883   2.412   1.246 -1.2943  0.4449 -0.4643
 5757SOL     OW28906   3.224   4.203   2.890 -1.0454  0.1548 -0.4971
 5757SOL    HW128907   3.203   4.159   2.808 -1.9048  0.0285 -0.2096
 5757SOL    HW228908   3.152   4.158   2.935 -0.1046 -1.4544 -0.6098
 5758SOL     OW28909   4.267   3.059   4.897 -0.2727  0.0383  0.1120
 5758SOL    HW128910   4.250   2.983   4.841  0.4870 -0.8612  1.0998
 5758SOL    HW228911   4.339   3.016   4.943 -0.6824 -0.4384  0.3094
 5759SOL     OW28912   3.488   0.989   6.804  0.4595  0.0457 -0.0937
 5759SOL    HW128913   3.566   1.041   6.784  1.4315 -1.2111  0.4692
 5759SOL    HW228914   3.532   0.921   6.855 -0.2731 -1.0966 -0.9646
 5760SOL     OW28915   2.645   3.250   7.998 -0.0801  0.3670 -0.4318
 5760SOL    HW128916   2.677   3.183   8.058  0.3948  1.7357  0.8402
 5760SOL    HW228917   2.611   3.196   7.927 -0.2873  0.1260 -0.1471
 5761SOL     OW28918   1.709   0.781   7.956 -0.3764  0.0714  0.0478
 5761SOL    HW128919   1.687   0.707   7.898  0.9252  0.1437 -0.5555
 5761SOL    HW228920   1.621   0.803   7.985  0.0985  1.9212  0.0879
 5762SOL     OW28921   0.556   0.388   2.916 -0.3681  0.3266  0.2120
 5762SOL    HW128922   0.589   0.391   3.005  0.8397  3.8876 -0.3606
 5762SOL    HW228923   0.560   0.482   2.897  1.4549  0.0207 -0.9220
 5763SOL     OW28924   4.145   0.854   0.759  0.1452 -0.0353 -0.1053
 5763SOL    HW128925   4.217   0.791   0.768  0.6220  0.5176 -0.0626
 5763SOL    HW228926   4.113   0.863   0.849 -0.4263  0.7222 -0.3830
 5764SOL     OW28927   4.343   4.404   8.336 -0.6244 -0.4557 -0.4007
 5764SOL    HW128928   4.256   4.442   8.326 -0.2496  0.7054  0.8308
 5764SOL    HW228929   4.351   4.342   8.264  0.7903 -0.0354 -0.6122
 5765SOL     OW28930   0.607   0.615   6.007  0.2963  0.0656  0.2416
 5765SOL    HW128931   0.648   0.530   6.021 -1.0378 -0.6105 -0.0272
 5765SOL    HW228932   0.671   0.678   6.042 -1.4542  0.1343  3.2761
 5766SOL     OW28933   4.294   2.447  12.403 -0.0014  0.2114 -0.0031
 5766SOL    HW128934   4.354   2.451  12.328  1.1532  0.9903  0.9637
 5766SOL    HW228935   4.352   2.403  12.465 -0.0759  0.6274  0.3627
 5767SOL     OW28936   2.559   2.724   1.611  0.2089 -0.1052 -0.4345
 5767SOL    HW128937   2.593   2.662   1.546  3.7455 -0.2397  1.5263
 5767SOL    HW228938   2.475   2.742   1.570  1.0171  1.5593 -1.3510
 5768SOL     OW28939   1.677   2.210   7.336 -0.4639  0.1020  0.5635
 5768SOL    HW128940   1.678   2.305   7.337  3.3308  0.1121 -3.9623
 5768SOL    HW228941   1.585   2.190   7.320 -0.4626  0.2664  0.3585
 5769SOL     OW28942   1.139   1.547   8.907  0.1620  0.8725  0.4697
 5769SOL    HW128943   1.118   1.481   8.841 -2.0171  0.1403  1.8806
 5769SOL    HW228944   1.226   1.518   8.932  0.0211  1.0520  1.1821
 5770SOL     OW28945   0.591   3.913   4.962 -0.0616  0.0825  0.1946
 5770SOL    HW128946   0.577   4.007   4.970 -0.5643 -0.0908  1.3169
 5770SOL    HW228947   0.498   3.890   4.954  0.0920 -0.1238 -0.9810
 5771SOL     OW28948   0.024   4.739  12.034  0.8979 -0.2250 -0.3797
 5771SOL    HW128949   4.672   4.724  12.030  1.3458 -3.4421  0.5258
 5771SOL    HW228950   0.048   4.674  12.101 -1.4398  0.3678  1.0052
 5772SOL     OW28951   2.294   2.623   3.008  0.1086 -0.1734  0.0325
 5772SOL    HW128952   2.300   2.719   3.010  1.6236 -0.3000  1.1620
 5772SOL    HW228953   2.202   2.600   2.995  0.1036  0.2221 -0.6232
 5773SOL     OW28954   0.857   3.613   3.373 -0.4342 -0.0722  0.2856
 5773SOL    HW128955   0.916   3.680   3.407 -0.7149  0.2568  0.1242
 5773SOL    HW228956   0.794   3.590   3.441 -0.7067  3.1995  1.1257
 5774SOL     OW28957   2.983   2.222   5.048 -0.2078 -0.3412 -0.0993
 5774SOL    HW128958   2.948   2.186   5.130 -0.9714  0.3894 -0.1038
 5774SOL    HW228959   3.059   2.263   5.089 -0.1528  0.0452 -0.5897
 5775SOL     OW28960   3.713   0.675   2.473 -0.0394  0.2664  0.0378
 5775SOL    HW128961   3.650   0.655   2.404  0.3675 -0.4499 -0.1348
 5775SOL    HW228962   3.768   0.596   2.478 -0.7154 -0.2023  0.0383
 5776SOL     OW28963   4.408   0.105   3.184 -0.4800 -0.0639  0.0571
 5776SOL    HW128964   4.316   0.123   3.164 -0.4323  0.7051  0.5201
 5776SOL    HW228965   4.404   0.113   3.279  0.6707 -1.5119  0.2308
 5777SOL     OW28966   0.015   4.062   3.105 -0.1738  0.4274  0.1956
 5777SOL    HW128967   0.014   3.968   3.124 -3.6859  0.6212  0.8948
 5777SOL    HW228968   0.047   4.070   3.015 -1.7590 -1.0041 -0.5082
 5778SOL     OW28969   0.993   3.200  11.152 -0.3936  0.0651  0.0617
 5778SOL    HW128970   0.960   3.242  11.232  0.4285 -0.5599  0.7276
 5778SOL    HW228971   1.055   3.266  11.121  1.2597 -0.7619  1.6235
 5779SOL     OW28972   2.764   0.410   1.997  0.3210  0.0592 -0.4559
 5779SOL    HW128973   2.694   0.475   2.000  1.2024  1.0959 -2.0548
 5779SOL    HW228974   2.717   0.333   2.026  0.6709  0.5428  1.3718
 5780SOL     OW28975   4.046   0.477  10.432  0.1130  0.2884 -0.2756
 5780SOL    HW128976   4.049   0.528  10.351  1.5834  1.3200  0.4530
 5780SOL    HW228977   4.021   0.392  10.394 -1.3158 -0.9760  3.5173
 5781SOL     OW28978   2.434   1.489   8.631 -0.0188 -0.1322  0.2356
 5781SOL    HW128979   2.515   1.505   8.582 -0.5615 -1.9512 -1.2447
 5781SOL    HW228980   2.416   1.575   8.670  1.6369  0.7647 -0.9508
 5782SOL     OW28981   1.872   3.700   5.820  0.4607 -0.3441 -0.1189
 5782SOL    HW128982   1.925   3.620   5.827 -1.2870 -1.4368  0.5681
 5782SOL    HW228983   1.933   3.775   5.821 -1.1916  0.9830  1.0136
 5783SOL     OW28984   1.092   3.336   2.834  0.0904  0.0354 -0.7701
 5783SOL    HW128985   1.108   3.430   2.847  0.6651 -0.0331 -0.9925
 5783SOL    HW228986   0.998   3.343   2.817  0.2459  0.6745 -1.3791
 5784SOL     OW28987   3.793   2.187   8.829 -0.2865  0.0929  0.0580
 5784SOL    HW128988   3.726   2.122   8.850  0.4140 -0.6668 -0.0751
 5784SOL    HW228989   3.747   2.264   8.863 -0.3461 -0.6057  1.5614
 5785SOL     OW28990   1.740   3.394   2.526 -0.1002  0.3563 -0.1720
 5785SOL    HW128991   1.713   3.486   2.528  1.0887  0.6746  0.8811
 5785SOL    HW228992   1.665   3.351   2.567 -1.0229  2.2288  0.0924
 5786SOL     OW28993   2.043   4.161   4.225 -0.0970 -0.5639 -0.0312
 5786SOL    HW128994   2.027   4.124   4.138  1.4707 -1.5927  0.1193
 5786SOL    HW228995   2.007   4.248   4.209  1.1861  0.1626  1.0379
 5787SOL     OW28996   1.960   1.161   2.626 -0.7346 -0.2678 -0.7493
 5787SOL    HW128997   2.039   1.208   2.650 -0.6794 -0.5459 -0.3748
 5787SOL    HW228998   1.999   1.073   2.620 -1.0426 -0.4094 -0.7129
 5788SOL     OW28999   3.866   1.343   3.877 -0.5184  0.1979 -0.1864
 5788SOL    HW129000   3.944   1.384   3.839 -0.3088  1.8932  2.1150
 5788SOL    HW229001   3.813   1.347   3.797 -0.2859 -1.2937 -0.4299
 5789SOL     OW29002   0.065   1.876  11.135  0.3141  0.1484 -0.1893
 5789SOL    HW129003   0.032   1.804  11.189  0.5909  1.3912  1.6493
 5789SOL    HW229004   4.724   1.916  11.109  0.2430 -0.4861 -0.9454
 5790SOL     OW29005   1.717   2.045  15.388 -0.6043  0.1504  0.0925
 5790SOL    HW129006   1.756   2.083  15.467 -1.9835  0.5893  0.5671
 5790SOL    HW229007   1.622   2.034  15.399 -0.4342  0.1103  1.4612
 5791SOL     OW29008   0.494   1.833   1.828 -0.2802  0.2876  0.2723
 5791SOL    HW129009   0.511   1.844   1.922  3.9400 -1.4942 -0.2853
 5791SOL    HW229010   0.431   1.904   1.816  0.8361  1.1988 -0.1137
 5792SOL     OW29011   0.817   2.185   0.356  0.1089 -0.2935 -0.2978
 5792SOL    HW129012   0.825   2.091   0.341 -1.9675 -0.5966  0.6018
 5792SOL    HW229013   0.910   2.202   0.339  0.2045 -0.8053 -0.3085
 5793SOL     OW29014   1.672   4.323   8.020 -0.0213  0.8435 -0.6055
 5793SOL    HW129015   1.744   4.295   7.963 -0.1843 -3.9185  1.5519
 5793SOL    HW229016   1.599   4.274   7.980  0.1282 -0.4671  0.6992
 5794SOL     OW29017   3.247   3.189   5.133  0.7310 -0.4196  0.2814
 5794SOL    HW129018   3.339   3.202   5.154  0.1902  3.0354  0.4418
 5794SOL    HW229019   3.203   3.204   5.217 -0.3321  0.0051 -0.3554
 5795SOL     OW29020   2.853   1.417   5.862 -0.6845  0.1532 -0.1665
 5795SOL    HW129021   2.937   1.462   5.862 -0.1386 -0.8717  1.2578
 5795SOL    HW229022   2.870   1.331   5.901  0.7081 -0.3593 -1.9380
 5796SOL     OW29023   0.006   3.419  11.951 -0.2078  0.4613 -0.3103
 5796SOL    HW129024   0.001   3.332  11.911  3.0371 -0.0323  0.3986
 5796SOL    HW229025   4.655   3.431  11.969  0.0667  0.2904  1.2026
 5797SOL     OW29026   4.036   0.737  15.222 -0.1118 -0.2166 -0.3964
 5797SOL    HW129027   4.089   0.659  15.206 -2.1608 -1.5590 -0.6715
 5797SOL    HW229028   4.064   0.751  15.312 -0.1747 -1.5544 -0.1665
 5798SOL     OW29029   4.230   4.373  15.305  0.6904 -0.1877  0.4040
 5798SOL    HW129030   4.177   4.327  15.370 -1.3762  0.0877 -1.0919
 5798SOL    HW229031   4.266   4.305  15.248 -1.2849 -1.3616  0.5703
 5799SOL     OW29032   2.251   4.026   7.663 -0.2460 -0.1067  0.3518
 5799SOL    HW129033   2.170   3.976   7.652 -0.3447  0.1048  0.1370
 5799SOL    HW229034   2.295   3.970   7.727  1.1199  1.8839  1.1519
 5800SOL     OW29035   1.372   4.317   7.268 -0.0765 -0.3019 -0.5074
 5800SOL    HW129036   1.317   4.239   7.265 -1.9171  1.1438 -3.7745
 5800SOL    HW229037   1.321   4.376   7.324  1.3629 -0.1605  0.6433
 5801SOL     OW29038   3.729   4.334   7.359 -0.3001  0.0529 -0.1106
 5801SOL    HW129039   3.821   4.308   7.361 -0.3608 -0.1695 -0.1137
 5801SOL    HW229040   3.698   4.291   7.439 -0.4563  0.0683 -0.1631
 5802SOL     OW29041   3.377   1.663  16.825  0.0721 -0.3800 -0.1505
 5802SOL    HW129042   3.319   1.616  16.765  0.3985 -1.5265  0.4375
 5802SOL    HW229043   3.411   1.731  16.766 -1.4553  0.5844  0.0803
 5803SOL     OW29044   4.736   1.045  10.260  0.2826  0.4454 -0.0666
 5803SOL    HW129045   4.741   1.133  10.223 -0.4933  0.4126 -0.2461
 5803SOL    HW229046   4.679   1.004  10.195 -0.7290  1.1013  0.4113
 5804SOL     OW29047   0.311   4.665   4.265 -0.1526  0.3654 -0.8723
 5804SOL    HW129048   0.283   0.013   4.277 -2.6083 -0.5251  0.1026
 5804SOL    HW229049   0.237   4.621   4.223 -0.6032  0.7932 -0.5401
 5805SOL     OW29050   2.145   0.247   6.226 -0.2878 -0.2282  0.0266
 5805SOL    HW129051   2.071   0.296   6.263  1.8897  1.5910  1.9233
 5805SOL    HW229052   2.213   0.251   6.293 -0.9108 -0.9784  0.7097
 5806SOL     OW29053   2.215   0.224   6.564 -0.3569 -0.6411  1.0650
 5806SOL    HW129054   2.243   0.315   6.557 -1.3904 -0.1657  3.1014
 5806SOL    HW229055   2.285   0.179   6.517  0.5615  1.0675  0.8150
 5807SOL     OW29056   2.875   1.970   7.892  0.2771  0.0992  0.1269
 5807SOL    HW129057   2.798   1.926   7.856  1.5381 -0.5526 -1.7688
 5807SOL    HW229058   2.941   1.926   7.838 -0.5727 -1.6248  0.4939
 5808SOL     OW29059   3.084   0.460   4.300 -0.0918 -0.3606  0.2039
 5808SOL    HW129060   3.130   0.517   4.361 -2.3279  0.0294  1.5013
 5808SOL    HW229061   3.041   0.525   4.244 -1.2727 -2.1086 -0.9426
 5809SOL     OW29062   4.418   0.780   7.119  0.0234  0.6791 -0.2061
 5809SOL    HW129063   4.359   0.827   7.060  0.8425  0.9372 -0.8141
 5809SOL    HW229064   4.501   0.788   7.073 -0.7886 -2.0079 -2.1247
 5810SOL     OW29065   1.869   4.359   2.073 -0.6931  0.5541 -0.1338
 5810SOL    HW129066   1.811   4.381   2.146  1.5636  2.2339  1.1495
 5810SOL    HW229067   1.874   4.264   2.082  0.7797  0.5687 -0.7446
 5811SOL     OW29068   4.003   1.498   1.736  0.0214 -0.5263 -0.3657
 5811SOL    HW129069   3.992   1.477   1.829  0.6356 -1.4372 -0.4999
 5811SOL    HW229070   4.095   1.523   1.736 -0.2873  0.5939 -0.0335
 5812SOL     OW29071   3.441   1.005  16.820 -0.0889  0.7959 -0.2622
 5812SOL    HW129072   3.401   1.051  16.894 -0.5235  4.1097 -2.5761
 5812SOL    HW229073   3.406   0.916  16.825  0.9936  0.3420 -0.9765
 5813SOL     OW29074   3.513   2.390   8.440  0.4899 -0.1680 -0.0690
 5813SOL    HW129075   3.568   2.459   8.404 -0.5065 -0.5198 -2.2577
 5813SOL    HW229076   3.452   2.447   8.487  1.8828  1.8029 -0.6896
 5814SOL     OW29077   4.294   2.339   0.235 -0.5630 -0.4028 -0.3344
 5814SOL    HW129078   4.286   2.418   0.288 -1.1705 -1.9902  1.9527
 5814SOL    HW229079   4.231   2.274   0.267 -1.1066  0.5672  0.5609
 5815SOL     OW29080   4.218   0.273   3.957 -0.2685  0.3255  0.0220
 5815SOL    HW129081   4.128   0.303   3.969 -0.4302  0.1514 -0.7073
 5815SOL    HW229082   4.264   0.356   3.968  0.9695 -0.4449  0.6757
 5816SOL     OW29083   3.558   2.046  12.957 -0.2346  0.1112  0.2543
 5816SOL    HW129084   3.645   2.069  12.990  0.6576 -1.9729 -0.6018
 5816SOL    HW229085   3.517   2.132  12.951 -1.4070 -0.3879  1.0727
 5817SOL     OW29086   4.296   4.359   1.777 -0.5810  0.3043 -0.1712
 5817SOL    HW129087   4.260   4.316   1.855  0.1055 -1.3040 -0.7530
 5817SOL    HW229088   4.279   4.292   1.710 -0.8344 -0.1559  0.3469
 5818SOL     OW29089   2.798   4.332   7.332 -0.0391 -0.2965 -0.0953
 5818SOL    HW129090   2.746   4.252   7.339 -0.1816 -0.2622 -0.7971
 5818SOL    HW229091   2.731   4.398   7.351 -0.9143 -1.5725  1.2457
 5819SOL     OW29092   4.210   3.261   3.580  0.0796  0.4193  0.6413
 5819SOL    HW129093   4.260   3.182   3.563  0.5085  0.5649  1.2142
 5819SOL    HW229094   4.188   3.253   3.673  3.2235  0.6582  1.3960
 5820SOL     OW29095   2.169   0.507   8.524  0.4920 -0.5406 -0.2058
 5820SOL    HW129096   2.193   0.445   8.456  1.7861  0.0535 -0.2879
 5820SOL    HW229097   2.224   0.472   8.594 -0.5064  0.4037  1.0541
 5821SOL     OW29098   0.988   3.060  16.646 -0.6054  0.2817 -0.3820
 5821SOL    HW129099   0.919   3.126  16.635  1.5761  2.5187 -0.5022
 5821SOL    HW229100   1.003   3.034  16.555 -2.4920  0.5251 -0.7555
 5822SOL     OW29101   1.790   3.889   6.144  0.0426 -0.1013 -0.5345
 5822SOL    HW129102   1.760   3.925   6.227  1.4935 -1.1339  0.4499
 5822SOL    HW229103   1.711   3.836   6.131 -0.1406 -0.3854  1.8010
 5823SOL     OW29104   3.690   3.639  12.917  0.5371 -0.4011  0.1529
 5823SOL    HW129105   3.756   3.578  12.884  1.2195  0.9429 -0.9406
 5823SOL    HW229106   3.626   3.577  12.952  1.6406 -2.5842 -1.6655
 5824SOL     OW29107   1.705   2.603   1.990  0.5520  0.2006 -0.0444
 5824SOL    HW129108   1.660   2.682   2.021  1.5710  0.5599  0.5047
 5824SOL    HW229109   1.648   2.531   2.019  0.1012  0.5210 -0.1337
 5825SOL     OW29110   2.374   1.917   1.509  0.0664 -0.5021 -0.0859
 5825SOL    HW129111   2.436   1.890   1.576 -0.3276  3.2942  1.8274
 5825SOL    HW229112   2.390   2.011   1.525 -0.3751 -0.7896  2.1117
 5826SOL     OW29113   3.194   2.570  10.561 -0.4343  0.3310  0.3317
 5826SOL    HW129114   3.274   2.620  10.578 -0.5905  0.8057 -0.3316
 5826SOL    HW229115   3.232   2.508  10.498  1.6443  0.8502  1.0831
 5827SOL     OW29116   2.522   0.514   9.108 -0.6528 -0.0882  0.4160
 5827SOL    HW129117   2.436   0.555   9.120 -0.4674  0.7064 -0.9361
 5827SOL    HW229118   2.503   0.424   9.133 -2.2463  0.0371 -0.3342
 5828SOL     OW29119   0.692   0.377   7.797 -0.2158  0.0177  0.7098
 5828SOL    HW129120   0.752   0.445   7.830 -0.9202 -0.2878  2.6206
 5828SOL    HW229121   0.719   0.305   7.853 -1.0475 -0.6509  0.2404
 5829SOL     OW29122   3.101   2.159  10.402 -0.0760  0.1340  0.0070
 5829SOL    HW129123   3.012   2.175  10.369 -0.0864 -1.6916 -0.8070
 5829SOL    HW229124   3.149   2.236  10.370  0.7721 -0.7419 -0.7930
 5830SOL     OW29125   0.070   0.845   1.658  0.0443 -0.4956 -0.6067
 5830SOL    HW129126   0.006   0.804   1.601 -2.3484  2.1601  0.1690
 5830SOL    HW229127   0.111   0.908   1.599  0.6108 -0.2876  0.0123
 5831SOL     OW29128   0.071   1.465   6.742  0.1970  0.0379 -0.2211
 5831SOL    HW129129   0.061   1.439   6.650 -2.4476 -1.0485  0.3739
 5831SOL    HW229130   0.041   1.556   6.739  0.0818  0.0240  0.6826
 5832SOL     OW29131   1.665   2.035   8.080 -0.3115  0.0806 -0.1842
 5832SOL    HW129132   1.576   2.023   8.113  0.0048 -1.3748  0.1411
 5832SOL    HW229133   1.711   2.054   8.162 -1.0377 -2.6207  0.8561
 5833SOL     OW29134   1.649   3.136  11.605  0.3494 -0.0780  0.0013
 5833SOL    HW129135   1.690   3.149  11.520 -1.1449  0.9465 -0.5563
 5833SOL    HW229136   1.701   3.186  11.668  0.2122 -1.7659  1.4581
 5834SOL     OW29137   3.313   0.509   2.887 -0.1554  0.1847 -0.0514
 5834SOL    HW129138   3.377   0.553   2.832 -2.0367  0.3768 -2.0735
 5834SOL    HW229139   3.366   0.443   2.934  1.9129  0.8533 -1.4228
 5835SOL     OW29140   3.654   3.071   7.515 -0.1399 -0.4720  0.2775
 5835SOL    HW129141   3.711   3.027   7.452 -1.1490 -0.7808 -0.4283
 5835SOL    HW229142   3.617   2.991   7.552 -0.0667 -0.1786  0.9977
 5836SOL     OW29143   3.843   2.635   7.396  0.0586  0.4409 -0.6524
 5836SOL    HW129144   3.841   2.608   7.304 -0.8503  0.6187 -0.6782
 5836SOL    HW229145   3.899   2.566   7.432 -1.3188 -0.2451  0.1807
 5837SOL     OW29146   0.989   1.599   5.471 -0.8489 -0.4144 -0.1113
 5837SOL    HW129147   0.982   1.549   5.552 -2.8267  1.6079  0.9663
 5837SOL    HW229148   1.017   1.534   5.407  0.7247  1.3580 -1.1961
 5838SOL     OW29149   3.840   4.206  13.926  0.1901  0.2894  0.5851
 5838SOL    HW129150   3.772   4.274  13.924  0.2199  0.3142  0.3797
 5838SOL    HW229151   3.800   4.129  13.885  1.2432  0.9474 -1.7157
 5839SOL     OW29152   1.486   2.417   2.024  0.2171 -0.0240 -0.2209
 5839SOL    HW129153   1.398   2.453   2.042  0.6618  0.7330  0.4387
 5839SOL    HW229154   1.505   2.374   2.107 -1.2146 -1.6068 -0.7204
 5840SOL     OW29155   0.180   3.511  11.764  0.4252 -0.4582 -0.0139
 5840SOL    HW129156   0.109   3.489  11.824  1.6775  0.2381  1.7326
 5840SOL    HW229157   0.220   3.589  11.802  1.2657 -1.0893  0.4028
 5841SOL     OW29158   4.504   2.250  13.283 -0.0784 -0.0629  0.0342
 5841SOL    HW129159   4.471   2.190  13.217 -1.6248  2.1058 -1.1892
 5841SOL    HW229160   4.456   2.331  13.262  0.8695  0.6472  0.5781
 5842SOL     OW29161   0.670   3.671   5.538  0.4444  0.0611  0.4761
 5842SOL    HW129162   0.623   3.753   5.520  3.5013  1.7830  0.2458
 5842SOL    HW229163   0.611   3.635   5.604  1.5547 -0.7295  1.0331
 5843SOL     OW29164   4.212   3.815   4.060 -0.3234  0.2304  0.2014
 5843SOL    HW129165   4.306   3.810   4.048 -0.2412  0.9365  0.5772
 5843SOL    HW229166   4.183   3.762   3.986 -0.8238  2.7215 -1.3942
 5844SOL     OW29167   4.326   3.589   9.656  0.1062  0.3730  0.3061
 5844SOL    HW129168   4.257   3.652   9.637 -0.6823 -0.0812  1.6896
 5844SOL    HW229169   4.322   3.579   9.751 -0.0024 -1.1827  0.1391
 5845SOL     OW29170   4.633   0.292   5.818 -0.3001 -0.0063 -0.2249
 5845SOL    HW129171   4.557   0.272   5.763 -1.0373 -0.1804  0.8582
 5845SOL    HW229172   4.589   0.368   5.855  0.4167  0.2668  0.0701
 5846SOL     OW29173   3.774   2.635   8.857  0.2878  0.2513  0.6772
 5846SOL    HW129174   3.744   2.689   8.930 -0.6830  1.3456 -0.5326
 5846SOL    HW229175   3.859   2.604   8.886 -0.9746 -1.3011  2.6920
 5847SOL     OW29176   1.917   2.191  14.297  0.4286  0.2378  0.0642
 5847SOL    HW129177   1.859   2.117  14.283  0.3045  0.4650 -0.6519
 5847SOL    HW229178   1.938   2.219  14.207 -1.6602  0.3331 -0.3926
 5848SOL     OW29179   4.103   4.722  15.213  0.2091 -0.5594 -0.6757
 5848SOL    HW129180   4.183   4.714  15.265 -1.0223 -0.9567  1.1769
 5848SOL    HW229181   4.090   0.073  15.229 -0.6601 -1.0936  1.7887
 5849SOL     OW29182   4.610   0.275   5.007 -0.6021 -0.4222 -0.4662
 5849SOL    HW129183   4.524   0.255   4.971  0.4340 -4.4444 -0.6991
 5849SOL    HW229184   4.587   0.307   5.094 -1.4316  0.6516 -1.0763
 5850SOL     OW29185   0.660   4.226  16.232 -0.2894  0.2621 -0.5885
 5850SOL    HW129186   0.602   4.156  16.201 -0.9439  0.9758 -0.9691
 5850SOL    HW229187   0.599   4.291  16.266 -2.5343 -2.9416  1.5898
 5851SOL     OW29188   1.415   1.995   9.564 -0.6296 -0.5761  0.4991
 5851SOL    HW129189   1.436   1.984   9.656  1.3850 -0.7565  0.0064
 5851SOL    HW229190   1.345   2.060   9.562  0.9880  1.2011  1.4727
 5852SOL     OW29191   0.317   1.536  13.932 -0.0903 -0.1841  0.2020
 5852SOL    HW129192   0.287   1.609  13.986  0.9082  1.8187 -1.9516
 5852SOL    HW229193   0.247   1.471  13.937 -1.7363  1.3766 -3.0563
 5853SOL     OW29194   2.477   2.826   8.014  0.1847 -0.2080  0.2239
 5853SOL    HW129195   2.452   2.878   7.937 -0.0197 -0.8166 -0.1236
 5853SOL    HW229196   2.421   2.749   7.998  2.4075 -1.4594 -1.4546
 5854SOL     OW29197   0.869   0.305   1.711  0.3619  0.3493  0.4317
 5854SOL    HW129198   0.928   0.292   1.784 -0.3102 -1.5550  0.6414
 5854SOL    HW229199   0.791   0.322   1.763 -1.2077 -0.1701 -1.7342
 5855SOL     OW29200   2.889   1.854   6.044  0.2252 -0.8111 -0.0976
 5855SOL    HW129201   2.949   1.836   5.972  0.8899  1.1383 -0.0089
 5855SOL    HW229202   2.868   1.770   6.087 -0.8564  0.1013  1.1764
 5856SOL     OW29203   2.030   1.208   7.436 -0.2417  0.2307 -0.0189
 5856SOL    HW129204   2.109   1.219   7.383 -1.6600 -0.2528 -2.2255
 5856SOL    HW229205   2.070   1.175   7.517 -0.0706 -2.9933 -1.4080
 5857SOL     OW29206   2.214   2.700  14.355  0.5174 -0.6882  0.1013
 5857SOL    HW129207   2.231   2.607  14.339 -1.9481 -0.7125 -2.2660
 5857SOL    HW229208   2.143   2.687  14.418 -0.7599 -0.0990 -1.2324
 5858SOL     OW29209   3.998   2.864   7.726  0.3125  0.8394  0.2976
 5858SOL    HW129210   4.073   2.837   7.673 -0.2040 -0.9151  0.4428
 5858SOL    HW229211   4.004   2.808   7.804 -3.4572  0.0426  0.0266
 5859SOL     OW29212   0.790   1.801   3.188 -0.8252 -0.5449  0.1873
 5859SOL    HW129213   0.756   1.816   3.100  0.3865  0.8216 -0.0447
 5859SOL    HW229214   0.735   1.858   3.242  0.6523  2.6549 -1.6937
 5860SOL     OW29215   1.701   2.145   5.103  0.3900 -0.1054  0.2449
 5860SOL    HW129216   1.703   2.181   5.014 -0.2053  0.0741  0.3069
 5860SOL    HW229217   1.611   2.126   5.126  0.5753 -1.4862 -0.1642
 5861SOL     OW29218   4.652   1.791   2.277 -0.1471  0.1804  0.1119
 5861SOL    HW129219   4.578   1.731   2.266  0.8087 -1.1683  0.9750
 5861SOL    HW229220   4.614   1.870   2.316  1.8184 -0.3069  3.0565
 5862SOL     OW29221   0.902   0.212  15.216  0.2227 -0.0701  0.2213
 5862SOL    HW129222   0.833   0.151  15.187  1.3905 -0.2854 -2.0727
 5862SOL    HW229223   0.852   0.284  15.255 -3.4255 -1.2904 -2.2161
 5863SOL     OW29224   4.017   4.155  17.442  0.8292  0.3536 -0.1099
 5863SOL    HW129225   4.097   4.105  17.456  0.2961 -0.2378  0.8522
 5863SOL    HW229226   4.046   4.223  17.381  1.1923 -0.8882 -1.3256
 5864SOL     OW29227   3.815   0.835   3.957  0.1734 -0.0743  0.1076
 5864SOL    HW129228   3.796   0.741   3.963 -4.6315  0.8450 -1.0245
 5864SOL    HW229229   3.836   0.845   3.865 -0.3714 -2.3996 -0.2835
 5865SOL     OW29230   2.186   3.269  11.062 -0.1021 -0.3100  0.2438
 5865SOL    HW129231   2.106   3.280  11.011 -0.8706 -0.3198  1.4615
 5865SOL    HW229232   2.159   3.235  11.147 -0.6728 -3.0867 -1.0345
 5866SOL     OW29233   0.760   0.826   2.485 -0.4533  0.2755 -0.5717
 5866SOL    HW129234   0.840   0.822   2.433 -1.3303 -0.9383 -1.8421
 5866SOL    HW229235   0.771   0.912   2.525 -1.1661  1.3068 -2.5356
 5867SOL     OW29236   0.138   0.606  10.806 -0.1464  0.1322 -0.4374
 5867SOL    HW129237   0.066   0.544  10.814  1.2495 -1.2403  1.5540
 5867SOL    HW229238   0.083   0.678  10.840  1.8646  2.0713 -1.2925
 5868SOL     OW29239   2.765   3.211  17.167  0.1042  0.3371  0.0533
 5868SOL    HW129240   2.731   3.170  17.246  1.6379  1.4726  1.2798
 5868SOL    HW229241   2.721   3.296  17.173 -2.4116 -1.0261  1.0584
 5869SOL     OW29242   2.003   0.229   2.819 -0.0175  0.3540  0.1691
 5869SOL    HW129243   2.087   0.270   2.802 -1.5876  2.8791 -1.5760
 5869SOL    HW229244   1.953   0.217   2.738  0.6253  1.3157 -0.3585
 5870SOL     OW29245   2.360   4.466   8.459 -0.5088  0.5714 -0.0593
 5870SOL    HW129246   2.310   4.525   8.515 -1.9296  0.2650 -0.9932
 5870SOL    HW229247   2.434   4.432   8.509 -1.3564 -1.1998 -0.0084
 5871SOL     OW29248   1.331   3.410   5.630  0.1440  0.0555 -0.6399
 5871SOL    HW129249   1.246   3.419   5.672 -1.0791 -0.0019 -3.0681
 5871SOL    HW229250   1.355   3.503   5.626  0.3650 -0.0400 -1.7601
 5872SOL     OW29251   3.050   0.914   2.980 -0.3817 -0.5109 -0.3510
 5872SOL    HW129252   2.956   0.896   2.985 -0.1041 -2.0162 -0.5153
 5872SOL    HW229253   3.089   0.829   2.962 -0.0930 -0.3483 -0.4933
 5873SOL     OW29254   4.215   4.217   4.047 -0.1264 -0.0549 -0.4408
 5873SOL    HW129255   4.195   4.182   4.134 -0.1802 -0.6932 -0.7156
 5873SOL    HW229256   4.197   4.311   4.048  1.2587  0.1920  2.3646
 5874SOL     OW29257   1.223   3.534  14.711 -0.1306 -0.4641 -0.0498
 5874SOL    HW129258   1.305   3.489  14.693  0.1125  0.5617 -1.5618
 5874SOL    HW229259   1.171   3.521  14.631  1.5332 -0.5693 -1.1227
 5875SOL     OW29260   2.845   4.385  12.631  0.3501 -0.4299  0.2153
 5875SOL    HW129261   2.904   4.402  12.559  1.2863 -0.4942  0.9673
 5875SOL    HW229262   2.767   4.343  12.595 -0.9659  1.7157  0.5127
 5876SOL     OW29263   3.864   0.145   5.898 -0.2460  0.0579  0.3383
 5876SOL    HW129264   3.812   0.078   5.853 -0.4545 -0.0937  0.8038
 5876SOL    HW229265   3.947   0.112   5.864  0.0373  0.5251  0.5839
 5877SOL     OW29266   3.059   1.079   0.166  0.0505 -0.0788  0.0483
 5877SOL    HW129267   2.973   1.075   0.126 -1.2502 -3.2055  3.0919
 5877SOL    HW229268   3.048   1.153   0.225 -2.1288  0.0827 -0.5900
 5878SOL     OW29269   2.885   3.666   4.110  0.8020  0.3092  0.2403
 5878SOL    HW129270   2.903   3.573   4.124  0.3210  0.2079  0.1711
 5878SOL    HW229271   2.971   3.709   4.107  1.1344 -0.3967 -0.3954
 5879SOL     OW29272   2.776   1.930   3.786  0.1056  0.1960  0.6671
 5879SOL    HW129273   2.802   2.016   3.820  0.3845 -0.0492  1.0784
 5879SOL    HW229274   2.681   1.936   3.795  0.0448 -1.0400  0.8477
 5880SOL     OW29275   1.767   1.934   7.376 -0.0281 -0.2312  0.3168
 5880SOL    HW129276   1.715   1.932   7.456  1.6550  0.6705  1.4272
 5880SOL    HW229277   1.741   2.021   7.346  2.9801  1.8873  3.8527
 5881SOL     OW29278   3.387   1.470   0.837  0.4793  0.1631 -0.1169
 5881SOL    HW129279   3.356   1.541   0.894 -1.3409  0.5115 -1.5320
 5881SOL    HW229280   3.310   1.413   0.845  1.1767 -0.5417  1.5370
 5882SOL     OW29281   3.065   1.759   4.340 -0.0598  0.1340 -0.8252
 5882SOL    HW129282   3.089   1.687   4.282 -0.4344  1.5751 -2.7820
 5882SOL    HW229283   3.068   1.829   4.275  0.7815  1.5435  0.7556
 5883SOL     OW29284   3.852   4.606   8.924  0.4448 -0.4035  0.0158
 5883SOL    HW129285   3.922   4.577   8.983  0.0401  1.3139  1.3386
 5883SOL    HW229286   3.778   4.593   8.983  0.2035 -0.2578 -0.2526
 5884SOL     OW29287   3.237   4.388   9.788  0.2848  0.0386  0.1081
 5884SOL    HW129288   3.246   4.397   9.693  2.3401  1.7028  0.4627
 5884SOL    HW229289   3.163   4.328   9.791  1.6209 -1.4041  3.4843
 5885SOL     OW29290   3.221   3.104  10.090  0.2686 -0.1669  0.0671
 5885SOL    HW129291   3.139   3.133  10.051 -0.8055 -2.4282  0.6515
 5885SOL    HW229292   3.286   3.125  10.022 -1.0987 -2.0944 -1.8041
 5886SOL     OW29293   0.880   0.680   3.298 -0.3616 -0.6583  0.6158
 5886SOL    HW129294   0.815   0.693   3.368 -0.6680  1.6231 -0.0987
 5886SOL    HW229295   0.962   0.693   3.346  0.5400 -1.9468 -0.5957
 5887SOL     OW29296   0.255   3.447   2.793 -0.1808 -0.1131  0.3647
 5887SOL    HW129297   0.180   3.496   2.829  0.0065  0.5794 -0.1909
 5887SOL    HW229298   0.226   3.461   2.703 -1.7680  0.4916  0.9548
 5888SOL     OW29299   0.461   4.504   0.692 -0.4505  0.2588  0.5563
 5888SOL    HW129300   0.552   4.531   0.676  0.0674 -0.4589  2.2721
 5888SOL    HW229301   0.478   4.448   0.768 -1.0358  0.5630  0.9159
 5889SOL     OW29302   1.460   1.774  15.199  0.1192  0.2112  0.5836
 5889SOL    HW129303   1.387   1.712  15.192  0.0131  0.2498  1.2759
 5889SOL    HW229304   1.408   1.851  15.173  1.0990  0.6524 -0.0564
 5890SOL     OW29305   4.112   2.336  10.022 -0.5384  1.0351  0.0700
 5890SOL    HW129306   4.093   2.290   9.940  0.1647  1.0550 -0.1044
 5890SOL    HW229307   4.190   2.385   9.996 -0.8573  2.0172  0.9684
 5891SOL     OW29308   2.711   0.390  11.756 -0.5031 -0.1977 -0.0689
 5891SOL    HW129309   2.776   0.363  11.820 -1.6900 -0.4245  1.0327
 5891SOL    HW229310   2.741   0.473  11.719  1.5466 -0.2290  1.5194
 5892SOL     OW29311   2.863   0.712  16.095  0.6734 -0.3553  0.6209
 5892SOL    HW129312   2.868   0.678  16.006  2.2848  0.0242  0.5772
 5892SOL    HW229313   2.830   0.630  16.134  1.8437 -0.8443  0.5966
 5893SOL     OW29314   0.842   0.013  16.591 -0.2152 -0.1697 -0.5454
 5893SOL    HW129315   0.773   4.700  16.553  2.0365 -3.9977  0.9072
 5893SOL    HW229316   0.911   4.689  16.587  1.1574  1.1887  0.4885
 5894SOL     OW29317   1.312   0.314   6.778 -0.3981 -0.2139 -0.2865
 5894SOL    HW129318   1.240   0.338   6.836  0.9674 -0.5778  1.5666
 5894SOL    HW229319   1.345   0.230   6.809 -1.7388 -0.1366  1.3157
 5895SOL     OW29320   4.674   2.561   4.926  0.3391 -0.3313  0.4287
 5895SOL    HW129321   0.022   2.538   4.948  0.4674 -1.9199 -1.7448
 5895SOL    HW229322   4.628   2.480   4.949 -0.9193 -0.5559 -2.8797
 5896SOL     OW29323   3.300   1.966  16.624 -0.1524  0.2865  0.1434
 5896SOL    HW129324   3.275   1.925  16.542  3.5512  0.0263 -0.8625
 5896SOL    HW229325   3.348   2.045  16.598 -0.1935 -0.6246 -2.6486
 5897SOL     OW29326   2.599   4.126   8.942 -0.0027 -0.3626  0.1686
 5897SOL    HW129327   2.574   4.216   8.919  1.1132 -0.6141 -1.9865
 5897SOL    HW229328   2.515   4.091   8.971  0.5877 -0.4206  1.8048
 5898SOL     OW29329   0.395   3.516  15.372  0.1834 -0.2949  0.1018
 5898SOL    HW129330   0.329   3.454  15.401  2.2427 -2.6766 -0.2739
 5898SOL    HW229331   0.467   3.474  15.420  0.0285  0.2321  0.8021
 5899SOL     OW29332   1.042   3.481   7.745 -0.6172  0.4972 -0.1113
 5899SOL    HW129333   0.988   3.472   7.824 -1.6827  0.7569 -0.8077
 5899SOL    HW229334   1.037   3.390   7.716 -0.2682  0.6205 -0.5683
 5900SOL     OW29335   2.281   3.179   8.281 -0.2647 -0.4188  0.0409
 5900SOL    HW129336   2.331   3.243   8.331  2.8113 -1.6976 -1.4106
 5900SOL    HW229337   2.194   3.185   8.320  0.0657  0.1953  0.6760
 5901SOL     OW29338   4.121   0.184   5.842  0.6234 -0.8639  0.0733
 5901SOL    HW129339   4.118   0.261   5.899  0.0682  0.1675 -1.3506
 5901SOL    HW229340   4.203   0.146   5.874 -0.3854 -3.8611 -0.8033
 5902SOL     OW29341   0.909   0.117  12.514  0.0538 -0.3210  0.0661
 5902SOL    HW129342   0.958   0.055  12.460  0.4507 -1.5359  1.8169
 5902SOL    HW229343   0.942   0.088  12.599 -0.7241 -1.5880 -0.0627
 5903SOL     OW29344   0.355   3.809   7.891  0.4266 -0.8743 -0.2077
 5903SOL    HW129345   0.375   3.862   7.814 -0.8547 -0.4314 -0.2382
 5903SOL    HW229346   0.420   3.739   7.884 -0.2570 -1.5863  0.6442
 5904SOL     OW29347   0.395   2.014  14.606 -0.0581 -0.6429 -0.4663
 5904SOL    HW129348   0.410   2.106  14.586 -0.5534 -0.4373  0.1106
 5904SOL    HW229349   0.300   2.022  14.602 -0.0854  0.7484  3.2759
 5905SOL     OW29350   1.141   2.795   3.518 -0.2194  0.6177  0.2745
 5905SOL    HW129351   1.199   2.832   3.451 -0.1744  2.9073  1.5812
 5905SOL    HW229352   1.207   2.738   3.555 -1.5010 -0.9529  0.1310
 5906SOL     OW29353   3.862   3.505   8.986 -0.4312 -0.4765  0.5785
 5906SOL    HW129354   3.952   3.500   8.954 -1.2982 -0.5404 -1.8491
 5906SOL    HW229355   3.815   3.501   8.902 -2.8024 -0.6566  1.8975
 5907SOL     OW29356   1.561   2.649   5.118 -0.4672  0.2912  0.0938
 5907SOL    HW129357   1.645   2.675   5.080  0.1640  1.5373  2.3586
 5907SOL    HW229358   1.583   2.557   5.136 -3.0168  0.4735  4.0370
 5908SOL     OW29359   3.375   3.122   7.503  0.1446  0.3391 -0.0423
 5908SOL    HW129360   3.376   3.119   7.598 -2.1455 -0.9218 -0.0512
 5908SOL    HW229361   3.465   3.122   7.471 -0.3890 -3.7688 -1.5383
 5909SOL     OW29362   1.100   4.204   3.008 -0.1068  0.2066 -0.0752
 5909SOL    HW129363   1.130   4.184   2.919  0.3340  2.1697 -0.3784
 5909SOL    HW229364   1.177   4.237   3.054 -0.2697  2.2611 -1.2592
 5910SOL     OW29365   1.033   0.027  12.015  0.5550  0.6689 -0.4610
 5910SOL    HW129366   1.050   0.099  12.075 -0.3872  0.5026  0.0075
 5910SOL    HW229367   0.993   4.707  12.075  2.2826  0.9195  0.9421
 5911SOL     OW29368   1.967   0.847   1.343  0.3861 -0.5073  0.3487
 5911SOL    HW129369   2.053   0.805   1.335 -0.6933 -2.9288  1.3555
 5911SOL    HW229370   1.981   0.932   1.384  0.3179 -0.5757  0.5157
 5912SOL     OW29371   2.216   3.995   4.552 -0.0515  0.2315 -0.2378
 5912SOL    HW129372   2.144   3.955   4.601  2.8263 -1.1883  2.7878
 5912SOL    HW229373   2.291   3.945   4.584 -2.1396 -2.8857 -0.2496
 5913SOL     OW29374   2.116   0.837  14.269  0.0801 -0.1966  0.3430
 5913SOL    HW129375   2.174   0.841  14.345 -0.9304 -0.8269  1.1556
 5913SOL    HW229376   2.089   0.928  14.262 -0.3667 -0.3082  0.6071
 5914SOL     OW29377   0.330   2.151   6.108 -0.3809  0.0677 -0.1674
 5914SOL    HW129378   0.358   2.079   6.051 -1.2379 -0.8707  0.6136
 5914SOL    HW229379   0.238   2.140   6.084 -0.4992 -0.1965  0.4028
 5915SOL     OW29380   0.095   4.630   3.700 -0.3013  0.1714 -0.3536
 5915SOL    HW129381   0.084   4.694   3.771  1.4998 -0.0318  0.1088
 5915SOL    HW229382   0.100   4.550   3.753  1.3762  0.9606  0.7007
 5916SOL     OW29383   0.097   3.523  15.951  0.7160 -0.3054 -0.3376
 5916SOL    HW129384   0.190   3.545  15.948  0.8864 -1.3927 -2.4480
 5916SOL    HW229385   0.081   3.479  15.868  1.4917 -0.9448 -0.1508
 5917SOL     OW29386   3.869   0.300  17.741 -0.0708 -0.1098  0.6197
 5917SOL    HW129387   3.858   0.373  17.680 -3.2516 -0.6927  0.4922
 5917SOL    HW229388   3.788   0.296   0.024  1.2965 -0.3863  2.8481
 5918SOL     OW29389   2.409   3.124   4.938  0.2983 -0.0471  0.2239
 5918SOL    HW129390   2.418   3.211   4.975  0.2468  0.9490 -2.0762
 5918SOL    HW229391   2.437   3.144   4.848  1.0102 -0.0712  0.4417
 5919SOL     OW29392   2.578   0.717   3.738  0.2683  0.1587  0.0886
 5919SOL    HW129393   2.511   0.679   3.680 -0.2042 -1.1473  1.4723
 5919SOL    HW229394   2.518   0.776   3.783 -1.4486 -1.8439  0.4715
 5920SOL     OW29395   0.903   4.739   0.271 -0.5757  0.1008  0.4533
 5920SOL    HW129396   0.915   0.027   0.180 -0.8233  1.4268  0.8693
 5920SOL    HW229397   0.971   0.048   0.315 -1.7920  0.0129  2.3867
 5921SOL     OW29398   1.277   3.726   1.118  0.2861  0.0863  0.6737
 5921SOL    HW129399   1.255   3.654   1.059 -1.3371  1.9306 -0.9265
 5921SOL    HW229400   1.195   3.746   1.164 -0.3131 -1.3851  0.2516
 5922SOL     OW29401   2.547   1.445   7.069 -0.2980  0.2916  0.9859
 5922SOL    HW129402   2.593   1.527   7.051 -1.9357  0.6391 -1.7691
 5922SOL    HW229403   2.458   1.474   7.092 -0.1228  0.7177  1.1329
 5923SOL     OW29404   1.541   3.585   5.190 -0.4400  0.9094 -0.1251
 5923SOL    HW129405   1.524   3.509   5.246  0.8435  0.8110  0.1446
 5923SOL    HW229406   1.598   3.640   5.244  1.2241 -0.3160 -0.6232
 5924SOL     OW29407   1.747   4.473   4.929  0.2294 -0.3648 -0.0675
 5924SOL    HW129408   1.788   4.408   4.987 -0.0644  0.0471  0.6054
 5924SOL    HW229409   1.787   4.549   4.973 -2.9693  1.2457  0.0498
 5925SOL     OW29410   0.931   0.139  14.896 -0.3647  0.4424  0.1739
 5925SOL    HW129411   0.983   0.213  14.927 -0.0303  0.6188 -0.7983
 5925SOL    HW229412   0.872   0.178  14.831 -1.0701  1.8551  1.6714
 5926SOL     OW29413   2.139   3.435   2.020  0.2464 -0.0734  0.4696
 5926SOL    HW129414   2.232   3.434   2.043  0.5775 -0.5241 -0.9212
 5926SOL    HW229415   2.145   3.439   1.925  0.3579  0.1212  0.4848
 5927SOL     OW29416   2.193   4.657   8.586 -0.2813  0.5807  0.3273
 5927SOL    HW129417   2.180   4.682   8.678 -2.3475  0.7158  0.0011
 5927SOL    HW229418   2.113   4.611   8.562  0.5770 -0.8702  0.2421
 5928SOL     OW29419   4.504   2.428  10.007  0.1450  0.3250  0.4023
 5928SOL    HW129420   4.469   2.370   9.939 -0.8072  1.0836  0.2387
 5928SOL    HW229421   4.450   2.507  10.012  0.8438  0.8649 -0.7832
 5929SOL     OW29422   1.270   3.052   7.327  0.1146  0.1121 -0.3973
 5929SOL    HW129423   1.358   3.087   7.344  0.7030 -0.0273 -3.2454
 5929SOL    HW229424   1.273   2.957   7.326  1.0157  0.1421 -0.2620
 5930SOL     OW29425   4.214   1.285   5.081  0.5044 -0.1048  0.3409
 5930SOL    HW129426   4.298   1.306   5.040 -0.1293  1.3344 -0.2212
 5930SOL    HW229427   4.230   1.197   5.115 -2.0915 -0.6053  0.2531
 5931SOL     OW29428   1.511   1.981   1.190  0.2846 -0.2671 -0.1540
 5931SOL    HW129429   1.575   2.033   1.239 -0.4925 -0.6207  1.2532
 5931SOL    HW229430   1.532   2.010   1.102 -0.1187  0.7869  0.1076
 5932SOL     OW29431   2.774   0.993   3.848 -0.0039  0.0810  0.6875
 5932SOL    HW129432   2.718   1.070   3.857 -0.4633 -0.4057  2.0586
 5932SOL    HW229433   2.853   1.031   3.808  1.0391 -3.2574 -0.4190
 5933SOL     OW29434   2.150   2.573   4.339 -0.0999 -0.3796 -0.6003
 5933SOL    HW129435   2.066   2.601   4.373  0.4168  1.1187 -0.5778
 5933SOL    HW229436   2.117   2.527   4.261 -0.2741 -1.7788  0.3069
 5934SOL     OW29437   1.137   0.934   4.035 -0.4815  0.5876 -0.5506
 5934SOL    HW129438   1.069   0.997   4.012 -1.2635  0.1378  0.4951
 5934SOL    HW229439   1.161   0.953   4.125 -0.3139 -1.9951 -0.0257
 5935SOL     OW29440   2.221   0.873   5.442 -0.0941 -0.7741  0.1409
 5935SOL    HW129441   2.272   0.833   5.372 -0.8422  1.3754 -1.6287
 5935SOL    HW229442   2.269   0.832   5.514  0.8087  1.3279  0.7328
 5936SOL     OW29443   0.798   0.890  12.339 -0.2219  0.1913 -0.0072
 5936SOL    HW129444   0.793   0.817  12.401  1.7554  0.7854  0.8158
 5936SOL    HW229445   0.869   0.860  12.281 -2.3601  0.6791 -2.9103
 5937SOL     OW29446   0.957   4.439   5.827  0.6721 -0.5299  0.0067
 5937SOL    HW129447   0.893   4.434   5.756 -0.8485  0.0692  1.3467
 5937SOL    HW229448   0.999   4.353   5.820 -1.6802 -1.6465 -0.4066
 5938SOL     OW29449   1.397   1.839   5.864 -0.3390  0.7155  0.0226
 5938SOL    HW129450   1.350   1.761   5.838  2.0565 -0.7399  0.0399
 5938SOL    HW229451   1.480   1.820   5.820 -1.2362  1.2058 -1.8713
 5939SOL     OW29452   0.123   4.274  11.513 -0.4294  0.2680  0.4665
 5939SOL    HW129453   0.213   4.284  11.484 -1.2730  1.5358 -1.6791
 5939SOL    HW229454   0.101   4.368  11.511 -0.1021  0.3717  1.7960
 5940SOL     OW29455   2.136   3.630   3.473  0.1335 -0.6610  0.0787
 5940SOL    HW129456   2.061   3.649   3.417  0.4598  0.9115  0.1607
 5940SOL    HW229457   2.127   3.543   3.512  0.7723 -1.3077 -1.2240
 5941SOL     OW29458   0.101   4.303  16.721 -0.3003 -0.2002 -0.1115
 5941SOL    HW129459   0.143   4.387  16.737  2.3626 -1.3467 -0.9481
 5941SOL    HW229460   0.023   4.341  16.681  1.2334  2.8681 -0.1735
 5942SOL     OW29461   0.496   2.657   9.302  0.7984 -0.5425  0.4753
 5942SOL    HW129462   0.416   2.661   9.355 -0.0981 -1.7250 -0.7998
 5942SOL    HW229463   0.539   2.580   9.338  1.9833 -0.2196 -0.2786
 5943SOL     OW29464   2.229   2.003  11.569 -0.4195 -0.0814  0.0818
 5943SOL    HW129465   2.212   1.970  11.657 -1.6877 -2.4755 -1.0669
 5943SOL    HW229466   2.141   1.989  11.534 -0.1637  2.0761 -1.4363
 5944SOL     OW29467   2.720   3.125   7.399  0.4220 -0.3697 -0.1971
 5944SOL    HW129468   2.799   3.176   7.382  0.1959 -0.2046 -0.7884
 5944SOL    HW229469   2.714   3.125   7.494  1.0074  0.8705 -0.1701
 5945SOL     OW29470   3.578   1.849  16.421  0.0110  0.4200  0.1099
 5945SOL    HW129471   3.588   1.945  16.419  1.1772  0.2810 -0.4062
 5945SOL    HW229472   3.609   1.841  16.512 -0.4699 -0.6662  0.1791
 5946SOL     OW29473   3.280   1.417   8.917  0.3655 -0.2014  0.5530
 5946SOL    HW129474   3.248   1.470   8.843 -0.2303 -0.2855  0.7485
 5946SOL    HW229475   3.216   1.436   8.986  0.5073 -1.1068  0.9320
 5947SOL     OW29476   2.992   0.478  12.507 -0.1254 -0.2972  0.8991
 5947SOL    HW129477   3.063   0.463  12.569  1.1236  1.3858 -0.1249
 5947SOL    HW229478   3.039   0.544  12.456  0.5613 -0.3499  1.4723
 5948SOL     OW29479   1.554   0.916   5.932  0.0391 -0.0051  0.0261
 5948SOL    HW129480   1.500   0.945   6.005  0.3660  0.6755 -0.0020
 5948SOL    HW229481   1.500   0.852   5.884  1.5264  0.6873 -2.5924
 5949SOL     OW29482   1.816   4.274   9.120  0.2972 -0.0213  0.2282
 5949SOL    HW129483   1.749   4.341   9.110 -0.6216 -1.0111 -0.2399
 5949SOL    HW229484   1.752   4.205   9.139  2.8289 -2.0747  1.2817
 5950SOL     OW29485   0.568   4.516   7.995  0.0943 -0.1985 -0.1251
 5950SOL    HW129486   0.485   4.562   8.011 -1.5714 -2.4749 -2.1379
 5950SOL    HW229487   0.605   4.506   8.083  2.5768 -2.0251 -1.3864
 5951SOL     OW29488   2.359   1.005  14.517 -0.3512  0.0797 -0.1433
 5951SOL    HW129489   2.329   0.915  14.508 -2.1983  0.5563  1.1621
 5951SOL    HW229490   2.280   1.056  14.537  0.7881  1.3687  1.0575
 5952SOL     OW29491   0.858   1.815   1.132 -0.1220 -0.6516  0.2235
 5952SOL    HW129492   0.942   1.850   1.102  0.1572 -1.8048 -0.3637
 5952SOL    HW229493   0.806   1.874   1.078 -0.6007 -2.6840 -1.5294
 5953SOL     OW29494   2.005   0.885  14.720  0.3553 -0.0911 -0.2367
 5953SOL    HW129495   2.063   0.908  14.793  0.2534  1.3473 -0.6154
 5953SOL    HW229496   2.021   0.956  14.658  0.0047 -1.3244 -1.7210
 5954SOL     OW29497   2.351   0.662   8.111 -0.4347  0.2889  0.1521
 5954SOL    HW129498   2.336   0.691   8.201 -2.2998  1.3531 -0.5010
 5954SOL    HW229499   2.265   0.636   8.077 -2.4430  0.7860  4.8168
 5955SOL     OW29500   3.999   3.476  10.199 -0.0566 -0.4992 -0.3002
 5955SOL    HW129501   3.908   3.462  10.224  0.2636 -1.9799  0.0181
 5955SOL    HW229502   4.000   3.567  10.167 -4.4828 -0.6752 -0.9463
 5956SOL     OW29503   1.514   4.679   1.128 -0.2772  0.3351  0.0561
 5956SOL    HW129504   1.433   4.635   1.100 -0.8805  1.8109 -0.5256
 5956SOL    HW229505   1.479   4.720   1.207  0.4365 -0.8590  0.9986
 5957SOL     OW29506   1.116   4.680   0.931 -0.6210 -0.0317 -0.4380
 5957SOL    HW129507   1.182   4.675   1.000 -1.4081  0.3068  0.3363
 5957SOL    HW229508   1.159   4.641   0.854 -0.6063 -1.3590  0.2312
 5958SOL     OW29509   4.664   2.979   2.649 -0.0249 -0.0423  0.7184
 5958SOL    HW129510   4.663   2.888   2.679 -1.5516  0.1955  1.3892
 5958SOL    HW229511   4.658   3.036   2.725  1.5742 -0.2402  0.9939
 5959SOL     OW29512   2.102   4.555   8.230  0.6644  0.5403 -0.2189
 5959SOL    HW129513   2.140   4.472   8.202  2.8684  1.4608  0.0283
 5959SOL    HW229514   2.036   4.524   8.292 -1.0561  0.2360 -2.2005
 5960SOL     OW29515   2.416   2.911  13.613  0.0178 -0.1471 -0.1381
 5960SOL    HW129516   2.373   2.948  13.690  0.3806  1.0501 -0.5120
 5960SOL    HW229517   2.501   2.953  13.626 -1.0398  1.9995 -0.1653
 5961SOL     OW29518   3.643   1.779   6.640  0.3876  0.3400 -0.4580
 5961SOL    HW129519   3.630   1.691   6.603  1.3102  0.2930 -0.6577
 5961SOL    HW229520   3.697   1.824   6.576 -0.4168  2.5365  0.4020
 5962SOL     OW29521   3.023   0.023   5.845  0.3650 -0.3131  0.0541
 5962SOL    HW129522   3.078   0.062   5.777  1.0429 -1.0362  0.1893
 5962SOL    HW229523   3.083   0.014   5.919  0.6287 -2.3567 -0.4135
 5963SOL     OW29524   3.355   0.035   1.983  0.1187  0.2305 -0.1107
 5963SOL    HW129525   3.398   0.118   1.964  1.1778 -0.0883  0.8666
 5963SOL    HW229526   3.396   0.010   2.066  1.0483  1.1942 -0.2903
 5964SOL     OW29527   2.165   2.499   8.162  0.0577 -0.2674 -0.0883
 5964SOL    HW129528   2.167   2.446   8.242  1.1317 -0.7742 -0.4453
 5964SOL    HW229529   2.096   2.458   8.110  0.4639  1.8776 -2.2964
 5965SOL     OW29530   0.618   0.091   8.503 -0.9157  0.1005 -0.0435
 5965SOL    HW129531   0.561   0.159   8.468 -0.2427 -0.2759 -1.8679
 5965SOL    HW229532   0.568   0.010   8.489  1.3834 -1.7852  2.5729
 5966SOL     OW29533   4.487   2.020   1.593  0.7006  0.5602  0.0784
 5966SOL    HW129534   4.517   1.965   1.665  0.1462 -0.1092 -0.2137
 5966SOL    HW229535   4.547   2.005   1.520  1.4672  1.1171  0.5886
 5967SOL     OW29536   2.244   0.176  14.949  0.4739  0.0389  0.4877
 5967SOL    HW129537   2.179   0.246  14.960  0.0288 -0.3691  0.4288
 5967SOL    HW229538   2.234   0.153  14.857 -1.5508 -0.6464  0.8851
 5968SOL     OW29539   1.366   1.549   7.082 -0.0374 -0.0591 -0.0834
 5968SOL    HW129540   1.367   1.626   7.025  1.3951 -0.9448 -1.2798
 5968SOL    HW229541   1.418   1.573   7.159  1.1720  0.4279 -1.0526
 5969SOL     OW29542   4.714   3.847  13.127  0.4194  0.5885 -0.1053
 5969SOL    HW129543   0.042   3.785  13.146 -2.7323 -2.1659  2.5440
 5969SOL    HW229544   4.685   3.883  13.211 -0.1655  0.0645 -0.0862
 5970SOL     OW29545   4.369   3.337   6.432  0.3966 -0.4502 -0.2502
 5970SOL    HW129546   4.303   3.315   6.498  0.6802  1.8486  0.8009
 5970SOL    HW229547   4.438   3.388   6.474 -0.3085  0.0817  0.2683
 5971SOL     OW29548   4.035   1.024   6.211 -0.5662  0.3139  0.2379
 5971SOL    HW129549   4.124   0.993   6.197 -0.7399  0.2449 -0.7571
 5971SOL    HW229550   3.997   0.936   6.215 -1.7247  0.7675 -0.5392
 5972SOL     OW29551   3.595   3.656  17.669 -0.1663 -0.6076 -0.2922
 5972SOL    HW129552   3.651   3.731  17.647 -0.8576 -0.4548 -1.5038
 5972SOL    HW229553   3.651   3.612  17.733  0.1933  0.7277  0.3181
 5973SOL     OW29554   1.951   0.117   4.326 -0.1009 -0.3043  0.1757
 5973SOL    HW129555   2.022   0.181   4.333  0.3916 -0.6861 -1.2254
 5973SOL    HW229556   1.925   0.092   4.415 -0.3378 -1.7777 -0.2927
 5974SOL     OW29557   3.196   2.634  15.330 -0.2762  0.0997  0.1704
 5974SOL    HW129558   3.230   2.648  15.419  1.6211  2.9485 -0.9905
 5974SOL    HW229559   3.135   2.561  15.339  1.7167 -1.4718  0.9443
 5975SOL     OW29560   2.514   1.711   8.826 -0.3203  0.3693  0.0387
 5975SOL    HW129561   2.583   1.646   8.812 -2.1327 -1.9248  1.6426
 5975SOL    HW229562   2.557   1.770   8.887  1.1569 -0.0445 -0.5934
 5976SOL     OW29563   4.663   3.133  15.040 -0.3156  0.5677  0.5598
 5976SOL    HW129564   4.638   3.047  15.007 -0.3720  1.2373 -1.1302
 5976SOL    HW229565   4.586   3.183  15.014 -2.1038 -2.3285  0.2745
 5977SOL     OW29566   4.561   1.197   2.720 -0.1541  0.6104  0.0465
 5977SOL    HW129567   4.643   1.245   2.726 -0.1284  0.5169  0.4195
 5977SOL    HW229568   4.555   1.146   2.801 -0.4244  0.8211  0.1582
 5978SOL     OW29569   2.627   2.532   1.420  0.4085 -0.1976 -0.4037
 5978SOL    HW129570   2.574   2.518   1.342  2.3986  0.2581 -1.8494
 5978SOL    HW229571   2.671   2.447   1.424 -0.3881 -0.6773 -2.2032
 5979SOL     OW29572   1.243   0.367   5.260 -0.1799 -0.5710  0.5292
 5979SOL    HW129573   1.175   0.306   5.232 -0.3589 -1.3069  2.5560
 5979SOL    HW229574   1.267   0.417   5.182 -3.1085  1.4983  0.9718
 5980SOL     OW29575   0.641   3.829   1.764 -0.0011 -0.6087  0.2146
 5980SOL    HW129576   0.612   3.878   1.841  1.8207 -0.5569  0.8655
 5980SOL    HW229577   0.728   3.866   1.749 -0.0218  0.7716  3.5162
 5981SOL     OW29578   0.337   3.047   4.885  0.1183  0.5328 -0.0765
 5981SOL    HW129579   0.308   3.138   4.894 -2.3058 -0.3320  0.9225
 5981SOL    HW229580   0.410   3.048   4.947 -0.1977 -2.5325  0.3545
 5982SOL     OW29581   1.065   1.283   9.163  0.2707 -0.2017 -0.1521
 5982SOL    HW129582   1.007   1.292   9.088 -0.7861 -2.1708  0.4133
 5982SOL    HW229583   1.023   1.322   9.239  0.2281 -1.6925  0.5929
 5983SOL     OW29584   1.746   4.237  16.677 -0.2296  0.1641 -0.1791
 5983SOL    HW129585   1.784   4.282  16.601  1.1226  0.0596  0.4275
 5983SOL    HW229586   1.656   4.227  16.646 -0.2858 -0.5609  0.2405
 5984SOL     OW29587   1.204   2.077   3.289  0.2324  0.3371 -0.2516
 5984SOL    HW129588   1.142   2.015   3.250 -1.4677  0.8332  1.6363
 5984SOL    HW229589   1.261   2.008   3.323 -0.8100 -0.6000 -0.3871
 5985SOL     OW29590   2.246   2.141   9.311 -0.6469 -0.3295 -0.9083
 5985SOL    HW129591   2.258   2.048   9.295  2.7194 -0.2084  0.9934
 5985SOL    HW229592   2.326   2.165   9.358 -0.6793  0.9942 -1.5083
 5986SOL     OW29593   0.378   0.749   2.708  0.0166  0.0396 -0.2074
 5986SOL    HW129594   0.300   0.698   2.725  0.0494  0.1569  0.2940
 5986SOL    HW229595   0.436   0.714   2.776  0.2977  0.8809 -0.0081
 5987SOL     OW29596   4.614   1.946  15.404 -0.2965 -0.1043 -0.1285
 5987SOL    HW129597   4.667   1.989  15.337 -2.7213  1.0653 -1.2799
 5987SOL    HW229598   4.648   1.974  15.489  0.9621 -0.0073 -0.6630
 5988SOL     OW29599   4.585   2.652   3.162  0.7744 -0.3644 -0.2633
 5988SOL    HW129600   4.615   2.607   3.084 -0.9544 -0.8650 -0.6415
 5988SOL    HW229601   4.583   2.741   3.128 -3.9669 -0.9538 -1.5674
 5989SOL     OW29602   3.367   1.268   3.716 -0.5511 -0.4986 -0.0746
 5989SOL    HW129603   3.332   1.207   3.652 -1.7271  0.5035 -0.3983
 5989SOL    HW229604   3.400   1.213   3.787 -0.5436 -0.1080  0.2283
 5990SOL     OW29605   0.290   0.680   6.711  0.4712  0.0004 -0.0977
 5990SOL    HW129606   0.269   0.771   6.732  0.9305 -0.0446  0.5384
 5990SOL    HW229607   0.244   0.664   6.628  0.0777  1.4861 -0.1705
 5991SOL     OW29608   1.286   1.220   4.958 -0.1968  0.1945  0.6090
 5991SOL    HW129609   1.362   1.238   5.014 -0.3693 -1.6407  1.4138
 5991SOL    HW229610   1.305   1.127   4.950 -0.1933  0.1831  0.7447
 5992SOL     OW29611   2.361   0.404   7.689 -0.4964  0.0623  0.0550
 5992SOL    HW129612   2.408   0.390   7.771  0.5139 -0.9091 -0.6933
 5992SOL    HW229613   2.349   0.499   7.683 -0.6642  0.1447  1.7591
 5993SOL     OW29614   4.008   2.379   6.026  0.3547  0.3600  0.4036
 5993SOL    HW129615   4.017   2.455   5.969 -0.1108  0.8504  0.9962
 5993SOL    HW229616   4.098   2.364   6.054  0.1971 -0.0446  0.6984
 5994SOL     OW29617   3.121   2.464  16.701 -0.3268 -0.2616 -0.1644
 5994SOL    HW129618   3.156   2.427  16.782  1.1484 -0.2273 -0.7797
 5994SOL    HW229619   3.151   2.554  16.715  0.1444 -0.1809 -1.7500
 5995SOL     OW29620   1.828   0.912   7.208 -0.2174 -0.1243 -0.5141
 5995SOL    HW129621   1.803   1.003   7.193 -0.0518 -0.1952 -1.2238
 5995SOL    HW229622   1.860   0.897   7.119  1.5620  1.3977 -0.1286
 5996SOL     OW29623   4.310   4.446   5.766 -0.2993 -0.3358 -0.1074
 5996SOL    HW129624   4.279   4.481   5.850  0.9710  2.1994 -0.6906
 5996SOL    HW229625   4.239   4.385   5.748 -0.8961  0.4931 -0.5969
 5997SOL     OW29626   1.684   2.871   6.755  0.1798 -0.4112 -0.5651
 5997SOL    HW129627   1.666   2.958   6.719  0.0841 -0.2733 -0.1796
 5997SOL    HW229628   1.778   2.872   6.740  0.6728 -0.4496  2.4937
 5998SOL     OW29629   4.036   2.688   6.966 -0.5695  0.0672  0.4476
 5998SOL    HW129630   3.965   2.692   6.902  1.1991  0.9247 -1.4453
 5998SOL    HW229631   4.072   2.600   6.955 -1.5854 -0.3422  0.4203
 5999SOL     OW29632   1.245   0.418  12.314  0.0242 -0.6905  0.1407
 5999SOL    HW129633   1.316   0.454  12.368 -0.8666  1.7799 -0.3047
 5999SOL    HW229634   1.287   0.355  12.256 -0.5215  0.1005 -1.1169
 6000SOL     OW29635   0.591   0.201   0.197 -0.2467 -0.1932 -0.4187
 6000SOL    HW129636   0.658   0.182   0.131 -1.0021  1.3073 -1.6420
 6000SOL    HW229637   0.539   0.271   0.157  0.2093 -0.0948 -0.8422
 6001SOL     OW29638   1.383   0.062   7.562  0.8203 -0.5492 -0.6501
 6001SOL    HW129639   1.407   0.107   7.642  1.4834 -1.1384 -0.5180
 6001SOL    HW229640   1.472   0.058   7.528  1.5458  2.8441  0.8773
 6002SOL     OW29641   0.835   2.008  15.864  0.3119 -0.3108 -0.7136
 6002SOL    HW129642   0.845   1.913  15.876 -0.0148 -0.1713  0.7199
 6002SOL    HW229643   0.754   2.020  15.816  0.5722  1.0769 -0.8080
 6003SOL     OW29644   0.794   2.118  15.110  0.5711 -0.2289  0.3051
 6003SOL    HW129645   0.804   2.204  15.151 -1.2956 -0.1576  0.6263
 6003SOL    HW229646   0.796   2.064  15.189 -1.2561 -1.0829 -0.2218
 6004SOL     OW29647   4.305   1.223  11.686  0.2659  0.1559  0.3345
 6004SOL    HW129648   4.247   1.210  11.761  0.2176 -0.0992  0.2532
 6004SOL    HW229649   4.316   1.318  11.687 -1.5260  0.3824 -1.5154
 6005SOL     OW29650   2.108   0.289   0.116  0.1547 -0.6499  0.6594
 6005SOL    HW129651   2.013   0.295   0.104  0.5717  0.9948 -1.7318
 6005SOL    HW229652   2.141   0.268   0.029 -0.8934 -0.0370  0.1172
 6006SOL     OW29653   1.071   2.010   7.757  0.3139  0.3275 -0.5323
 6006SOL    HW129654   0.988   2.049   7.730  0.6170  0.9100 -0.6273
 6006SOL    HW229655   1.045   1.935   7.810  0.7927 -0.4713 -1.4315
 6007SOL     OW29656   3.079   0.028   7.408  0.6548  0.3935  0.1297
 6007SOL    HW129657   3.070   4.677   7.389 -1.3143  0.2673  1.6193
 6007SOL    HW229658   3.174   0.039   7.405  0.5560  1.0480 -0.6706
 6008SOL     OW29659   2.225   1.932   1.284 -0.5726  0.1613  0.6685
 6008SOL    HW129660   2.283   1.922   1.360  2.6967 -0.5621 -1.9386
 6008SOL    HW229661   2.160   1.997   1.312 -2.5023 -1.4126 -0.1545
 6009SOL     OW29662   4.549   2.256   9.110  0.6593  0.0585 -0.1444
 6009SOL    HW129663   4.536   2.316   9.183 -0.8639 -0.1249 -0.2649
 6009SOL    HW229664   4.479   2.276   9.048 -0.5974  0.4266  1.3937
 6010SOL     OW29665   1.701   3.821   2.780 -0.1747  0.1125 -0.1946
 6010SOL    HW129666   1.687   3.914   2.796 -1.5729 -0.1639  0.1921
 6010SOL    HW229667   1.612   3.789   2.765 -0.7933  1.7906 -0.1811
 6011SOL     OW29668   1.276   1.311   7.873 -0.2447 -0.2695 -0.2070
 6011SOL    HW129669   1.221   1.266   7.809  0.2817  1.3068 -1.7449
 6011SOL    HW229670   1.350   1.253   7.891  0.0714  0.4103  0.7400
 6012SOL     OW29671   3.090   1.630   7.342  0.0613  0.0781  1.1734
 6012SOL    HW129672   3.140   1.562   7.295 -0.4960  0.5893 -0.1649
 6012SOL    HW229673   2.999   1.609   7.321  0.4379 -0.1160 -0.3401
 6013SOL     OW29674   1.455   4.035   3.519  0.1839 -0.2326 -0.0030
 6013SOL    HW129675   1.415   4.040   3.433 -0.7929  1.5927  0.5462
 6013SOL    HW229676   1.465   4.128   3.540  1.7093 -0.3494 -0.2772
 6014SOL     OW29677   0.095   3.302   8.692 -0.4100 -0.0991  0.8410
 6014SOL    HW129678   0.090   3.323   8.598  0.4859  1.8754  1.2260
 6014SOL    HW229679   0.004   3.293   8.719 -0.7296 -2.0701 -0.9040
 6015SOL     OW29680   4.603   1.023   8.043 -0.4977 -0.1887 -0.5684
 6015SOL    HW129681   4.672   0.959   8.060 -0.5710  0.2450  1.2848
 6015SOL    HW229682   4.620   1.083   8.116  0.3027 -0.2208 -0.7305
 6016SOL     OW29683   2.260   1.514   9.305  0.1098 -0.3756 -0.4536
 6016SOL    HW129684   2.201   1.444   9.337 -1.1914  1.5483  1.3530
 6016SOL    HW229685   2.263   1.491   9.212  2.2512  2.9539 -1.1776
 6017SOL     OW29686   0.445   1.069   8.552 -0.4150 -0.5485  0.0695
 6017SOL    HW129687   0.526   1.120   8.552 -0.2717 -0.7663 -1.3339
 6017SOL    HW229688   0.399   1.096   8.472 -0.5666  2.7108  1.2583
 6018SOL     OW29689   2.809   2.487   3.825 -0.2770  0.0167  0.0374
 6018SOL    HW129690   2.774   2.441   3.749 -0.4044  0.5642 -0.2344
 6018SOL    HW229691   2.892   2.438   3.819  0.2785  0.8556  0.9356
 6019SOL     OW29692   0.489   0.054   7.958  0.7135  0.4476  0.1521
 6019SOL    HW129693   0.551   0.033   8.028 -1.1088 -0.8004  1.3743
 6019SOL    HW229694   0.427   0.108   8.007  0.9715  1.5179 -0.6992
 6020SOL     OW29695   3.913   4.107  10.547  0.1921  0.9263  0.4465
 6020SOL    HW129696   3.933   4.150  10.463  1.6854  1.9858  1.3585
 6020SOL    HW229697   3.826   4.071  10.530  0.4629  0.1633  0.6953
 6021SOL     OW29698   2.912   0.136   7.794  0.1796 -0.0223  0.1891
 6021SOL    HW129699   2.831   0.187   7.784  0.0435 -0.5782 -1.5642
 6021SOL    HW229700   2.955   0.177   7.719  1.3483  0.0336  0.8869
 6022SOL     OW29701   1.009   4.279  17.724  0.1811  0.7261 -0.7892
 6022SOL    HW129702   1.057   4.355  17.691  0.0009  0.3501 -1.9432
 6022SOL    HW229703   1.045   4.270   0.045  1.2123 -1.1608 -1.4035
 6023SOL     OW29704   1.403   4.204  15.786 -0.5833 -0.6270 -0.8783
 6023SOL    HW129705   1.371   4.282  15.831 -1.0165 -0.7535 -0.9672
 6023SOL    HW229706   1.429   4.145  15.857 -0.3354 -1.8008 -1.9542
 6024SOL     OW29707   0.123   0.361   2.932 -0.2406 -0.0703  0.5454
 6024SOL    HW129708   0.187   0.296   2.905  0.7384  0.6564  1.1336
 6024SOL    HW229709   0.042   0.312   2.921  0.6577 -1.1483 -1.1222
 6025SOL     OW29710   0.888   1.877   7.099  0.1944  0.4215  0.3300
 6025SOL    HW129711   0.867   1.897   7.008 -0.6039  0.9492  0.6273
 6025SOL    HW229712   0.827   1.806   7.116  0.9851 -0.5937 -1.1504
 6026SOL     OW29713   2.491   3.863   9.040 -0.4803  0.4044 -0.2267
 6026SOL    HW129714   2.497   3.907   9.125  3.2051  0.6515 -0.5972
 6026SOL    HW229715   2.396   3.856   9.039 -0.5898  1.6827  2.5065
 6027SOL     OW29716   1.757   1.005  14.526 -0.5624  0.0546 -0.6652
 6027SOL    HW129717   1.768   0.916  14.561 -0.6942 -0.2751 -1.4633
 6027SOL    HW229718   1.836   1.050  14.556 -1.7682  1.6440  0.1254
 6028SOL     OW29719   1.240   2.909   2.071  0.5503  0.2130  0.0651
 6028SOL    HW129720   1.180   2.963   2.020  0.1123  1.1367  1.5505
 6028SOL    HW229721   1.322   2.911   2.020  0.5102  0.6174  0.0126
 6029SOL     OW29722   0.717   2.099   7.259 -0.2277 -0.2514 -0.3518
 6029SOL    HW129723   0.662   2.147   7.197 -0.0394  2.4994  1.6509
 6029SOL    HW229724   0.767   2.043   7.199 -0.9462  1.7679 -2.8162
 6030SOL     OW29725   4.322   3.138   9.475 -0.0521 -0.3781 -0.3834
 6030SOL    HW129726   4.304   3.110   9.385 -1.3158 -0.3994 -0.1281
 6030SOL    HW229727   4.276   3.221   9.489 -0.4926 -0.7597  0.3825
 6031SOL     OW29728   1.085   0.974  12.965 -0.2465  0.0011 -0.5467
 6031SOL    HW129729   1.145   0.918  12.915  0.6744  0.1270  0.4158
 6031SOL    HW229730   1.071   0.916  13.039 -0.3144 -0.1104 -0.6472
 6032SOL     OW29731   4.311   1.339   8.787 -0.1758  0.9246  0.4429
 6032SOL    HW129732   4.256   1.274   8.832  0.3898  0.5641  0.6221
 6032SOL    HW229733   4.262   1.417   8.813  2.0237  1.9110  1.6442
 6033SOL     OW29734   3.172   1.193  16.868 -0.0454  0.5178  0.0243
 6033SOL    HW129735   3.258   1.200  16.908  0.2245  1.2995 -0.7004
 6033SOL    HW229736   3.150   1.099  16.872  1.1764  0.1469 -1.9940
 6034SOL     OW29737   1.165   2.121   2.047  0.5249 -0.2884 -0.7797
 6034SOL    HW129738   1.249   2.164   2.032  0.0727  0.8065 -0.1431
 6034SOL    HW229739   1.191   2.062   2.118  1.7684  0.7737 -0.3548
 6035SOL     OW29740   0.653   0.719   1.287 -0.3468  0.3874 -0.8237
 6035SOL    HW129741   0.712   0.654   1.250  0.0586  0.1320  0.2642
 6035SOL    HW229742   0.652   0.702   1.381 -0.1359 -1.7108 -1.2001
 6036SOL     OW29743   3.206   0.204   8.004  0.2133  0.4053 -0.2784
 6036SOL    HW129744   3.277   0.156   8.046 -0.2676  0.2052  0.3096
 6036SOL    HW229745   3.131   0.155   8.037  0.4191 -1.7550 -2.9809
 6037SOL     OW29746   4.129   1.972   1.849 -0.2525 -0.1140  1.0196
 6037SOL    HW129747   4.216   1.990   1.814 -0.7839 -0.2977 -0.3898
 6037SOL    HW229748   4.121   2.045   1.910 -2.1519 -0.1991  0.8553
 6038SOL     OW29749   4.134   1.485  11.379  0.3210 -0.0137 -0.1822
 6038SOL    HW129750   4.192   1.519  11.448 -1.1850 -0.4286  1.2845
 6038SOL    HW229751   4.206   1.438  11.338  0.9605  1.3183 -0.6121
 6039SOL     OW29752   2.206   4.667   6.789  0.0388 -0.5101 -0.5360
 6039SOL    HW129753   2.194   4.673   6.694 -2.2875  0.0748 -0.1959
 6039SOL    HW229754   2.285   4.613   6.797  0.7749  0.3983 -1.7028
 6040SOL     OW29755   3.590   2.890   9.354  0.6363  0.5028 -0.3529
 6040SOL    HW129756   3.531   2.816   9.338 -0.9507  1.4955  0.9554
 6040SOL    HW229757   3.548   2.956   9.408  0.1361 -0.6074  0.6076
 6041SOL     OW29758   0.074   1.101   1.255  0.1061 -0.1223 -0.9527
 6041SOL    HW129759   0.019   1.113   1.178 -0.4854  2.1761 -0.1677
 6041SOL    HW229760   0.028   1.044   1.317 -0.8819 -0.3484 -1.8988
 6042SOL     OW29761   0.470   4.626   1.468 -0.0932  0.8288 -0.5634
 6042SOL    HW129762   0.418   4.687   1.415 -1.2763 -1.4311 -1.9740
 6042SOL    HW229763   0.441   4.661   1.553  0.6684  0.3896 -0.1235
 6043SOL     OW29764   4.738   4.457   9.961 -0.1342 -0.4872  0.4758
 6043SOL    HW129765   0.035   4.430   9.877 -0.5305 -3.9266  1.4132
 6043SOL    HW229766   0.040   4.537   9.989 -0.6876 -0.3899  1.0497
 6044SOL     OW29767   0.922   2.946  11.035  0.4515 -0.5407  0.2284
 6044SOL    HW129768   0.965   3.018  11.083 -0.2636  0.9045 -1.3022
 6044SOL    HW229769   0.992   2.882  11.018  0.3372 -0.6926  0.3377
 6045SOL     OW29770   4.678   2.023   6.676 -0.0491  0.1917 -0.4209
 6045SOL    HW129771   4.614   2.080   6.634 -1.0785  0.8007  1.9324
 6045SOL    HW229772   4.701   2.071   6.756  1.6272 -1.1545 -0.1033
 6046SOL     OW29773   4.238   3.924   6.368  0.7483 -0.0254  0.3093
 6046SOL    HW129774   4.301   3.997   6.371 -0.5893  1.1500 -0.3583
 6046SOL    HW229775   4.257   3.895   6.458 -2.5052  0.4384  1.1583
 6047SOL     OW29776   0.170   3.910   9.814 -0.0253  0.9238 -0.5201
 6047SOL    HW129777   0.173   3.959   9.732  1.0980 -0.5899 -1.3826
 6047SOL    HW229778   0.188   3.975   9.882 -1.0693  0.4609  0.1926
 6048SOL     OW29779   1.056   0.849   1.154  0.8549 -0.2855  0.2476
 6048SOL    HW129780   1.061   0.793   1.232 -1.8402 -1.8973 -0.7627
 6048SOL    HW229781   1.021   0.787   1.091  0.1629  0.0069  0.3386
 6049SOL     OW29782   1.662   2.946   5.703  0.2168  0.5223  0.2487
 6049SOL    HW129783   1.622   2.870   5.660  0.6586  0.6699 -0.4314
 6049SOL    HW229784   1.596   3.008   5.673 -1.4046 -0.6779  1.3560
 6050SOL     OW29785   3.316   3.933   8.590  0.6905  0.3052 -0.1225
 6050SOL    HW129786   3.341   3.855   8.640  0.2322  1.3147  1.6666
 6050SOL    HW229787   3.220   3.928   8.583  0.7367 -1.9115  0.6507
 6051SOL     OW29788   1.530   4.228   0.555 -0.3248 -0.0204 -0.5398
 6051SOL    HW129789   1.558   4.139   0.533  1.2765  0.0064  1.3896
 6051SOL    HW229790   1.534   4.236   0.650  0.5863 -0.4926 -0.5395
 6052SOL     OW29791   2.617   3.843  10.877  0.3561 -0.0538 -0.3305
 6052SOL    HW129792   2.634   3.928  10.837 -3.4038  0.0182 -1.8164
 6052SOL    HW229793   2.704   3.815  10.904  1.2904  2.1674 -1.0821
 6053SOL     OW29794   4.620   0.526  12.756  0.4207 -0.6343  0.7285
 6053SOL    HW129795   4.709   0.490  12.756  0.4911 -0.4734 -1.0180
 6053SOL    HW229796   4.608   0.571  12.672  2.0336  0.2694  0.9837
 6054SOL     OW29797   4.297   0.935   3.578  0.5096  0.4638 -0.0300
 6054SOL    HW129798   4.263   1.006   3.524 -2.1805 -0.9572 -0.2178
 6054SOL    HW229799   4.384   0.945   3.540  0.5204 -0.6688 -0.2857
 6055SOL     OW29800   3.474   1.840   4.621  0.0529  0.5323  0.1914
 6055SOL    HW129801   3.459   1.908   4.687 -1.3202  0.3046  0.1044
 6055SOL    HW229802   3.461   1.762   4.675  2.3856  0.1345  0.1971
 6056SOL     OW29803   2.715   0.667   7.964  0.0272  0.1367  0.1797
 6056SOL    HW129804   2.795   0.683   7.914 -0.4424  0.3269 -0.5055
 6056SOL    HW229805   2.752   0.650   8.051  0.0956 -1.0453 -0.0803
 6057SOL     OW29806   1.873   4.678   6.822  0.6628 -0.3010  0.4790
 6057SOL    HW129807   1.853   4.733   6.898  3.1841  0.7026  0.4468
 6057SOL    HW229808   1.937   4.611   6.848  0.6825 -0.8799 -1.1025
 6058SOL     OW29809   0.503   1.931   6.963  0.1561  0.1323  0.1880
 6058SOL    HW129810   0.567   1.960   6.898  0.6064 -0.1982  0.4789
 6058SOL    HW229811   0.539   1.850   7.000 -1.7892 -1.0098 -0.4197
 6059SOL     OW29812   3.002   1.872   8.387 -0.0775  0.5099 -0.4377
 6059SOL    HW129813   3.066   1.841   8.452  1.2734  1.9280 -1.1023
 6059SOL    HW229814   3.063   1.893   8.317 -0.5770  1.3109 -0.6297
 6060SOL     OW29815   1.858   2.607   6.869  0.4585  0.6505 -0.3522
 6060SOL    HW129816   1.948   2.597   6.840  0.0747 -0.8193 -1.0480
 6060SOL    HW229817   1.800   2.570   6.803  1.1449  0.1510 -0.6756
 6061SOL     OW29818   1.795   2.111   0.928 -0.5972  0.0944  0.0578
 6061SOL    HW129819   1.835   2.042   0.875  0.0517  1.2269 -0.9292
 6061SOL    HW229820   1.823   2.080   1.014 -0.8559 -0.0875  0.0770
 6062SOL     OW29821   4.352   3.597   5.407  0.1429  0.5909 -0.1508
 6062SOL    HW129822   4.415   3.615   5.476 -1.3792  2.3809  0.7996
 6062SOL    HW229823   4.391   3.522   5.363  1.7468  0.7346  1.0443
 6063SOL     OW29824   2.419   1.628  15.914 -0.1916 -0.6040 -0.0110
 6063SOL    HW129825   2.493   1.608  15.971 -0.4464  1.5577  1.0666
 6063SOL    HW229826   2.366   1.556  15.949  0.9752 -0.3543  2.3036
 6064SOL     OW29827   2.214   1.283   2.669  0.4743  0.5200  0.0246
 6064SOL    HW129828   2.292   1.289   2.614 -0.9450 -0.5008 -2.0936
 6064SOL    HW229829   2.240   1.308   2.758 -3.1293  2.4683  0.5513
 6065SOL     OW29830   1.345   2.828  14.422 -0.3199  0.9577 -0.1243
 6065SOL    HW129831   1.276   2.884  14.458  0.7755 -0.4105  4.0552
 6065SOL    HW229832   1.299   2.743  14.418 -0.1056  0.9018 -1.2694
 6066SOL     OW29833   4.020   1.906   5.127  0.2864 -0.3703  0.2782
 6066SOL    HW129834   4.113   1.928   5.137  0.4480 -0.0768 -1.8646
 6066SOL    HW229835   4.005   1.885   5.219 -0.3130 -0.5959  0.1272
 6067SOL     OW29836   1.649   2.503   4.230  0.7058  0.2058  0.7992
 6067SOL    HW129837   1.569   2.543   4.265  1.8469  3.6128 -0.5324
 6067SOL    HW229838   1.631   2.498   4.136  1.4262  0.3572  0.6572
 6068SOL     OW29839   4.389   2.340   3.532 -0.0487  0.3457 -0.1351
 6068SOL    HW129840   4.426   2.423   3.502 -1.3798  0.7384 -0.7214
 6068SOL    HW229841   4.298   2.361   3.555 -0.4837 -0.1260 -1.3870
 6069SOL     OW29842   3.440   3.244   0.080  0.0700  0.3225  0.1516
 6069SOL    HW129843   3.512   3.261   0.019  2.7824 -0.3645  3.1058
 6069SOL    HW229844   3.364   3.274   0.030  0.5292  1.9306  0.4043
 6070SOL     OW29845   2.123   1.321   5.720  0.2280 -0.1248 -0.1067
 6070SOL    HW129846   2.218   1.329   5.713  0.3505 -1.9005 -0.3559
 6070SOL    HW229847   2.109   1.239   5.674 -0.4525 -1.0197  1.7207
 6071SOL     OW29848   2.448   2.181   1.541 -0.0878 -0.1384  0.6757
 6071SOL    HW129849   2.432   2.272   1.566  2.3766  0.2580  0.8072
 6071SOL    HW229850   2.532   2.162   1.582  0.3947  2.0050  0.6549
 6072SOL     OW29851   1.637   3.051   7.028 -0.4863  0.1617  0.6369
 6072SOL    HW129852   1.603   2.979   7.083 -1.0623  0.7709  1.0755
 6072SOL    HW229853   1.581   3.030   6.953  0.1388  0.5754  0.0646
 6073SOL     OW29854   4.141   4.323   6.331  0.4786 -0.0296  0.5070
 6073SOL    HW129855   4.194   4.279   6.264 -2.6272 -0.2917 -1.7534
 6073SOL    HW229856   4.086   4.253   6.366 -0.1383  0.3753  0.3331
 6074SOL     OW29857   2.927   3.685   7.060 -0.1131 -0.4483  0.1149
 6074SOL    HW129858   2.908   3.726   7.144  0.6465 -0.1204  0.1234
 6074SOL    HW229859   2.979   3.754   7.019 -0.1359 -0.1696  0.5550
 6075SOL     OW29860   4.502   1.451   1.745  0.1243 -0.1558 -0.1133
 6075SOL    HW129861   4.454   1.530   1.771  1.9623  0.3009  1.8993
 6075SOL    HW229862   4.468   1.399   1.818  0.4309 -0.0281  0.1168
 6076SOL     OW29863   0.843   2.927  14.207 -0.5734  0.2646 -0.0222
 6076SOL    HW129864   0.898   2.902  14.282  0.7263  0.7401 -0.8026
 6076SOL    HW229865   0.913   2.966  14.154  0.3028 -1.7472 -0.3245
 6077SOL     OW29866   3.278   1.740   9.228 -0.1067  0.3641 -0.2018
 6077SOL    HW129867   3.333   1.809   9.192 -1.2389  1.5205  0.2913
 6077SOL    HW229868   3.293   1.740   9.323  1.7194  1.8246 -0.5055
 6078SOL     OW29869   0.011   1.699   4.493  0.2468 -0.1584 -0.1696
 6078SOL    HW129870   0.034   1.782   4.452 -0.6006 -0.0148 -0.3356
 6078SOL    HW229871   0.101   1.666   4.501 -0.0183 -0.8211  0.0605
 6079SOL     OW29872   4.224   1.054   6.481 -0.0672  0.1267 -0.1831
 6079SOL    HW129873   4.315   1.025   6.483 -0.0262  0.5345  3.1811
 6079SOL    HW229874   4.179   0.970   6.491  2.4613 -1.0477  1.1973
 6080SOL     OW29875   3.574   3.923   7.683  0.8407  0.4400  0.2558
 6080SOL    HW129876   3.505   3.870   7.644  1.5410 -1.4135  1.5150
 6080SOL    HW229877   3.536   3.915   7.770  2.2450  0.7774  0.9049
 6081SOL     OW29878   1.539   0.746  12.715 -0.3005  0.3239 -0.3579
 6081SOL    HW129879   1.584   0.711  12.638 -0.2747 -0.2422 -0.0851
 6081SOL    HW229880   1.532   0.839  12.692 -2.7888  0.1623 -0.2482
 6082SOL     OW29881   3.853   4.156  13.306  0.3371  0.2997 -0.3706
 6082SOL    HW129882   3.842   4.114  13.221  1.4792 -0.0143 -0.3592
 6082SOL    HW229883   3.789   4.108  13.359 -0.1159  0.5613 -0.6735
 6083SOL     OW29884   4.224   3.699   7.016  0.9514  0.8291  0.1792
 6083SOL    HW129885   4.196   3.791   7.019  1.3127  0.9345  0.3320
 6083SOL    HW229886   4.281   3.688   7.092 -0.3598 -1.0947  0.8794
 6084SOL     OW29887   3.259   0.793   8.184  0.1013 -0.2385  0.6146
 6084SOL    HW129888   3.289   0.703   8.168 -1.7300 -1.0132  1.5272
 6084SOL    HW229889   3.280   0.846   8.108 -1.6969  1.8587  1.5924
 6085SOL     OW29890   3.241   3.946  10.709 -0.2672  0.1289  0.0532
 6085SOL    HW129891   3.178   3.885  10.671 -1.6970  1.4399  0.3200
 6085SOL    HW229892   3.195   4.025  10.681  1.2877  0.4185 -1.6601
 6086SOL     OW29893   1.797   0.397   3.718 -0.1049 -0.1660  0.2409
 6086SOL    HW129894   1.865   0.332   3.707 -0.3579 -0.3086 -0.4586
 6086SOL    HW229895   1.846   0.460   3.772  1.7815 -1.8785  0.4947
 6087SOL     OW29896   1.919   4.182   5.763  0.4249 -0.0398  0.3669
 6087SOL    HW129897   1.958   4.100   5.791  2.0589  0.1593 -1.2869
 6087SOL    HW229898   1.937   4.185   5.669  1.3936 -0.3778  0.5460
 6088SOL     OW29899   1.777   3.900   1.656  1.0516  0.2303 -0.2757
 6088SOL    HW129900   1.731   3.980   1.632  2.9122  1.6635  0.9411
 6088SOL    HW229901   1.780   3.867   1.566 -2.9390  1.8276 -0.9663
 6089SOL     OW29902   2.443   3.426   1.919  0.6252 -0.0710  0.3203
 6089SOL    HW129903   2.486   3.511   1.905 -1.7307  1.5338  2.7144
 6089SOL    HW229904   2.371   3.438   1.856  1.4534  4.3535  0.2155
 6090SOL     OW29905   0.917   1.385   8.424 -0.4601 -0.8962  0.1466
 6090SOL    HW129906   0.981   1.457   8.425  0.1412 -1.4311 -0.1975
 6090SOL    HW229907   0.859   1.414   8.352 -0.7862  0.4699  0.9480
 6091SOL     OW29908   0.145   4.053   8.953 -0.0240  0.0038  0.7572
 6091SOL    HW129909   0.142   4.101   8.870 -1.3325 -0.3011  0.6310
 6091SOL    HW229910   0.076   4.101   8.997 -1.7293  0.5743 -2.5725
 6092SOL     OW29911   3.911   1.599  11.335 -0.1901  0.2010 -0.6342
 6092SOL    HW129912   3.989   1.545  11.351 -1.4812 -2.1630 -2.3883
 6092SOL    HW229913   3.952   1.679  11.368 -0.1247  0.3582 -1.1019
 6093SOL     OW29914   1.894   3.529   8.476 -0.2561 -0.3133  0.2215
 6093SOL    HW129915   1.880   3.615   8.437  1.8686 -0.8223 -1.6801
 6093SOL    HW229916   1.813   3.482   8.457 -2.5805  3.7519  0.3017
 6094SOL     OW29917   0.251   1.804   6.057  0.0973 -0.4426  0.2447
 6094SOL    HW129918   0.286   1.813   6.145  0.2325 -0.0569  0.1518
 6094SOL    HW229919   0.293   1.727   6.018 -2.3063 -1.3092 -0.5925
 6095SOL     OW29920   0.786   0.174   2.100 -0.1811 -0.0835 -0.1947
 6095SOL    HW129921   0.822   0.086   2.111 -0.1581 -0.2128 -1.2675
 6095SOL    HW229922   0.695   0.148   2.089  0.7792 -2.9484 -1.3383
 6096SOL     OW29923   0.002   2.763   5.473 -0.4845 -0.0148  0.1327
 6096SOL    HW129924   0.018   2.750   5.380  1.7260  2.1267  0.2271
 6096SOL    HW229925   0.051   2.693   5.515  1.4929 -1.0924 -3.9549
 6097SOL     OW29926   0.494   1.585  11.642 -0.1593 -0.0197 -0.0515
 6097SOL    HW129927   0.411   1.539  11.656  0.3213 -2.3164 -4.9446
 6097SOL    HW229928   0.551   1.529  11.591 -0.3663 -0.7438  0.5185
 6098SOL     OW29929   1.740   4.187   7.394 -0.4254  0.2676  0.0714
 6098SOL    HW129930   1.831   4.216   7.403 -0.8744  2.4956 -2.4170
 6098SOL    HW229931   1.699   4.257   7.342  1.7864  0.5980 -1.2313
 6099SOL     OW29932   3.421   2.696   9.287  0.0006 -0.0882  0.2446
 6099SOL    HW129933   3.409   2.648   9.369  0.4866 -0.2034  0.2497
 6099SOL    HW229934   3.337   2.740   9.293  0.1376  0.3875 -1.3578
 6100SOL     OW29935   0.490   4.517   2.820 -0.2105  0.1754  0.3176
 6100SOL    HW129936   0.429   4.576   2.776  0.7973  0.0895 -1.2102
 6100SOL    HW229937   0.575   4.538   2.781 -1.4544 -2.1134 -3.6337
 6101SOL     OW29938   0.592   4.074   1.393 -0.2792 -1.1277  0.6612
 6101SOL    HW129939   0.499   4.052   1.388 -0.0029 -1.7388 -1.7451
 6101SOL    HW229940   0.623   3.991   1.429  0.8465 -1.1644 -0.4152
 6102SOL     OW29941   0.088   1.702   7.059 -0.1154 -0.2099 -0.1584
 6102SOL    HW129942   0.053   1.768   6.998 -0.3232  0.3415  0.5531
 6102SOL    HW229943   0.070   1.750   7.139 -0.4251 -2.2006  0.9603
 6103SOL     OW29944   0.579   0.518   4.809 -0.5280  0.1310 -0.3717
 6103SOL    HW129945   0.569   0.593   4.750  1.3264 -0.8360 -1.9073
 6103SOL    HW229946   0.608   0.445   4.754 -1.7830 -1.8400  1.5686
 6104SOL     OW29947   3.947   1.536  12.933  0.0863 -0.0983  0.5357
 6104SOL    HW129948   4.011   1.478  12.974 -0.6410 -0.9290  0.5039
 6104SOL    HW229949   3.915   1.478  12.864 -0.2949  0.9044 -0.1236
 6105SOL     OW29950   0.394   2.602  15.390 -0.1217  0.5961 -0.3558
 6105SOL    HW129951   0.407   2.579  15.482  2.6739  1.8792 -0.4501
 6105SOL    HW229952   0.429   2.520  15.355 -2.8410 -0.6649 -0.1354
 6106SOL     OW29953   0.261   3.992   5.969  0.1352  0.1610 -0.2236
 6106SOL    HW129954   0.214   4.044   5.903 -0.9909 -2.0225 -1.1098
 6106SOL    HW229955   0.242   4.053   6.041 -2.6769  0.3909 -1.1807
 6107SOL     OW29956   3.286   0.792  14.573  0.1071 -0.4099  0.1696
 6107SOL    HW129957   3.193   0.784  14.591 -0.3439  1.5417 -1.3234
 6107SOL    HW229958   3.287   0.885  14.551 -4.1406  0.2039  2.6976
 6108SOL     OW29959   1.931   2.362   0.924  0.1960 -0.5270 -0.0245
 6108SOL    HW129960   1.913   2.277   0.886  1.3091 -1.1434  0.8348
 6108SOL    HW229961   1.876   2.413   0.863  0.0514 -0.0831  0.4725
 6109SOL     OW29962   3.199   1.060  13.494  0.7872 -0.0891  0.5454
 6109SOL    HW129963   3.117   1.101  13.464  0.8307 -0.4254 -0.0362
 6109SOL    HW229964   3.252   1.062  13.414  0.6917  0.4657  0.4936
 6110SOL     OW29965   0.524   3.218   6.999  0.1303 -0.3239 -0.1294
 6110SOL    HW129966   0.445   3.194   6.950 -0.1630 -1.4781  0.8947
 6110SOL    HW229967   0.500   3.209   7.091 -0.3042  0.2018 -0.1920
 6111SOL     OW29968   4.440   1.787   9.101 -0.3782  0.3365 -0.0911
 6111SOL    HW129969   4.499   1.853   9.136  0.5896 -1.1440  1.0786
 6111SOL    HW229970   4.489   1.711   9.069 -2.3464 -1.7947  1.9834
 6112SOL     OW29971   4.398   2.262   2.721  0.3677  0.1946 -0.7199
 6112SOL    HW129972   4.398   2.166   2.725  1.7593  0.3961  4.6649
 6112SOL    HW229973   4.433   2.273   2.633 -0.3050 -1.0040 -1.1470
 6113SOL     OW29974   2.939   0.070   8.055  0.0852 -0.1592 -0.6164
 6113SOL    HW129975   2.909   4.723   8.074  0.0863 -0.7812 -3.4181
 6113SOL    HW229976   2.894   0.071   7.970 -0.5814 -1.1127 -0.2740
 6114SOL     OW29977   1.955   2.708   8.340 -0.4567  0.4048  0.1041
 6114SOL    HW129978   2.036   2.729   8.385 -0.9506  3.1345 -0.2648
 6114SOL    HW229979   1.995   2.715   8.253  0.5089 -0.6335  0.4805
 6115SOL     OW29980   3.081   4.350   7.799  0.1316 -0.5561 -0.4617
 6115SOL    HW129981   3.064   4.443   7.782 -1.2673 -1.0882 -1.9731
 6115SOL    HW229982   3.061   4.342   7.892  1.1262 -3.2234 -0.4955
 6116SOL     OW29983   1.160   2.828   6.201  0.1411 -0.2685 -0.7823
 6116SOL    HW129984   1.133   2.744   6.238 -3.2985  1.7517  1.3193
 6116SOL    HW229985   1.195   2.797   6.117 -0.1510  0.3685 -1.1357
 6117SOL     OW29986   2.776   4.025   9.151  0.3832 -0.3123 -0.1305
 6117SOL    HW129987   2.733   4.029   9.066 -0.4376 -1.1847  0.2447
 6117SOL    HW229988   2.862   4.054   9.122 -0.4569  1.3680 -0.8785
 6118SOL     OW29989   0.116   4.108   3.998 -0.3532 -0.3824 -0.4293
 6118SOL    HW129990   0.075   4.050   3.933  1.0296 -1.4792 -0.3443
 6118SOL    HW229991   0.200   4.123   3.953 -0.2985  0.5686  0.0021
 6119SOL     OW29992   2.239   1.902   3.687  0.0424 -0.1193  0.4300
 6119SOL    HW129993   2.208   1.822   3.731 -1.0915 -0.5693 -1.2166
 6119SOL    HW229994   2.278   1.946   3.763 -1.3370  1.6622  0.0814
 6120SOL     OW29995   1.046   0.673   7.253 -0.1445  0.8423 -0.5048
 6120SOL    HW129996   1.112   0.653   7.187 -0.7042 -3.3329  0.2207
 6120SOL    HW229997   0.968   0.637   7.211  0.3922 -1.1451  0.2276
 6121SOL     OW29998   1.063   2.427  16.771  0.2565 -0.0049 -0.5395
 6121SOL    HW129999   1.119   2.401  16.698  0.6998 -0.4500 -0.0469
 6121SOL    HW230000   1.099   2.510  16.802  0.5199 -0.4897  0.4499
 6122SOL     OW30001   3.716   1.305   4.104 -0.0383  0.3847 -0.1667
 6122SOL    HW130002   3.691   1.217   4.076  0.7057  0.6578 -1.6938
 6122SOL    HW230003   3.764   1.326   4.024 -0.7074  2.1770 -0.0741
 6123SOL     OW30004   2.999   0.402  12.174 -0.0324  1.0362  0.6603
 6123SOL    HW130005   2.974   0.351  12.252 -0.5199  1.9791  1.1303
 6123SOL    HW230006   3.013   0.491  12.208 -3.4705  1.7015  0.3784
 6124SOL     OW30007   3.181   1.465   3.717  0.2991 -0.0808  0.5265
 6124SOL    HW130008   3.249   1.399   3.729  0.7809  0.4934  0.9875
 6124SOL    HW230009   3.166   1.453   3.624 -2.2212  2.0956  0.6281
 6125SOL     OW30010   4.487   3.288   9.754  0.0448  0.0662 -0.0244
 6125SOL    HW130011   4.498   3.352   9.825  1.2596  2.4690 -2.3977
 6125SOL    HW230012   4.456   3.342   9.682  0.6350 -0.0211 -0.3397
 6126SOL     OW30013   2.653   3.426   8.312  0.2636 -1.0529 -0.0102
 6126SOL    HW130014   2.590   3.356   8.329 -0.2411 -0.0974  2.0154
 6126SOL    HW230015   2.734   3.382   8.284  0.5799  0.3969 -1.3737
 6127SOL     OW30016   3.048   2.355   3.863  0.1675  0.0991 -0.8461
 6127SOL    HW130017   3.095   2.382   3.941  1.6086 -0.1835 -1.6118
 6127SOL    HW230018   3.019   2.264   3.874  0.0888  0.1152 -0.9148
 6128SOL     OW30019   3.678   2.638   2.781 -0.5550  0.4075  0.0510
 6128SOL    HW130020   3.724   2.604   2.858 -4.2505 -0.5779  1.7860
 6128SOL    HW230021   3.689   2.732   2.795  2.8873 -0.0575  0.4259
 6129SOL     OW30022   1.012   3.771   7.557 -0.1670 -0.2583 -0.0875
 6129SOL    HW130023   1.054   3.689   7.528  0.9751  0.3412 -0.1220
 6129SOL    HW230024   0.993   3.754   7.649 -0.9968  3.4544  0.4238
 6130SOL     OW30025   4.360   1.299   7.790  0.3249 -0.1549  0.0739
 6130SOL    HW130026   4.345   1.319   7.697 -0.3658 -1.3444 -0.0665
 6130SOL    HW230027   4.429   1.364   7.804 -0.5373  0.9059 -0.5634
 6131SOL     OW30028   3.590   3.242   8.519  0.2081 -0.2255 -0.4424
 6131SOL    HW130029   3.502   3.231   8.482 -0.8994 -1.0372  2.4197
 6131SOL    HW230030   3.632   3.291   8.449 -1.0153  0.8282 -0.4530
 6132SOL     OW30031   4.044   0.421   0.574  0.0752 -0.0361 -0.1858
 6132SOL    HW130032   3.966   0.367   0.564 -0.4191  0.5371  0.5320
 6132SOL    HW230033   4.004   0.485   0.633  1.0314 -1.5114  2.0667
 6133SOL     OW30034   0.061   3.082   6.448 -0.0929 -0.1049  0.0168
 6133SOL    HW130035   0.078   3.028   6.371  0.9549  0.1285  0.0764
 6133SOL    HW230036   4.717   3.115   6.424 -0.0056 -0.6933 -1.0781
 6134SOL     OW30037   3.492   2.504   9.117  0.1939 -0.0721 -0.3405
 6134SOL    HW130038   3.471   2.555   9.194  0.2932  1.9247 -1.6386
 6134SOL    HW230039   3.403   2.515   9.085 -0.2978 -1.6339  0.5028
 6135SOL     OW30040   1.069   1.344   8.719  0.5438 -0.3677 -0.4060
 6135SOL    HW130041   0.997   1.310   8.772 -0.7973 -0.9000 -2.5425
 6135SOL    HW230042   1.125   1.267   8.707  0.9254 -0.2424  0.6237
 6136SOL     OW30043   0.439   2.360   4.330 -0.0509 -0.0837  0.3406
 6136SOL    HW130044   0.360   2.306   4.325  0.6744 -1.0651 -0.4122
 6136SOL    HW230045   0.416   2.419   4.402  0.7203 -0.0295  0.5380
 6137SOL     OW30046   4.273   3.212   4.268  0.1902  1.0292 -0.5307
 6137SOL    HW130047   4.331   3.171   4.332 -0.6905  0.6462  0.0163
 6137SOL    HW230048   4.189   3.192   4.308  0.8782 -0.1157  0.3439
 6138SOL     OW30049   1.415   1.291   6.947 -0.3388 -0.0179  0.2440
 6138SOL    HW130050   1.404   1.357   7.016 -0.8971  0.1614 -0.0140
 6138SOL    HW230051   1.464   1.227   6.999 -0.6482 -0.1716  0.3494
 6139SOL     OW30052   1.509   0.639  14.542 -0.0882 -0.5162  0.0023
 6139SOL    HW130053   1.494   0.546  14.559  1.6819 -0.6055  1.1164
 6139SOL    HW230054   1.501   0.644  14.447  1.5033  0.4535 -0.0746
 6140SOL     OW30055   1.313   4.066   4.571 -0.6463  0.1698 -0.1408
 6140SOL    HW130056   1.364   3.994   4.533 -0.9002 -1.5030  2.6619
 6140SOL    HW230057   1.375   4.115   4.626 -2.6476  2.1189  0.3504
 6141SOL     OW30058   4.579   0.478   9.312  0.6499  0.2321 -0.0086
 6141SOL    HW130059   4.590   0.446   9.222  1.6715  2.1437 -0.5604
 6141SOL    HW230060   4.621   0.408   9.361 -0.9355 -0.2408  0.6931
 6142SOL     OW30061   3.162   4.292  11.200  0.2555  0.3744 -0.2318
 6142SOL    HW130062   3.108   4.216  11.221  2.3921 -1.1198 -0.0519
 6142SOL    HW230063   3.134   4.307  11.110 -2.3952  0.6387  0.6374
 6143SOL     OW30064   0.284   4.195  10.821  0.3332  0.4546  0.6101
 6143SOL    HW130065   0.228   4.272  10.822 -0.3950 -0.0640 -1.0807
 6143SOL    HW230066   0.355   4.227  10.766  0.3614 -1.0458 -0.2375
 6144SOL     OW30067   2.402   2.655   7.194  0.2071  0.1016  0.0917
 6144SOL    HW130068   2.488   2.686   7.168 -0.3012  2.4102  1.1884
 6144SOL    HW230069   2.412   2.574   7.245  1.8688 -0.2809 -0.8609
 6145SOL     OW30070   4.278   0.887   6.143 -0.0076 -0.2809  0.2830
 6145SOL    HW130071   4.374   0.887   6.152 -0.2379 -2.2454  2.8315
 6145SOL    HW230072   4.252   0.829   6.214 -1.6063 -0.2935 -0.3340
 6146SOL     OW30073   2.436   3.144  15.235 -0.2634 -0.7286 -0.0571
 6146SOL    HW130074   2.518   3.159  15.189 -0.3773  1.0124  0.3238
 6146SOL    HW230075   2.461   3.177  15.322 -1.4854 -1.7657  0.6906
 6147SOL     OW30076   3.963   0.628  13.857  0.2662  0.5190  0.1176
 6147SOL    HW130077   3.967   0.626  13.761  1.0229 -0.3257  0.1651
 6147SOL    HW230078   4.053   0.601  13.875 -0.0275 -0.9501 -0.6100
 6148SOL     OW30079   2.503   4.212   2.547  0.3199 -0.3268 -0.2388
 6148SOL    HW130080   2.581   4.184   2.501  0.0711 -0.1849 -0.7393
 6148SOL    HW230081   2.489   4.134   2.602 -0.6426 -0.1030 -0.1653
 6149SOL     OW30082   3.770   0.348  10.662 -0.6463  0.0411  0.0240
 6149SOL    HW130083   3.735   0.427  10.622 -0.5250 -0.1358 -0.4304
 6149SOL    HW230084   3.827   0.405  10.714 -0.9060 -0.9615  1.4205
 6150SOL     OW30085   1.102   3.907   2.282  0.3765 -0.5846 -0.3596
 6150SOL    HW130086   1.099   3.827   2.334  0.0961  0.4868  1.2817
 6150SOL    HW230087   1.016   3.911   2.240  0.1975  1.1632  0.1708
 6151SOL     OW30088   2.026   2.250   2.927  0.0773 -0.0148 -0.0656
 6151SOL    HW130089   2.034   2.227   2.834 -1.5105  1.1863 -0.4988
 6151SOL    HW230090   2.111   2.288   2.947  0.0840  0.0266 -0.1706
 6152SOL     OW30091   1.244   0.515   5.509  0.6011  0.7742  0.2596
 6152SOL    HW130092   1.308   0.463   5.558 -1.3910 -0.7888  1.2212
 6152SOL    HW230093   1.248   0.459   5.431  0.1687  1.3608 -0.1802
 6153SOL     OW30094   3.764   3.343   4.115  0.5689 -0.5212  0.2490
 6153SOL    HW130095   3.770   3.337   4.020 -0.8628 -0.2605  0.1437
 6153SOL    HW230096   3.670   3.357   4.127  1.0283  2.4711  0.4129
 6154SOL     OW30097   0.309   0.113  13.858 -0.0457 -0.5973 -0.3671
 6154SOL    HW130098   0.226   0.138  13.819  0.6547 -0.9012 -2.0588
 6154SOL    HW230099   0.373   0.178  13.825 -0.0648 -0.3434  0.0951
 6155SOL     OW30100   3.250   2.221  15.266 -0.5137 -0.3320  0.3515
 6155SOL    HW130101   3.325   2.263  15.222 -2.3062 -0.9610 -3.2755
 6155SOL    HW230102   3.282   2.214  15.356  1.2358 -0.8408 -0.2981
 6156SOL     OW30103   3.577   2.812   7.615  0.5149  0.2136  0.6444
 6156SOL    HW130104   3.502   2.814   7.556  1.1361  2.7896 -0.0986
 6156SOL    HW230105   3.592   2.718   7.622 -2.1971 -0.1665  1.5520
 6157SOL     OW30106   1.652   4.690   4.146  0.0836  0.5351  0.2122
 6157SOL    HW130107   1.653   4.631   4.222 -3.0956  0.5914  0.2628
 6157SOL    HW230108   1.580   0.004   4.174 -1.9893 -1.5751 -0.8744
 6158SOL     OW30109   0.751   2.842   6.459  0.0543  0.5457  0.2642
 6158SOL    HW130110   0.815   2.771   6.466 -1.3841 -0.6684  1.0163
 6158SOL    HW230111   0.751   2.860   6.365 -1.0139  1.2184  0.3868
 6159SOL     OW30112   3.430   0.687  16.765  0.2259  0.4492 -0.2683
 6159SOL    HW130113   3.421   0.702  16.859  2.9483  0.8060 -0.0757
 6159SOL    HW230114   3.478   0.605  16.757 -0.8762 -0.2912  0.8472
 6160SOL     OW30115   3.613   3.574   3.410 -0.2467  0.3541  0.0576
 6160SOL    HW130116   3.526   3.577   3.450 -1.0067 -0.6302 -1.5326
 6160SOL    HW230117   3.618   3.480   3.392 -1.0136  0.1035  1.1236
 6161SOL     OW30118   3.330   2.188   3.235  0.0055 -0.0317 -0.3670
 6161SOL    HW130119   3.301   2.277   3.256 -1.5652 -0.2015 -1.7927
 6161SOL    HW230120   3.251   2.165   3.186 -0.1073 -2.2871  0.8597
 6162SOL     OW30121   0.902   1.040   2.604  0.5720  0.2721 -0.6624
 6162SOL    HW130122   0.852   1.117   2.631  0.8673 -0.0053  0.6761
 6162SOL    HW230123   0.957   1.068   2.531  0.4330 -1.2566 -1.3646
 6163SOL     OW30124   0.485   0.463   2.090  0.4407 -0.5321  0.3711
 6163SOL    HW130125   0.431   0.401   2.140 -1.7341  0.0872 -1.1866
 6163SOL    HW230126   0.553   0.492   2.150 -0.4346 -2.4381  2.2789
 6164SOL     OW30127   2.822   0.125   2.238  0.4792  0.3098  0.0379
 6164SOL    HW130128   2.770   0.184   2.185 -0.3325 -1.9876 -1.7192
 6164SOL    HW230129   2.874   0.185   2.292  1.7447  0.6353 -1.5269
 6165SOL     OW30130   4.548   0.375   7.816  0.3782 -0.3343  0.1860
 6165SOL    HW130131   4.461   0.413   7.830 -1.1663 -3.6781 -0.5556
 6165SOL    HW230132   4.602   0.448   7.848  0.1041 -1.3553  2.9538
 6166SOL     OW30133   3.040   4.113   7.472 -0.1762 -0.0065  0.3272
 6166SOL    HW130134   3.096   4.190   7.476 -0.2109  0.0577 -0.4622
 6166SOL    HW230135   3.017   4.102   7.380  0.0174  0.6333  0.2048
 6167SOL     OW30136   3.600   1.976  13.580  0.1575  0.4617 -0.1718
 6167SOL    HW130137   3.524   1.945  13.629 -0.8113 -0.9066 -2.5142
 6167SOL    HW230138   3.662   1.990  13.651  1.3867 -0.8932 -0.9702
 6168SOL     OW30139   4.164   1.315   8.458  0.5377  0.3519  0.3941
 6168SOL    HW130140   4.122   1.369   8.525 -1.5908 -1.5551  0.6001
 6168SOL    HW230141   4.126   1.350   8.377 -1.9191  0.9245  1.7742
 6169SOL     OW30142   2.032   0.335   9.338 -0.2203 -0.3348 -0.1500
 6169SOL    HW130143   2.015   0.428   9.323 -0.7698 -0.3514  0.3774
 6169SOL    HW230144   2.039   0.326   9.433 -3.3964 -1.6626 -0.0482
 6170SOL     OW30145   0.063   3.382   3.056  0.2110 -0.9764  0.9268
 6170SOL    HW130146   4.724   3.421   3.088  1.6694  1.1814  1.9254
 6170SOL    HW230147   0.128   3.424   3.111  1.2585 -0.9070 -0.3916
 6171SOL     OW30148   1.852   4.238   7.826  0.4420 -0.2490 -0.0101
 6171SOL    HW130149   1.895   4.263   7.744 -1.7726 -0.0713 -1.1214
 6171SOL    HW230150   1.828   4.146   7.811 -0.6651 -0.0250  0.3975
 6172SOL     OW30151   2.076   1.571  16.817 -0.2559 -0.1146 -0.3265
 6172SOL    HW130152   2.019   1.640  16.850  1.1242  1.0861 -0.4020
 6172SOL    HW230153   2.160   1.614  16.800 -0.7934  0.5837 -1.1763
 6173SOL     OW30154   1.387   1.089  11.916 -0.2500  0.0585 -0.4235
 6173SOL    HW130155   1.405   1.182  11.907  0.2128 -0.3347 -3.4825
 6173SOL    HW230156   1.365   1.075  11.824 -0.0965  0.1205 -0.4682
 6174SOL     OW30157   1.251   4.377   2.511  0.1788  0.0754 -0.0407
 6174SOL    HW130158   1.159   4.364   2.536  0.2422  0.2871  0.3026
 6174SOL    HW230159   1.256   4.472   2.508 -1.7185  0.1704 -0.3315
 6175SOL     OW30160   4.366   4.304   6.792 -0.3062 -0.0273 -0.2496
 6175SOL    HW130161   4.299   4.365   6.760  1.6365  1.9537 -0.5626
 6175SOL    HW230162   4.423   4.314   6.715 -0.9190  0.2405 -0.6598
 6176SOL     OW30163   0.658   0.778  12.044  0.5807 -0.5433  0.0282
 6176SOL    HW130164   0.728   0.811  12.100 -1.1285  2.7449  0.2319
 6176SOL    HW230165   0.578   0.811  12.086 -0.7318 -0.8069 -2.2629
 6177SOL     OW30166   2.723   0.944  10.802 -0.1703 -0.4326  0.0383
 6177SOL    HW130167   2.716   0.887  10.725  0.8504  0.0015 -0.3675
 6177SOL    HW230168   2.740   1.029  10.761 -1.9650 -0.0200  0.1495
 6178SOL     OW30169   2.006   3.494  14.114 -0.4708 -0.2855 -0.0511
 6178SOL    HW130170   2.007   3.569  14.172 -2.9055 -1.0162  0.9285
 6178SOL    HW230171   1.948   3.442  14.170 -0.1279  0.8367  1.3343
 6179SOL     OW30172   2.431   1.736  16.296  0.1348 -0.1523 -0.0985
 6179SOL    HW130173   2.500   1.702  16.352  0.2028  3.4988  2.0406
 6179SOL    HW230174   2.467   1.739  16.207 -0.4597 -0.4937 -0.3572
 6180SOL     OW30175   2.448   2.747  11.432  0.1789  0.0455 -0.3297
 6180SOL    HW130176   2.496   2.725  11.512 -1.7200 -0.5605  0.6678
 6180SOL    HW230177   2.431   2.656  11.405 -1.1119 -0.1948  1.2641
 6181SOL     OW30178   1.687   2.985   2.670 -0.5941 -0.1612  0.4349
 6181SOL    HW130179   1.728   2.969   2.754 -0.6004 -0.4788  0.3805
 6181SOL    HW230180   1.692   3.080   2.670  1.1396 -0.2595 -2.6666
 6182SOL     OW30181   1.655   1.597   1.500  0.2583  0.7978 -0.4986
 6182SOL    HW130182   1.739   1.553   1.490 -1.0766 -2.2141  1.3991
 6182SOL    HW230183   1.602   1.518   1.494  0.6333  0.3835  1.7591
 6183SOL     OW30184   4.024   0.205   8.628 -0.1612 -0.3627  0.2356
 6183SOL    HW130185   3.928   0.204   8.620 -0.0399  0.5598 -1.3767
 6183SOL    HW230186   4.053   0.114   8.636  2.0229  0.1022 -2.2703
 6184SOL     OW30187   2.556   0.916   8.871  0.1533  0.4851 -0.4855
 6184SOL    HW130188   2.538   0.824   8.853  2.1207 -0.2130  1.1038
 6184SOL    HW230189   2.542   0.961   8.788  1.3892  0.7794 -0.5288
 6185SOL     OW30190   4.436   4.426   6.285  0.0616  0.2662 -0.2880
 6185SOL    HW130191   4.467   4.371   6.213 -2.3383 -0.9198 -0.4287
 6185SOL    HW230192   4.499   4.498   6.277 -1.5252  1.8966  2.0036
 6186SOL     OW30193   0.929   4.207   8.848 -0.0487 -0.6065  0.0264
 6186SOL    HW130194   0.961   4.143   8.785 -0.2031 -0.1822 -0.4928
 6186SOL    HW230195   1.015   4.232   8.882  0.3516 -0.3465 -1.1816
 6187SOL     OW30196   0.268   3.951  10.700 -0.1929  0.1652  0.1563
 6187SOL    HW130197   0.352   3.905  10.697 -0.1782  0.1369  1.0881
 6187SOL    HW230198   0.287   4.026  10.757 -0.4161  2.5074 -2.8583
 6188SOL     OW30199   3.425   4.088   4.869 -0.3881  0.0001 -0.0588
 6188SOL    HW130200   3.463   4.168   4.833  2.5195 -0.4232  2.0485
 6188SOL    HW230201   3.494   4.023   4.862 -0.3067  0.2758 -1.8673
 6189SOL     OW30202   2.887   2.021   4.431 -0.0732 -0.2792 -0.1682
 6189SOL    HW130203   2.930   2.026   4.517 -0.7776 -1.2857  0.2427
 6189SOL    HW230204   2.846   1.935   4.443  0.0480  0.2753  4.3547
 6190SOL     OW30205   3.119   3.211   4.370 -0.3547 -0.5226 -0.3171
 6190SOL    HW130206   3.098   3.121   4.345 -0.2979 -0.9262  1.1092
 6190SOL    HW230207   3.134   3.187   4.461 -0.2164  0.0036 -0.1987
 6191SOL     OW30208   0.302   0.503  15.726  0.4287 -0.0444  0.5861
 6191SOL    HW130209   0.337   0.582  15.767 -0.5489  1.0229 -0.6135
 6191SOL    HW230210   0.300   0.525  15.633 -0.1321 -2.7678 -0.0594
 6192SOL     OW30211   3.330   0.618   1.568 -0.0384 -0.6358 -0.5980
 6192SOL    HW130212   3.331   0.713   1.575  0.9592 -0.6972  0.1950
 6192SOL    HW230213   3.238   0.596   1.578 -0.3704 -0.2670 -2.9305
 6193SOL     OW30214   2.846   1.118  13.918 -0.2149 -0.2632 -0.2194
 6193SOL    HW130215   2.883   1.045  13.868 -0.7058  0.5535 -1.7898
 6193SOL    HW230216   2.802   1.072  13.989  0.8060 -1.6389 -0.4708
 6194SOL     OW30217   1.077   1.546   0.126 -0.6172  0.2395  0.3918
 6194SOL    HW130218   1.103   1.631   0.091 -0.3162 -0.4556 -1.1071
 6194SOL    HW230219   1.033   1.510   0.049  0.6722 -0.6543  0.0616
 6195SOL     OW30220   0.300   4.281   9.461 -0.1789 -0.0275 -0.4697
 6195SOL    HW130221   0.285   4.201   9.510 -1.0083  0.8196  0.6682
 6195SOL    HW230222   0.390   4.298   9.486 -0.2475  1.3515 -1.1531
 6196SOL     OW30223   1.898   0.206   1.770 -0.0726 -0.3008  0.4537
 6196SOL    HW130224   1.942   0.152   1.704 -2.0796 -1.2447 -0.1220
 6196SOL    HW230225   1.975   0.234   1.820 -0.2764 -0.7435  1.0185
 6197SOL     OW30226   0.847   2.731   3.817 -0.0997  0.1941 -0.4278
 6197SOL    HW130227   0.824   2.641   3.793  0.5307 -0.1476  0.2634
 6197SOL    HW230228   0.820   2.779   3.739  1.2829 -0.5237 -1.3692
 6198SOL     OW30229   2.632   4.423   8.584 -0.3913  0.3925 -0.2171
 6198SOL    HW130230   2.673   4.483   8.646  0.9197  1.2082 -1.8818
 6198SOL    HW230231   2.696   4.434   8.514  0.7522 -0.2565  0.7362
 6199SOL     OW30232   4.397   4.051   6.831  0.4947 -0.5843 -0.0267
 6199SOL    HW130233   4.382   4.145   6.821  0.7997 -0.3964  1.2511
 6199SOL    HW230234   4.465   4.047   6.899 -1.0757 -1.3801  1.5034
 6200SOL     OW30235   3.421   4.668   2.232 -0.2141  0.1884 -0.0549
 6200SOL    HW130236   3.396   4.579   2.208  1.1924 -0.6519  1.6224
 6200SOL    HW230237   3.498   4.651   2.285  0.6821 -1.9604 -2.0536
 6201SOL     OW30238   2.184   3.768   8.591 -0.3935 -0.1404  0.4529
 6201SOL    HW130239   2.106   3.759   8.647 -0.9209 -1.5877 -0.4920
 6201SOL    HW230240   2.250   3.807   8.648  0.5258 -1.5542  0.3628
 6202SOL     OW30241   0.240   1.061   2.959  0.2767 -0.0979 -0.1762
 6202SOL    HW130242   0.297   1.076   2.883  1.3602 -1.3019  0.3904
 6202SOL    HW230243   0.236   1.145   3.005  0.0638  2.4975 -4.9833
 6203SOL     OW30244   0.446   1.693   1.450 -0.0238  0.0188  0.0570
 6203SOL    HW130245   0.363   1.678   1.495 -0.6718  0.6291 -0.9646
 6203SOL    HW230246   0.429   1.636   1.375  2.2911  0.2587 -0.6617
 6204SOL     OW30247   1.032   2.477   3.694  0.4314 -0.0105  0.4232
 6204SOL    HW130248   0.986   2.413   3.748  0.7354 -1.6237 -1.2165
 6204SOL    HW230249   0.953   2.500   3.645  0.2099 -0.3520  0.6192
 6205SOL     OW30250   3.013   0.719   8.275  0.1633  0.5372  0.2338
 6205SOL    HW130251   3.013   0.726   8.370 -1.8261  0.6902  0.2292
 6205SOL    HW230252   3.103   0.749   8.263 -0.3211  1.7428 -0.4098
 6206SOL     OW30253   3.160   2.332   1.523 -0.1863 -0.0902 -0.5163
 6206SOL    HW130254   3.125   2.415   1.492  0.7713  0.1928 -0.8418
 6206SOL    HW230255   3.220   2.364   1.591 -0.5205  3.2400 -1.8192
 6207SOL     OW30256   1.695   2.153   7.829  0.2355 -0.0953 -0.6830
 6207SOL    HW130257   1.681   2.136   7.922 -1.5915 -1.3062 -1.1854
 6207SOL    HW230258   1.773   2.102   7.810  0.4750  0.1854 -0.4602
 6208SOL     OW30259   1.495   1.581   0.297 -0.3422  0.1561  0.4918
 6208SOL    HW130260   1.496   1.513   0.365 -0.4333  0.9742  1.3200
 6208SOL    HW230261   1.441   1.533   0.235  0.0343  0.0072  0.2755
 6209SOL     OW30262   0.246   0.962   4.123  0.4903  0.0502 -0.5082
 6209SOL    HW130263   0.213   1.033   4.178  0.3242 -0.9076  0.6227
 6209SOL    HW230264   0.274   1.002   4.041  0.3599 -0.1171 -0.6348
 6210SOL     OW30265   3.853   3.593  16.774  0.2547 -0.1537  0.0232
 6210SOL    HW130266   3.943   3.616  16.800 -0.2607  1.5504  0.3420
 6210SOL    HW230267   3.806   3.675  16.791  0.3202  0.4965 -2.9801
 6211SOL     OW30268   1.325   0.750   8.276  0.4479 -0.0286 -0.6545
 6211SOL    HW130269   1.238   0.764   8.311  0.9031  1.9242 -0.2927
 6211SOL    HW230270   1.312   0.685   8.206  1.3180  2.4160 -3.1127
 6212SOL     OW30271   4.314   1.594   5.177 -0.4345  0.1179 -0.0367
 6212SOL    HW130272   4.247   1.644   5.224  0.3559  0.5662  0.6254
 6212SOL    HW230273   4.316   1.514   5.229 -0.5521  0.4079  0.4147
 6213SOL     OW30274   2.217   2.436   4.990  0.3974  0.4928  0.4736
 6213SOL    HW130275   2.149   2.376   5.021  1.4623 -1.1398 -0.3477
 6213SOL    HW230276   2.160   2.506   4.957 -1.7745 -0.9780  1.1086
 6214SOL     OW30277   3.034   2.243   6.871  0.2790 -0.0143  0.1139
 6214SOL    HW130278   2.950   2.288   6.881  0.1550 -0.3165  0.4021
 6214SOL    HW230279   3.000   2.155   6.885 -0.1846  0.3398  1.2162
 6215SOL     OW30280   0.728   3.394   4.801 -0.5866  0.1296  0.1764
 6215SOL    HW130281   0.772   3.310   4.817 -2.3013  0.0424  4.3964
 6215SOL    HW230282   0.747   3.438   4.884 -0.2391  0.6092 -0.1570
 6216SOL     OW30283   1.621   0.904  13.292  0.4708  0.3746 -0.1928
 6216SOL    HW130284   1.649   0.890  13.201 -0.8859 -0.2117 -0.5177
 6216SOL    HW230285   1.707   0.908  13.334  0.6088  0.7046 -0.5073
 6217SOL     OW30286   1.180   4.282   1.607 -0.0629  0.0621 -0.1313
 6217SOL    HW130287   1.205   4.374   1.600 -0.3267  0.0722 -0.8864
 6217SOL    HW230288   1.085   4.288   1.599 -0.1588  0.8580  1.7327
 6218SOL     OW30289   3.269   3.853   4.433 -0.4982 -0.3289  0.0345
 6218SOL    HW130290   3.282   3.946   4.449  2.7240 -0.9700  0.9426
 6218SOL    HW230291   3.304   3.814   4.513 -0.2711  0.5337  0.3502
 6219SOL     OW30292   2.122   3.206   5.763 -0.0396 -0.3102  0.6044
 6219SOL    HW130293   2.175   3.126   5.759  0.8953  0.4223 -1.7886
 6219SOL    HW230294   2.186   3.270   5.795 -1.1901  2.0277 -1.7792
 6220SOL     OW30295   3.739   1.399   3.655  0.1097  0.1354  0.9340
 6220SOL    HW130296   3.677   1.388   3.583 -0.3761  1.0559  1.2160
 6220SOL    HW230297   3.808   1.436   3.600 -0.0594 -0.7635  0.1182
 6221SOL     OW30298   0.328   3.870   4.913  0.6107  0.0284  0.1479
 6221SOL    HW130299   0.279   3.945   4.946 -0.7867 -1.1346  0.6872
 6221SOL    HW230300   0.317   3.869   4.818  0.2931  1.5100  0.1638
 6222SOL     OW30301   3.981   1.694   1.347 -0.8632  0.3348 -0.8700
 6222SOL    HW130302   3.951   1.705   1.437  1.0872 -0.5957 -0.1068
 6222SOL    HW230303   3.980   1.598   1.340 -0.5992  0.3632 -1.3254
 6223SOL     OW30304   2.799   0.714   0.545  0.1093  0.4745  0.0631
 6223SOL    HW130305   2.727   0.777   0.543 -1.0253 -0.8300 -0.0019
 6223SOL    HW230306   2.865   0.783   0.537 -0.5999  1.1910  0.3345
 6224SOL     OW30307   0.850   0.597   7.833  1.1939  0.2492 -0.6245
 6224SOL    HW130308   0.778   0.640   7.787 -0.7963 -1.9772  0.4381
 6224SOL    HW230309   0.859   0.660   7.905 -2.0008  0.1915 -0.1487
 6225SOL     OW30310   0.277   2.179   7.996 -0.7495  0.3610 -0.7361
 6225SOL    HW130311   0.334   2.164   8.071 -0.3445 -0.0158 -1.1208
 6225SOL    HW230312   0.247   2.090   7.979 -0.4808  0.0307  0.5457
 6226SOL     OW30313   0.684   1.542  13.050  0.1054  0.4005  0.4937
 6226SOL    HW130314   0.669   1.448  13.044  0.9445  0.3761 -1.3731
 6226SOL    HW230315   0.778   1.558  13.062 -0.4092  3.5540  0.4332
 6227SOL     OW30316   3.362   2.510   2.400  0.5450  0.5045  0.1863
 6227SOL    HW130317   3.310   2.499   2.479 -1.0252  0.5126 -0.8554
 6227SOL    HW230318   3.446   2.518   2.446  0.5137  0.1040  0.3187
 6228SOL     OW30319   3.884   0.487   4.914  0.2617 -0.5919  0.0623
 6228SOL    HW130320   3.796   0.472   4.880  0.2991 -0.8220  0.0671
 6228SOL    HW230321   3.871   0.493   5.008  1.6479 -1.7784  0.3293
 6229SOL     OW30322   0.414   4.735   7.383  0.6031 -0.2518  0.2972
 6229SOL    HW130323   0.376   4.697   7.462  0.7788 -0.4312  0.2968
 6229SOL    HW230324   0.474   0.056   7.422 -2.5834  1.2173  2.7681
 6230SOL     OW30325   1.644   0.640  13.128 -0.0803 -0.1354  0.6031
 6230SOL    HW130326   1.587   0.605  13.060  0.1117  0.5088  0.1179
 6230SOL    HW230327   1.697   0.705  13.083  0.1201  0.0169  1.0566
 6231SOL     OW30328   1.921   2.988   9.988  1.1393 -0.1631 -0.0652
 6231SOL    HW130329   1.992   3.032   9.942  1.4141  0.6314  1.1106
 6231SOL    HW230330   1.980   2.919  10.017 -0.0552  0.4376  3.9250
 6232SOL     OW30331   1.501   1.320   6.701 -0.2234 -0.0559  0.3336
 6232SOL    HW130332   1.553   1.247   6.735 -0.8691 -1.1263 -1.0187
 6232SOL    HW230333   1.469   1.341   6.789  0.2288 -1.2208  0.7747
 6233SOL     OW30334   0.861   3.841  17.448 -0.1737  0.1955  0.5158
 6233SOL    HW130335   0.949   3.838  17.411 -1.1353  0.6869 -1.7638
 6233SOL    HW230336   0.871   3.927  17.489 -0.5663 -1.1135  3.4108
 6234SOL     OW30337   3.115   2.315  17.670 -0.3931  0.1406  0.8298
 6234SOL    HW130338   3.056   2.259  17.619 -1.4117  1.1262  0.9107
 6234SOL    HW230339   3.199   2.270  17.676  0.7276  1.8225 -2.0439
 6235SOL     OW30340   3.088   0.511  10.836 -0.1122  0.2165 -0.2532
 6235SOL    HW130341   2.997   0.540  10.848 -0.3965 -1.5174  1.9799
 6235SOL    HW230342   3.119   0.557  10.759  1.8527 -0.7876 -0.0617
 6236SOL     OW30343   0.483   1.256   5.135 -0.4224  0.2501 -0.0639
 6236SOL    HW130344   0.462   1.176   5.087 -0.1320 -1.4176  2.5661
 6236SOL    HW230345   0.577   1.242   5.149 -0.3728  0.5260 -0.1058
 6237SOL     OW30346   2.498   3.930   5.542  0.0387 -0.2841  0.4267
 6237SOL    HW130347   2.412   3.972   5.547  0.4012  0.4157  0.7810
 6237SOL    HW230348   2.543   3.969   5.617  1.5422 -1.9111  0.3521
 6238SOL     OW30349   0.156   2.378  15.812 -0.2238 -0.2120 -0.2754
 6238SOL    HW130350   0.068   2.341  15.812 -1.6277  3.1185  1.2297
 6238SOL    HW230351   0.131   2.451  15.868 -1.0600  0.4645 -1.5194
 6239SOL     OW30352   0.520   1.327   8.069 -0.2142  0.0406 -0.0355
 6239SOL    HW130353   0.505   1.410   8.025  2.8399  0.4368 -0.3754
 6239SOL    HW230354   0.496   1.267   7.999 -0.1203 -1.0594  0.8595
 6240SOL     OW30355   0.133   2.766  16.467 -0.0482  0.2056 -0.7992
 6240SOL    HW130356   0.143   2.673  16.492 -0.6543  0.2605 -0.3496
 6240SOL    HW230357   0.130   2.810  16.552 -1.4658 -3.4599  1.0676
 6241SOL     OW30358   0.485   3.457   4.221  0.7812  0.1863 -0.2818
 6241SOL    HW130359   0.571   3.414   4.227  0.2626 -0.9396 -0.9581
 6241SOL    HW230360   0.500   3.534   4.167  0.4395 -0.5007 -1.3502
 6242SOL     OW30361   2.270   0.965   6.079 -0.6958 -0.0159  0.1740
 6242SOL    HW130362   2.346   0.956   6.136  0.0201 -1.1180 -0.9560
 6242SOL    HW230363   2.303   1.034   6.023  2.3343 -0.1860  1.7670
 6243SOL     OW30364   0.573   2.451  15.225 -0.3200  0.3693  0.0832
 6243SOL    HW130365   0.619   2.458  15.141 -0.1990  0.0682  0.1251
 6243SOL    HW230366   0.644   2.404  15.268  2.3687  2.2154 -2.3509
 6244SOL     OW30367   0.440   4.696   7.697  0.1367 -0.1502 -0.4606
 6244SOL    HW130368   0.503   0.002   7.645 -1.1770 -0.9171 -2.7745
 6244SOL    HW230369   0.448   4.728   7.786  1.7442 -1.7485 -0.0400
 6245SOL     OW30370   2.432   3.450  11.129 -0.1018 -0.3384 -0.7114
 6245SOL    HW130371   2.396   3.532  11.162  0.1859  0.1297 -1.5559
 6245SOL    HW230372   2.357   3.409  11.086 -1.0851 -1.0243  1.6487
 6246SOL     OW30373   3.947   3.351   5.305  0.0424 -0.0762 -0.3230
 6246SOL    HW130374   3.979   3.442   5.311  0.2138 -0.1297 -0.4446
 6246SOL    HW230375   3.921   3.346   5.213  1.4257 -1.7721 -0.6141
 6247SOL     OW30376   2.898   2.255   1.618 -0.2811  0.2341 -0.2620
 6247SOL    HW130377   2.837   2.273   1.546 -1.1096 -1.4567  0.0375
 6247SOL    HW230378   2.986   2.262   1.580 -0.3676  1.7400 -0.2009
 6248SOL     OW30379   1.422   3.611   2.335  0.1288  0.0259  0.1647
 6248SOL    HW130380   1.441   3.527   2.293  1.1212 -0.2711  1.2217
 6248SOL    HW230381   1.417   3.668   2.259  1.3065 -0.4071 -0.2509
 6249SOL     OW30382   3.943   1.559   2.903 -0.4850  0.0965 -0.0540
 6249SOL    HW130383   3.989   1.590   2.825  0.1393 -0.1052  0.2387
 6249SOL    HW230384   3.873   1.624   2.910  0.5090  1.0918  0.6009
 6250SOL     OW30385   3.816   0.139  14.019  0.0240 -0.3826 -0.0005
 6250SOL    HW130386   3.838   0.230  13.997  2.7898 -1.0162  0.2069
 6250SOL    HW230387   3.736   0.126  13.969 -0.1811  1.4889 -0.1786
 6251SOL     OW30388   1.054   0.900   2.811 -0.1145  0.5864  0.3151
 6251SOL    HW130389   0.977   0.921   2.758  0.2268  0.0289 -0.3962
 6251SOL    HW230390   1.066   0.983   2.858  0.7101 -0.2671  1.6154
 6252SOL     OW30391   3.162   1.136  10.927  0.4091 -0.1081 -0.2443
 6252SOL    HW130392   3.175   1.097  10.840  0.7666  1.0797 -0.7248
 6252SOL    HW230393   3.143   1.061  10.984 -1.6861  1.3061  0.9248
 6253SOL     OW30394   4.677   1.191   7.825  0.0031  0.2077 -0.5563
 6253SOL    HW130395   4.668   1.123   7.892 -1.7415  0.4173 -0.5962
 6253SOL    HW230396   4.642   1.137   7.754  1.5241  0.2194 -1.3178
 6254SOL     OW30397   2.800   3.207   3.013 -0.0702  0.3688 -0.6504
 6254SOL    HW130398   2.894   3.217   3.002 -0.1900  1.4291 -0.7663
 6254SOL    HW230399   2.786   3.162   2.930 -3.5506 -3.4151  1.9488
 6255SOL     OW30400   2.707   2.825   9.017 -0.0309  0.3624  0.1750
 6255SOL    HW130401   2.771   2.830   8.946 -0.8698 -0.1569 -0.6156
 6255SOL    HW230402   2.693   2.730   9.014  0.9044  0.1684  2.0918
 6256SOL     OW30403   2.767   2.045  15.082  0.1169 -0.4206 -0.0717
 6256SOL    HW130404   2.857   2.044  15.114  0.2015 -0.3252 -0.3065
 6256SOL    HW230405   2.720   2.063  15.164 -0.3571  0.1494 -0.4725
 6257SOL     OW30406   1.770   4.342  16.409  0.6172 -0.2804 -0.0884
 6257SOL    HW130407   1.785   4.312  16.320  2.6164 -1.7688  0.7393
 6257SOL    HW230408   1.677   4.364  16.406  0.4772 -0.6867  1.0391
 6258SOL     OW30409   4.433   2.655   8.306  0.1162  0.4869 -0.8192
 6258SOL    HW130410   4.360   2.675   8.364  0.4455 -0.4251 -0.0755
 6258SOL    HW230411   4.499   2.644   8.375  0.2913  3.2832 -0.5601
 6259SOL     OW30412   1.946   1.753   4.156 -0.1758 -0.3032 -0.0833
 6259SOL    HW130413   1.885   1.683   4.130 -0.0252 -1.4403  2.6517
 6259SOL    HW230414   2.025   1.716   4.116 -1.6862 -3.0272 -0.5729
 6260SOL     OW30415   2.469   2.395  13.503  0.4169 -0.1824  0.6051
 6260SOL    HW130416   2.429   2.476  13.535  1.6736  1.0518 -0.9620
 6260SOL    HW230417   2.450   2.402  13.409 -0.7494  1.0567  0.9403
 6261SOL     OW30418   0.854   0.549   8.670 -0.8820 -0.5376  0.1338
 6261SOL    HW130419   0.916   0.476   8.663 -1.0748 -0.8944  2.0427
 6261SOL    HW230420   0.778   0.501   8.703 -1.1281 -0.5599 -0.4690
 6262SOL     OW30421   4.306   3.354   9.101 -0.3452  0.2021 -0.2750
 6262SOL    HW130422   4.271   3.388   9.019  2.2615 -1.1322 -1.9395
 6262SOL    HW230423   4.261   3.269   9.103  2.7590 -1.3640  2.3549
 6263SOL     OW30424   4.699   2.047  16.205  0.0445  0.6139 -0.5264
 6263SOL    HW130425   4.613   2.006  16.205  1.7967 -3.0962  0.8774
 6263SOL    HW230426   0.003   1.966  16.186 -0.9789 -0.5489  1.9595
 6264SOL     OW30427   2.833   0.573   5.349  0.6505  0.4946 -0.6209
 6264SOL    HW130428   2.910   0.549   5.400 -0.8345  0.4244  1.6052
 6264SOL    HW230429   2.872   0.608   5.269  0.6277  0.2866 -0.7249
 6265SOL     OW30430   4.291   4.387   9.044  0.0980 -0.1852 -0.4579
 6265SOL    HW130431   4.352   4.419   8.978  0.8315  0.5187  0.5616
 6265SOL    HW230432   4.273   4.298   9.014 -1.9636  0.3152 -0.6661
 6266SOL     OW30433   2.033   4.005  16.736  0.2524  0.4587  0.2921
 6266SOL    HW130434   2.073   4.072  16.682 -0.3134 -0.5131 -1.3134
 6266SOL    HW230435   1.975   4.057  16.792  0.5344  0.3715  0.6621
 6267SOL     OW30436   3.585   0.327   5.602 -0.3516  0.5554  0.1038
 6267SOL    HW130437   3.594   0.232   5.596  0.8207  0.7186 -0.7250
 6267SOL    HW230438   3.663   0.343   5.654 -0.1710 -2.4436  0.7529
 6268SOL     OW30439   3.786   1.271   7.298  0.5291  0.3483 -0.4420
 6268SOL    HW130440   3.816   1.329   7.369  0.5567 -0.1354 -0.0577
 6268SOL    HW230441   3.868   1.232   7.269 -0.2761  1.1562 -3.7556
 6269SOL     OW30442   1.357   0.211   4.482 -0.1402 -0.2264 -0.5477
 6269SOL    HW130443   1.361   0.301   4.449  1.6622 -0.0984  0.0243
 6269SOL    HW230444   1.275   0.225   4.529 -0.0605 -0.8687 -0.2150
 6270SOL     OW30445   2.292   0.809   4.472 -0.3524  0.1967 -0.2744
 6270SOL    HW130446   2.360   0.855   4.522  0.8449  0.3339 -2.0302
 6270SOL    HW230447   2.211   0.852   4.500  0.3874  0.1222  2.0020
 6271SOL     OW30448   3.830   4.489  12.335 -0.6466 -0.1425  0.4759
 6271SOL    HW130449   3.751   4.444  12.367 -1.0668 -0.3300 -0.8063
 6271SOL    HW230450   3.807   4.497  12.242 -0.4629 -2.6056  0.2100
 6272SOL     OW30451   1.171   3.797  12.875  0.5117 -0.5057 -0.2481
 6272SOL    HW130452   1.099   3.832  12.822 -0.1858  0.6899  1.4798
 6272SOL    HW230453   1.126   3.743  12.939  0.7962  0.2159  0.5702
 6273SOL     OW30454   1.116   2.664   0.352  0.5366 -0.3740  0.0223
 6273SOL    HW130455   1.043   2.681   0.293  0.4016  2.0699  0.9039
 6273SOL    HW230456   1.154   2.751   0.345  0.2384 -0.1825  0.7711
 6274SOL     OW30457   4.284   3.131   9.897 -0.4455 -0.1647 -0.2064
 6274SOL    HW130458   4.355   3.154   9.837 -0.7228  0.3776 -0.3208
 6274SOL    HW230459   4.282   3.205   9.958 -2.3829 -0.8009  0.4832
 6275SOL     OW30460   3.279   4.717   3.768  0.6314  0.5347  0.1797
 6275SOL    HW130461   3.366   4.704   3.730  0.3100 -0.9248 -0.0749
 6275SOL    HW230462   3.238   4.651   3.712 -2.1486  2.6096 -0.1881
 6276SOL     OW30463   1.566   2.465  14.978 -0.2356  0.6474 -0.0984
 6276SOL    HW130464   1.508   2.407  15.028  0.9873 -0.1547  0.3953
 6276SOL    HW230465   1.632   2.487  15.043  0.0045  0.5418 -0.3067
 6277SOL     OW30466   0.929   3.648   5.537  0.3832 -0.0497 -0.1994
 6277SOL    HW130467   0.929   3.743   5.543  0.1717 -0.1656  1.9736
 6277SOL    HW230468   0.834   3.634   5.532  0.2295  1.6454 -1.7219
 6278SOL     OW30469   3.520   0.202  10.673 -0.5010  0.2547  0.3695
 6278SOL    HW130470   3.591   0.265  10.685  0.4437 -0.7280 -0.1650
 6278SOL    HW230471   3.511   0.155  10.756  0.9007  0.5164  0.6674
 6279SOL     OW30472   3.553   3.035  11.284  0.2719  0.2096  0.1352
 6279SOL    HW130473   3.610   2.962  11.262 -1.8757 -0.8062 -1.9203
 6279SOL    HW230474   3.475   2.994  11.321  2.3006 -1.5871  2.4244
 6280SOL     OW30475   2.015   2.599  11.659  0.8243 -0.0509  0.1439
 6280SOL    HW130476   2.063   2.536  11.606  3.4737 -1.2621  3.9567
 6280SOL    HW230477   1.938   2.622  11.607 -0.2047 -0.8803  1.2959
 6281SOL     OW30478   4.313   4.180  15.098 -0.4723  0.0953 -0.3264
 6281SOL    HW130479   4.330   4.100  15.049  1.2949  0.0316  0.3778
 6281SOL    HW230480   4.315   4.235  15.020  0.6419  1.0380  0.3670
 6282SOL     OW30481   0.332   0.139   6.633  0.1360  0.2478 -0.3268
 6282SOL    HW130482   0.239   0.159   6.641  0.5158  1.8372  0.1788
 6282SOL    HW230483   0.357   0.201   6.565  3.7564 -0.8876 -0.0366
 6283SOL     OW30484   4.551   4.244  13.828 -0.2398  0.6627 -0.3283
 6283SOL    HW130485   4.632   4.215  13.784 -1.1300 -0.5569 -1.1479
 6283SOL    HW230486   4.558   4.192  13.907  0.0995 -0.3558 -1.0237
 6284SOL     OW30487   4.392   2.295   5.663  0.0924 -0.4071  0.3241
 6284SOL    HW130488   4.455   2.260   5.600 -1.9307 -1.5418 -1.0655
 6284SOL    HW230489   4.449   2.280   5.738 -2.3100  1.2550  2.4565
 6285SOL     OW30490   4.519   2.723   8.949 -0.2426 -0.0281 -0.3023
 6285SOL    HW130491   4.452   2.776   8.905  0.2676 -0.6236 -1.7894
 6285SOL    HW230492   4.588   2.779   8.913  1.1107 -1.6790 -0.2704
 6286SOL     OW30493   2.117   2.199   3.706  0.0132 -0.4715  0.2413
 6286SOL    HW130494   2.065   2.133   3.661 -0.3698  1.6163 -2.3872
 6286SOL    HW230495   2.160   2.146   3.773  1.7126  0.2837 -0.2415
 6287SOL     OW30496   2.401   2.793  14.094  0.3756 -0.0655 -0.2714
 6287SOL    HW130497   2.327   2.741  14.126  0.4314 -1.0909 -1.8115
 6287SOL    HW230498   2.475   2.739  14.121 -0.0021 -0.2140  0.4487
 6288SOL     OW30499   2.780   0.503   9.016  0.6600 -0.3324  0.1201
 6288SOL    HW130500   2.686   0.512   9.028  0.4545 -1.9940 -0.2962
 6288SOL    HW230501   2.790   0.447   8.939 -1.7857 -1.6578  0.7791
 6289SOL     OW30502   4.209   2.341   2.241  0.2101 -0.8346 -0.3266
 6289SOL    HW130503   4.147   2.278   2.205  0.1698 -0.7496 -0.4076
 6289SOL    HW230504   4.241   2.289   2.314 -0.0687  0.6652  0.8643
 6290SOL     OW30505   0.802   0.201   6.731  0.5061  0.4917  0.0531
 6290SOL    HW130506   0.727   0.141   6.726  0.7614  0.2959 -1.2545
 6290SOL    HW230507   0.843   0.158   6.806 -0.4697  1.8355  1.3750
 6291SOL     OW30508   2.020   2.403   3.845 -0.3369 -0.6187 -0.4753
 6291SOL    HW130509   1.961   2.418   3.771  0.6910  0.3006 -1.1287
 6291SOL    HW230510   2.069   2.328   3.812  2.1998  0.6769  0.2827
 6292SOL     OW30511   2.642   2.162   8.496 -0.5375  0.3542  0.3663
 6292SOL    HW130512   2.660   2.126   8.583  2.5610 -0.7713 -0.7297
 6292SOL    HW230513   2.604   2.247   8.516  1.0094  1.1766 -0.2168
 6293SOL     OW30514   3.446   3.461  10.450  0.2562  0.1983 -0.1179
 6293SOL    HW130515   3.435   3.370  10.475  0.8253 -0.2818 -1.5858
 6293SOL    HW230516   3.414   3.464  10.360 -0.3740  2.9913  0.1792
 6294SOL     OW30517   3.851   2.984  16.981  0.2976  0.4296 -0.7131
 6294SOL    HW130518   3.844   2.982  16.886 -0.0165  1.7751 -0.7150
 6294SOL    HW230519   3.938   3.022  16.992  0.3208  0.4223 -0.8803
 6295SOL     OW30520   3.519   1.681   1.755 -0.3081  0.4037 -0.2855
 6295SOL    HW130521   3.424   1.675   1.763 -0.4796  0.1561 -2.5436
 6295SOL    HW230522   3.530   1.761   1.805 -1.7889 -0.5153  1.5207
 6296SOL     OW30523   2.626   1.923  11.969  0.1906 -0.0216 -0.0985
 6296SOL    HW130524   2.626   1.935  11.874  0.2615  1.9437  0.1470
 6296SOL    HW230525   2.596   2.008  12.002  1.0089 -0.5352  1.9644
 6297SOL     OW30526   0.637   0.104   1.673 -0.4988 -0.0544 -0.0780
 6297SOL    HW130527   0.691   0.173   1.635 -1.0394  0.7161  0.5561
 6297SOL    HW230528   0.674   0.099   1.761  0.0068 -0.3891 -0.3058
 6298SOL     OW30529   3.602   2.879   2.465 -0.3723 -0.1896  0.1254
 6298SOL    HW130530   3.619   2.896   2.372  0.6405  0.3568  0.4107
 6298SOL    HW230531   3.596   2.783   2.466  1.8372 -0.3183 -0.8479
 6299SOL     OW30532   0.423   1.148   2.264 -0.1019 -0.4740  0.5839
 6299SOL    HW130533   0.397   1.231   2.223 -1.3530 -0.6348  1.0448
 6299SOL    HW230534   0.361   1.094   2.214  1.2085 -1.1783 -0.2669
 6300SOL     OW30535   1.159   4.300  10.960 -0.2487 -0.3424 -0.3559
 6300SOL    HW130536   1.182   4.380  10.913  1.7798 -1.4537 -1.2160
 6300SOL    HW230537   1.219   4.229  10.939 -0.2135 -1.0883  2.3620
 6301SOL     OW30538   3.230   1.257  12.905  0.2543  0.3708  0.3086
 6301SOL    HW130539   3.262   1.347  12.909  1.4242 -0.0095 -0.3541
 6301SOL    HW230540   3.308   1.219  12.946  0.5786  1.0175  0.2938
 6302SOL     OW30541   2.122   2.639   4.762  0.3974 -0.3333 -0.2985
 6302SOL    HW130542   2.094   2.598   4.680 -1.7317  0.0088  0.2487
 6302SOL    HW230543   2.048   2.700   4.771 -0.9370 -2.5711  3.9791
 6303SOL     OW30544   2.184   3.071   6.414  0.2785 -0.1875 -0.1542
 6303SOL    HW130545   2.188   3.101   6.323  1.9745  0.9597  0.3002
 6303SOL    HW230546   2.131   3.137   6.458 -2.8576 -1.9656 -1.2736
 6304SOL     OW30547   2.358   1.240   7.811  0.7453 -0.0499 -0.1191
 6304SOL    HW130548   2.342   1.171   7.876  0.0223  1.2128  1.0461
 6304SOL    HW230549   2.445   1.266   7.842  1.4319  0.1159 -2.2054
 6305SOL     OW30550   1.433   2.654   1.343 -0.5362 -0.4648  0.1753
 6305SOL    HW130551   1.475   2.718   1.286 -2.2645  0.0248 -0.5573
 6305SOL    HW230552   1.474   2.577   1.304  1.3659 -0.6742  2.5936
 6306SOL     OW30553   4.608   2.065   5.182 -0.9337  0.4465  0.1646
 6306SOL    HW130554   4.647   1.979   5.165  0.9236  1.2004  0.5664
 6306SOL    HW230555   4.631   2.113   5.102  0.1152 -0.1077  0.1345
 6307SOL     OW30556   2.925   0.915  16.284  0.4431 -0.1711 -0.3986
 6307SOL    HW130557   2.979   0.859  16.340  0.9970 -1.0309 -1.7880
 6307SOL    HW230558   2.884   0.851  16.226 -1.9275  1.9615 -1.0356
 6308SOL     OW30559   0.670   2.265  14.865 -0.1800 -0.1886 -0.3118
 6308SOL    HW130560   0.680   2.170  14.862  0.5169 -0.0998 -0.7755
 6308SOL    HW230561   0.751   2.292  14.908  1.5653 -0.9550 -3.1517
 6309SOL     OW30562   1.630   2.732  10.353 -0.2223 -0.0135  0.1118
 6309SOL    HW130563   1.647   2.797  10.285  0.5634 -1.2841 -0.9138
 6309SOL    HW230564   1.716   2.705  10.384 -0.2520  0.8654  0.9767
 6310SOL     OW30565   0.860   3.746   2.658  0.5208 -0.1192 -0.7051
 6310SOL    HW130566   0.861   3.770   2.565 -0.5696 -2.3026 -1.2682
 6310SOL    HW230567   0.769   3.725   2.677  0.5580 -0.2903 -0.7156
 6311SOL     OW30568   3.648   0.837   6.402 -0.3234 -0.0177 -0.3325
 6311SOL    HW130569   3.621   0.899   6.334 -2.1582  0.4531  0.8107
 6311SOL    HW230570   3.615   0.868   6.486 -0.0239 -0.9501  0.1247
 6312SOL     OW30571   0.271   1.235   7.098 -0.2014 -0.2022 -0.8159
 6312SOL    HW130572   0.290   1.224   7.192 -0.4121 -0.9094 -0.8539
 6312SOL    HW230573   0.216   1.313   7.092  0.4266  0.5449  2.8233
 6313SOL     OW30574   2.050   2.568   5.506  0.2541  0.1249  0.4599
 6313SOL    HW130575   2.039   2.585   5.413  1.9260 -0.2229  0.2132
 6313SOL    HW230576   2.064   2.655   5.543 -2.1412  0.3803  0.7970
 6314SOL     OW30577   2.794   4.675   7.487 -0.5433 -0.2105 -0.4246
 6314SOL    HW130578   2.860   4.737   7.457 -0.0969 -0.6725 -0.3936
 6314SOL    HW230579   2.763   4.632   7.407 -0.9026  0.0856 -0.4485
 6315SOL     OW30580   2.526   0.805   3.307 -0.0761 -0.2459 -0.1584
 6315SOL    HW130581   2.552   0.742   3.240  1.4933  1.4301 -1.1264
 6315SOL    HW230582   2.586   0.783   3.378  1.3571  1.0216 -0.9557
 6316SOL     OW30583   3.349   0.044   7.554 -0.2960  0.3130 -0.2361
 6316SOL    HW130584   3.356   4.742   7.638  1.6767  0.9340 -0.0736
 6316SOL    HW230585   3.327   0.129   7.593  0.3897 -0.4644  1.8604
 6317SOL     OW30586   3.463   0.976   8.568 -0.3915 -0.2005  0.3152
 6317SOL    HW130587   3.484   1.069   8.575  1.9647 -0.8384  1.4903
 6317SOL    HW230588   3.401   0.987   8.495  0.6952  0.6844 -0.4855
 6318SOL     OW30589   1.651   3.804   4.918 -0.2181  0.4769  0.2624
 6318SOL    HW130590   1.702   3.723   4.914  1.6428  1.6864 -0.5172
 6318SOL    HW230591   1.591   3.783   4.990 -1.3004 -1.2306 -1.1538
 6319SOL     OW30592   4.120   0.666   7.807 -0.4892 -0.5637 -0.4059
 6319SOL    HW130593   4.024   0.660   7.807 -0.5635  0.7679  1.2026
 6319SOL    HW230594   4.134   0.754   7.843 -1.9104 -0.0944 -1.0068
 6320SOL     OW30595   3.893   2.967   4.592 -0.6188 -0.3185  0.4188
 6320SOL    HW130596   3.978   3.011   4.584 -0.4372 -0.7057  0.1463
 6320SOL    HW230597   3.876   2.950   4.684 -0.3150  1.0016  0.7188
 6321SOL     OW30598   3.229   3.214   7.927 -0.5822  0.3245 -0.8744
 6321SOL    HW130599   3.161   3.279   7.905 -0.3527  0.7182 -0.4110
 6321SOL    HW230600   3.271   3.205   7.842  1.7515 -2.4215  0.5889
 6322SOL     OW30601   3.594   1.714   8.356  0.0989 -0.7345  0.1419
 6322SOL    HW130602   3.612   1.704   8.449  0.2810  2.3456  0.4442
 6322SOL    HW230603   3.643   1.792   8.328 -2.2417  0.5711 -0.3040
 6323SOL     OW30604   0.617   2.413   8.384 -0.3421  0.3063 -0.5360
 6323SOL    HW130605   0.541   2.411   8.442 -0.3504  0.5461 -0.5411
 6323SOL    HW230606   0.670   2.339   8.412  0.9887  0.1841 -3.3438
 6324SOL     OW30607   3.059   1.948   2.204 -0.2652 -0.4168  0.1677
 6324SOL    HW130608   3.095   1.861   2.189 -2.1882 -0.8657 -1.8882
 6324SOL    HW230609   3.015   1.930   2.287 -0.3981  0.5602  0.3042
 6325SOL     OW30610   4.676   4.219  15.802  0.2620 -0.3322 -0.4392
 6325SOL    HW130611   4.724   4.302  15.794 -0.3427 -0.0133 -0.7730
 6325SOL    HW230612   4.594   4.238  15.756  0.2238  0.6738  0.0532
 6326SOL     OW30613   1.904   3.073   5.528 -0.5423 -0.1826 -0.0991
 6326SOL    HW130614   1.994   3.042   5.518 -0.3890 -0.3421  1.7888
 6326SOL    HW230615   1.860   2.989   5.517  0.4055 -0.6025 -0.7657
 6327SOL     OW30616   2.563   2.345   8.804  0.7623 -0.0911  0.2124
 6327SOL    HW130617   2.581   2.381   8.717  0.2576 -2.1680 -0.7421
 6327SOL    HW230618   2.594   2.255   8.795 -0.7243 -0.3000 -2.9230
 6328SOL     OW30619   0.163   2.772  16.108  0.6374 -0.1650  0.4137
 6328SOL    HW130620   0.219   2.810  16.176  1.1191  0.2852 -0.2335
 6328SOL    HW230621   0.172   2.679  16.129  0.3140 -0.1566  0.5863
 6329SOL     OW30622   0.958   3.904  17.092  0.1548  0.4473  0.5596
 6329SOL    HW130623   0.899   3.835  17.124  0.0474  0.1335 -0.3173
 6329SOL    HW230624   0.943   3.913  16.998 -1.1291 -1.7620  0.5419
 6330SOL     OW30625   0.089   4.571  13.912  0.0226 -0.1948  0.3239
 6330SOL    HW130626   0.059   4.511  13.981 -1.5512  2.0334  1.5627
 6330SOL    HW230627   0.131   4.637  13.967 -1.1095  1.3152 -0.6402
 6331SOL     OW30628   1.342   3.045   1.738  0.2372 -0.4856  0.6769
 6331SOL    HW130629   1.346   3.000   1.654  0.7934  1.1345 -0.1646
 6331SOL    HW230630   1.412   3.002   1.786  1.0636  1.1318  0.9113
 6332SOL     OW30631   1.140   3.839   6.247 -0.4341  0.0372  0.4538
 6332SOL    HW130632   1.169   3.927   6.225 -0.5206 -0.4698 -1.6221
 6332SOL    HW230633   1.159   3.844   6.341 -1.1834 -0.0507  0.6067
 6333SOL     OW30634   4.114   3.579   5.261 -0.7427 -0.6825 -0.2432
 6333SOL    HW130635   4.169   3.534   5.196 -0.4677 -0.9079  0.1448
 6333SOL    HW230636   4.182   3.623   5.313  0.7451 -3.4132  0.1412
 6334SOL     OW30637   0.316   1.186   7.366  0.3878  0.8816 -0.0358
 6334SOL    HW130638   0.370   1.249   7.414 -1.3134  1.1322  1.5659
 6334SOL    HW230639   0.242   1.187   7.427  0.3224  1.7476 -0.1325
 6335SOL     OW30640   4.713   1.864   5.044  0.4327  0.1063 -0.0561
 6335SOL    HW130641   4.703   1.806   4.968 -2.7544  0.7634 -0.1441
 6335SOL    HW230642   4.717   1.951   5.005  1.5206  0.0392 -0.0910
 6336SOL     OW30643   3.181   4.333   9.266 -0.1688  0.2957 -0.1560
 6336SOL    HW130644   3.139   4.349   9.182  1.3284  2.2148 -0.5531
 6336SOL    HW230645   3.266   4.304   9.232  1.1118  3.4823  0.2516
 6337SOL     OW30646   3.552   4.441   5.359 -0.5791  0.4017 -0.4667
 6337SOL    HW130647   3.645   4.423   5.347 -1.2184 -2.8511 -0.5629
 6337SOL    HW230648   3.513   4.412   5.277 -2.4865  2.4825 -0.3194
 6338SOL     OW30649   3.240   1.909   3.684 -0.2354 -0.1386  0.0985
 6338SOL    HW130650   3.317   1.920   3.628 -0.9391 -0.5510 -0.9522
 6338SOL    HW230651   3.279   1.852   3.751  1.0751 -0.5757 -1.0236
 6339SOL     OW30652   3.187   2.704   4.932 -0.5054  0.4166  0.1978
 6339SOL    HW130653   3.092   2.716   4.931 -0.0905  3.5850  0.4327
 6339SOL    HW230654   3.211   2.769   4.866 -0.6303  0.3958  0.1310
 6340SOL     OW30655   1.938   2.518   0.658 -0.0075 -0.1686 -0.4379
 6340SOL    HW130656   1.973   2.571   0.586  0.2578 -1.6206 -1.3634
 6340SOL    HW230657   1.896   2.454   0.602 -0.3223  1.2041 -1.7759
 6341SOL     OW30658   1.120   1.398   4.406 -0.1261  0.4613 -0.4691
 6341SOL    HW130659   1.035   1.392   4.362 -0.4347 -1.1536  0.3264
 6341SOL    HW230660   1.111   1.484   4.446  2.0615 -0.4501  1.9696
 6342SOL     OW30661   3.274   1.750   6.041  0.3731  0.2025 -0.2460
 6342SOL    HW130662   3.310   1.721   6.125 -1.9976 -1.0563  0.3359
 6342SOL    HW230663   3.357   1.770   5.996 -0.9868  0.8033 -2.4959
 6343SOL     OW30664   2.174   1.662  11.383 -0.3369  0.0259  0.3697
 6343SOL    HW130665   2.181   1.596  11.314  3.2220  1.1105 -0.3028
 6343SOL    HW230666   2.201   1.748  11.351  2.7438 -0.3324  2.0157
 6344SOL     OW30667   0.083   2.175  11.000 -0.1864 -0.4281 -0.5349
 6344SOL    HW130668   0.045   2.263  10.997 -1.6422 -1.1549 -3.2418
 6344SOL    HW230669   0.007   2.124  11.028 -1.2764  1.5307  0.0351
 6345SOL     OW30670   0.785   1.764   8.079 -0.4922 -0.3851 -0.0643
 6345SOL    HW130671   0.844   1.772   8.153  1.8252  1.2517 -2.0804
 6345SOL    HW230672   0.781   1.850   8.036 -0.4208  0.3199  1.3488
 6346SOL     OW30673   4.092   1.944   4.777 -0.2399 -0.4050 -0.3107
 6346SOL    HW130674   4.126   1.938   4.687 -2.5603  0.3526 -1.2407
 6346SOL    HW230675   4.174   1.916   4.817  0.1440 -0.5368 -1.1936
 6347SOL     OW30676   0.038   2.497   0.898  0.4373 -0.6489 -0.1930
 6347SOL    HW130677   0.008   2.535   0.815  0.4844 -1.8791 -0.7840
 6347SOL    HW230678   0.121   2.457   0.873  0.2881 -0.9355 -0.2299
 6348SOL     OW30679   1.616   0.631   4.127  0.3862  0.3816 -0.2188
 6348SOL    HW130680   1.650   0.551   4.087 -1.0610 -0.0741 -0.5659
 6348SOL    HW230681   1.526   0.598   4.119  1.1984 -1.4341 -2.0036
 6349SOL     OW30682   0.545   3.882   9.227 -0.3628  0.7781 -0.2717
 6349SOL    HW130683   0.626   3.834   9.244 -0.6179  0.6027  0.4146
 6349SOL    HW230684   0.550   3.960   9.282 -1.2827  1.0863 -0.6297
 6350SOL     OW30685   4.167   1.684   9.092  0.6204 -0.4570  0.0122
 6350SOL    HW130686   4.209   1.609   9.134  0.9727 -0.5481 -0.4998
 6350SOL    HW230687   4.239   1.744   9.113  0.5752 -0.2734 -0.3608
 6351SOL     OW30688   2.246   2.478   8.874 -0.7843 -0.7059  0.3894
 6351SOL    HW130689   2.299   2.399   8.860  0.6310 -0.0546  2.0079
 6351SOL    HW230690   2.308   2.533   8.922 -1.2443 -0.1210  0.3106
 6352SOL     OW30691   1.825   4.579   6.380 -0.0745 -0.4035  0.3238
 6352SOL    HW130692   1.874   4.512   6.333 -0.4938  0.3656 -1.2002
 6352SOL    HW230693   1.759   4.596   6.313 -0.7061 -1.6380  0.6339
 6353SOL     OW30694   0.258   0.321   6.876  0.1510 -0.1922  0.2281
 6353SOL    HW130695   0.260   0.235   6.917  0.9012  0.1092  0.8202
 6353SOL    HW230696   0.341   0.322   6.829  0.0502  0.2513  0.0544
 6354SOL     OW30697   0.165   2.680   8.637  0.3668  0.0226  0.2493
 6354SOL    HW130698   0.170   2.766   8.678  1.1577  0.9647 -1.8387
 6354SOL    HW230699   0.140   2.628   8.713 -0.2039 -2.1382 -1.4135
 6355SOL     OW30700   3.378   2.037  11.182 -0.0580  0.2801  0.1308
 6355SOL    HW130701   3.282   2.039  11.178  0.1144  1.6543 -2.7721
 6355SOL    HW230702   3.401   1.966  11.242 -2.9859  0.4826  1.4817
 6356SOL     OW30703   3.313   3.072   5.614 -0.3115 -0.5355 -0.3188
 6356SOL    HW130704   3.220   3.095   5.605 -0.8493 -2.7904 -0.5040
 6356SOL    HW230705   3.326   3.008   5.545 -2.3705  0.6296 -1.7695
 6357SOL     OW30706   4.083   1.978  14.657  0.1824 -0.5469 -0.2453
 6357SOL    HW130707   4.118   1.903  14.608 -0.8892  0.9923 -3.3963
 6357SOL    HW230708   4.163   2.027  14.676 -1.6663  1.9514  1.1386
 6358SOL     OW30709   4.433   0.571   8.792  0.5842  0.4602 -0.3847
 6358SOL    HW130710   4.477   0.597   8.711  1.2542 -0.4335 -0.3120
 6358SOL    HW230711   4.352   0.605   8.755  0.5842  0.1576 -0.6646
 6359SOL     OW30712   0.811   3.519   7.554 -0.1230  0.0385  0.5321
 6359SOL    HW130713   0.892   3.524   7.606  0.0542  0.2846  0.2283
 6359SOL    HW230714   0.837   3.569   7.477 -1.6399  2.7586  1.8031
 6360SOL     OW30715   0.344   1.343   1.386 -0.5942 -0.1579 -0.2892
 6360SOL    HW130716   0.345   1.294   1.304  0.5652 -0.9401  0.1875
 6360SOL    HW230717   0.391   1.288   1.449 -0.1725  1.2453  0.6260
 6361SOL     OW30718   3.395   0.724   6.038  0.2900  0.1411  0.1261
 6361SOL    HW130719   3.425   0.748   6.125 -1.1364 -4.1609  1.8152
 6361SOL    HW230720   3.316   0.778   6.029 -0.6218 -1.1317  0.5056
 6362SOL     OW30721   2.662   2.587   2.183 -0.5828  0.2030 -0.1991
 6362SOL    HW130722   2.714   2.626   2.253 -0.0903 -1.1869  0.2086
 6362SOL    HW230723   2.699   2.624   2.104  0.9359 -1.3225 -0.2019
 6363SOL     OW30724   4.207   0.560   6.820 -0.4033 -0.5481  0.4121
 6363SOL    HW130725   4.200   0.468   6.797 -2.2856 -0.1117 -0.8552
 6363SOL    HW230726   4.182   0.602   6.737 -0.9605  0.3335  1.0258
 6364SOL     OW30727   0.197   1.833   9.560 -0.7739  0.0360 -0.7140
 6364SOL    HW130728   0.111   1.794   9.576 -0.1903 -0.9912 -0.1080
 6364SOL    HW230729   0.184   1.918   9.518 -3.6947  0.0142  0.1212
 6365SOL     OW30730   2.183   1.079   1.655 -0.0480 -0.2060 -0.2170
 6365SOL    HW130731   2.269   1.040   1.669 -0.5856 -1.4906 -0.4362
 6365SOL    HW230732   2.127   1.024   1.709 -0.4908  1.2269  0.7705
 6366SOL     OW30733   1.858   2.808   5.472 -0.4580 -0.0555  0.1472
 6366SOL    HW130734   1.889   2.727   5.431  0.1124 -0.3280  1.1169
 6366SOL    HW230735   1.769   2.812   5.435  0.3585 -2.6532 -2.1812
 6367SOL     OW30736   3.849   0.824  12.626  0.1044 -0.5155  0.2175
 6367SOL    HW130737   3.902   0.748  12.649 -1.3723 -1.4746  0.4401
 6367SOL    HW230738   3.850   0.822  12.530  0.4329 -1.9887  0.2556
 6368SOL     OW30739   3.322   2.863   5.209 -0.0571 -0.2197  0.4649
 6368SOL    HW130740   3.326   2.835   5.301  2.3899  0.8262  0.6716
 6368SOL    HW230741   3.244   2.918   5.208  0.2991  0.2731 -0.2691
 6369SOL     OW30742   4.516   4.660  11.988  0.0706  0.4712 -0.2232
 6369SOL    HW130743   4.434   4.685  11.944 -0.2623 -0.0111  0.1294
 6369SOL    HW230744   4.482   4.645  12.076 -2.3555 -1.2060 -1.4552
 6370SOL     OW30745   4.233   2.797   3.439 -0.1819 -0.5855 -0.4554
 6370SOL    HW130746   4.286   2.867   3.401  0.4431  0.3657  2.1379
 6370SOL    HW230747   4.275   2.797   3.525 -1.1706  1.7948  0.0278
 6371SOL     OW30748   3.273   2.625   1.411 -0.0651 -0.6307 -0.1746
 6371SOL    HW130749   3.219   2.567   1.356  0.0860 -2.3224  1.4834
 6371SOL    HW230750   3.240   2.615   1.500 -0.1360 -0.4197 -0.1764
 6372SOL     OW30751   1.292   0.525  14.344  0.6934 -0.2216  0.3312
 6372SOL    HW130752   1.222   0.558  14.400  1.3653  0.2792  0.8741
 6372SOL    HW230753   1.285   0.583  14.267  1.0183  0.3820  0.7564
 6373SOL     OW30754   0.057   4.194   2.405  0.3866  0.1686  0.2602
 6373SOL    HW130755   0.147   4.204   2.374  0.4295 -1.1143 -0.0378
 6373SOL    HW230756   0.045   4.281   2.443 -1.2217  0.3452 -0.6796
 6374SOL     OW30757   1.274   0.178   8.159 -0.1755  0.2858  0.6083
 6374SOL    HW130758   1.283   0.272   8.173  0.1936  0.6600 -2.1158
 6374SOL    HW230759   1.360   0.146   8.186  0.0115  1.1724  1.0418
 6375SOL     OW30760   0.764   2.975  17.613  0.0120  0.1888  0.0001
 6375SOL    HW130761   0.668   2.978  17.604 -0.0057  1.0869  0.5074
 6375SOL    HW230762   0.786   3.046  17.672  2.5506 -2.0016  1.7022
 6376SOL     OW30763   1.839   2.973   0.937 -0.3392  0.0520  0.4177
 6376SOL    HW130764   1.933   2.993   0.935 -0.1274 -1.2877 -3.1503
 6376SOL    HW230765   1.849   2.887   0.977 -2.2225 -0.8601 -1.0608
 6377SOL     OW30766   4.043   4.638  11.388 -0.0847  0.2060  0.1365
 6377SOL    HW130767   4.063   4.573  11.322  0.2390 -1.4499  1.8674
 6377SOL    HW230768   3.958   4.607  11.420 -0.4600  0.7974 -0.2798
 6378SOL     OW30769   4.253   3.048   1.934 -0.0169  0.0407 -0.8944
 6378SOL    HW130770   4.191   3.094   1.877 -1.6491  0.7391  1.4259
 6378SOL    HW230771   4.310   3.113   1.973  0.8688  0.4266 -2.8106
 6379SOL     OW30772   3.647   1.805   4.058 -0.4177  0.2866 -0.0189
 6379SOL    HW130773   3.649   1.726   4.112 -0.7741 -1.0163 -1.9069
 6379SOL    HW230774   3.640   1.872   4.125  1.8286  2.1436 -1.6758
 6380SOL     OW30775   2.602   3.742   7.288 -0.1645  0.5844 -0.0910
 6380SOL    HW130776   2.559   3.808   7.342 -0.1860 -0.1079  0.7450
 6380SOL    HW230777   2.523   3.721   7.238  2.3082 -0.6070 -3.4330
 6381SOL     OW30778   2.059   3.930   6.124 -0.4288  0.0373 -0.2611
 6381SOL    HW130779   1.966   3.910   6.119 -0.3317 -0.9810  1.9043
 6381SOL    HW230780   2.073   3.935   6.219 -1.4794 -0.7512 -0.0573
 6382SOL     OW30781   1.765   0.770  12.554 -0.4143 -0.3134  0.0484
 6382SOL    HW130782   1.849   0.733  12.527 -0.4740 -0.5453  0.1754
 6382SOL    HW230783   1.794   0.826  12.625  1.2250 -1.0153 -0.0630
 6383SOL     OW30784   2.448   0.248   1.176 -0.1664  0.2083 -0.2025
 6383SOL    HW130785   2.386   0.319   1.162  0.1121  0.6295  0.6920
 6383SOL    HW230786   2.484   0.267   1.263  0.7611  1.2120 -0.8238
 6384SOL     OW30787   4.664   2.876   1.835 -0.7552 -0.1149 -0.1575
 6384SOL    HW130788   4.627   2.805   1.781 -1.9281  0.3851 -0.0099
 6384SOL    HW230789   4.601   2.945   1.817 -0.0396  0.2942 -1.0796
 6385SOL     OW30790   0.475   1.154   8.820 -0.7098  0.2775  0.0578
 6385SOL    HW130791   0.389   1.195   8.825 -0.2634  1.3940 -1.5205
 6385SOL    HW230792   0.476   1.115   8.733  0.5127 -0.3152  0.3308
 6386SOL     OW30793   2.391   4.170   3.601  0.3422  0.1042  0.1263
 6386SOL    HW130794   2.461   4.182   3.538  3.1924 -1.9436  2.9092
 6386SOL    HW230795   2.323   4.134   3.544 -0.5680  1.6309  0.2477
 6387SOL     OW30796   4.237   4.342  14.004 -0.5970  0.9177 -0.2833
 6387SOL    HW130797   4.185   4.266  13.979 -1.5225  1.4734 -0.0400
 6387SOL    HW230798   4.183   4.371  14.078  0.6007  0.8183  0.6395
 6388SOL     OW30799   4.072   1.568   8.603 -0.6653 -0.2876  0.6391
 6388SOL    HW130800   4.098   1.649   8.559 -0.0786  0.4146  2.2849
 6388SOL    HW230801   4.109   1.582   8.690 -1.8150 -0.8177  1.2140
 6389SOL     OW30802   3.891   4.310  16.182 -0.4435 -0.1739 -0.1507
 6389SOL    HW130803   3.829   4.362  16.234  0.3891 -0.4526  1.1184
 6389SOL    HW230804   3.847   4.325  16.098 -0.5022 -0.4625 -0.1699
 6390SOL     OW30805   0.218   1.329   4.570 -0.3617 -0.0807 -0.1137
 6390SOL    HW130806   0.125   1.320   4.587 -0.5063  0.6371 -0.5199
 6390SOL    HW230807   0.251   1.356   4.656  2.8891  1.2777 -1.7637
 6391SOL     OW30808   2.885   2.611  16.049 -0.4259  0.2515 -0.5926
 6391SOL    HW130809   2.816   2.545  16.044  1.4142 -2.0275  4.3437
 6391SOL    HW230810   2.894   2.620  16.144 -3.3705 -0.5118 -0.2366
 6392SOL     OW30811   3.962   1.549   4.163 -0.5972  0.3527  0.4806
 6392SOL    HW130812   3.995   1.604   4.092 -0.2652  0.0738  0.4208
 6392SOL    HW230813   3.867   1.553   4.152 -0.3882  0.1661 -1.3482
 6393SOL     OW30814   1.567   2.012   4.745 -0.5308  0.4022  0.5218
 6393SOL    HW130815   1.616   1.932   4.729 -1.2191 -0.0770  0.8434
 6393SOL    HW230816   1.498   2.006   4.678  0.0073 -0.8974  0.0861
 6394SOL     OW30817   0.274   2.887   9.149 -0.1806  0.5581  0.1710
 6394SOL    HW130818   0.192   2.896   9.196 -0.3917 -0.0536 -0.0747
 6394SOL    HW230819   0.322   2.823   9.202  0.6475  1.4415  0.4731
 6395SOL     OW30820   4.100   1.216   2.746 -0.0932 -0.2909  0.1406
 6395SOL    HW130821   4.176   1.250   2.793 -1.4959  3.1736 -0.0976
 6395SOL    HW230822   4.053   1.294   2.716 -1.4908 -0.5318  1.7103
 6396SOL     OW30823   2.806   0.503  16.324  0.3987  0.1333  0.2066
 6396SOL    HW130824   2.806   0.495  16.419  0.3393 -0.4031  0.1632
 6396SOL    HW230825   2.899   0.490  16.312  0.6540  1.6555  0.4623
 6397SOL     OW30826   2.675   1.874   5.732  0.7500  0.1140 -0.9496
 6397SOL    HW130827   2.641   1.885   5.643 -0.5034 -0.5885 -0.5586
 6397SOL    HW230828   2.683   1.966   5.758 -2.0646  0.1142 -0.0510
 6398SOL     OW30829   0.716   0.064  15.093 -0.5474  0.3426 -0.2177
 6398SOL    HW130830   0.623   0.061  15.070 -0.6008 -0.2767  0.0636
 6398SOL    HW230831   0.745   0.084  15.004 -1.2590 -1.0165 -0.7585
 6399SOL     OW30832   2.729   3.423   8.801  0.2980  0.0520 -0.1405
 6399SOL    HW130833   2.749   3.513   8.824 -0.4544 -0.1194  1.2586
 6399SOL    HW230834   2.648   3.418   8.853  0.7189  1.6646  0.6609
 6400SOL     OW30835   2.744   4.196   2.446 -0.2072 -0.3662 -0.0762
 6400SOL    HW130836   2.757   4.157   2.360 -0.2861  0.0505 -0.2743
 6400SOL    HW230837   2.832   4.229   2.460 -0.7009  0.4243  1.1887
 6401SOL     OW30838   0.054   2.724   6.617  0.0463  0.2727 -0.0900
 6401SOL    HW130839   0.147   2.733   6.637  0.2309 -0.8168 -0.4159
 6401SOL    HW230840   0.029   2.812   6.642 -0.3831 -0.3615  1.7479
 6402SOL     OW30841   4.268   0.098   5.443 -0.3656  0.4720 -0.0155
 6402SOL    HW130842   4.287   0.150   5.365 -2.6405  1.0727 -0.1606
 6402SOL    HW230843   4.310   0.021   5.405 -1.4757 -0.7895  1.3256
 6403SOL     OW30844   0.890   4.625   7.488  0.3262 -0.4068  0.5662
 6403SOL    HW130845   0.856   4.715   7.486  1.0813 -0.1202  0.6638
 6403SOL    HW230846   0.982   4.646   7.506 -0.3584  1.5036  1.8823
 6404SOL     OW30847   4.332   2.501   3.983  0.4373 -0.6392  0.4704
 6404SOL    HW130848   4.352   2.420   3.937 -0.3767 -1.0730  0.8744
 6404SOL    HW230849   4.409   2.516   4.038  0.8537  0.8287 -0.5239
 6405SOL     OW30850   1.555   4.546   8.854 -0.1393 -0.5304 -0.1085
 6405SOL    HW130851   1.650   4.544   8.852 -0.0883  1.9193 -0.0448
 6405SOL    HW230852   1.541   4.516   8.944 -2.4239 -0.5720 -0.4692
 6406SOL     OW30853   4.111   4.448  10.383  0.4036  0.3384 -0.2663
 6406SOL    HW130854   4.042   4.477  10.442 -0.5412  0.7509 -1.5719
 6406SOL    HW230855   4.188   4.460  10.437  0.2394  2.3164 -0.4569
 6407SOL     OW30856   2.560   2.253  11.126 -0.2828 -0.1199 -0.2986
 6407SOL    HW130857   2.538   2.292  11.041  0.9541  1.5059  0.1329
 6407SOL    HW230858   2.624   2.313  11.164  1.5318 -2.7166  0.8422
 6408SOL     OW30859   1.987   2.891   6.670 -0.5358  0.8355 -0.2430
 6408SOL    HW130860   1.961   2.982   6.685 -0.4798  0.5527  1.6025
 6408SOL    HW230861   2.005   2.882   6.577 -0.9381  1.4181 -0.3760
 6409SOL     OW30862   4.106   0.798  14.439  0.4702  0.4167  0.3416
 6409SOL    HW130863   4.089   0.722  14.383 -1.4577  0.2743  1.1238
 6409SOL    HW230864   4.072   0.759  14.519 -0.8781 -1.0562 -0.9587
 6410SOL     OW30865   2.748   1.645   6.176  0.0432 -0.0155 -0.1186
 6410SOL    HW130866   2.680   1.675   6.117  0.5666  0.6018 -0.4055
 6410SOL    HW230867   2.709   1.635   6.263  1.0261 -1.2429  0.1744
 6411SOL     OW30868   3.616   2.336  16.775 -0.2823  0.3887 -0.3360
 6411SOL    HW130869   3.688   2.274  16.786 -2.4262 -2.2276 -1.1684
 6411SOL    HW230870   3.637   2.399  16.844  0.0655 -0.2752  0.1686
 6412SOL     OW30871   3.529   4.238   6.727 -0.5673 -0.3390  0.1085
 6412SOL    HW130872   3.598   4.302   6.710  1.3234 -2.6264 -0.8667
 6412SOL    HW230873   3.537   4.220   6.821  2.4718 -0.2205 -0.1285
 6413SOL     OW30874   2.809   4.391   1.734 -0.4389  0.2542  0.3251
 6413SOL    HW130875   2.717   4.368   1.747 -0.0255 -1.4641  0.2433
 6413SOL    HW230876   2.804   4.449   1.658 -1.0223 -0.2372 -0.0128
 6414SOL     OW30877   0.001   1.899   3.423 -0.4868  0.2103  0.4602
 6414SOL    HW130878   0.061   1.886   3.350 -0.3083 -0.0739  0.6585
 6414SOL    HW230879   0.048   1.889   3.505 -1.5744  0.1890  1.0848
 6415SOL     OW30880   2.298   3.384  10.199 -0.0656  0.1064  0.4068
 6415SOL    HW130881   2.300   3.291  10.177  1.0645 -0.2542  2.0706
 6415SOL    HW230882   2.222   3.382  10.257 -0.6610 -1.2482 -0.4355
 6416SOL     OW30883   0.151   1.390  12.736 -0.2752  0.5052 -0.1489
 6416SOL    HW130884   0.246   1.396  12.747 -0.1753  2.3115 -1.8856
 6416SOL    HW230885   0.140   1.473  12.688  1.7202 -1.0656 -3.3536
 6417SOL     OW30886   3.653   1.662  10.538 -0.0179 -0.0502  0.0985
 6417SOL    HW130887   3.662   1.597  10.607 -1.1125 -1.2755 -0.9295
 6417SOL    HW230888   3.571   1.705  10.564  1.3184  2.2902  0.4931
 6418SOL     OW30889   3.936   0.075  15.737  0.2331  0.4316  0.3958
 6418SOL    HW130890   3.911   0.054  15.827  1.6639 -2.2072  0.2032
 6418SOL    HW230891   3.851   0.068  15.695  0.0510 -0.9445  0.9835
 6419SOL     OW30892   3.279   1.193   4.815  0.0535  0.0198  0.0288
 6419SOL    HW130893   3.252   1.283   4.794  0.9745  0.5400  1.0734
 6419SOL    HW230894   3.374   1.202   4.807  0.0812 -0.0078  0.3244
 6420SOL     OW30895   1.393   3.410   1.017  0.3731 -0.1311  0.6265
 6420SOL    HW130896   1.359   3.345   1.079 -1.7666 -1.6602 -2.1580
 6420SOL    HW230897   1.315   3.450   0.978  0.5686  0.7020  1.0936
 6421SOL     OW30898   4.584   2.258   0.205  0.0376 -1.0723  0.3772
 6421SOL    HW130899   4.641   2.291   0.274  0.7384 -0.3671 -0.5278
 6421SOL    HW230900   4.495   2.272   0.235 -0.4607 -0.6963 -1.2396
 6422SOL     OW30901   0.025   0.077   4.985  0.0421  0.0461 -0.7064
 6422SOL    HW130902   4.718   0.158   4.991  0.4810  0.0766  2.3709
 6422SOL    HW230903   0.009   0.046   4.896  1.5509 -0.9470 -0.6356
 6423SOL     OW30904   1.802   3.807   1.410  0.8363  0.5604  0.1487
 6423SOL    HW130905   1.862   3.749   1.364  2.2373  0.4880  2.0530
 6423SOL    HW230906   1.761   3.847   1.333 -0.1749  1.6099  1.2400
 6424SOL     OW30907   4.307   4.162   1.590  0.0536 -0.0833 -0.4124
 6424SOL    HW130908   4.214   4.140   1.594  0.9395 -3.8762 -0.5211
 6424SOL    HW230909   4.350   4.109   1.523  0.0604  0.3577 -0.7530
 6425SOL     OW30910   0.148   1.199  11.452 -0.3979 -0.1990  0.4087
 6425SOL    HW130911   0.188   1.112  11.463 -2.5299 -0.8859  2.7336
 6425SOL    HW230912   0.215   1.240  11.397 -0.5070  0.5235  0.8146
 6426SOL     OW30913   2.906   0.992   5.465 -0.0811  0.3546 -0.3034
 6426SOL    HW130914   2.928   1.073   5.420 -1.1574  0.1809 -1.1496
 6426SOL    HW230915   2.888   0.935   5.390  1.7793 -0.4811 -0.1101
 6427SOL     OW30916   1.925   3.331  15.052 -0.2735 -0.2400  0.4681
 6427SOL    HW130917   1.859   3.267  15.027 -0.9992  1.1848 -1.2253
 6427SOL    HW230918   2.008   3.288  15.031  0.2084 -0.4431  2.8268
 6428SOL     OW30919   3.019   1.918   6.743  0.0393 -0.3409  0.4398
 6428SOL    HW130920   3.047   1.847   6.686  0.7928  0.6693 -0.4347
 6428SOL    HW230921   3.102   1.942   6.784 -0.0800 -0.3248  0.6731
 6429SOL     OW30922   3.731   4.016  15.851  1.1027 -0.0578  0.2914
 6429SOL    HW130923   3.723   4.014  15.756  0.5703 -2.7448  0.3707
 6429SOL    HW230924   3.646   3.979  15.876  1.3579 -0.5762  0.4020
 6430SOL     OW30925   2.328   2.105   3.909  0.2593 -0.4399  0.1179
 6430SOL    HW130926   2.336   2.182   3.966  4.3993 -0.7029 -0.0977
 6430SOL    HW230927   2.362   2.035   3.964  1.1679 -0.4526 -0.4542
 6431SOL     OW30928   0.344   0.010   4.725  0.3120 -0.5007  0.0464
 6431SOL    HW130929   0.400   4.698   4.670  1.6863  0.9230  0.0195
 6431SOL    HW230930   0.267   4.698   4.709 -0.8881  0.5026  2.4713
 6432SOL     OW30931   2.108   3.825   4.145 -0.3914 -0.2505  0.5337
 6432SOL    HW130932   2.061   3.800   4.066 -1.5951 -0.2252  1.2278
 6432SOL    HW230933   2.182   3.878   4.118 -1.0857  0.5175  0.1631
 6433SOL     OW30934   0.844   1.760   2.761  0.1026  0.4314 -0.0117
 6433SOL    HW130935   0.920   1.708   2.786 -0.2895 -0.9260 -1.6492
 6433SOL    HW230936   0.825   1.753   2.668  2.0095  0.1889 -0.3672
 6434SOL     OW30937   1.043   0.052   2.400  0.4743 -0.1790 -0.0249
 6434SOL    HW130938   0.970   0.112   2.386  1.6163  1.2581  0.1345
 6434SOL    HW230939   1.062   0.030   2.309 -2.9136 -0.7266 -0.5828
 6435SOL     OW30940   2.749   4.021   8.159 -0.0819 -0.4672  0.0321
 6435SOL    HW130941   2.745   3.934   8.198  0.0868 -0.3016  0.4145
 6435SOL    HW230942   2.694   4.003   8.082  1.6035  0.4801 -1.3927
 6436SOL     OW30943   2.459   4.084   0.466  0.7462 -0.4260  0.2059
 6436SOL    HW130944   2.457   4.082   0.562 -2.0073 -1.9997  0.1161
 6436SOL    HW230945   2.457   4.177   0.445 -0.6911 -0.5738 -0.3442
 6437SOL     OW30946   1.573   0.337   4.234 -0.3327 -0.1950  0.1674
 6437SOL    HW130947   1.506   0.392   4.193 -0.2001 -0.5541 -0.5287
 6437SOL    HW230948   1.636   0.335   4.161 -1.7582  2.4615 -1.1418
 6438SOL     OW30949   3.267   3.178  15.872 -0.8796  0.4524  0.5652
 6438SOL    HW130950   3.352   3.194  15.832 -0.5004 -1.2919  0.6736
 6438SOL    HW230951   3.214   3.208  15.799  2.3153  1.3431 -1.3820
 6439SOL     OW30952   0.757   4.531   6.604  0.1818 -0.5231  0.2436
 6439SOL    HW130953   0.755   4.621   6.636 -1.0880 -1.2050  2.0864
 6439SOL    HW230954   0.680   4.495   6.648  2.2001 -0.6871  3.5856
 6440SOL     OW30955   2.379   3.818   1.062  0.4133  0.4620 -0.5045
 6440SOL    HW130956   2.345   3.792   1.147 -1.6319  0.1465 -1.4195
 6440SOL    HW230957   2.324   3.895   1.045  0.5043  0.2188 -1.9601
 6441SOL     OW30958   1.935   2.129  12.559  0.0565 -0.3061 -0.2922
 6441SOL    HW130959   2.006   2.069  12.534  0.6840 -0.7787  2.6217
 6441SOL    HW230960   1.922   2.109  12.652 -0.8827 -1.3150 -0.6344
 6442SOL     OW30961   3.900   0.690  14.180  0.3272  0.4466 -0.0480
 6442SOL    HW130962   3.829   0.658  14.125 -1.8148  3.7862  0.7378
 6442SOL    HW230963   3.857   0.753  14.238 -1.1331  0.8571 -1.5737
 6443SOL     OW30964   2.825   2.366  15.008  1.0034  0.1307 -0.2741
 6443SOL    HW130965   2.892   2.381  15.074  1.6539  0.9607 -1.1201
 6443SOL    HW230966   2.763   2.296  15.030 -0.5740 -0.2029 -5.6235
 6444SOL     OW30967   0.791   2.925  10.791  0.0040 -0.1502  0.6178
 6444SOL    HW130968   0.810   2.924  10.885 -0.3446 -3.5550  0.6423
 6444SOL    HW230969   0.796   3.017  10.768  0.0394 -0.7316 -1.6710
 6445SOL     OW30970   4.115   1.142   4.330 -0.0740  0.3312  0.6334
 6445SOL    HW130971   4.044   1.207   4.338 -1.4521 -0.9767 -0.9837
 6445SOL    HW230972   4.067   1.072   4.285  3.5453 -0.9280 -1.2253
 6446SOL     OW30973   0.839   0.990   0.716 -0.6877  0.7831 -0.0654
 6446SOL    HW130974   0.855   0.995   0.810  0.2445  1.8034 -0.2787
 6446SOL    HW230975   0.749   1.021   0.729 -1.2147  0.1740 -2.2621
 6447SOL     OW30976   2.788   4.657   5.961 -0.0912 -0.6560 -0.2166
 6447SOL    HW130977   2.846   4.658   6.037 -0.0533 -2.5497 -0.1969
 6447SOL    HW230978   2.840   4.714   5.905  1.2741 -0.9659  0.7502
 6448SOL     OW30979   2.161   3.893   9.809 -0.3901 -0.6420  0.6412
 6448SOL    HW130980   2.150   3.863   9.899 -0.7436  0.3210  0.9274
 6448SOL    HW230981   2.071   3.886   9.775  0.3178 -2.6489 -0.8268
 6449SOL     OW30982   2.433   4.415   1.563  0.4955  0.3824  0.3687
 6449SOL    HW130983   2.366   4.481   1.546 -1.3768 -1.4671  0.4036
 6449SOL    HW230984   2.506   4.457   1.518  1.5456 -1.7443  0.0476
 6450SOL     OW30985   0.937   3.490  12.813 -0.5771 -0.0895 -0.0204
 6450SOL    HW130986   0.902   3.566  12.859 -0.9327  0.0283 -0.4797
 6450SOL    HW230987   0.866   3.427  12.823 -1.8336  1.1735 -0.9067
 6451SOL     OW30988   3.608   1.116   9.190  0.2503  0.1091 -0.1710
 6451SOL    HW130989   3.572   1.070   9.265  1.7577 -0.8435 -0.0210
 6451SOL    HW230990   3.551   1.192   9.183 -1.5942 -1.2965 -0.4808
 6452SOL     OW30991   1.795   2.501   6.604 -1.3497  0.0648 -0.2175
 6452SOL    HW130992   1.823   2.525   6.515  2.8252 -0.5632  0.8970
 6452SOL    HW230993   1.843   2.419   6.619  1.1771  1.1904 -2.1379
 6453SOL     OW30994   2.973   4.609   7.708 -0.1994 -0.5108  0.2036
 6453SOL    HW130995   2.904   4.615   7.643 -0.9814 -0.2312  1.0494
 6453SOL    HW230996   2.974   4.702   7.733 -2.1603 -0.2926 -0.5754
 6454SOL     OW30997   1.932   0.382   3.348 -0.3775  0.3156  0.5473
 6454SOL    HW130998   1.909   0.469   3.315  1.2777 -0.0073 -1.4609
 6454SOL    HW230999   1.938   0.344   3.260 -1.0873 -1.9837  1.4936
 6455SOL     OW31000   4.181   3.909   7.375  0.2265 -0.1274 -0.0337
 6455SOL    HW131001   4.118   3.949   7.314  1.4406  1.6110 -0.1512
 6455SOL    HW231002   4.116   3.889   7.443  0.5962  0.2241  0.4206
 6456SOL     OW31003   3.080   0.545   5.531  0.7703 -0.1510 -0.0606
 6456SOL    HW131004   3.156   0.538   5.589  0.8379 -2.3046 -0.4180
 6456SOL    HW231005   3.044   0.457   5.530 -2.5383  1.2139 -0.5583
 6457SOL     OW31006   4.628   3.353   6.150  0.4062 -0.0261  0.1307
 6457SOL    HW131007   4.594   3.291   6.214  3.3475 -1.2843  0.4809
 6457SOL    HW231008   4.600   3.308   6.071  0.3784 -2.0012  1.2602
 6458SOL     OW31009   1.329   3.934  16.540  0.2463  0.5288 -0.1607
 6458SOL    HW131010   1.348   3.893  16.624  2.9162 -0.5938 -1.3144
 6458SOL    HW231011   1.359   3.859  16.489  1.2397  1.4276 -0.8898
 6459SOL     OW31012   1.093   1.419   2.264 -0.3899  0.3166  0.2838
 6459SOL    HW131013   1.150   1.377   2.328 -0.8133 -2.2705 -1.0549
 6459SOL    HW231014   1.083   1.349   2.199  3.0669 -0.1565  0.2500
 6460SOL     OW31015   2.056   2.139   8.125 -0.8209 -0.1893  0.1761
 6460SOL    HW131016   2.051   2.220   8.073  0.9144 -1.7671 -2.4697
 6460SOL    HW231017   1.996   2.157   8.197 -2.0159  0.2510 -0.9236
 6461SOL     OW31018   1.423   2.507  15.962 -0.3844 -0.0495 -0.2222
 6461SOL    HW131019   1.378   2.425  15.980 -2.8493  1.0950 -1.1501
 6461SOL    HW231020   1.503   2.481  15.918 -0.8969 -1.3187 -0.3862
 6462SOL     OW31021   3.451   1.356  16.051  0.1644  0.5463 -0.1859
 6462SOL    HW131022   3.460   1.327  15.961 -2.8227  0.3830 -0.4304
 6462SOL    HW231023   3.356   1.362  16.056  0.1280 -1.4138  1.2802
 6463SOL     OW31024   4.099   0.724   9.753 -0.2345  0.2924 -0.0479
 6463SOL    HW131025   4.075   0.726   9.660 -0.9968 -0.8126  0.1201
 6463SOL    HW231026   4.066   0.636   9.770  1.0231 -0.1986 -0.1571
 6464SOL     OW31027   0.699   3.382   6.799  0.0950  0.1529 -0.3792
 6464SOL    HW131028   0.668   3.292   6.791  3.7059 -1.0409 -0.9999
 6464SOL    HW231029   0.615   3.429   6.791 -0.1155 -0.4003 -1.3475
 6465SOL     OW31030   0.838   0.476   6.791 -0.1285 -0.1496  0.0944
 6465SOL    HW131031   0.816   0.385   6.811 -1.1694  0.2360  0.7070
 6465SOL    HW231032   0.830   0.469   6.696 -0.3136 -0.9363  0.1629
 6466SOL     OW31033   2.085   0.148   1.602 -0.3054  0.6207  0.3368
 6466SOL    HW131034   2.064   0.214   1.537 -1.7644 -0.2937 -0.1163
 6466SOL    HW231035   2.048   0.076   1.552  1.5822  0.6326 -1.0959
 6467SOL     OW31036   2.655   4.337  15.427  0.5292 -0.1360  0.1246
 6467SOL    HW131037   2.729   4.307  15.374  0.4193 -1.1455  0.5605
 6467SOL    HW231038   2.612   4.253  15.444 -0.1527  0.0517 -0.6483
 6468SOL     OW31039   1.879   3.139   6.576 -0.1239 -0.0895  0.3477
 6468SOL    HW131040   1.950   3.197   6.549  0.0479 -1.0132 -1.2064
 6468SOL    HW231041   1.864   3.087   6.497 -2.5111 -0.1623  0.8737
 6469SOL     OW31042   2.743   1.176   3.470 -0.2249 -0.0181 -0.0287
 6469SOL    HW131043   2.666   1.229   3.491 -0.5157 -0.7332  0.7154
 6469SOL    HW231044   2.723   1.089   3.504 -1.0726 -0.4680 -1.6880
 6470SOL     OW31045   2.989   0.959   6.238  0.1786 -0.2740 -0.5586
 6470SOL    HW131046   2.969   1.053   6.243  0.6433 -0.1353 -1.4173
 6470SOL    HW231047   2.899   0.926   6.234 -0.2330  0.8804 -0.7684
 6471SOL     OW31048   1.266   1.134   3.822  0.0386 -0.0471 -0.5868
 6471SOL    HW131049   1.228   1.164   3.740 -0.3125  3.6947  0.9599
 6471SOL    HW231050   1.190   1.114   3.877 -0.5987 -0.8689 -1.7621
 6472SOL     OW31051   1.786   3.830   4.600 -0.0029 -0.2589 -0.2267
 6472SOL    HW131052   1.878   3.856   4.593 -0.6470  1.6319 -1.5273
 6472SOL    HW231053   1.794   3.783   4.683  1.2478  1.8820  0.8481
 6473SOL     OW31054   3.974   2.922   5.512  0.4090  0.4644  0.6363
 6473SOL    HW131055   3.956   2.932   5.605 -1.4332 -1.1926  0.4652
 6473SOL    HW231056   4.044   2.857   5.508 -1.4873 -1.4665 -1.4469
 6474SOL     OW31057   0.543   3.780  15.510  0.1320 -0.5045 -0.1936
 6474SOL    HW131058   0.452   3.753  15.496  0.1883 -1.0838  0.5867
 6474SOL    HW231059   0.601   3.750  15.440 -1.1125 -1.1219 -0.9609
 6475SOL     OW31060   3.162   3.774  11.517 -0.0117  0.3672 -0.3914
 6475SOL    HW131061   3.149   3.777  11.423  2.8604  1.9574 -0.7139
 6475SOL    HW231062   3.101   3.710  11.556  0.5811 -0.0402 -0.1413
 6476SOL     OW31063   2.980   2.485   8.684  0.3726 -0.2596 -0.1947
 6476SOL    HW131064   3.055   2.543   8.697 -0.8064  1.0028  1.0143
 6476SOL    HW231065   3.012   2.436   8.608 -2.8942 -0.0703 -1.7115
 6477SOL     OW31066   4.712   4.476   8.108  0.1338  0.1035 -0.3816
 6477SOL    HW131067   4.661   4.538   8.160  0.1276 -0.2972  0.0915
 6477SOL    HW231068   4.644   4.409   8.100 -0.2557  0.4210  0.2313
 6478SOL     OW31069   0.241   3.702   5.981 -0.5208  0.0825  0.4474
 6478SOL    HW131070   0.291   3.683   6.060  2.3097  2.3642 -0.8321
 6478SOL    HW231071   0.254   3.796   5.981  1.3828 -0.1769  0.9034
 6479SOL     OW31072   4.734   0.030  14.284 -0.5975  0.5067  0.2372
 6479SOL    HW131073   4.671   0.015  14.214  1.3698 -1.2969 -1.1411
 6479SOL    HW231074   0.069   0.016  14.229 -0.5590 -0.3948  0.5326
 6480SOL     OW31075   4.253   2.955  17.291  0.0334 -0.4804  0.0035
 6480SOL    HW131076   4.162   2.945  17.265 -0.0615  1.9594 -0.6087
 6480SOL    HW231077   4.249   3.028  17.351  0.7879 -0.1048 -0.3978
 6481SOL     OW31078   0.234   1.104  12.730 -0.2792  0.6453 -0.3833
 6481SOL    HW131079   0.328   1.105  12.746 -0.1063  1.7050 -1.4695
 6481SOL    HW231080   0.219   1.196  12.749 -2.4758  0.4849 -1.3236
 6482SOL     OW31081   2.770   1.427   1.319 -0.3600  0.2675 -0.3239
 6482SOL    HW131082   2.804   1.511   1.289  0.0036  0.4915  0.7294
 6482SOL    HW231083   2.828   1.364   1.276  1.8017  1.3440  1.0234
 6483SOL     OW31084   3.509   3.957   6.712  0.4114 -0.0109  0.3665
 6483SOL    HW131085   3.596   3.945   6.751 -0.4021  2.4861  2.9459
 6483SOL    HW231086   3.510   4.052   6.699 -0.1929 -0.2811 -1.7300
 6484SOL     OW31087   1.258   3.707  13.553  0.2299 -0.1919 -0.2254
 6484SOL    HW131088   1.281   3.774  13.489 -0.7355  0.3167 -0.0450
 6484SOL    HW231089   1.329   3.728  13.614 -0.3818 -0.9352  0.7508
 6485SOL     OW31090   0.324   0.381   7.246  0.0175 -0.0500  0.2845
 6485SOL    HW131091   0.365   0.400   7.331 -0.0633  0.2164  0.2643
 6485SOL    HW231092   0.316   0.469   7.209  0.4345 -0.3857 -0.6045
 6486SOL     OW31093   3.604   4.176  13.132 -0.1140 -1.0477  0.3283
 6486SOL    HW131094   3.509   4.164  13.136 -0.6012  2.2266 -1.1171
 6486SOL    HW231095   3.626   4.266  13.156  1.0424 -1.4452  0.7243
 6487SOL     OW31096   3.133   1.589   6.230  0.0010  0.0218 -0.4409
 6487SOL    HW131097   3.037   1.598   6.237  0.1923  0.0819  2.3528
 6487SOL    HW231098   3.153   1.680   6.255  0.7603 -0.1791 -0.3408
 6488SOL     OW31099   0.890   3.055   5.884  0.3607 -0.3721 -0.4912
 6488SOL    HW131100   0.884   3.090   5.796 -1.4358  0.1462 -0.1770
 6488SOL    HW231101   0.830   3.110   5.935  0.2617 -0.2334 -0.7612
 6489SOL     OW31102   1.428   1.927   8.544 -0.1554  0.3488 -0.1570
 6489SOL    HW131103   1.449   1.908   8.635  1.6737  0.9665 -0.4602
 6489SOL    HW231104   1.335   1.941   8.562 -0.0635  2.1050 -1.0744
 6490SOL     OW31105   2.044   0.027   2.618 -0.3256 -0.4541  0.2369
 6490SOL    HW131106   2.003   4.722   2.691 -1.4609  0.4540  0.1777
 6490SOL    HW231107   1.967   0.016   2.562  0.2983 -0.2310 -0.6584
 6491SOL     OW31108   1.026   3.606   4.162 -0.6269  0.2477 -0.0443
 6491SOL    HW131109   1.055   3.690   4.126  2.3001 -1.0584 -0.6554
 6491SOL    HW231110   1.101   3.560   4.125 -0.0979  1.7577 -0.8417
 6492SOL     OW31111   3.764   4.056   4.084  0.0103 -0.7557  0.0428
 6492SOL    HW131112   3.769   4.051   4.179  1.6324 -1.2796 -0.0689
 6492SOL    HW231113   3.792   4.145   4.065  0.4120 -1.0537 -0.7644
 6493SOL     OW31114   2.371   4.708   4.808  0.0462 -0.3594 -0.0216
 6493SOL    HW131115   2.397   4.675   4.722  1.3074 -0.0400  0.2462
 6493SOL    HW231116   2.290   0.011   4.783  1.8491  3.5025  1.2094
 6494SOL     OW31117   2.755   2.231   6.677  0.7964  0.5075  0.5757
 6494SOL    HW131118   2.676   2.273   6.711  0.0451  1.6429 -2.6328
 6494SOL    HW231119   2.789   2.198   6.761 -0.0595 -2.8246 -0.3836
 6495SOL     OW31120   1.383   4.447   6.162  0.1893  0.2251  0.2157
 6495SOL    HW131121   1.385   4.441   6.066 -1.3874  0.2225  0.1859
 6495SOL    HW231122   1.289   4.446   6.178  0.3595  0.2325  1.1812
 6496SOL     OW31123   2.417   1.466   7.472 -0.6790  0.7626 -0.4629
 6496SOL    HW131124   2.376   1.468   7.385  0.3293  1.3710 -0.9224
 6496SOL    HW231125   2.424   1.370   7.470  1.8919  0.9003  2.2787
 6497SOL     OW31126   3.350   2.222   4.159  0.5336  0.1679 -0.1071
 6497SOL    HW131127   3.330   2.129   4.164 -1.6624  0.5288 -2.3755
 6497SOL    HW231128   3.435   2.229   4.201  0.0461  0.1139  0.8981
 6498SOL     OW31129   0.622   2.491  10.365 -0.0996 -0.3418  0.0584
 6498SOL    HW131130   0.687   2.448  10.421 -0.0769 -0.2986  0.0647
 6498SOL    HW231131   0.575   2.538  10.433 -0.6711  0.3310 -0.8050
 6499SOL     OW31132   1.820   0.671  12.122  0.0830  0.2001 -0.1126
 6499SOL    HW131133   1.821   0.578  12.146 -0.0482 -0.5511 -2.9960
 6499SOL    HW231134   1.893   0.709  12.170 -0.1217 -0.5024  0.7631
 6500SOL     OW31135   4.735   0.948   4.651 -0.3876  0.1695 -0.1959
 6500SOL    HW131136   4.733   0.854   4.672  1.9610 -0.3291 -2.1892
 6500SOL    HW231137   4.642   0.971   4.644 -0.8934 -0.7806  3.0050
 6501SOL     OW31138   3.037   4.421   9.051 -0.3514 -0.3368 -0.4948
 6501SOL    HW131139   2.976   4.424   8.978  0.9216 -0.5780 -1.5687
 6501SOL    HW231140   3.107   4.382   9.000  0.9382  1.9287 -0.4868
 6502SOL     OW31141   4.319   0.566   5.454 -0.3040  0.1542  0.3923
 6502SOL    HW131142   4.261   0.507   5.501  1.4148 -0.7708  1.3514
 6502SOL    HW231143   4.385   0.504   5.423 -1.0429  0.1356 -1.1503
 6503SOL     OW31144   2.530   2.364   2.703 -0.0263 -0.4869  0.6081
 6503SOL    HW131145   2.624   2.372   2.683 -0.2530 -1.0069 -0.5945
 6503SOL    HW231146   2.534   2.416   2.784  0.7096 -0.5575  0.6183
 6504SOL     OW31147   3.169   3.478   9.909 -0.0656 -0.0983 -0.1484
 6504SOL    HW131148   3.208   3.560   9.937  1.5898 -0.5639 -1.0916
 6504SOL    HW231149   3.107   3.459   9.980  0.9479  2.0037  1.2632
 6505SOL     OW31150   0.279   0.655   9.186 -0.0197 -0.3359  0.5460
 6505SOL    HW131151   0.368   0.665   9.218 -0.5378 -0.3673  1.9742
 6505SOL    HW231152   0.262   0.562   9.200  0.5868 -0.0864  2.8228
 6506SOL     OW31153   2.620   2.755   5.955 -0.2249 -0.9439 -0.4735
 6506SOL    HW131154   2.669   2.837   5.952 -2.6798  0.5525 -0.0886
 6506SOL    HW231155   2.693   2.693   5.953 -0.6659 -1.5841  2.6238
 6507SOL     OW31156   0.171   2.957  17.741 -0.1595 -0.8853 -0.0590
 6507SOL    HW131157   0.225   3.035  17.736 -0.6909 -0.5572 -0.7187
 6507SOL    HW231158   0.185   2.920  17.654  1.3659  1.6947 -0.8886
 6508SOL     OW31159   3.251   2.717  16.457  0.2283  0.1338  0.0256
 6508SOL    HW131160   3.289   2.696  16.542 -0.5827 -1.1580  0.0687
 6508SOL    HW231161   3.326   2.695  16.402 -0.7969 -1.4032 -0.7493
 6509SOL     OW31162   3.569   3.838   3.937 -0.2867  0.5821 -0.1823
 6509SOL    HW131163   3.614   3.859   4.018  0.5051  0.4883 -0.5978
 6509SOL    HW231164   3.645   3.839   3.879  1.3811  0.5056  2.0044
 6510SOL     OW31165   0.692   4.240   1.789  0.1217 -0.2731 -0.8438
 6510SOL    HW131166   0.610   4.259   1.743  0.4002 -0.1439 -1.2901
 6510SOL    HW231167   0.667   4.296   1.862  0.6358 -0.0574 -0.8331
 6511SOL     OW31168   0.032   2.130   4.980 -0.0347 -0.3350 -0.5066
 6511SOL    HW131169   0.116   2.165   5.011  0.5632 -0.8035 -1.6098
 6511SOL    HW231170   0.051   2.137   4.887 -0.6763 -1.2252 -0.7000
 6512SOL     OW31171   0.625   4.399   0.375  0.3480  0.2055  0.2819
 6512SOL    HW131172   0.610   4.444   0.291 -0.0217 -2.9279 -1.3208
 6512SOL    HW231173   0.570   4.450   0.434  2.3667  2.7437 -0.0326
 6513SOL     OW31174   2.904   1.613  10.948 -0.5667 -0.0325  0.0873
 6513SOL    HW131175   2.810   1.607  10.929 -0.4983  3.3304 -1.4705
 6513SOL    HW231176   2.942   1.545  10.893 -0.1524  1.1336 -1.0593
 6514SOL     OW31177   4.327   0.676   4.390  0.1266  0.3583  0.3319
 6514SOL    HW131178   4.410   0.629   4.393 -0.1520 -0.2930 -2.4897
 6514SOL    HW231179   4.301   0.689   4.481  0.0683 -2.5517  0.7528
 6515SOL     OW31180   0.807   3.122   6.660  0.2946  0.1137  0.3996
 6515SOL    HW131181   0.757   3.057   6.710 -1.4176  1.1721  0.0520
 6515SOL    HW231182   0.896   3.099   6.689  0.2422  0.2644  0.6814
 6516SOL     OW31183   1.695   1.902   3.617  0.0462  1.0323  0.6682
 6516SOL    HW131184   1.693   1.868   3.528  3.6551  1.2331  0.5100
 6516SOL    HW231185   1.604   1.894   3.646 -0.5483  0.3861 -1.3951
 6517SOL     OW31186   4.599   2.886   3.014  0.1023  0.2166  0.0032
 6517SOL    HW131187   4.637   2.970   2.991  1.9729 -0.4899  0.5002
 6517SOL    HW231188   4.601   2.840   2.930 -0.4064 -1.8175  1.0936
 6518SOL     OW31189   2.031   0.146   4.964 -0.3088 -0.0788 -0.4628
 6518SOL    HW131190   2.079   0.129   5.045  0.2788  0.5675 -0.6794
 6518SOL    HW231191   2.044   0.240   4.972 -0.1197 -0.4507  3.9748
 6519SOL     OW31192   3.567   0.766   8.388  0.3266  0.4438 -0.1780
 6519SOL    HW131193   3.550   0.836   8.450  2.0740  1.8626 -1.3263
 6519SOL    HW231194   3.661   0.767   8.369  0.3411 -0.9892 -0.2527
 6520SOL     OW31195   0.181   4.405   7.331  0.1604 -1.0432 -0.1176
 6520SOL    HW131196   0.218   4.361   7.408 -1.3965 -0.3646  1.0114
 6520SOL    HW231197   0.151   4.485   7.374 -1.5480 -1.1673 -1.0524
 6521SOL     OW31198   3.852   2.358   4.071  0.3032 -0.5172 -0.0945
 6521SOL    HW131199   3.768   2.320   4.098  0.2038  0.2202  0.6498
 6521SOL    HW231200   3.857   2.316   3.985  0.7845  0.4733 -0.5456
 6522SOL     OW31201   0.309   2.263  15.613  0.0796  0.1697  0.5819
 6522SOL    HW131202   0.246   2.297  15.676 -1.3628  1.4321 -1.5678
 6522SOL    HW231203   0.276   2.312  15.538  1.8306  2.3947  1.2559
 6523SOL     OW31204   1.607   3.866   7.169  0.1643  0.3220  0.0961
 6523SOL    HW131205   1.549   3.895   7.239 -0.2844  1.2373 -0.6462
 6523SOL    HW231206   1.564   3.788   7.132 -1.3054  0.5324  1.3786
 6524SOL     OW31207   1.980   4.116   7.067 -0.2620 -0.0879 -0.3926
 6524SOL    HW131208   1.953   4.025   7.082 -2.8589  1.2456  3.0531
 6524SOL    HW231209   1.932   4.130   6.985 -2.8712  0.6785  1.2375
 6525SOL     OW31210   1.162   1.230   3.586 -0.4237 -0.1403  0.1181
 6525SOL    HW131211   1.159   1.160   3.521 -2.6099 -0.3586  0.4721
 6525SOL    HW231212   1.111   1.297   3.542  1.1823  1.2099  0.3000
 6526SOL     OW31213   2.831   0.561   8.169  0.2353 -0.3113  0.6569
 6526SOL    HW131214   2.911   0.608   8.193 -1.4449  3.0661 -0.2940
 6526SOL    HW231215   2.861   0.472   8.150  1.3671  0.1329  0.3027
 6527SOL     OW31216   2.503   3.208   1.149 -0.2118 -0.1339  0.3305
 6527SOL    HW131217   2.494   3.205   1.054  0.7952 -0.9186  0.2727
 6527SOL    HW231218   2.431   3.151   1.175  0.9500 -0.9134  1.8379
 6528SOL     OW31219   2.486   0.423   7.203  0.3047 -0.3911 -0.0248
 6528SOL    HW131220   2.472   0.331   7.226 -0.1650 -0.1091  0.8327
 6528SOL    HW231221   2.507   0.456   7.291 -1.7096  1.2201 -0.1457
 6529SOL     OW31222   1.882   0.137   0.562  0.2981  0.2035  0.1575
 6529SOL    HW131223   1.958   0.103   0.515 -1.7388 -0.8741 -2.3459
 6529SOL    HW231224   1.817   0.068   0.556 -0.5428  0.7209  3.1199
 6530SOL     OW31225   3.175   1.866  14.595  0.3122  0.6184  0.1559
 6530SOL    HW131226   3.082   1.878  14.613  0.1091  0.5154 -0.8150
 6530SOL    HW231227   3.185   1.772  14.610  1.9061  0.4768 -1.7566
 6531SOL     OW31228   4.146   2.708   0.112 -0.6254  0.1711 -0.2566
 6531SOL    HW131229   4.059   2.668   0.116 -0.8415  0.5592 -0.8730
 6531SOL    HW231230   4.192   2.647   0.168  0.5133  0.2146 -1.1521
 6532SOL     OW31231   3.136   2.146   0.605  0.1430 -0.2323 -0.3536
 6532SOL    HW131232   3.182   2.062   0.604 -2.5513 -1.7218 -1.7868
 6532SOL    HW231233   3.200   2.194   0.553  0.8815 -0.9995 -0.1504
 6533SOL     OW31234   3.267   3.137   8.590 -0.2920 -0.2805  0.3526
 6533SOL    HW131235   3.190   3.193   8.600  0.5589  1.1806 -1.2067
 6533SOL    HW231236   3.338   3.186   8.633  1.7692 -2.5740 -0.4727
 6534SOL     OW31237   2.846   2.940   3.728  0.1240  0.3938  0.2845
 6534SOL    HW131238   2.818   2.880   3.797 -0.8640 -0.7817 -1.1535
 6534SOL    HW231239   2.939   2.917   3.720  0.4371  1.3977  1.0232
 6535SOL     OW31240   2.802   1.653  15.239  0.0201 -0.8323  0.3456
 6535SOL    HW131241   2.757   1.600  15.306  5.3482 -3.3106  1.9879
 6535SOL    HW231242   2.885   1.664  15.285  0.9484  0.7708 -1.7667
 6536SOL     OW31243   0.429   4.559   4.526  0.3175  0.6946  0.2234
 6536SOL    HW131244   0.501   4.525   4.473  0.4374  0.6986  0.3833
 6536SOL    HW231245   0.362   4.521   4.471  0.5717 -0.3278  0.6264
 6537SOL     OW31246   2.231   0.170   3.792 -0.4167  0.0520 -0.5167
 6537SOL    HW131247   2.275   0.157   3.876 -0.8120  0.4271 -0.2503
 6537SOL    HW231248   2.299   0.148   3.729 -0.9706 -1.3240 -0.6397
 6538SOL     OW31249   3.293   2.929   6.567  0.6441  0.3563 -0.0513
 6538SOL    HW131250   3.306   2.901   6.476 -0.1442  1.6328 -0.5446
 6538SOL    HW231251   3.341   3.011   6.563  2.5333 -0.8149 -1.2842
 6539SOL     OW31252   3.158   0.896   6.449 -0.2903  0.1560  0.4731
 6539SOL    HW131253   3.222   0.860   6.386 -0.2866  0.7626  0.1260
 6539SOL    HW231254   3.087   0.915   6.387  0.2520 -1.5562 -0.6771
 6540SOL     OW31255   1.701   1.224   5.766  0.5441 -0.0020 -0.2327
 6540SOL    HW131256   1.612   1.251   5.790  0.3740 -0.2521 -0.5871
 6540SOL    HW231257   1.733   1.207   5.855 -1.0142 -2.6636 -0.1755
 6541SOL     OW31258   3.861   3.507   2.742  0.5971 -0.4619 -0.1347
 6541SOL    HW131259   3.879   3.413   2.746  0.0402 -0.5661  0.0024
 6541SOL    HW231260   3.823   3.524   2.828  1.5851  2.4341 -0.2975
 6542SOL     OW31261   0.020   3.160  11.801 -0.3413  0.0133  0.4299
 6542SOL    HW131262   0.068   3.077  11.803  0.1538  0.2734 -0.3598
 6542SOL    HW231263   4.671   3.133  11.805 -0.1483 -0.9350 -1.5589
 6543SOL     OW31264   4.366   1.755   7.290  0.4163 -0.7736 -0.0864
 6543SOL    HW131265   4.452   1.733   7.256  0.9752  1.4516 -0.1055
 6543SOL    HW231266   4.310   1.684   7.257  2.4185 -2.0373 -0.7690
 6544SOL     OW31267   3.417   3.579  11.619 -0.4307  0.0611  0.0087
 6544SOL    HW131268   3.349   3.644  11.602 -0.5863  0.0582  0.6344
 6544SOL    HW231269   3.395   3.498  11.571  1.8398  0.5734 -1.9207
 6545SOL     OW31270   0.525   3.631   0.665  0.1496  0.4439  0.6071
 6545SOL    HW131271   0.552   3.716   0.698  0.6440  0.7763 -0.6728
 6545SOL    HW231272   0.447   3.607   0.715 -0.4048  2.3492  0.6265
 6546SOL     OW31273   0.436   4.312  17.346 -0.5696 -0.0788  0.2597
 6546SOL    HW131274   0.376   4.277  17.412 -0.1894 -0.4289  0.4167
 6546SOL    HW231275   0.522   4.291  17.382 -0.1386  0.1089 -0.6362
 6547SOL     OW31276   2.778   2.401   9.699  0.1560  0.7656 -0.1425
 6547SOL    HW131277   2.756   2.486   9.662 -1.2391  1.2495  1.7538
 6547SOL    HW231278   2.871   2.413   9.720  0.2767 -0.3294 -0.0265
 6548SOL     OW31279   0.055   2.410   7.940 -0.5660 -1.1551  0.3061
 6548SOL    HW131280   0.036   2.348   7.869  1.3367 -1.5832  0.1857
 6548SOL    HW231281   0.146   2.385   7.953 -1.3840 -3.2535  1.8591
 6549SOL     OW31282   1.393   2.608   9.074 -0.0694 -0.7433  0.3532
 6549SOL    HW131283   1.409   2.527   9.123  2.6093 -0.3512  0.1177
 6549SOL    HW231284   1.364   2.658   9.150  0.4301  0.2619 -0.1212
 6550SOL     OW31285   0.058   4.450  14.177 -0.1653 -0.1402  0.5636
 6550SOL    HW131286   0.058   4.381  14.244  0.5085 -0.2690  0.4262
 6550SOL    HW231287   0.147   4.436  14.145 -0.7343 -0.0750 -1.0880
 6551SOL     OW31288   2.824   0.300   6.162  0.2884  0.6433  0.4788
 6551SOL    HW131289   2.769   0.325   6.087 -0.2182  1.8881  1.2651
 6551SOL    HW231290   2.789   0.347   6.238  0.8440  0.6042  0.7587
 6552SOL     OW31291   4.175   2.995   4.571  0.2064 -0.4717  0.3649
 6552SOL    HW131292   4.260   2.975   4.533 -1.9341 -4.5022 -2.2938
 6552SOL    HW231293   4.160   3.077   4.523  1.6798  0.0414  0.7835
 6553SOL     OW31294   1.625   0.542   3.537 -0.3806 -0.1526  0.6199
 6553SOL    HW131295   1.707   0.590   3.548  0.2152 -1.0799  0.2434
 6553SOL    HW231296   1.584   0.569   3.619 -1.5655 -1.4556  0.4569
 6554SOL     OW31297   4.475   2.678  12.575 -0.4635 -0.2685 -0.3168
 6554SOL    HW131298   4.412   2.612  12.545  0.8521 -1.1444 -1.1659
 6554SOL    HW231299   4.543   2.621  12.612 -0.7789 -0.8296 -0.5969
 6555SOL     OW31300   3.263   2.821  14.380 -0.3644 -0.2625  0.1558
 6555SOL    HW131301   3.331   2.791  14.441 -1.6723 -1.0830  1.2004
 6555SOL    HW231302   3.204   2.859  14.446  0.9855  1.3873  0.4240
 6556SOL     OW31303   0.368   2.838   5.218 -0.4006 -0.4261  0.4967
 6556SOL    HW131304   0.423   2.863   5.145 -1.9734 -1.6049 -1.0909
 6556SOL    HW231305   0.436   2.793   5.269  1.2562  2.3176  0.6770
 6557SOL     OW31306   2.915   1.975  10.250 -0.6140  0.3871 -0.0705
 6557SOL    HW131307   2.838   1.932  10.288 -0.3807 -0.3729 -0.4671
 6557SOL    HW231308   2.985   1.910  10.256 -1.3453 -0.2614  1.5626
 6558SOL     OW31309   2.954   4.335   6.387  0.0580 -0.2092 -0.1546
 6558SOL    HW131310   2.955   4.430   6.392 -0.9289 -0.1573 -0.8756
 6558SOL    HW231311   2.962   4.339   6.292 -0.7280  1.0974 -0.1664
 6559SOL     OW31312   3.299   0.958  17.474  0.1739 -0.0234 -0.1686
 6559SOL    HW131313   3.323   0.978  17.565 -0.9163  1.7609 -0.2899
 6559SOL    HW231314   3.204   0.950  17.473  0.2149 -0.4510 -0.5715
 6560SOL     OW31315   4.225   4.428   2.890 -0.0137 -0.6668  0.0934
 6560SOL    HW131316   4.265   4.500   2.939 -2.1317  0.5436  0.0840
 6560SOL    HW231317   4.136   4.454   2.915  0.5176  0.5376  0.7665
 6561SOL     OW31318   3.707   3.971  13.820  0.2935 -0.0278  0.2548
 6561SOL    HW131319   3.693   3.877  13.832 -1.2340  0.1733  0.0319
 6561SOL    HW231320   3.738   3.973  13.729  0.2850  0.9377  0.2709
 6562SOL     OW31321   1.645   3.525  13.187  0.4913 -0.1722 -0.0834
 6562SOL    HW131322   1.628   3.593  13.121 -1.9411 -0.9471 -0.2536
 6562SOL    HW231323   1.700   3.474  13.127  0.9047 -1.8377  1.7040
 6563SOL     OW31324   1.024   1.598  11.934  0.9011 -0.1853 -0.6778
 6563SOL    HW131325   1.118   1.579  11.933  0.8632 -0.3537 -1.0754
 6563SOL    HW231326   1.007   1.594  12.028 -2.2058 -0.8197 -1.2612
 6564SOL     OW31327   3.264   4.596   7.248 -0.0200  0.5472 -0.1396
 6564SOL    HW131328   3.173   4.569   7.261 -0.2719  0.9837 -0.9834
 6564SOL    HW231329   3.275   4.590   7.153 -0.7148 -0.9644 -0.1250
 6565SOL     OW31330   2.810   3.411   4.465 -0.0943 -0.3302 -0.5824
 6565SOL    HW131331   2.866   3.384   4.392  0.8741 -0.3439  0.1603
 6565SOL    HW231332   2.751   3.338   4.484  0.6480 -0.5769  0.8072
 6566SOL     OW31333   1.768   3.518   0.178  0.1843  0.2426  0.1195
 6566SOL    HW131334   1.768   3.540   0.085  0.6920  2.2315  0.5979
 6566SOL    HW231335   1.860   3.510   0.202 -0.1820 -1.0034  1.1204
 6567SOL     OW31336   0.640   0.128   1.300  0.1301 -0.4425  0.4819
 6567SOL    HW131337   0.727   0.157   1.329  0.0510 -0.5432  0.8238
 6567SOL    HW231338   0.640   0.162   1.211  1.7878 -0.0772  0.6235
 6568SOL     OW31339   3.156   0.589   5.888 -0.6809 -0.5255 -0.0923
 6568SOL    HW131340   3.176   0.641   5.810 -0.7074 -0.2646  0.0717
 6568SOL    HW231341   3.239   0.601   5.936  0.5584 -1.7502 -1.9209
 6569SOL     OW31342   4.098   0.478   3.177  0.0938  0.1104  0.2152
 6569SOL    HW131343   4.035   0.550   3.188 -0.6541 -0.3871 -0.8393
 6569SOL    HW231344   4.174   0.521   3.217  0.3322 -1.2293  1.1968
 6570SOL     OW31345   1.014   3.769  16.625 -0.2448  0.4661 -0.2426
 6570SOL    HW131346   0.992   3.781  16.532 -0.5190  0.0220 -0.2345
 6570SOL    HW231347   1.056   3.684  16.630  1.0444  1.3336  3.1825
 6571SOL     OW31348   3.494   2.195   0.227  0.3627  0.2596 -0.3648
 6571SOL    HW131349   3.533   2.240   0.152  0.2082  1.2828  0.1643
 6571SOL    HW231350   3.570   2.156   0.271 -0.8402 -1.3486  0.2837
 6572SOL     OW31351   3.424   0.620   9.215  0.2068 -0.2592  0.3421
 6572SOL    HW131352   3.404   0.632   9.308  0.3718 -0.6575  0.4293
 6572SOL    HW231353   3.505   0.571   9.232  0.4002  0.9568  2.9144
 6573SOL     OW31354   4.142   2.601   3.085 -0.2641  0.5301  0.4727
 6573SOL    HW131355   4.181   2.514   3.075 -1.8602 -0.0390 -0.7861
 6573SOL    HW231356   4.145   2.596   3.180 -0.7408  1.3470  0.5264
 6574SOL     OW31357   1.825   3.174   4.907  0.9285  0.3433  0.0139
 6574SOL    HW131358   1.907   3.180   4.956  2.0559  1.5119 -2.0394
 6574SOL    HW231359   1.860   3.162   4.819 -0.5445 -3.4584 -0.0679
 6575SOL     OW31360   2.451   3.700  13.176  0.1700 -0.2700  0.1269
 6575SOL    HW131361   2.538   3.660  13.185  0.0359 -0.3778  0.8963
 6575SOL    HW231362   2.405   3.622  13.146 -0.5749 -0.4654  1.7864
 6576SOL     OW31363   1.229   3.569   8.054 -0.5838 -0.4996  0.2880
 6576SOL    HW131364   1.204   3.623   8.129  0.8239 -0.1380  0.5067
 6576SOL    HW231365   1.175   3.491   8.065 -1.0315 -0.1828  0.3557
 6577SOL     OW31366   4.491   3.387   4.142  0.8143 -0.7984 -0.5289
 6577SOL    HW131367   4.446   3.346   4.068  0.6469 -0.8365 -0.4062
 6577SOL    HW231368   4.437   3.365   4.218 -1.3022 -0.5093 -1.9408
 6578SOL     OW31369   0.322   1.610  11.949  0.1882 -0.1452  0.1355
 6578SOL    HW131370   0.251   1.663  11.911  2.1880  1.6553 -1.0781
 6578SOL    HW231371   0.280   1.571  12.026 -0.0904  0.6907  0.4041
 6579SOL     OW31372   2.065   4.495  12.748 -0.2768 -0.1208 -0.2926
 6579SOL    HW131373   1.982   4.449  12.749  1.2608 -2.9593 -1.8530
 6579SOL    HW231374   2.076   4.535  12.834  0.4226 -1.1175  0.0791
 6580SOL     OW31375   2.396   0.715  17.245  0.0682 -0.4782  0.3128
 6580SOL    HW131376   2.396   0.624  17.274  1.2234 -0.2584  1.0007
 6580SOL    HW231377   2.314   0.752  17.280  0.5211  1.5459 -0.7369
 6581SOL     OW31378   1.326   1.023  13.156  0.3893 -0.4181 -0.1842
 6581SOL    HW131379   1.359   0.944  13.199  2.1040  0.1623 -0.4210
 6581SOL    HW231380   1.332   0.988  13.067 -0.0626 -0.3530 -0.2390
 6582SOL     OW31381   3.530   4.719  13.517 -0.4366 -0.3792  0.9006
 6582SOL    HW131382   3.594   0.009  13.580 -1.2154  0.9972  1.0025
 6582SOL    HW231383   3.568   0.001  13.433  2.1524  0.1601  2.2233
 6583SOL     OW31384   0.206   0.629   4.625  0.2934 -1.3561  0.1245
 6583SOL    HW131385   0.129   0.579   4.654  0.2313  0.0799  2.4025
 6583SOL    HW231386   0.265   0.639   4.700  3.3285 -1.6729 -2.2209
 6584SOL     OW31387   1.137   3.094  14.850 -0.2688 -0.0457 -0.2890
 6584SOL    HW131388   1.053   3.082  14.804 -0.1858  0.1033 -0.4795
 6584SOL    HW231389   1.198   3.121  14.782  0.0654 -1.9257 -0.7294
 6585SOL     OW31390   1.508   4.647   7.766 -0.1650 -0.2462 -0.2728
 6585SOL    HW131391   1.420   4.656   7.804  0.2037 -0.9904  0.7681
 6585SOL    HW231392   1.506   4.553   7.750  0.6141 -0.3910  0.4797
 6586SOL     OW31393   2.965   2.021  13.919 -0.1548 -0.4316  0.8883
 6586SOL    HW131394   2.987   2.093  13.978  1.5948  0.3284 -0.6768
 6586SOL    HW231395   2.910   2.066  13.855  1.4241  1.1114  0.6212
 6587SOL     OW31396   1.305   2.333   4.129 -0.5019  0.6973 -0.1942
 6587SOL    HW131397   1.246   2.408   4.135  2.0274  2.7265 -0.2754
 6587SOL    HW231398   1.377   2.378   4.086 -0.4131  0.4617 -0.2932
 6588SOL     OW31399   2.840   1.356  14.087 -0.4228 -0.0105  0.0092
 6588SOL    HW131400   2.764   1.308  14.120 -1.9981  1.5872 -1.3122
 6588SOL    HW231401   2.872   1.291  14.025 -0.1916 -0.4970  0.6289
 6589SOL     OW31402   4.713   2.644   3.878 -0.3544  0.0453  0.3275
 6589SOL    HW131403   0.039   2.586   3.910 -0.6357 -0.5337 -0.1161
 6589SOL    HW231404   4.645   2.631   3.944  1.7279  0.6791  2.5608
 6590SOL     OW31405   0.636   0.675   7.338  0.8973 -0.4774  0.9076
 6590SOL    HW131406   0.571   0.665   7.269  2.7115 -1.2577 -0.6633
 6590SOL    HW231407   0.621   0.764   7.369 -0.6595  0.2662 -2.0786
 6591SOL     OW31408   3.400   2.941   3.838 -0.0039  0.0644 -0.4478
 6591SOL    HW131409   3.400   3.027   3.880 -0.4100 -0.6950  1.1030
 6591SOL    HW231410   3.478   2.945   3.782 -0.0142 -0.0219 -0.4686
 6592SOL     OW31411   2.353   1.312  10.253  0.4536 -0.2023 -0.4887
 6592SOL    HW131412   2.330   1.232  10.206 -0.4305  0.2178 -0.7652
 6592SOL    HW231413   2.406   1.285  10.328 -2.9708 -0.4533  1.8247
 6593SOL     OW31414   0.443   0.390   3.695  0.3447  0.2515 -0.1923
 6593SOL    HW131415   0.401   0.307   3.670 -0.1983  1.4966 -3.3972
 6593SOL    HW231416   0.370   0.433   3.739 -0.9575 -2.6635  0.4970
 6594SOL     OW31417   3.342   1.356   9.826  0.4189  0.3014  0.2258
 6594SOL    HW131418   3.423   1.405   9.839  0.1527  1.0663 -1.0598
 6594SOL    HW231419   3.382   1.272   9.804  0.1851 -0.3828  2.4058
 6595SOL     OW31420   2.101   4.064  16.459 -0.2501 -0.6490  0.2736
 6595SOL    HW131421   2.046   4.125  16.410 -1.8435 -0.9172  1.7495
 6595SOL    HW231422   2.186   4.084  16.419  1.0661 -3.1135  1.8370
 6596SOL     OW31423   1.217   4.607   8.381  0.1567  0.2434  0.1695
 6596SOL    HW131424   1.257   4.534   8.429  2.3876  0.0157 -2.0314
 6596SOL    HW231425   1.251   4.587   8.294 -0.7689  2.8271 -0.7661
 6597SOL     OW31426   4.127   4.116  13.939 -0.0305  0.5899 -0.4464
 6597SOL    HW131427   4.109   4.028  13.904 -0.9784  0.1951  1.0261
 6597SOL    HW231428   4.042   4.158  13.946 -1.2298 -1.5738 -2.1666
 6598SOL     OW31429   2.088   4.335  16.242 -0.3004  0.4987 -0.0603
 6598SOL    HW131430   2.169   4.289  16.266  1.1206  2.1635 -1.6872
 6598SOL    HW231431   2.040   4.262  16.204 -1.8921  1.1803  0.6343
 6599SOL     OW31432   1.594   2.715   7.468  0.1386 -0.6219  0.0189
 6599SOL    HW131433   1.507   2.755   7.480 -0.3227 -1.1553 -1.6299
 6599SOL    HW231434   1.640   2.726   7.552  0.5748 -1.3663 -0.1287
 6600SOL     OW31435   1.370   2.285   4.801  0.2248 -0.6740  0.4693
 6600SOL    HW131436   1.445   2.225   4.805  1.0380  0.3250  0.4444
 6600SOL    HW231437   1.377   2.317   4.711 -0.7499 -0.8723  0.3223
 6601SOL     OW31438   1.776   2.299  14.835 -0.3479  0.7281  0.6078
 6601SOL    HW131439   1.712   2.369  14.848 -0.4032  1.1161 -1.8381
 6601SOL    HW231440   1.849   2.348  14.797  1.2517 -1.5109  0.8019
 6602SOL     OW31441   3.052   1.698  17.433  0.1702  0.8885  0.4549
 6602SOL    HW131442   3.018   1.609  17.447 -0.1983  1.0044  0.3094
 6602SOL    HW231443   3.049   1.701  17.337 -2.4122 -0.3572  0.4766
 6603SOL     OW31444   3.754   0.801  15.061 -0.2965 -0.0142 -0.1272
 6603SOL    HW131445   3.718   0.719  15.028  0.7147 -0.6549  0.3368
 6603SOL    HW231446   3.846   0.775  15.074 -0.3797  0.6006  1.6520
 6604SOL     OW31447   4.177   3.820   5.849  0.3257  0.5663  0.2471
 6604SOL    HW131448   4.238   3.752   5.878 -0.0465  0.2697  0.3360
 6604SOL    HW231449   4.100   3.788   5.896  0.9544 -0.3360  0.6598
 6605SOL     OW31450   1.106   4.163   6.487  0.3430 -0.3226  0.2766
 6605SOL    HW131451   1.026   4.212   6.506 -0.4877 -1.7706  0.5073
 6605SOL    HW231452   1.061   4.080   6.506  1.3175 -1.2136 -1.2614
 6606SOL     OW31453   2.324   1.655   0.392  0.1619  0.4477  0.4622
 6606SOL    HW131454   2.268   1.577   0.381  0.5722  0.4056 -1.4155
 6606SOL    HW231455   2.266   1.721   0.353 -0.6613 -0.0228  0.8836
 6607SOL     OW31456   4.238   4.061  12.036  0.2010 -0.3799 -0.3189
 6607SOL    HW131457   4.297   4.100  11.972 -1.9684  0.0655 -2.0228
 6607SOL    HW231458   4.209   3.980  11.993 -0.3112  0.8170 -2.1982
 6608SOL     OW31459   1.994   4.726   0.043  0.1950  0.6025  0.3199
 6608SOL    HW131460   1.993   4.692   0.133  1.6034 -1.3657 -0.4097
 6608SOL    HW231461   1.986   0.079   0.053 -0.6118  0.4454  1.1868
 6609SOL     OW31462   2.088   1.957   2.091 -0.0406 -0.3777  0.6741
 6609SOL    HW131463   2.169   2.005   2.076 -0.0561 -0.6656 -0.2913
 6609SOL    HW231464   2.118   1.876   2.133  0.3910 -1.1813 -1.1766
 6610SOL     OW31465   3.224   4.036  11.568 -0.0978 -0.3285 -0.5417
 6610SOL    HW131466   3.285   4.039  11.641  0.0914 -1.1286 -0.6673
 6610SOL    HW231467   3.195   3.945  11.572  1.3470 -0.7469  0.2865
 6611SOL     OW31468   3.551   4.335   4.469 -0.3578 -0.0460  0.4577
 6611SOL    HW131469   3.515   4.307   4.385  0.4793 -0.5879  0.2867
 6611SOL    HW231470   3.602   4.407   4.431 -0.3678 -0.7858 -0.9502
 6612SOL     OW31471   3.487   1.748   2.116 -0.0861  0.4278  0.3577
 6612SOL    HW131472   3.444   1.776   2.035  1.8213  0.6733 -0.5706
 6612SOL    HW231473   3.421   1.702   2.168 -2.1048  1.4539 -1.2937
 6613SOL     OW31474   4.613   1.869   5.929 -0.7816 -0.0584  0.0965
 6613SOL    HW131475   4.658   1.899   6.008 -3.0776  0.7301  1.1031
 6613SOL    HW231476   4.663   1.795   5.894  1.2675  0.4772  1.9596
 6614SOL     OW31477   4.232   4.125   2.928  0.1236 -0.0693 -0.1693
 6614SOL    HW131478   4.315   4.157   2.964  0.8295 -1.6453 -0.4042
 6614SOL    HW231479   4.204   4.213   2.901  1.5980  0.6864  0.7874
 6615SOL     OW31480   0.190   2.464   5.075 -0.2312 -0.3494  0.0140
 6615SOL    HW131481   0.260   2.400   5.063 -0.9753 -0.7476 -2.0806
 6615SOL    HW231482   0.209   2.489   5.166 -0.0491  3.1812 -0.9868
 6616SOL     OW31483   3.315   3.250   3.509  0.2331 -0.7140 -0.5068
 6616SOL    HW131484   3.406   3.262   3.535  0.0891 -0.0758 -0.2994
 6616SOL    HW231485   3.323   3.279   3.418 -0.0769 -0.5717 -0.4902
 6617SOL     OW31486   4.338   3.207   2.912  0.1316  0.2034 -0.1013
 6617SOL    HW131487   4.309   3.292   2.879  1.0185  0.6140  0.1657
 6617SOL    HW231488   4.355   3.161   2.830 -2.3260  1.1838 -1.1632
 6618SOL     OW31489   2.590   1.760  13.743 -0.7610  0.0803 -0.1736
 6618SOL    HW131490   2.630   1.681  13.707 -2.5404 -1.6866  1.7089
 6618SOL    HW231491   2.598   1.737  13.835 -1.5261  0.4825 -0.0079
 6619SOL     OW31492   0.929   1.477   3.547 -0.0895 -0.7847  0.1452
 6619SOL    HW131493   0.966   1.556   3.586  0.3350 -0.3195 -1.2145
 6619SOL    HW231494   0.857   1.511   3.494 -0.3733  0.5109  1.3320
 6620SOL     OW31495   2.509   1.370   4.265  0.7979 -0.4449 -0.3717
 6620SOL    HW131496   2.454   1.405   4.336 -0.5881  1.5684 -2.4193
 6620SOL    HW231497   2.546   1.295   4.312  0.0458  0.8272  2.2519
 6621SOL     OW31498   1.722   0.752   1.248  0.1409  0.5012  0.0756
 6621SOL    HW131499   1.738   0.798   1.330  4.3544 -0.4117 -0.2255
 6621SOL    HW231500   1.813   0.726   1.229 -0.3169 -2.6938  2.3162
 6622SOL     OW31501   1.725   0.423   2.355  0.1428  0.4856 -0.2903
 6622SOL    HW131502   1.768   0.508   2.354  1.1396 -0.0134  0.5727
 6622SOL    HW231503   1.778   0.374   2.292 -1.2833 -1.6497  0.1414
 6623SOL     OW31504   2.386   0.250   5.527 -0.2473 -0.1005  0.6940
 6623SOL    HW131505   2.353   0.204   5.605  1.2443 -2.2232  0.0790
 6623SOL    HW231506   2.450   0.307   5.569 -1.1236  0.6904  0.9492
 6624SOL     OW31507   1.911   0.535   7.736 -0.3116  0.1209 -0.1123
 6624SOL    HW131508   1.988   0.481   7.717  0.9819  1.2296  1.9419
 6624SOL    HW231509   1.871   0.488   7.808 -1.8417  0.3032 -0.8491
 6625SOL     OW31510   1.234   1.099   8.731 -0.4140 -0.0341  0.2251
 6625SOL    HW131511   1.160   1.056   8.772  0.5136 -2.0366 -0.1814
 6625SOL    HW231512   1.270   1.034   8.670 -1.6336  0.3074 -0.8403
 6626SOL     OW31513   1.981   1.835   7.071 -0.0347  0.4206 -0.4520
 6626SOL    HW131514   2.016   1.918   7.105  0.6208 -0.5969  1.4100
 6626SOL    HW231515   2.017   1.831   6.983 -0.8755 -0.4812 -0.7436
 6627SOL     OW31516   1.766   2.166   6.544  0.5401 -0.2347  0.4087
 6627SOL    HW131517   1.770   2.194   6.452 -2.0097 -0.2103  0.2896
 6627SOL    HW231518   1.854   2.195   6.567 -0.0799  1.2984  0.8672
 6628SOL     OW31519   2.281   2.976   5.771  0.0279 -0.1879  0.0318
 6628SOL    HW131520   2.286   2.937   5.684  0.9627 -1.2280  0.5477
 6628SOL    HW231521   2.371   3.009   5.779 -0.7776  1.7597  1.2463
 6629SOL     OW31522   0.593   4.368  15.388  0.0412 -0.4473  0.0019
 6629SOL    HW131523   0.570   4.461  15.381  2.0333 -0.0550 -1.1148
 6629SOL    HW231524   0.645   4.358  15.309  0.4393  0.0253  0.2035
 6630SOL     OW31525   3.288   0.642   7.210 -0.2504  0.4594 -0.1724
 6630SOL    HW131526   3.232   0.648   7.133 -0.3481  2.4480  0.0329
 6630SOL    HW231527   3.346   0.569   7.189 -0.8669  0.8018 -3.0067
 6631SOL     OW31528   0.082   1.874   8.079 -0.4040 -1.5572  0.4581
 6631SOL    HW131529   0.166   1.868   8.033 -0.0864 -1.3178  1.0143
 6631SOL    HW231530   0.032   1.808   8.030 -0.6776 -1.3602  0.4696
 6632SOL     OW31531   1.584   0.020   8.492  0.0452  0.2125  0.0435
 6632SOL    HW131532   1.658   0.077   8.514  0.2865 -0.2883  0.5083
 6632SOL    HW231533   1.628   4.680   8.514  1.3419  0.6960 -0.6705
 6633SOL     OW31534   1.078   1.212   7.639 -0.2509  0.1548 -0.5788
 6633SOL    HW131535   1.029   1.279   7.592  0.5892  1.0091 -0.2360
 6633SOL    HW231536   1.115   1.159   7.568  0.4561 -0.3464  0.1541
 6634SOL     OW31537   1.350   1.047  11.608 -0.1169 -0.2229  0.4402
 6634SOL    HW131538   1.402   0.977  11.569  0.8231 -0.8647  2.8300
 6634SOL    HW231539   1.391   1.128  11.577 -1.3011 -0.5016 -1.8125
 6635SOL     OW31540   4.670   1.004   7.617  0.1202  0.4306  0.3894
 6635SOL    HW131541   4.617   0.998   7.538 -1.9772  1.6099  1.7328
 6635SOL    HW231542   0.009   0.962   7.589  0.6506  0.9762  1.1184
 6636SOL     OW31543   0.672   3.066   3.625  0.2298 -0.2097  0.0796
 6636SOL    HW131544   0.598   3.010   3.650  0.1752 -0.2191 -0.1035
 6636SOL    HW231545   0.682   3.123   3.701  1.3448  0.7162 -0.7649
 6637SOL     OW31546   4.130   0.483   6.179  0.4095  0.2540  0.5708
 6637SOL    HW131547   4.084   0.409   6.217 -0.3183  0.5008  0.1624
 6637SOL    HW231548   4.070   0.555   6.198  1.4427  1.3977 -0.4508
 6638SOL     OW31549   4.176   1.525   7.156 -0.1701 -0.4451  0.0299
 6638SOL    HW131550   4.095   1.575   7.138  1.0082  1.4543 -0.0346
 6638SOL    HW231551   4.206   1.494   7.071  2.0767  0.1672  0.6200
 6639SOL     OW31552   3.325   0.874   0.510 -0.0607 -0.0654 -0.0013
 6639SOL    HW131553   3.344   0.812   0.439 -3.1374 -1.1392  0.1044
 6639SOL    HW231554   3.341   0.955   0.463 -0.9658  1.4968  2.3758
 6640SOL     OW31555   3.965   3.364   3.604 -0.0191  0.5581  0.0801
 6640SOL    HW131556   4.036   3.306   3.578  0.7874  1.5351  0.1322
 6640SOL    HW231557   3.996   3.454   3.594  1.2309  0.3620  2.2504
 6641SOL     OW31558   0.003   3.637  15.597  0.6934  0.2288  0.0998
 6641SOL    HW131559   0.039   3.585  15.669  0.2959 -2.4463 -1.6256
 6641SOL    HW231560   0.079   3.648  15.539  0.1515 -1.1357 -0.8656
 6642SOL     OW31561   3.729   1.969   8.279 -0.3572  0.2811 -0.0337
 6642SOL    HW131562   3.703   1.989   8.189  1.9424  0.9761 -0.5361
 6642SOL    HW231563   3.654   2.005   8.328  0.7054  1.8175  0.4755
 6643SOL     OW31564   2.264   0.271   2.752  0.4109 -0.1852 -0.1027
 6643SOL    HW131565   2.273   0.246   2.660  1.9339  1.2878 -0.3475
 6643SOL    HW231566   2.309   0.192   2.784 -0.2887 -0.6994 -0.3860
 6644SOL     OW31567   4.215   1.810   1.546 -0.2243  0.5118  0.3687
 6644SOL    HW131568   4.294   1.862   1.563  1.7127 -2.0751 -0.6743
 6644SOL    HW231569   4.151   1.877   1.521  1.0660  1.1171 -1.3472
 6645SOL     OW31570   0.231   1.646   8.443  0.3187  0.3063 -0.3180
 6645SOL    HW131571   0.281   1.610   8.516  0.5481  0.4816 -0.3886
 6645SOL    HW231572   0.190   1.727   8.474  2.8364  0.9566  1.3095
 6646SOL     OW31573   1.038   3.556   4.722 -0.2952 -0.3822 -0.1500
 6646SOL    HW131574   0.973   3.600   4.776 -1.3037 -1.9260 -0.1074
 6646SOL    HW231575   1.086   3.511   4.791  0.9829 -1.0415 -1.4583
 6647SOL     OW31576   4.376   1.932   5.467 -0.4424  0.0650 -0.1545
 6647SOL    HW131577   4.411   1.898   5.550 -1.1145 -1.0200 -0.3114
 6647SOL    HW231578   4.295   1.881   5.460 -0.5523  0.5047 -1.9828
 6648SOL     OW31579   2.029   0.718  10.463 -0.0382  0.1611  0.0236
 6648SOL    HW131580   2.061   0.783  10.526 -0.9259  0.5234  0.1021
 6648SOL    HW231581   1.962   0.761  10.411 -2.6461 -2.1508  1.4651
 6649SOL     OW31582   2.750   2.246   0.462 -1.0365 -0.0632  0.4359
 6649SOL    HW131583   2.807   2.317   0.430 -0.8201 -0.8114 -0.7961
 6649SOL    HW231584   2.663   2.265   0.429 -0.6998  0.6746 -0.0294
 6650SOL     OW31585   1.726   1.118   9.473 -0.3217 -0.1492 -0.0730
 6650SOL    HW131586   1.775   1.094   9.551 -0.0313  3.9426  1.0109
 6650SOL    HW231587   1.681   1.037   9.448 -0.0934 -0.5313  0.7581
 6651SOL     OW31588   1.208   0.894   2.501 -0.3328 -0.6217 -0.2946
 6651SOL    HW131589   1.284   0.890   2.443  0.6476  0.4629  0.9115
 6651SOL    HW231590   1.229   0.972   2.552  0.1329 -0.9998  0.0963
 6652SOL     OW31591   2.191   4.606   9.093  0.5614  0.2996  0.6672
 6652SOL    HW131592   2.155   4.535   9.145  0.2319 -0.8429 -1.1139
 6652SOL    HW231593   2.164   4.681   9.145  0.6933 -1.0368  2.6499
 6653SOL     OW31594   3.110   2.785   4.160  0.1172 -0.1150  0.0263
 6653SOL    HW131595   3.112   2.762   4.253  3.8678  0.3908  0.0774
 6653SOL    HW231596   3.158   2.868   4.159  0.5147 -0.3600 -0.7070
 6654SOL     OW31597   1.863   2.168   1.792  0.2952 -0.3928  0.1865
 6654SOL    HW131598   1.881   2.244   1.847 -0.9557  0.4903 -0.6291
 6654SOL    HW231599   1.775   2.181   1.755  0.3112  0.0764  0.3210
 6655SOL     OW31600   4.673   0.087   4.705 -0.1127 -0.0245 -0.0428
 6655SOL    HW131601   4.623   0.083   4.624  0.9770 -1.7839 -0.6348
 6655SOL    HW231602   4.607   0.069   4.772  0.4821  1.2875  0.9030
 6656SOL     OW31603   3.870   4.551   8.301 -0.0791  0.2532  0.2227
 6656SOL    HW131604   3.951   4.602   8.304 -0.2967  0.6629 -0.7121
 6656SOL    HW231605   3.815   4.610   8.352 -2.1181 -0.3183 -1.3117
 6657SOL     OW31606   4.666   0.979  10.020 -0.7744 -0.2973 -0.3726
 6657SOL    HW131607   4.683   1.056   9.966 -0.7731  0.2475  0.4159
 6657SOL    HW231608   4.701   0.907   9.967 -3.8078 -1.4829 -0.7699
 6658SOL     OW31609   1.274   3.364   8.791  0.1991  0.7894 -0.4766
 6658SOL    HW131610   1.357   3.412   8.794  1.3802 -1.2770 -0.0379
 6658SOL    HW231611   1.229   3.395   8.870 -0.4259  1.9815 -1.3112
 6659SOL     OW31612   3.506   2.969   8.157 -0.1136 -0.0193 -0.4319
 6659SOL    HW131613   3.549   2.895   8.200 -0.7416 -0.5021 -0.6303
 6659SOL    HW231614   3.414   2.962   8.184  0.5523 -1.0891  1.5777
 6660SOL     OW31615   3.368   0.294   6.322 -0.3833 -0.6376 -0.3334
 6660SOL    HW131616   3.417   0.334   6.250  0.5390  0.3805  0.8634
 6660SOL    HW231617   3.325   0.218   6.283 -0.6222  0.5466 -2.4115
 6661SOL     OW31618   1.039   2.285  11.659  0.0820  0.3687 -0.7241
 6661SOL    HW131619   0.963   2.325  11.616  1.4672  2.0168 -1.6102
 6661SOL    HW231620   1.061   2.230  11.583  0.2629  0.4689 -0.7438
 6662SOL     OW31621   3.512   3.723   7.336 -0.2942  0.3179  0.2344
 6662SOL    HW131622   3.577   3.678   7.389  1.3791  0.1245 -1.9722
 6662SOL    HW231623   3.431   3.675   7.355  0.8531 -1.6300  0.1983
 6663SOL     OW31624   1.300   4.613  16.800 -0.3939  0.3507  0.0966
 6663SOL    HW131625   1.296   4.575  16.713  2.6768  0.5616 -0.1138
 6663SOL    HW231626   1.220   4.665  16.788  0.2510  1.1634 -0.6411
 6664SOL     OW31627   3.464   0.760   8.754  0.0310 -0.1309 -0.1153
 6664SOL    HW131628   3.413   0.787   8.830 -0.1422 -0.0933 -0.2454
 6664SOL    HW231629   3.451   0.832   8.692 -2.6584  0.8748  1.6354
 6665SOL     OW31630   2.962   2.457   7.200 -0.2135 -0.9157 -0.1989
 6665SOL    HW131631   3.050   2.491   7.186 -0.8144  1.0714  0.8669
 6665SOL    HW231632   2.945   2.422   7.113 -1.8610 -0.0494 -0.2194
 6666SOL     OW31633   4.150   2.244   1.971 -0.4443  0.0502 -0.2581
 6666SOL    HW131634   4.089   2.317   1.958 -2.2323 -0.9622  2.5723
 6666SOL    HW231635   4.240   2.277   1.972 -0.1831 -0.6493 -0.5231
 6667SOL     OW31636   1.328   3.584   5.965 -0.2724 -0.7563 -0.5821
 6667SOL    HW131637   1.280   3.567   6.046 -1.7771 -0.9965 -1.5188
 6667SOL    HW231638   1.260   3.622   5.910  2.1513  2.1501 -1.5595
 6668SOL     OW31639   2.714   3.352  17.611  0.1241 -0.4998 -0.4017
 6668SOL    HW131640   2.738   3.362  17.703  1.2759 -0.4601 -0.7103
 6668SOL    HW231641   2.797   3.386  17.578 -0.2112 -0.4698 -1.2011
 6669SOL     OW31642   0.168   1.371   4.223  0.0219  0.5880  0.1680
 6669SOL    HW131643   0.140   1.280   4.223 -1.6070  1.0875 -1.9956
 6669SOL    HW231644   0.249   1.363   4.273 -0.2352  1.1707  0.6772
 6670SOL     OW31645   1.339   0.444   3.652 -0.0045  0.2449  0.4273
 6670SOL    HW131646   1.374   0.380   3.590 -2.3710 -0.2168 -0.4381
 6670SOL    HW231647   1.327   0.385   3.725  0.6857  0.1066  0.4307
 6671SOL     OW31648   2.506   0.219  15.009 -0.0946 -0.1923 -0.5749
 6671SOL    HW131649   2.516   0.192  15.100 -2.8216 -0.3291 -0.3378
 6671SOL    HW231650   2.413   0.199  14.996 -0.0177 -1.5135  0.9355
 6672SOL     OW31651   2.728   1.784   8.410 -0.1653 -0.4348 -0.3145
 6672SOL    HW131652   2.662   1.842   8.372 -0.3900  0.1707  0.9928
 6672SOL    HW231653   2.813   1.824   8.391 -0.5811  0.0161 -1.2530
 6673SOL     OW31654   3.649   2.759   9.085 -0.2698 -0.4333 -0.7942
 6673SOL    HW131655   3.611   2.811   9.155  0.4680 -2.1682  0.8769
 6673SOL    HW231656   3.605   2.674   9.088  0.6355 -0.8535  0.7299
 6674SOL     OW31657   3.867   2.314  11.896 -0.1245  0.1158 -0.5553
 6674SOL    HW131658   3.892   2.222  11.888 -0.9218 -0.1925  0.6206
 6674SOL    HW231659   3.773   2.298  11.899 -0.3609  1.3444 -1.3556
 6675SOL     OW31660   4.414   1.266   7.503  0.0013  0.2531  0.1777
 6675SOL    HW131661   4.415   1.237   7.412  0.0480  1.3803 -0.1735
 6675SOL    HW231662   4.491   1.323   7.506 -1.4140  2.1439  0.4100
 6676SOL     OW31663   1.907   1.529   3.681  0.7087 -0.1511 -0.3136
 6676SOL    HW131664   1.817   1.504   3.660  0.1441  1.6496 -0.0302
 6676SOL    HW231665   1.925   1.458   3.742  3.1501 -0.7435 -1.7404
 6677SOL     OW31666   4.317   3.723   1.817  0.2016 -0.2831 -0.1760
 6677SOL    HW131667   4.350   3.678   1.895  0.5206  2.1870  1.1070
 6677SOL    HW231668   4.380   3.793   1.799  1.6775 -1.8175 -0.9732
 6678SOL     OW31669   2.584   1.870   9.053 -0.2667 -0.0227  0.2028
 6678SOL    HW131670   2.633   1.840   9.129 -0.9914  0.8310  0.9983
 6678SOL    HW231671   2.528   1.941   9.085  2.3811  1.5804  1.3103
 6679SOL     OW31672   0.683   2.069   6.138  0.3256 -0.6440 -0.1577
 6679SOL    HW131673   0.752   2.066   6.204 -1.0758  1.5225  1.4305
 6679SOL    HW231674   0.620   2.131   6.175  0.5104 -0.5523  0.0040
 6680SOL     OW31675   2.262   4.424   2.931  0.0628  0.1106  0.1317
 6680SOL    HW131676   2.247   4.365   3.005 -4.3841 -0.5426 -1.3170
 6680SOL    HW231677   2.214   4.384   2.858  1.1510  1.6841 -1.4500
 6681SOL     OW31678   1.419   4.031   5.535 -0.4260  0.6233 -0.0875
 6681SOL    HW131679   1.362   4.006   5.608 -1.7113 -2.0919 -2.0183
 6681SOL    HW231680   1.378   4.112   5.505  1.6077  2.2688  1.5753
 6682SOL     OW31681   4.234   2.430  12.778  0.4951  0.4795  0.4471
 6682SOL    HW131682   4.319   2.432  12.735  0.3930  1.3359  0.2952
 6682SOL    HW231683   4.219   2.347  12.824 -0.8683  1.2029  1.3107
 6683SOL     OW31684   0.512   2.243   3.175  0.7676 -0.2347  0.1228
 6683SOL    HW131685   0.475   2.303   3.240 -2.8834 -0.8379 -1.3802
 6683SOL    HW231686   0.464   2.268   3.096  0.0182 -1.7321  0.0928
 6684SOL     OW31687   4.364   1.915   8.528 -0.4868 -0.4285  0.3729
 6684SOL    HW131688   4.412   1.983   8.481  1.6069 -1.1991  1.4171
 6684SOL    HW231689   4.371   1.943   8.619  2.0633 -2.4114  0.7901
 6685SOL     OW31690   0.953   0.233   6.138  0.3184  0.1061  0.1167
 6685SOL    HW131691   1.034   0.263   6.180 -1.2109  1.1907  2.3121
 6685SOL    HW231692   0.988   0.177   6.069 -0.9893 -0.7603  0.1592
 6686SOL     OW31693   1.588   2.618   6.728  0.7159  0.3704  0.3019
 6686SOL    HW131694   1.644   2.696   6.733 -0.3596  1.0569  1.8947
 6686SOL    HW231695   1.638   2.559   6.672  0.6029 -0.4698  1.1018
 6687SOL     OW31696   0.697   3.393   5.431  0.0007 -0.2381  0.0215
 6687SOL    HW131697   0.639   3.455   5.386  2.1396  2.5212  1.0538
 6687SOL    HW231698   0.655   3.380   5.516 -1.5043  1.7053 -0.4236
 6688SOL     OW31699   2.293   3.554   0.201 -0.3376 -0.5313 -0.0549
 6688SOL    HW131700   2.368   3.500   0.227  0.0248  0.4901  1.0793
 6688SOL    HW231701   2.336   3.640   0.209 -0.2393 -0.3686 -2.3651
 6689SOL     OW31702   4.436   2.728   5.247 -0.1865 -0.3560 -0.2950
 6689SOL    HW131703   4.406   2.798   5.305 -0.3603 -0.8729  0.2424
 6689SOL    HW231704   4.528   2.737   5.269 -0.5081 -0.0770  0.9399
 6690SOL     OW31705   2.060   3.594   0.980 -0.1029 -0.4303  0.1593
 6690SOL    HW131706   2.001   3.599   0.905  0.6872 -0.8849 -0.4970
 6690SOL    HW231707   2.135   3.620   0.926 -1.7695  1.0953 -1.4305
 6691SOL     OW31708   2.097   4.639   4.247 -0.4543  0.0792 -0.4299
 6691SOL    HW131709   2.177   4.686   4.271 -1.4311  1.0798  0.8701
 6691SOL    HW231710   2.030   4.694   4.285  0.6984  1.3284 -0.2011
 6692SOL     OW31711   0.156   4.363   1.829 -0.5432 -0.5175  0.2030
 6692SOL    HW131712   0.111   4.283   1.856 -1.2429  0.1838  1.1185
 6692SOL    HW231713   0.156   4.364   1.733 -0.9655  2.0624  0.2119
 6693SOL     OW31714   4.030   4.732  14.492  0.6369 -1.0615 -0.6434
 6693SOL    HW131715   4.003   4.642  14.473  1.3691 -1.3547 -0.2910
 6693SOL    HW231716   3.961   0.054  14.475 -0.2769 -1.3596  1.9961
 6694SOL     OW31717   0.463   4.005   0.897  0.0350  0.1762 -0.2808
 6694SOL    HW131718   0.371   4.024   0.880  0.0327 -0.1090 -0.6060
 6694SOL    HW231719   0.480   4.041   0.984 -2.2305  0.9056 -0.1473
 6695SOL     OW31720   4.012   4.693  14.079  0.6293 -0.4004 -0.6806
 6695SOL    HW131721   3.974   4.610  14.108  2.7740 -0.8483  0.8296
 6695SOL    HW231722   3.937   0.009  14.071  1.5884  1.1299  1.5410
 6696SOL     OW31723   0.891   2.261   6.045  0.7616  0.5469 -0.1991
 6696SOL    HW131724   0.965   2.318   6.023  1.8016 -0.5097  0.5444
 6696SOL    HW231725   0.917   2.235   6.133  2.1680  2.4268 -0.0630
 6697SOL     OW31726   0.452   3.247   0.545 -0.0016 -0.2687 -0.1700
 6697SOL    HW131727   0.470   3.153   0.539  0.4735 -0.1372 -0.7589
 6697SOL    HW231728   0.542   3.278   0.539 -0.6935  2.0087  1.1476
 6698SOL     OW31729   3.377   2.273  16.566 -0.2210  0.3071  0.3579
 6698SOL    HW131730   3.441   2.311  16.505 -1.5072  0.4791 -0.8886
 6698SOL    HW231731   3.423   2.290  16.649 -1.4572 -0.8031  1.2639
 6699SOL     OW31732   2.921   1.442   8.408 -0.2168  0.7765 -0.2972
 6699SOL    HW131733   3.004   1.474   8.445  1.3902 -1.9281 -1.4891
 6699SOL    HW231734   2.867   1.500   8.461  0.2673  1.7866 -0.9058
 6700SOL     OW31735   4.066   1.452   5.566  0.0023  0.3086  0.0413
 6700SOL    HW131736   4.158   1.472   5.584 -0.2980  1.2502  0.5161
 6700SOL    HW231737   4.071   1.432   5.472 -1.0496  0.0794  0.0381
 6701SOL     OW31738   0.788   0.875   4.083 -0.2466  0.7189  0.3192
 6701SOL    HW131739   0.720   0.869   4.150 -0.7684 -0.8539 -0.3615
 6701SOL    HW231740   0.790   0.970   4.067 -1.3815  1.0940  2.3961
 6702SOL     OW31741   4.137   0.987   4.792  0.3863 -0.1913 -0.1621
 6702SOL    HW131742   4.197   1.019   4.724  0.4993 -1.1049 -0.4904
 6702SOL    HW231743   4.124   1.069   4.839  0.7137 -0.3345  0.1759
 6703SOL     OW31744   1.515   3.485   3.115 -0.3323  0.2727  0.6766
 6703SOL    HW131745   1.446   3.535   3.071 -0.9444  0.1537  1.5069
 6703SOL    HW231746   1.474   3.400   3.124  1.3299 -0.5628  0.3708
 6704SOL     OW31747   0.458   3.513   9.141 -0.0698 -0.4451  0.3340
 6704SOL    HW131748   0.428   3.598   9.109  2.1465  0.6712  1.1828
 6704SOL    HW231749   0.420   3.456   9.075 -1.4416  0.0708  0.6862
 6705SOL     OW31750   1.983   2.051   3.303 -0.6393  0.8921 -0.2392
 6705SOL    HW131751   2.066   2.059   3.349  0.0051 -0.2653 -1.2137
 6705SOL    HW231752   1.946   1.971   3.340  0.9101  0.2357 -0.1483
 6706SOL     OW31753   2.267   3.773   1.318  0.2909 -0.5838  0.3995
 6706SOL    HW131754   2.338   3.709   1.323  2.3038  1.5211 -0.9791
 6706SOL    HW231755   2.279   3.820   1.401  1.2354  0.5271 -0.3622
 6707SOL     OW31756   3.167   4.498   4.926 -0.6593 -0.3942  0.2801
 6707SOL    HW131757   3.259   4.513   4.949 -0.0037 -3.7134 -0.2162
 6707SOL    HW231758   3.163   4.515   4.832 -1.6402 -0.0503  0.3873
 6708SOL     OW31759   1.402   1.763   7.272 -0.2187  0.2116 -0.3120
 6708SOL    HW131760   1.370   1.838   7.323 -1.2618 -0.4547  0.0119
 6708SOL    HW231761   1.472   1.733   7.330 -1.7827 -1.4689  0.6875
 6709SOL     OW31762   0.155   4.480   1.482 -0.0256 -0.0693  0.5372
 6709SOL    HW131763   0.219   4.408   1.486 -0.3819 -0.4662 -0.8623
 6709SOL    HW231764   0.130   4.467   1.390 -1.4455  0.6651  0.8129
 6710SOL     OW31765   4.367   1.939  10.705 -0.4718  0.1732  0.3158
 6710SOL    HW131766   4.402   2.012  10.755 -0.2788 -0.1812  0.6972
 6710SOL    HW231767   4.377   1.870  10.771  0.2287  0.7661  0.8252
 6711SOL     OW31768   0.470   4.183   5.213  0.0459 -0.0480 -0.1062
 6711SOL    HW131769   0.466   4.276   5.233  1.0002 -0.2361  0.9651
 6711SOL    HW231770   0.490   4.177   5.120  1.9921 -1.5612  0.3950
 6712SOL     OW31771   1.097   4.343  11.260 -0.8004 -0.0407 -0.2256
 6712SOL    HW131772   1.102   4.296  11.177  0.0701 -2.6305  1.2830
 6712SOL    HW231773   1.134   4.430  11.241  0.8660 -1.0103 -1.3607
 6713SOL     OW31774   2.956   4.609  15.180  0.1562 -0.4878 -0.5006
 6713SOL    HW131775   2.917   4.606  15.093  3.1627  0.4997 -1.8627
 6713SOL    HW231776   2.970   4.516  15.199  0.6312  0.1703  2.2875
 6714SOL     OW31777   3.240   2.509   3.414 -0.8132 -0.0375  0.1962
 6714SOL    HW131778   3.227   2.430   3.466  0.8098  0.0812  0.7790
 6714SOL    HW231779   3.276   2.565   3.483  0.2611  0.2201 -0.5616
 6715SOL     OW31780   2.599   4.248   0.787 -0.4456 -0.0483 -0.2033
 6715SOL    HW131781   2.520   4.200   0.759  0.6150 -2.0064  0.1747
 6715SOL    HW231782   2.558   4.322   0.832  0.4639 -0.2293  0.9245
 6716SOL     OW31783   2.927   3.432   4.732  0.7520  0.0579  0.6115
 6716SOL    HW131784   2.981   3.354   4.718 -0.0604  0.1289 -2.8161
 6716SOL    HW231785   2.995   3.499   4.744  0.4417  0.6122 -0.7724
 6717SOL     OW31786   1.522   2.857   2.962  0.4170 -0.3201 -0.6646
 6717SOL    HW131787   1.578   2.830   3.035  0.8842 -0.3441 -1.0328
 6717SOL    HW231788   1.440   2.807   2.969  1.7840 -2.6977 -1.9087
 6718SOL     OW31789   2.957   3.515   3.404 -0.1803  0.4141 -0.1760
 6718SOL    HW131790   3.015   3.574   3.356  0.0544 -0.8259 -1.4002
 6718SOL    HW231791   2.869   3.529   3.370 -0.4538 -1.5466 -0.2794
 6719SOL     OW31792   1.553   3.562  15.911 -0.1542 -0.5422 -0.2052
 6719SOL    HW131793   1.588   3.498  15.972  1.0912 -0.6989 -1.0716
 6719SOL    HW231794   1.626   3.600  15.861  0.0017  0.8922  1.0899
 6720SOL     OW31795   1.838   4.488   8.841 -0.1878  0.0376  0.3680
 6720SOL    HW131796   1.868   4.574   8.871  1.1667  0.5412 -2.4607
 6720SOL    HW231797   1.902   4.434   8.887 -1.6918 -0.5247  1.7843
 6721SOL     OW31798   3.277   4.280   8.309  0.3093  0.4993 -0.1847
 6721SOL    HW131799   3.276   4.193   8.270 -1.8506  1.3488 -2.0096
 6721SOL    HW231800   3.203   4.324   8.269  0.9585  0.4325 -1.4586
 6722SOL     OW31801   3.453   1.431   1.631  0.3786 -0.4293 -0.2532
 6722SOL    HW131802   3.481   1.512   1.674 -0.2033 -1.1552  1.4903
 6722SOL    HW231803   3.538   1.387   1.631  0.4059 -0.3802  0.5483
 6723SOL     OW31804   1.906   3.376   1.087  0.4371  0.6421  0.1346
 6723SOL    HW131805   1.973   3.437   1.058  1.3317  0.0425  0.9596
 6723SOL    HW231806   1.825   3.425   1.071 -0.7367 -1.0646  0.7547
 6724SOL     OW31807   0.549   4.481  12.388  0.4161  0.6536  0.3085
 6724SOL    HW131808   0.614   4.412  12.397  0.2735  0.6907  1.7033
 6724SOL    HW231809   0.603   4.539  12.336  1.7803  0.0893  1.0964
 6725SOL     OW31810   2.338   1.782   5.613  0.0908 -0.0874  0.4138
 6725SOL    HW131811   2.423   1.770   5.571  0.5052  1.4007  0.8619
 6725SOL    HW231812   2.279   1.757   5.542  1.1978  1.0736 -0.9117
 6726SOL     OW31813   4.675   4.216   0.518  0.0575 -0.5696  0.3282
 6726SOL    HW131814   4.612   4.212   0.445  2.8595 -0.9764 -2.0824
 6726SOL    HW231815   0.008   4.188   0.465  1.2852  0.0651  1.7570
 6727SOL     OW31816   0.162   1.183   7.694 -0.1563 -0.0942  0.6607
 6727SOL    HW131817   0.196   1.262   7.736  0.4415  0.2453 -0.4775
 6727SOL    HW231818   0.074   1.178   7.732  0.7776  1.3812  3.0316
 6728SOL     OW31819   4.388   0.201  11.135 -0.3839 -0.0949 -0.3863
 6728SOL    HW131820   4.440   0.239  11.207  0.2736 -0.1478 -0.8326
 6728SOL    HW231821   4.359   0.123  11.184  1.0512 -0.6480 -0.4128
 6729SOL     OW31822   0.177   4.619   2.348 -0.6965  0.1431  0.5659
 6729SOL    HW131823   0.173   4.633   2.253  0.5524 -0.1790  0.4619
 6729SOL    HW231824   0.212   4.701   2.384 -2.3555  0.9668  0.2875
 6730SOL     OW31825   1.638   0.825   1.546 -0.3779  0.0196  0.6086
 6730SOL    HW131826   1.650   0.834   1.641  1.0287  0.3187  0.4004
 6730SOL    HW231827   1.556   0.867   1.520  0.3430  2.6405  2.5729
 6731SOL     OW31828   1.380   4.564  13.583  0.5824 -0.1797 -0.3032
 6731SOL    HW131829   1.439   4.532  13.651 -1.9014 -0.5171  1.6911
 6731SOL    HW231830   1.394   4.494  13.519  1.7378 -1.5048  1.3961
 6732SOL     OW31831   2.857   3.950   3.792 -0.2865 -0.6708 -0.1602
 6732SOL    HW131832   2.875   3.857   3.773 -0.7096 -0.2431 -2.6033
 6732SOL    HW231833   2.764   3.938   3.815 -0.5603  0.9238 -0.4909
 6733SOL     OW31834   2.358   4.423   6.554  0.3391  0.0688  0.9550
 6733SOL    HW131835   2.429   4.448   6.495 -0.3396 -0.8391 -0.2425
 6733SOL    HW231836   2.406   4.384   6.628  0.5026 -1.3877  0.0667
 6734SOL     OW31837   2.692   0.247   5.455  0.5130  0.1222  0.0726
 6734SOL    HW131838   2.675   0.319   5.516 -2.0549  1.5193 -2.2925
 6734SOL    HW231839   2.630   0.282   5.391  0.5787  1.8273  0.9277
 6735SOL     OW31840   1.253   4.261  12.313  0.1233 -0.3881 -0.0946
 6735SOL    HW131841   1.217   4.338  12.356  0.5515 -1.3799  2.0530
 6735SOL    HW231842   1.286   4.302  12.233 -0.1199  0.7526  0.4029
 6736SOL     OW31843   4.741   2.445  12.339  0.4278 -0.3245  0.2645
 6736SOL    HW131844   0.002   2.359  12.298  1.7383 -0.2206  0.1577
 6736SOL    HW231845   0.030   2.425  12.427  1.8361  0.4300 -0.0678
 6737SOL     OW31846   2.361   1.778   4.268  0.1168 -0.3425 -0.2127
 6737SOL    HW131847   2.407   1.857   4.298  0.9370 -1.0159  0.3065
 6737SOL    HW231848   2.287   1.821   4.225 -0.0248 -1.3124 -0.9127
 6738SOL     OW31849   3.763   0.378   5.780 -0.5430  0.3699  0.4321
 6738SOL    HW131850   3.809   0.349   5.859  0.8598  0.0068 -0.5291
 6738SOL    HW231851   3.774   0.473   5.777 -0.9783  0.3856 -0.5633
 6739SOL     OW31852   0.868   4.680   8.586 -0.2029  0.2195  0.2525
 6739SOL    HW131853   0.777   4.655   8.571  0.8767 -3.4713 -0.3509
 6739SOL    HW231854   0.888   4.596   8.629  0.9823  1.1884  1.5925
 6740SOL     OW31855   2.109   0.773  17.157 -0.4740  0.0534  0.2539
 6740SOL    HW131856   2.169   0.768  17.082  0.5583  3.1318  0.8500
 6740SOL    HW231857   2.081   0.682  17.168 -0.9387  0.4159  2.1296
 6741SOL     OW31858   1.241   2.174   2.692  0.2400  0.4659  0.0253
 6741SOL    HW131859   1.301   2.207   2.759 -0.6006  1.2250  0.4123
 6741SOL    HW231860   1.168   2.156   2.751 -0.6276 -1.5490 -1.6653
 6742SOL     OW31861   0.876   1.541   3.178  0.4817 -0.2947  0.0466
 6742SOL    HW131862   0.822   1.620   3.170 -1.7127 -1.7381  0.6477
 6742SOL    HW231863   0.834   1.497   3.252  1.1959 -0.2166  0.4917
 6743SOL     OW31864   2.482   2.646   0.667  0.0406  0.3436  0.0222
 6743SOL    HW131865   2.557   2.683   0.621 -0.9299  1.2413 -0.8249
 6743SOL    HW231866   2.476   2.555   0.638 -1.5321  0.1774  0.8952
 6744SOL     OW31867   4.626   3.548   9.850 -0.1225  0.1626 -0.2927
 6744SOL    HW131868   4.681   3.618   9.886 -1.4099  0.8502  0.3282
 6744SOL    HW231869   4.580   3.516   9.927 -1.7750  1.6068 -0.6860
 6745SOL     OW31870   4.496   1.928   8.817  0.3137  0.2955  0.5189
 6745SOL    HW131871   4.546   1.847   8.818 -0.0325  0.1109  2.6081
 6745SOL    HW231872   4.558   1.990   8.778  0.5847  0.7275  1.6137
 6746SOL     OW31873   4.212   3.312   4.856  0.6161  0.1478  0.5288
 6746SOL    HW131874   4.189   3.272   4.772  1.2784 -0.0757  0.4565
 6746SOL    HW231875   4.230   3.228   4.897  1.9366  1.3383  2.3951
 6747SOL     OW31876   3.128   0.472   6.631  0.3344  0.5542  0.0122
 6747SOL    HW131877   3.057   0.415   6.662  0.7410 -0.0333 -0.1241
 6747SOL    HW231878   3.204   0.432   6.675 -1.6373 -2.2639  0.8553
 6748SOL     OW31879   0.466   0.604   5.782  0.1307 -0.3109 -0.5251
 6748SOL    HW131880   0.425   0.525   5.815 -0.7305  0.3882  0.0784
 6748SOL    HW231881   0.515   0.619   5.862 -1.9236 -2.8725  1.1963
 6749SOL     OW31882   1.683   2.272   4.842  0.0324  0.2559  0.5013
 6749SOL    HW131883   1.649   2.308   4.761 -1.1382 -0.4424  0.6864
 6749SOL    HW231884   1.668   2.178   4.830  0.1914  0.4327 -1.0854
 6750SOL     OW31885   4.596   4.056   9.591 -0.2413 -0.4169  0.0161
 6750SOL    HW131886   4.518   4.094   9.632  0.3852  1.3329 -0.4227
 6750SOL    HW231887   4.573   4.081   9.502  0.1465  0.9717  0.2956
 6751SOL     OW31888   0.821   2.873   4.959  1.0589 -0.1350  0.2285
 6751SOL    HW131889   0.890   2.829   4.910 -0.3052 -0.5004 -1.3795
 6751SOL    HW231890   0.876   2.934   5.008  0.0781  1.9225 -1.2326
 6752SOL     OW31891   1.255   3.750  17.149  0.6396 -0.1727 -0.3972
 6752SOL    HW131892   1.326   3.704  17.105 -2.3574 -3.3908 -1.8497
 6752SOL    HW231893   1.202   3.761  17.070  1.5991 -0.4517 -1.0782
 6753SOL     OW31894   3.185   1.660  14.902 -0.0492 -0.3721  0.3058
 6753SOL    HW131895   3.190   1.627  14.813  1.6931  0.4617  0.0964
 6753SOL    HW231896   3.118   1.728  14.891  0.2126  0.1215  1.7498
 6754SOL     OW31897   2.077   0.054   8.100  0.4728 -0.1372  0.7516
 6754SOL    HW131898   2.081   4.727   8.165 -1.0853 -1.3520 -0.4489
 6754SOL    HW231899   2.144   0.032   8.035  2.0519 -0.2785  2.4350
 6755SOL     OW31900   2.866   1.419   2.202 -0.6034  0.0689 -0.0487
 6755SOL    HW131901   2.774   1.397   2.214 -0.1968 -2.5899 -1.6932
 6755SOL    HW231902   2.890   1.331   2.171  0.0113  0.7534 -1.5133
 6756SOL     OW31903   2.559   1.922  11.197 -0.0020 -0.4418  0.0993
 6756SOL    HW131904   2.584   2.000  11.148 -0.8634  0.1309  0.5872
 6756SOL    HW231905   2.467   1.939  11.215  0.1489  0.9625 -0.4667
 6757SOL     OW31906   1.467   4.282   8.757  0.8522 -0.6335 -0.5289
 6757SOL    HW131907   1.483   4.373   8.779 -0.8119  0.2948 -3.1982
 6757SOL    HW231908   1.559   4.255   8.756  0.1950 -2.9633  1.0301
 6758SOL     OW31909   3.751   1.637   7.962  0.2105 -0.0043 -0.1787
 6758SOL    HW131910   3.670   1.684   7.944 -0.4068 -1.8591 -2.1624
 6758SOL    HW231911   3.723   1.573   8.028  1.2793  0.3318  0.6116
 6759SOL     OW31912   2.679   2.087   6.481  0.0068 -0.4518 -0.0708
 6759SOL    HW131913   2.714   2.002   6.507  1.2821  0.2680  0.5174
 6759SOL    HW231914   2.711   2.146   6.549  1.1576 -2.2482  0.9388
 6760SOL     OW31915   1.649   0.510  16.838  0.1046 -0.3582  0.1692
 6760SOL    HW131916   1.593   0.483  16.910  0.0130 -2.6818 -0.7551
 6760SOL    HW231917   1.615   0.451  16.769  1.4580 -2.4401  1.2925
 6761SOL     OW31918   0.255   4.213   4.631 -0.1114 -0.1418  0.0839
 6761SOL    HW131919   0.224   4.265   4.557  2.1586 -1.2251 -1.6026
 6761SOL    HW231920   0.288   4.284   4.685 -0.1936 -2.1590  2.8176
 6762SOL     OW31921   1.511   2.531   3.230  0.4402  0.3784  0.3265
 6762SOL    HW131922   1.593   2.533   3.278  0.5904 -1.6653  0.1680
 6762SOL    HW231923   1.486   2.438   3.234  2.3737 -0.1135  1.2732
 6763SOL     OW31924   3.164   4.648   3.368 -0.0090  0.3806  0.5059
 6763SOL    HW131925   3.070   4.632   3.359 -0.2896  0.9839  2.3622
 6763SOL    HW231926   3.181   4.607   3.453  0.1642 -0.6808 -0.0444
 6764SOL     OW31927   0.478   4.320  17.727 -0.0230  0.1680  0.0900
 6764SOL    HW131928   0.567   4.324  17.692 -0.5933 -0.5546 -1.4120
 6764SOL    HW231929   0.491   4.391   0.023  0.7291 -1.2342  1.5260
 6765SOL     OW31930   0.002   0.677   9.445 -0.3608 -0.5330 -0.1482
 6765SOL    HW131931   4.715   0.620   9.516 -1.8878  2.2813  1.4546
 6765SOL    HW231932   4.728   0.619   9.370 -2.4854  0.7905 -0.7021
 6766SOL     OW31933   0.092   3.433  16.208 -0.7843  0.0225 -0.3391
 6766SOL    HW131934   0.011   3.384  16.189 -2.3177  2.4875 -0.1083
 6766SOL    HW231935   0.094   3.492  16.133  0.2284 -1.0984 -1.2004
 6767SOL     OW31936   1.540   1.054   2.729  0.4570  0.1589  0.1214
 6767SOL    HW131937   1.587   0.998   2.791  1.3661  0.9930  0.1736
 6767SOL    HW231938   1.605   1.068   2.660  0.9381 -0.8363  0.3802
 6768SOL     OW31939   0.968   3.467   6.832 -0.2742  0.2195 -0.5967
 6768SOL    HW131940   0.876   3.440   6.836 -0.7918  1.9736 -0.5571
 6768SOL    HW231941   1.008   3.388   6.795 -0.0709 -0.0551  0.1997
 6769SOL     OW31942   3.652   4.371   8.070 -0.3901 -0.2075 -0.3281
 6769SOL    HW131943   3.624   4.292   8.023 -0.7347 -0.4264  0.2458
 6769SOL    HW231944   3.733   4.353   8.118  0.0561  0.0014 -1.0086
 6770SOL     OW31945   0.540   4.409   9.536 -0.2708  0.3897  0.0103
 6770SOL    HW131946   0.484   4.414   9.614  1.7312 -0.4245  1.4992
 6770SOL    HW231947   0.619   4.457   9.558  1.2284 -1.6570 -0.9440
 6771SOL     OW31948   1.883   3.857   9.146  0.0181  0.1225 -0.2799
 6771SOL    HW131949   1.954   3.795   9.161  1.0149  1.4021  0.2368
 6771SOL    HW231950   1.895   3.887   9.056  3.4154  1.0514  0.4809
 6772SOL     OW31951   4.079   2.673  12.278 -0.7267  0.6035  0.2663
 6772SOL    HW131952   4.139   2.690  12.205 -0.5482 -1.6882 -0.1331
 6772SOL    HW231953   4.020   2.609  12.239  0.6455 -0.0796 -0.7067
 6773SOL     OW31954   0.751   1.257   7.530  0.1617  0.0411  0.3545
 6773SOL    HW131955   0.803   1.177   7.523 -0.0457  0.1389 -2.2596
 6773SOL    HW231956   0.830   1.309   7.522 -0.6985  1.1693 -0.8015
 6774SOL     OW31957   2.305   0.020  11.076  0.2329 -0.3223  0.4313
 6774SOL    HW131958   2.219   4.727  11.052 -0.6086 -0.1930  3.2287
 6774SOL    HW231959   2.350   4.739  10.995  0.6040 -0.0038  0.5444
 6775SOL     OW31960   1.659   4.440   2.979 -0.3667  0.4471  0.3249
 6775SOL    HW131961   1.637   4.491   3.057 -1.4685 -0.1552  0.4004
 6775SOL    HW231962   1.698   4.360   3.015  0.1959  0.6312  0.1171
 6776SOL     OW31963   3.005   1.867   3.556 -0.2339  0.1487 -0.5464
 6776SOL    HW131964   2.953   1.941   3.585 -1.1075 -0.9173  0.5677
 6776SOL    HW231965   3.078   1.863   3.618  1.3857  0.1701 -2.4335
 6777SOL     OW31966   2.583   4.457   5.935 -0.1491 -0.2215  0.3009
 6777SOL    HW131967   2.656   4.517   5.952 -1.7448  1.1269  2.2536
 6777SOL    HW231968   2.537   4.475   6.016  0.1450  0.5795  0.2842
 6778SOL     OW31969   2.849   1.452  17.056 -0.0444 -0.4235 -0.3004
 6778SOL    HW131970   2.775   1.419  17.108  1.1734 -1.0156  1.0594
 6778SOL    HW231971   2.815   1.431  16.969  0.3413  0.8164 -0.7409
 6779SOL     OW31972   1.970   1.970   9.535 -0.2741  1.1597  0.0854
 6779SOL    HW131973   1.949   2.059   9.506  1.0319  1.5548  0.3242
 6779SOL    HW231974   1.970   1.936   9.445  2.1789  0.9889  0.1540
 6780SOL     OW31975   0.353   0.300   4.629 -0.1060 -0.1748  0.0706
 6780SOL    HW131976   0.261   0.324   4.626 -0.8226 -3.0229 -0.7191
 6780SOL    HW231977   0.355   0.205   4.636  0.7099 -0.0546  1.5668
 6781SOL     OW31978   0.692   0.672   4.525  0.6954  0.2668  0.6078
 6781SOL    HW131979   0.665   0.734   4.593  1.0377  0.8712  0.1939
 6781SOL    HW231980   0.608   0.628   4.512  0.3349  1.2869 -0.6389
 6782SOL     OW31981   2.320   2.037   5.319  0.1666  0.1037 -0.6240
 6782SOL    HW131982   2.383   1.965   5.309  1.4080  1.4356 -2.2399
 6782SOL    HW231983   2.382   2.104   5.291  1.2017 -0.5750  0.0282
 6783SOL     OW31984   0.277   1.863   0.565 -0.6938 -0.4632  0.2629
 6783SOL    HW131985   0.306   1.938   0.513 -0.1943 -2.0385 -1.6989
 6783SOL    HW231986   0.182   1.877   0.561 -0.6615  0.2155  1.7512
 6784SOL     OW31987   3.238   3.365  10.237  0.1591 -0.4806 -0.0249
 6784SOL    HW131988   3.170   3.391  10.299 -0.2797  1.7696 -1.4697
 6784SOL    HW231989   3.216   3.275  10.211 -1.7327  0.3911 -1.3869
 6785SOL     OW31990   0.111   3.007   8.167 -0.0982  0.3047 -0.5012
 6785SOL    HW131991   0.029   3.021   8.215  0.6985 -0.0101  0.9723
 6785SOL    HW231992   0.130   2.916   8.187  1.6162  1.5394  3.6519
 6786SOL     OW31993   4.072   2.170   5.317 -0.3493 -0.5027  0.5355
 6786SOL    HW131994   4.009   2.098   5.312 -0.0455 -0.7760  0.6427
 6786SOL    HW231995   4.078   2.186   5.412 -0.7210 -0.7020  0.5968
 6787SOL     OW31996   1.046   3.074   8.512 -0.6703  0.3321  0.1412
 6787SOL    HW131997   0.968   3.026   8.540 -2.6051  1.6304 -3.0041
 6787SOL    HW231998   1.073   3.092   8.602 -1.1663 -0.0072  0.3562
 6788SOL     OW31999   3.289   1.962   4.219 -0.2714  0.2104  0.0067
 6788SOL    HW132000   3.298   1.935   4.311 -1.4903 -0.3660 -0.0478
 6788SOL    HW232001   3.359   1.905   4.188 -1.3799 -0.4126 -1.3627
 6789SOL     OW32002   2.944   2.033  17.338  0.3552 -0.3240 -0.5505
 6789SOL    HW132003   2.893   2.103  17.379  0.7074 -0.2015 -0.3204
 6789SOL    HW232004   2.962   1.981  17.417  1.6306  1.0738  0.0864
 6790SOL     OW32005   2.390   1.576   5.141 -0.7515 -0.0354 -0.3036
 6790SOL    HW132006   2.397   1.528   5.059  0.3086  0.4647 -0.4953
 6790SOL    HW232007   2.475   1.567   5.184  0.7306  1.3463 -3.0134
 6791SOL     OW32008   3.010   3.096   8.826  0.1483  0.3401 -0.0740
 6791SOL    HW132009   3.019   3.164   8.760 -1.8591  0.7436  0.0635
 6791SOL    HW232010   2.969   3.148   8.896 -0.2515  1.3689 -1.0837
 6792SOL     OW32011   0.291   1.656   5.339  0.3917 -0.2482 -0.2435
 6792SOL    HW132012   0.283   1.582   5.278  0.8249  1.1127 -1.9696
 6792SOL    HW232013   0.361   1.622   5.394  0.2865 -0.4211 -0.2160
 6793SOL     OW32014   3.153   2.192   5.489  0.1796  0.3444  0.4610
 6793SOL    HW132015   3.113   2.279   5.493  0.8617  0.7218 -0.9673
 6793SOL    HW232016   3.237   2.200   5.535  1.1268 -2.1122 -0.8711
 6794SOL     OW32017   0.065   3.401   9.720  0.0529 -0.5652 -0.2107
 6794SOL    HW132018   4.730   3.455   9.735  0.1710 -0.4178 -0.1302
 6794SOL    HW232019   0.133   3.469   9.718 -0.1965 -0.2966  0.4132
 6795SOL     OW32020   0.122   1.058   3.312  0.3530 -0.2781 -0.2416
 6795SOL    HW132021   0.063   1.130   3.335  0.5818 -0.2806  0.3767
 6795SOL    HW232022   0.104   1.000   3.386  0.7808 -0.9762 -0.6931
 6796SOL     OW32023   0.934   3.260   3.439  0.5497  0.0938  0.0446
 6796SOL    HW132024   0.896   3.246   3.352 -0.5149 -0.4854  0.6146
 6796SOL    HW232025   0.946   3.169   3.464  1.5809  0.4498  0.8490
 6797SOL     OW32026   0.986   1.925   6.223  0.2486  0.1673  0.1860
 6797SOL    HW132027   1.061   1.884   6.180  0.9347  2.7207 -1.0049
 6797SOL    HW232028   1.021   2.013   6.236 -1.7422  1.1695 -1.2554
 6798SOL     OW32029   2.000   1.048   8.025  0.8756 -0.3731  0.2583
 6798SOL    HW132030   2.039   0.963   8.046 -1.7942 -1.8474 -0.7675
 6798SOL    HW232031   2.054   1.068   7.948 -0.7829  0.2965 -0.7432
 6799SOL     OW32032   3.688   2.228   4.519  0.1926 -1.1166  0.6886
 6799SOL    HW132033   3.702   2.133   4.520 -0.2490 -1.1644  2.1541
 6799SOL    HW232034   3.656   2.235   4.609  0.6307  1.3523  0.6418
 6800SOL     OW32035   4.228   0.147   7.984 -0.2032 -0.5015 -0.0508
 6800SOL    HW132036   4.151   0.100   7.952  0.1721  0.5628 -2.5661
 6800SOL    HW232037   4.288   0.118   7.915 -0.6884  0.5773 -0.9200
 6801SOL     OW32038   0.032   0.763   9.098  0.0775 -0.2121  0.2568
 6801SOL    HW132039   0.109   0.718   9.131  0.5049  1.7521  1.9839
 6801SOL    HW232040   0.034   0.753   9.003 -0.9645 -0.5616  0.2638
 6802SOL     OW32041   0.924   3.700   0.902  0.3661  0.7953 -0.4896
 6802SOL    HW132042   0.834   3.715   0.875 -0.5410 -1.6313  1.2339
 6802SOL    HW232043   0.914   3.645   0.980  1.2702 -0.8646 -1.5357
 6803SOL     OW32044   3.583   4.109   7.948  0.7620  0.1306  0.3322
 6803SOL    HW132045   3.541   4.144   7.869 -1.1819 -4.2945 -0.6016
 6803SOL    HW232046   3.540   4.025   7.962 -0.7646  1.0124  0.9067
 6804SOL     OW32047   3.872   4.241   8.908  0.1178 -0.5773 -0.4918
 6804SOL    HW132048   3.855   4.297   8.983 -1.4620  0.1326 -1.3704
 6804SOL    HW232049   3.785   4.206   8.890  0.2562 -0.9405 -0.4547
 6805SOL     OW32050   4.613   2.525   6.572  0.1066 -0.1705  0.3360
 6805SOL    HW132051   4.695   2.574   6.569  0.4921 -0.9216 -1.3135
 6805SOL    HW232052   4.583   2.530   6.663 -0.9693 -0.2509 -0.0187
 6806SOL     OW32053   2.876   4.507  13.154 -0.1154  0.6868  0.2079
 6806SOL    HW132054   2.810   4.440  13.134  0.1856 -0.0397  1.6856
 6806SOL    HW232055   2.843   4.534  13.239  0.2066 -0.7000  0.7724
 6807SOL     OW32056   2.541   3.907   2.565 -0.3256  0.2712  0.1403
 6807SOL    HW132057   2.585   3.860   2.495  2.6187 -0.7944  2.7202
 6807SOL    HW232058   2.452   3.893   2.531 -1.1050 -0.2452  2.4102
 6808SOL     OW32059   1.481   4.224   4.699  0.0606  0.2807 -0.0433
 6808SOL    HW132060   1.551   4.203   4.637  0.9433 -1.7320  1.6193
 6808SOL    HW232061   1.527   4.187   4.775  1.9757 -0.0123 -1.3493
 6809SOL     OW32062   4.331   2.932   7.764  0.6758  0.2499 -0.1294
 6809SOL    HW132063   4.324   2.859   7.702 -1.2784  0.7454 -0.4903
 6809SOL    HW232064   4.361   2.998   7.701  0.4691  0.8249  0.3735
 6810SOL     OW32065   2.582   0.744   2.695  0.6915 -0.3040 -0.2723
 6810SOL    HW132066   2.540   0.814   2.744 -2.5638 -2.1257 -0.4831
 6810SOL    HW232067   2.652   0.785   2.645  0.5676  0.0191 -0.1778
 6811SOL     OW32068   0.982   2.005   0.626  0.0194  0.3945  0.4964
 6811SOL    HW132069   0.896   2.012   0.669 -0.1840  0.0463  0.1411
 6811SOL    HW232070   1.023   2.078   0.673  0.1571 -0.5568  1.8784
 6812SOL     OW32071   3.854   3.339  15.826 -0.2457  0.2875 -0.7217
 6812SOL    HW132072   3.820   3.351  15.737  1.6807  0.8900 -1.3854
 6812SOL    HW232073   3.854   3.428  15.863  1.5731 -0.2024  0.4486
 6813SOL     OW32074   1.058   0.717   3.486  0.2339  0.2988  0.0076
 6813SOL    HW132075   1.041   0.624   3.497 -0.5693  0.4221 -0.2283
 6813SOL    HW232076   1.047   0.747   3.576 -1.2957 -0.6454  0.1265
 6814SOL     OW32077   0.916   1.150   6.246 -0.2644  0.2867  0.5268
 6814SOL    HW132078   0.970   1.187   6.316 -0.6594  3.7876 -0.9826
 6814SOL    HW232079   0.979   1.095   6.200 -1.8221 -0.0062 -1.2309
 6815SOL     OW32080   1.066   3.858   4.053  0.0158  0.3530 -0.1797
 6815SOL    HW132081   1.014   3.916   4.109 -2.2885 -1.5337 -0.3911
 6815SOL    HW232082   1.130   3.918   4.014  0.0398  0.5645  0.1765
 6816SOL     OW32083   3.047   1.942   4.096 -0.2078 -0.2433  0.3299
 6816SOL    HW132084   3.122   1.972   4.147  1.1359 -3.9788  0.5860
 6816SOL    HW232085   3.051   1.996   4.017 -2.4624  0.9449  1.0348
 6817SOL     OW32086   1.474   2.662   5.930  0.1606 -0.0072  0.2529
 6817SOL    HW132087   1.507   2.591   5.874  0.8771 -1.1495  2.1027
 6817SOL    HW232088   1.551   2.685   5.983 -0.3718 -1.1820  1.5402
 6818SOL     OW32089   4.078   4.527  16.843  0.1644 -0.1245  0.0758
 6818SOL    HW132090   4.036   4.577  16.913  0.4514 -0.8205  0.7429
 6818SOL    HW232091   4.167   4.524  16.879  0.9417 -0.3839 -1.8918
 6819SOL     OW32092   0.135   0.524   3.633  0.0656 -0.1147  0.4155
 6819SOL    HW132093   0.133   0.442   3.584  0.4637 -0.2073  0.5499
 6819SOL    HW232094   0.159   0.580   3.560 -0.8613 -0.5792 -0.2368
 6820SOL     OW32095   4.684   1.188   0.518 -0.1343 -0.0953  0.2411
 6820SOL    HW132096   4.710   1.117   0.460  3.2301  1.3005  0.0613
 6820SOL    HW232097   0.023   1.191   0.567 -0.1712  0.4012  0.2697
 6821SOL     OW32098   0.205   1.556   1.307  0.5385 -0.1358  0.5706
 6821SOL    HW132099   0.249   1.485   1.354 -0.1730 -0.3423  0.9264
 6821SOL    HW232100   0.155   1.508   1.242  0.6338 -0.8360  1.0175
 6822SOL     OW32101   4.638   2.669  13.756 -0.1951  0.2493  0.2872
 6822SOL    HW132102   4.612   2.734  13.822  0.7485  0.1219  0.7797
 6822SOL    HW232103   4.556   2.620  13.759 -0.8064  1.4192  3.3602
 6823SOL     OW32104   3.951   0.765   3.262 -0.8967 -0.8818 -0.1361
 6823SOL    HW132105   4.004   0.774   3.341  0.8090  1.7459 -1.6058
 6823SOL    HW232106   3.883   0.712   3.304 -0.9024 -0.4103  0.4427
 6824SOL     OW32107   0.819   3.754   4.514 -0.0704  0.2951  0.1557
 6824SOL    HW132108   0.751   3.798   4.566 -0.5766 -0.0800 -0.1953
 6824SOL    HW232109   0.895   3.782   4.566  0.4321  2.1565 -1.5898
 6825SOL     OW32110   4.033   4.119   9.138  0.8315 -0.4304 -1.3141
 6825SOL    HW132111   3.992   4.181   9.198 -0.0440 -0.6992 -1.6294
 6825SOL    HW232112   3.982   4.142   9.061 -0.4050  1.3878  0.0703
 6826SOL     OW32113   1.224   0.589   6.398 -0.3817 -0.2788  0.2558
 6826SOL    HW132114   1.289   0.656   6.375  0.6964 -1.7950 -1.0775
 6826SOL    HW232115   1.210   0.594   6.493 -0.1814 -2.1901  0.3809
 6827SOL     OW32116   1.889   1.900   4.858  1.1008  0.4194 -0.1161
 6827SOL    HW132117   1.926   1.816   4.882 -0.6998 -0.0197  1.1361
 6827SOL    HW232118   1.817   1.865   4.805  1.6322 -2.4243  1.0655
 6828SOL     OW32119   2.813   1.050  17.170 -0.4056  0.2465  0.6217
 6828SOL    HW132120   2.832   1.068  17.078 -1.1242 -1.6011  0.1028
 6828SOL    HW232121   2.740   1.112  17.179 -0.7809  0.1630 -1.7613
 6829SOL     OW32122   1.892   2.612  12.808  0.5962 -0.9291 -1.0538
 6829SOL    HW132123   1.912   2.544  12.743 -1.0352 -2.4781  0.0371
 6829SOL    HW232124   1.921   2.566  12.887  0.2043 -0.5043 -0.6629
 6830SOL     OW32125   3.808   2.888   6.031 -0.4082 -0.8094 -0.0746
 6830SOL    HW132126   3.723   2.929   6.017 -0.2403 -0.5771 -0.4286
 6830SOL    HW232127   3.849   2.877   5.945  2.6230 -0.5581  1.3195
 6831SOL     OW32128   1.439   2.121   3.463 -0.1961  0.6836 -0.6872
 6831SOL    HW132129   1.375   2.189   3.484  0.0853  0.9117 -0.5697
 6831SOL    HW232130   1.386   2.041   3.465  2.6395 -1.0830  2.9740
 6832SOL     OW32131   4.158   1.704   0.952  0.1492  0.3560  0.0451
 6832SOL    HW132132   4.072   1.737   0.929  0.1729 -0.7548 -1.6869
 6832SOL    HW232133   4.201   1.690   0.868 -0.6095  1.6265 -0.5443
 6833SOL     OW32134   1.133   2.567   4.252  0.3426  0.8259  0.3146
 6833SOL    HW132135   1.051   2.556   4.300 -0.1308 -0.2873 -0.7383
 6833SOL    HW232136   1.105   2.627   4.183  2.5335  0.2462 -1.0737
 6834SOL     OW32137   4.085   1.846  16.242 -0.5020 -0.5489  0.3416
 6834SOL    HW132138   4.101   1.821  16.151 -0.1123  1.5024 -0.1591
 6834SOL    HW232139   4.066   1.758  16.273 -0.0010  0.3186  3.1563
 6835SOL     OW32140   2.895   0.715   9.146  0.0723  0.0225 -0.3467
 6835SOL    HW132141   2.838   0.780   9.105 -0.6609 -0.4407 -0.0783
 6835SOL    HW232142   2.854   0.636   9.110 -1.3561  0.2378  0.8164
 6836SOL     OW32143   2.459   3.386   3.041  0.0364  0.5953  0.3861
 6836SOL    HW132144   2.415   3.436   3.111 -1.1845 -1.2869  0.9543
 6836SOL    HW232145   2.406   3.307   3.043 -0.7675  1.0718 -2.0296
 6837SOL     OW32146   2.944   1.568   4.676  0.2577  0.3897 -0.2319
 6837SOL    HW132147   2.995   1.648   4.663 -0.4710  1.1488  1.5790
 6837SOL    HW232148   2.898   1.561   4.592 -0.0401 -0.0577 -0.0321
 6838SOL     OW32149   1.006   3.598   2.945  0.7592 -0.1966 -0.0009
 6838SOL    HW132150   0.954   3.593   2.865 -0.8379  0.5404  0.9865
 6838SOL    HW232151   0.942   3.606   3.015 -0.3801  1.0098 -1.1830
 6839SOL     OW32152   2.184   2.176   2.545 -0.4167 -0.1246  0.2464
 6839SOL    HW132153   2.252   2.169   2.479 -0.1745 -0.8193  0.5594
 6839SOL    HW232154   2.230   2.210   2.622 -1.0461 -0.7937  0.9218
 6840SOL     OW32155   3.596   0.018   6.463  0.3378  0.1389 -0.4081
 6840SOL    HW132156   3.515   4.729   6.422 -0.1512 -0.5335  1.0707
 6840SOL    HW232157   3.603   4.702   6.539 -0.3642  0.0734 -0.3916
 6841SOL     OW32158   4.549   0.425  13.591 -0.4325  0.3652  0.2152
 6841SOL    HW132159   4.556   0.498  13.529  0.9672  0.2734  0.2702
 6841SOL    HW232160   4.640   0.406  13.613  0.1159  2.1106 -0.4938
 6842SOL     OW32161   4.450   4.261  10.234  0.0908 -0.0266 -0.2456
 6842SOL    HW132162   4.357   4.251  10.213 -0.6510  2.4878  1.7948
 6842SOL    HW232163   4.439   4.251  10.329 -3.3377 -0.7340 -0.7448
 6843SOL     OW32164   0.764   3.636  13.000 -0.4673  0.7204  0.2060
 6843SOL    HW132165   0.775   3.580  13.077  2.8716 -0.4145 -1.1339
 6843SOL    HW232166   0.681   3.606  12.963 -1.0865  0.1721  2.0447
 6844SOL     OW32167   1.355   2.511   7.364 -0.0778 -0.3086  0.6350
 6844SOL    HW132168   1.314   2.426   7.381 -0.0264 -0.8943 -2.2326
 6844SOL    HW232169   1.440   2.484   7.331 -0.3442  1.0212 -1.1192
 6845SOL     OW32170   3.302   3.173   6.415 -0.5079  0.5328  0.1240
 6845SOL    HW132171   3.311   3.226   6.336  0.8314  0.0118 -0.0728
 6845SOL    HW232172   3.260   3.237   6.472  0.9276  0.6597  1.0241
 6846SOL     OW32173   2.152   0.356   4.318 -0.5296 -0.0393  0.4376
 6846SOL    HW132174   2.193   0.337   4.234  1.8066  0.9916  1.3290
 6846SOL    HW232175   2.213   0.418   4.358  0.6008 -0.2050 -1.0235
 6847SOL     OW32176   2.197   2.217   4.736 -0.2618 -0.5707 -0.0350
 6847SOL    HW132177   2.128   2.232   4.800  0.0194 -2.4185  0.7136
 6847SOL    HW232178   2.261   2.156   4.772  2.9992  2.7745 -0.1593
 6848SOL     OW32179   4.159   0.379   4.294  0.1397 -0.2935  0.1424
 6848SOL    HW132180   4.142   0.436   4.219  0.2428  0.4422  0.6765
 6848SOL    HW232181   4.136   0.444   4.360  0.3752 -1.4077  1.3171
 6849SOL     OW32182   1.128   2.147  14.324 -0.1847  0.4216  0.5378
 6849SOL    HW132183   1.067   2.073  14.335 -0.8925  1.2438  2.0865
 6849SOL    HW232184   1.071   2.215  14.288 -0.3153 -1.3038 -2.5814
 6850SOL     OW32185   0.107   3.757  17.545 -0.2320  0.3189 -0.5883
 6850SOL    HW132186   0.180   3.810  17.577 -0.0162 -0.9824  1.0804
 6850SOL    HW232187   0.117   3.759  17.450  0.9958  1.5548 -0.4222
 6851SOL     OW32188   3.476   0.518   6.455  0.5017  0.2302 -0.0524
 6851SOL    HW132189   3.416   0.453   6.417  1.7059 -0.6670 -0.4216
 6851SOL    HW232190   3.554   0.464   6.468  0.1474  0.0479  1.2825
 6852SOL     OW32191   3.014   0.784  14.841 -0.0431 -0.5609  0.3546
 6852SOL    HW132192   3.000   0.809  14.749  0.5117  2.5372  1.1190
 6852SOL    HW232193   3.049   0.695  14.835 -0.0744 -0.5231 -0.4544
 6853SOL     OW32194   3.705   4.677   5.777 -0.0164 -0.3102  0.1035
 6853SOL    HW132195   3.620   4.721   5.774 -0.0801 -0.6719 -3.0781
 6853SOL    HW232196   3.695   4.589   5.740 -0.7503  0.0291 -0.4994
 6854SOL     OW32197   3.697   1.936   4.504  0.4047 -0.2829  0.2368
 6854SOL    HW132198   3.750   1.939   4.584 -1.8625  1.9233  1.6536
 6854SOL    HW232199   3.619   1.895   4.541 -0.1605  1.0578  0.5320
 6855SOL     OW32200   0.029   4.422  14.871  0.0541  0.4328 -0.0591
 6855SOL    HW132201   0.011   4.499  14.817 -1.4169  0.6320  0.7157
 6855SOL    HW232202   4.686   4.406  14.911 -1.0212  2.5239 -1.5187
 6856SOL     OW32203   0.675   3.790   8.909 -0.5525 -0.2353  0.2886
 6856SOL    HW132204   0.663   3.748   8.824 -1.4746  0.1452  0.2234
 6856SOL    HW232205   0.607   3.857   8.914  0.7785  0.8590  3.0818
 6857SOL     OW32206   0.150   2.863   3.470  0.0867 -0.0953  0.0352
 6857SOL    HW132207   0.080   2.809   3.432  0.7594 -0.5042 -0.6239
 6857SOL    HW232208   0.197   2.793   3.516  0.3008  0.3388  0.4698
 6858SOL     OW32209   2.743   4.487  11.362 -0.0106  0.0322 -0.1879
 6858SOL    HW132210   2.720   4.413  11.418 -2.9739  1.0899  0.0135
 6858SOL    HW232211   2.838   4.474  11.364 -0.2732 -1.1862  4.9199
 6859SOL     OW32212   2.607   2.974   4.166 -0.2002 -0.0431 -0.0007
 6859SOL    HW132213   2.575   2.887   4.144 -2.9706  0.9108  0.2714
 6859SOL    HW232214   2.560   3.001   4.245 -0.8496 -0.4639 -0.2507
 6860SOL     OW32215   0.830   0.095   6.328 -0.2229  0.0261  0.8837
 6860SOL    HW132216   0.868   0.147   6.257  1.5172 -1.7337  0.5458
 6860SOL    HW232217   0.873   0.013   6.308 -0.3356  0.1508  0.1460
 6861SOL     OW32218   1.827   0.642   5.284  0.2497  0.2533 -0.3164
 6861SOL    HW132219   1.839   0.732   5.316  0.3159  0.3700 -0.6731
 6861SOL    HW232220   1.880   0.650   5.205 -0.9397  0.5437 -1.0704
 6862SOL     OW32221   1.214   0.774  17.693 -0.0857 -1.0132  0.3418
 6862SOL    HW132222   1.182   0.686  17.677 -2.8130  0.3676 -1.7830
 6862SOL    HW232223   1.136   0.829  17.698 -0.2124 -1.2199  0.6368
 6863SOL     OW32224   4.195   3.266   8.725  0.1676  0.6395  0.5891
 6863SOL    HW132225   4.250   3.212   8.781  1.5669  2.3553  0.8748
 6863SOL    HW232226   4.211   3.358   8.750 -0.0754  1.0102 -0.6128
 6864SOL     OW32227   4.366   0.179   6.097  0.1636  0.3446 -0.4227
 6864SOL    HW132228   4.438   0.173   6.159 -0.7905  1.1675  0.7643
 6864SOL    HW232229   4.296   0.170   6.162  1.2034 -2.9012  0.2665
 6865SOL     OW32230   2.888   0.578  13.378  0.4931  0.0237 -0.4137
 6865SOL    HW132231   2.887   0.673  13.366  0.1513 -0.1129 -1.4880
 6865SOL    HW232232   2.947   0.546  13.310  1.2474 -0.8563  0.6697
 6866SOL     OW32233   1.521   0.388   2.127 -0.0069  0.3227  0.0936
 6866SOL    HW132234   1.510   0.302   2.167 -1.3190  0.6618  0.4698
 6866SOL    HW232235   1.575   0.428   2.195  0.0452  0.3565  0.0322
 6867SOL     OW32236   3.102   0.958  11.165 -0.1488 -0.3056  0.3599
 6867SOL    HW132237   3.039   0.930  11.098 -0.5218  2.1506 -0.3193
 6867SOL    HW232238   3.043   0.977  11.238 -0.6045 -0.2380 -0.0263
 6868SOL     OW32239   0.488   3.994   8.910 -0.0440  0.0566 -0.3588
 6868SOL    HW132240   0.408   4.039   8.937  0.6487  0.4480  1.0685
 6868SOL    HW232241   0.550   4.067   8.917 -0.0023 -0.3362  3.0483
 6869SOL     OW32242   0.990   1.936   5.088  0.4704  0.0439 -0.1318
 6869SOL    HW132243   0.972   1.844   5.107 -0.9454  0.0966 -1.1620
 6869SOL    HW232244   1.084   1.941   5.102  0.6691 -0.6816 -1.1840
 6870SOL     OW32245   4.151   3.770   2.524 -0.0729  0.2987  0.2489
 6870SOL    HW132246   4.169   3.803   2.612  0.4966  0.3772  0.1076
 6870SOL    HW232247   4.059   3.783   2.543 -0.2075 -1.4410  0.8491
 6871SOL     OW32248   0.139   4.340   6.031  0.3484  0.0749 -1.2020
 6871SOL    HW132249   0.169   4.270   6.090 -0.3596 -1.0982 -2.2296
 6871SOL    HW232250   0.163   4.416   6.084 -1.0661 -0.0503 -0.3961
 6872SOL     OW32251   0.254   3.119   5.307 -0.0226  0.2463 -0.2600
 6872SOL    HW132252   0.303   3.036   5.303 -0.0511  0.2381 -0.4200
 6872SOL    HW232253   0.316   3.190   5.292  0.8572 -0.0038  2.0707
 6873SOL     OW32254   0.742   0.400  11.251 -0.0649 -0.0181 -0.0406
 6873SOL    HW132255   0.762   0.438  11.336  2.3443  2.9561 -1.9036
 6873SOL    HW232256   0.746   0.473  11.188 -1.8514 -0.0035 -0.1310
 6874SOL     OW32257   2.473   3.458  15.210 -0.3127  0.3388  0.5725
 6874SOL    HW132258   2.384   3.446  15.178  0.4353 -0.2122 -1.3214
 6874SOL    HW232259   2.462   3.534  15.267 -2.4753 -0.4152  1.1472
 6875SOL     OW32260   2.241   3.887   0.710  0.4367 -0.2897  0.1753
 6875SOL    HW132261   2.152   3.878   0.675  0.2833  1.3006  0.1647
 6875SOL    HW232262   2.262   3.801   0.747  1.5095  0.6463  1.7565
 6876SOL     OW32263   3.956   3.368   4.627  0.4228 -0.3056 -0.0066
 6876SOL    HW132264   3.917   3.410   4.704  1.3482  0.7636 -0.1109
 6876SOL    HW232265   3.963   3.437   4.561  2.4682 -1.0309 -0.5515
 6877SOL     OW32266   0.262   1.601   0.771 -0.1201 -0.2780 -0.1268
 6877SOL    HW132267   0.175   1.616   0.808 -0.7693  0.1424 -1.8121
 6877SOL    HW232268   0.314   1.608   0.851  0.5195 -0.2675 -0.5421
 6878SOL     OW32269   2.621   2.130   4.824  0.1596 -0.7865 -0.5420
 6878SOL    HW132270   2.605   2.036   4.815  0.6924 -0.8985 -0.3203
 6878SOL    HW232271   2.559   2.159   4.891  0.3876  1.2158 -1.1811
 6879SOL     OW32272   1.125   3.101   1.915  0.6097 -0.0211  0.2041
 6879SOL    HW132273   1.100   3.186   1.878  0.6552  0.9733  2.4359
 6879SOL    HW232274   1.210   3.089   1.874  2.0000 -0.5499  3.2738
 6880SOL     OW32275   1.086   4.544   6.040 -0.1376  0.0223  0.2714
 6880SOL    HW132276   1.043   4.495   5.970  0.6394 -0.2710 -0.0075
 6880SOL    HW232277   1.164   4.577   5.996 -0.1172  0.3364  0.5409
 6881SOL     OW32278   0.043   3.727   9.996  0.3214  0.1130 -0.0448
 6881SOL    HW132279   0.076   3.793   9.935 -0.5797 -0.3060 -1.0039
 6881SOL    HW232280   0.129   3.695  10.023 -0.5541 -0.2650  2.2499
 6882SOL     OW32281   0.956   0.153   4.317  0.1195 -0.0226 -0.3302
 6882SOL    HW132282   0.945   0.060   4.295 -0.4225  0.3639 -1.6774
 6882SOL    HW232283   0.940   0.202   4.237 -0.8324  1.7851  0.9532
 6883SOL     OW32284   4.588   3.969   8.306  0.0829 -0.0993 -0.2235
 6883SOL    HW132285   4.642   4.044   8.331 -1.7992  1.4588 -0.8618
 6883SOL    HW232286   4.631   3.905   8.364 -0.7196  2.0188  2.7455
 6884SOL     OW32287   1.311   0.997   5.176  0.0359  0.0357 -0.2465
 6884SOL    HW132288   1.268   0.945   5.245 -1.0474  0.2634 -0.7480
 6884SOL    HW232289   1.393   0.948   5.179 -0.8561 -1.5542 -1.6261
 6885SOL     OW32290   4.183   4.072   9.820  0.1906 -0.1387  0.2896
 6885SOL    HW132291   4.271   4.104   9.805  0.7069 -2.6094 -1.8669
 6885SOL    HW232292   4.148   4.141   9.876  0.1828  0.4484 -0.4349
 6886SOL     OW32293   1.121   1.112   5.518 -0.5430  0.1513 -0.3333
 6886SOL    HW132294   1.035   1.122   5.475  0.3942 -1.3942 -2.5722
 6886SOL    HW232295   1.085   1.130   5.605  2.3903 -0.9279  1.0759
 6887SOL     OW32296   0.957   2.232   7.023 -0.2376  0.0736  0.7954
 6887SOL    HW132297   0.863   2.219   7.033 -0.0191 -2.1778 -0.1849
 6887SOL    HW232298   0.982   2.206   6.935  0.8977  2.1737  0.5106
 6888SOL     OW32299   0.444   3.783   3.826  0.9039  0.1813 -0.4657
 6888SOL    HW132300   0.452   3.758   3.918  1.4437 -1.2840 -0.9170
 6888SOL    HW232301   0.534   3.801   3.799  1.6245 -0.3628  1.6444
 6889SOL     OW32302   0.500   4.538  11.486  0.3506  0.3940 -0.2844
 6889SOL    HW132303   0.469   4.578  11.404 -0.7350  1.1339  0.4897
 6889SOL    HW232304   0.447   4.583  11.551  0.4015 -0.3451  0.2684
 6890SOL     OW32305   1.899   0.901   6.449  0.0376 -0.2384 -0.0288
 6890SOL    HW132306   1.813   0.943   6.448  0.9197  1.5268 -0.6447
 6890SOL    HW232307   1.908   0.867   6.360 -2.0434  1.8060 -1.0167
 6891SOL     OW32308   2.611   1.038   3.076 -0.7639  0.3602  0.2114
 6891SOL    HW132309   2.540   1.067   3.133 -0.4602  3.2314 -0.8337
 6891SOL    HW232310   2.675   1.108   3.092  1.4954 -1.9261  1.1671
 6892SOL     OW32311   3.897   3.454   9.885  0.4493 -0.0313 -0.0936
 6892SOL    HW132312   3.834   3.455   9.956 -0.0131  0.8309 -0.5263
 6892SOL    HW232313   3.892   3.547   9.865 -1.1114 -0.5045 -1.9563
 6893SOL     OW32314   3.626   2.007   4.250  0.6393  0.0786  0.0339
 6893SOL    HW132315   3.615   2.102   4.261 -2.1443 -0.4144  1.4668
 6893SOL    HW232316   3.651   1.981   4.338  0.7700  0.2221  0.0396
 6894SOL     OW32317   3.413   3.473   2.393  0.2927 -0.0559 -0.2621
 6894SOL    HW132318   3.356   3.493   2.319 -2.5074 -2.1055  1.3765
 6894SOL    HW232319   3.371   3.526   2.460 -0.1092  1.1061 -1.4265
 6895SOL     OW32320   2.770   3.922  15.992 -0.8011 -0.0166 -0.3673
 6895SOL    HW132321   2.754   3.828  15.997  0.7431 -0.3447 -1.6182
 6895SOL    HW232322   2.807   3.931  16.080 -2.2488 -0.8805  0.3261
 6896SOL     OW32323   0.721   1.459  16.149 -0.1334 -0.0499  0.1508
 6896SOL    HW132324   0.642   1.414  16.179 -0.7643  0.4510 -0.7659
 6896SOL    HW232325   0.687   1.517  16.081  0.6102 -1.2842 -1.2525
 6897SOL     OW32326   0.466   0.592  17.296  0.7706  0.1372 -0.1580
 6897SOL    HW132327   0.441   0.684  17.301 -1.9146 -0.6323  0.4430
 6897SOL    HW232328   0.382   0.551  17.318  1.8649 -0.2405  3.3746
 6898SOL     OW32329   0.976   0.782  16.896  0.1055 -0.2154  0.0230
 6898SOL    HW132330   1.067   0.765  16.876  0.1494  0.1291 -0.0710
 6898SOL    HW232331   0.924   0.704  16.878  0.8781 -0.7214 -0.0014
 6899SOL     OW32332   2.407   1.671   2.823  0.6597 -0.3809  0.0798
 6899SOL    HW132333   2.367   1.658   2.909 -0.1593 -0.4984 -0.3169
 6899SOL    HW232334   2.427   1.765   2.825  1.2943 -0.5695  3.1555
 6900SOL     OW32335   0.322   0.325   5.870 -0.3401 -0.1348  0.0221
 6900SOL    HW132336   0.271   0.244   5.872 -1.9261  0.8449 -0.5613
 6900SOL    HW232337   0.394   0.308   5.931 -1.3055  1.3483  1.5859
 6901SOL     OW32338   1.925   2.160   0.560 -0.3519  0.0057  0.1204
 6901SOL    HW132339   1.837   2.194   0.549 -0.6564 -1.1849 -1.1836
 6901SOL    HW232340   1.972   2.222   0.504  1.7572  1.9343  4.0197
 6902SOL     OW32341   2.879   3.619   1.514 -0.1314  0.1329 -0.3308
 6902SOL    HW132342   2.804   3.586   1.563  0.8219 -0.2656  0.8578
 6902SOL    HW232343   2.852   3.610   1.422  0.4044  0.9316 -0.5666
 6903SOL     OW32344   0.727   2.231   1.545 -0.4199 -0.5310  0.0066
 6903SOL    HW132345   0.706   2.238   1.638 -2.3215  0.8703 -0.5371
 6903SOL    HW232346   0.716   2.136   1.531  0.0695 -0.4517 -0.9708
 6904SOL     OW32347   0.784   0.484   4.112  0.3745 -0.2679 -0.2883
 6904SOL    HW132348   0.720   0.498   4.043  0.2904 -2.9446 -0.7428
 6904SOL    HW232349   0.818   0.574   4.118 -0.6783  0.0589  0.6742
 6905SOL     OW32350   4.142   0.707   4.824 -0.0226  0.2445 -0.3889
 6905SOL    HW132351   4.132   0.802   4.819 -1.6488  0.0079 -1.5724
 6905SOL    HW232352   4.076   0.689   4.891 -0.7033 -2.1607 -1.6997
 6906SOL     OW32353   2.302   4.458   3.239  0.3886 -0.2613 -0.0488
 6906SOL    HW132354   2.385   4.441   3.194  1.6984  3.1950  1.0870
 6906SOL    HW232355   2.289   4.549   3.212 -0.4898 -0.0900  0.9570
 6907SOL     OW32356   2.750   2.575   7.309  0.3501  0.2173 -0.5504
 6907SOL    HW132357   2.773   2.590   7.401 -0.2896 -4.4779  0.3253
 6907SOL    HW232358   2.827   2.528   7.277  0.7697  0.6512 -0.1837
 6908SOL     OW32359   0.383   3.124  13.247  0.2715 -0.5014 -0.0042
 6908SOL    HW132360   0.461   3.158  13.203 -1.0365  0.8084 -1.3635
 6908SOL    HW232361   0.317   3.131  13.177 -0.7210 -0.3394  0.9420
 6909SOL     OW32362   1.541   2.100   4.279  0.4088 -0.0574  0.3170
 6909SOL    HW132363   1.600   2.063   4.213 -2.6539 -2.7583 -0.8791
 6909SOL    HW232364   1.602   2.156   4.327  0.8404 -1.9014  1.9035
 6910SOL     OW32365   0.015   2.521   8.316 -0.7697  0.9223  0.1931
 6910SOL    HW132366   0.098   2.476   8.301 -0.7190  0.4602  1.9424
 6910SOL    HW232367   0.038   2.607   8.280 -0.1811  0.4878 -0.4554
 6911SOL     OW32368   0.956   0.461   3.532  0.1393 -0.1301 -0.3400
 6911SOL    HW132369   0.985   0.381   3.488 -0.2696  0.6991 -2.1309
 6911SOL    HW232370   0.865   0.458   3.500  0.1292 -2.8090  0.0001
 6912SOL     OW32371   1.713   0.587   2.672 -0.4118  0.1039 -0.4517
 6912SOL    HW132372   1.671   0.669   2.701  0.8379  0.6241 -0.1009
 6912SOL    HW232373   1.805   0.603   2.691 -0.4491 -1.5405  1.0582
 6913SOL     OW32374   3.721   0.465  12.591  0.0589 -0.5492  0.0198
 6913SOL    HW132375   3.796   0.506  12.634 -0.5199 -2.2510  2.6879
 6913SOL    HW232376   3.771   0.384  12.584  1.7913  0.4352  1.0184
 6914SOL     OW32377   4.624   3.296   9.366 -0.3608 -0.4306 -0.3940
 6914SOL    HW132378   4.713   3.315   9.395 -0.9922  1.5762  0.2346
 6914SOL    HW232379   4.583   3.358   9.427  2.2846 -0.4521  1.4362
 6915SOL     OW32380   3.811   3.293   3.851 -0.0709 -0.1887  0.3420
 6915SOL    HW132381   3.894   3.334   3.825 -0.6056  1.9138  1.9904
 6915SOL    HW232382   3.764   3.294   3.768 -1.2148 -2.5738  0.9699
 6916SOL     OW32383   1.954   3.974   1.005  1.0756 -0.6546 -0.0863
 6916SOL    HW132384   1.913   4.058   0.983 -0.7977 -1.7221 -0.6672
 6916SOL    HW232385   1.906   3.903   0.962 -2.0504  1.0340  0.5860
 6917SOL     OW32386   0.070   4.431   2.503 -0.0566  0.3267 -0.2736
 6917SOL    HW132387   0.157   4.417   2.542 -0.4770  0.7111  0.8083
 6917SOL    HW232388   0.102   4.493   2.438  0.3534 -1.9838 -2.2749
 6918SOL     OW32389   4.305   1.711   4.683 -0.4261  0.2473  0.0945
 6918SOL    HW132390   4.363   1.787   4.678 -1.6206  1.1539 -0.2661
 6918SOL    HW232391   4.344   1.665   4.757  2.0086  0.3739 -1.1438
 6919SOL     OW32392   0.835   2.555   2.192  0.3080 -0.8493  0.3605
 6919SOL    HW132393   0.762   2.561   2.131  0.0091 -1.3872  0.6650
 6919SOL    HW232394   0.881   2.477   2.161  2.3116  0.7249 -0.6173
 6920SOL     OW32395   4.024   0.046   4.715 -0.1570 -0.0054 -0.2974
 6920SOL    HW132396   4.034   4.708   4.663 -0.6507 -0.6620  0.6330
 6920SOL    HW232397   4.111   0.041   4.755 -0.6980  2.0216  1.1226
 6921SOL     OW32398   1.556   3.612  15.310  0.2619  0.2908 -0.3495
 6921SOL    HW132399   1.642   3.584  15.276  0.5812 -1.4790  1.9622
 6921SOL    HW232400   1.570   3.601  15.404  0.0459  0.9576 -0.2383
 6922SOL     OW32401   3.395   3.452   8.872  0.1256  0.0121 -0.4722
 6922SOL    HW132402   3.307   3.446   8.911  0.5431 -1.0922  0.2913
 6922SOL    HW232403   3.409   3.369   8.827 -0.7918 -1.0089  1.1376
 6923SOL     OW32404   2.958   4.680   3.922 -0.4568 -0.1259 -0.4199
 6923SOL    HW132405   2.964   4.585   3.931  2.8340  0.0585 -0.6429
 6923SOL    HW232406   3.009   4.725   3.990 -1.7294 -0.5896  0.8504
 6924SOL     OW32407   0.883   3.859   8.348 -0.0972  0.0747  0.4213
 6924SOL    HW132408   0.944   3.933   8.354  1.2256 -1.1916  2.5016
 6924SOL    HW232409   0.798   3.901   8.337  0.6019  1.2537 -0.4635
 6925SOL     OW32410   3.196   1.706  12.488  0.4147 -0.0506 -0.3593
 6925SOL    HW132411   3.203   1.620  12.447 -0.3953 -0.0311 -0.5338
 6925SOL    HW232412   3.253   1.692  12.564  1.3932  1.3458 -0.8234
 6926SOL     OW32413   4.219   1.456   2.001 -0.2192 -0.0492  0.2284
 6926SOL    HW132414   4.219   1.543   1.960 -1.1096 -1.5384 -2.9200
 6926SOL    HW232415   4.125   1.453   2.020 -0.7040  1.4261 -1.9014
 6927SOL     OW32416   0.369   3.896   4.121 -0.2973  0.1792 -0.7122
 6927SOL    HW132417   0.430   3.826   4.097  1.2644  0.7692  1.5533
 6927SOL    HW232418   0.305   3.833   4.156  1.7071 -1.9758 -0.8896
 6928SOL     OW32419   3.451   1.662   4.420 -0.4266  0.2005 -1.1575
 6928SOL    HW132420   3.458   1.715   4.499 -0.6786 -1.0573 -0.2859
 6928SOL    HW232421   3.407   1.586   4.458  1.6421 -1.0566 -1.2837
 6929SOL     OW32422   1.295   2.176   6.714  0.2053  0.4555  0.2537
 6929SOL    HW132423   1.349   2.175   6.793  2.6105 -0.3965 -1.3923
 6929SOL    HW232424   1.359   2.165   6.644 -0.4059 -2.2389  0.1285
 6930SOL     OW32425   2.267   1.021  15.621  0.7171  0.5673 -0.6313
 6930SOL    HW132426   2.322   1.097  15.604  1.9415 -0.0846  0.3847
 6930SOL    HW232427   2.305   0.986  15.703 -2.4278 -0.3388  0.4336
 6931SOL     OW32428   0.858   2.969   7.693 -0.5484  0.0278 -0.1507
 6931SOL    HW132429   0.849   2.928   7.778 -2.1524 -0.8889 -0.7643
 6931SOL    HW232430   0.931   2.923   7.652 -1.3346 -1.5696  0.2656
 6932SOL     OW32431   3.978   4.010   8.516 -0.0847  0.0335  0.7486
 6932SOL    HW132432   4.023   4.039   8.596 -1.9621  0.7426  1.5509
 6932SOL    HW232433   3.888   4.034   8.536  0.3409  1.1938  1.2855
 6933SOL     OW32434   3.233   4.741  17.419 -0.4153 -0.5299  0.1331
 6933SOL    HW132435   3.316   0.046  17.418 -1.4616  1.2762 -0.2573
 6933SOL    HW232436   3.252   4.690  17.341  0.0601 -0.2794  0.0850
 6934SOL     OW32437   0.548   1.483  14.087 -0.1793 -0.3171 -0.1138
 6934SOL    HW132438   0.595   1.406  14.054  0.6013  0.5802 -1.1032
 6934SOL    HW232439   0.469   1.477  14.033 -1.1050 -1.3872  1.3604
 6935SOL     OW32440   0.243   3.185   4.486  0.2551 -0.3532  0.0265
 6935SOL    HW132441   0.190   3.182   4.566 -0.8655  3.3778 -0.5707
 6935SOL    HW232442   0.320   3.238   4.507  0.7147 -0.8685 -0.3943
 6936SOL     OW32443   2.459   0.448   3.388  0.2073  0.2203  0.2003
 6936SOL    HW132444   2.470   0.354   3.372 -0.4340  0.4262 -1.4698
 6936SOL    HW232445   2.421   0.481   3.306 -0.2792 -1.4321 -0.2494
 6937SOL     OW32446   2.978   4.024  10.637  0.0605  0.4115 -0.1237
 6937SOL    HW132447   2.945   3.965  10.704  1.4149  0.7152  0.8094
 6937SOL    HW232448   2.947   3.979  10.558  1.2093  0.0807 -0.3802
 6938SOL     OW32449   1.989   1.450   4.686  0.2243 -0.2776 -0.3453
 6938SOL    HW132450   1.912   1.411   4.645  1.4062  0.2864 -3.1467
 6938SOL    HW232451   2.003   1.517   4.618  0.9231  1.7789  1.8365
 6939SOL     OW32452   4.275   1.756   3.416 -0.1436  0.2207 -0.4966
 6939SOL    HW132453   4.190   1.760   3.373 -0.9915 -0.5292  1.0917
 6939SOL    HW232454   4.265   1.825   3.482  2.5669 -1.3959  1.6159
 6940SOL     OW32455   3.082   3.236  10.894 -0.2232  0.1559 -0.2552
 6940SOL    HW132456   3.127   3.244  10.978  0.0525  0.1959 -0.4054
 6940SOL    HW232457   3.032   3.156  10.910 -1.0311  0.6327 -0.4160
 6941SOL     OW32458   1.542   3.016  17.696 -0.0272 -0.0123 -0.2375
 6941SOL    HW132459   1.458   3.032  17.739 -0.3164 -2.5936  0.1477
 6941SOL    HW232460   1.575   3.100  17.665 -0.3459 -0.3517 -1.5033
 6942SOL     OW32461   1.428   2.654   4.306 -0.1521 -0.3567 -0.4509
 6942SOL    HW132462   1.388   2.740   4.292 -1.6026 -0.9875 -0.1425
 6942SOL    HW232463   1.355   2.594   4.318 -1.8206  1.2710 -2.3187
 6943SOL     OW32464   2.999   1.848   7.688 -0.3678  0.3636 -0.8122
 6943SOL    HW132465   2.942   1.792   7.636  3.3326 -2.0845 -2.3133
 6943SOL    HW232466   3.082   1.837   7.641 -0.4680 -3.2900 -0.1373
 6944SOL     OW32467   1.627   3.903  12.650  0.3991 -0.4184  0.3936
 6944SOL    HW132468   1.593   3.816  12.631 -1.1739  0.3169 -0.1642
 6944SOL    HW232469   1.713   3.882  12.685  1.4838 -0.1020 -2.0788
 6945SOL     OW32470   3.868   0.076  10.611 -0.0779 -0.4097  0.5697
 6945SOL    HW132471   3.819   0.155  10.591  0.6491  0.3009  1.6481
 6945SOL    HW232472   3.874   0.073  10.706 -0.3128  0.8383  0.6175
 6946SOL     OW32473   1.874   3.538   5.453  0.5097 -0.0165  0.0789
 6946SOL    HW132474   1.829   3.460   5.422 -1.1465  0.8142  0.3658
 6946SOL    HW232475   1.949   3.501   5.499  0.1495  0.6153  1.1764
 6947SOL     OW32476   3.081   3.175  12.079  0.4454  0.0433  0.1399
 6947SOL    HW132477   3.145   3.122  12.031  0.8276 -0.9551  1.7632
 6947SOL    HW232478   3.135   3.220  12.143  0.3139  0.5571 -0.1109
 6948SOL     OW32479   4.614   3.667   5.256  0.0977 -0.2141 -0.1798
 6948SOL    HW132480   4.605   3.702   5.344 -1.2405  4.2616 -2.0588
 6948SOL    HW232481   4.656   3.581   5.258  3.2118  1.3433  0.0220
 6949SOL     OW32482   1.126   4.192  16.492 -0.2072 -0.0854 -0.0308
 6949SOL    HW132483   1.060   4.250  16.455 -0.6543  0.6087  1.8750
 6949SOL    HW232484   1.074   4.115  16.515  1.1286 -0.8074  0.5700
 6950SOL     OW32485   1.323   2.245   4.377  0.3504  0.2000 -0.2999
 6950SOL    HW132486   1.312   2.303   4.301 -1.2049 -1.1380 -1.0826
 6950SOL    HW232487   1.380   2.176   4.341 -0.7927  0.2685 -2.2401
 6951SOL     OW32488   1.625   2.182  12.161 -0.3925 -0.0869 -0.1163
 6951SOL    HW132489   1.676   2.194  12.241 -0.1552  0.2397 -0.3177
 6951SOL    HW232490   1.536   2.210  12.183 -0.4653 -1.6759  1.6392
 6952SOL     OW32491   4.240   1.540  10.452  0.2387 -0.1177 -0.4830
 6952SOL    HW132492   4.241   1.547  10.356  0.4321 -0.7364 -0.5305
 6952SOL    HW232493   4.148   1.514  10.462 -0.3901  1.4924 -2.0162
 6953SOL     OW32494   3.616   3.699  13.763 -0.4252  0.0899 -0.0093
 6953SOL    HW132495   3.618   3.618  13.814 -0.2079 -0.4849 -0.9282
 6953SOL    HW232496   3.535   3.713  13.715  0.3994 -1.5248 -1.8687
 6954SOL     OW32497   1.089   1.841   3.747 -0.3326 -0.4100 -0.1717
 6954SOL    HW132498   1.062   1.932   3.757  2.2127 -0.0043  3.0316
 6954SOL    HW232499   1.043   1.806   3.671  0.0947 -0.5039 -0.3896
 6955SOL     OW32500   0.902   2.376  10.452  0.2269  0.0864  0.2771
 6955SOL    HW132501   0.990   2.412  10.440 -0.5383  2.1586  0.7915
 6955SOL    HW232502   0.914   2.293  10.406 -0.9010  0.8818 -1.4830
 6956SOL     OW32503   2.372   0.719   7.660 -0.2549  0.4314 -0.4824
 6956SOL    HW132504   2.290   0.761   7.686 -0.0070  0.3719  0.3825
 6956SOL    HW232505   2.436   0.766   7.713  0.9144 -0.8027 -0.7938
 6957SOL     OW32506   0.127   3.806   7.732  0.2104 -0.4760  0.3963
 6957SOL    HW132507   0.178   3.844   7.661  2.2344 -3.6197  0.1716
 6957SOL    HW232508   0.188   3.841   7.798 -3.3302  1.5259  2.5782
 6958SOL     OW32509   1.531   2.877   1.951 -0.1745  0.0772  0.4266
 6958SOL    HW132510   1.518   2.842   2.040 -2.1461 -0.6509 -0.1445
 6958SOL    HW232511   1.620   2.908   1.969  0.3814 -0.8001 -0.8349
 6959SOL     OW32512   1.754   1.312   2.114  0.5267 -0.1940  0.2054
 6959SOL    HW132513   1.781   1.392   2.158  0.9113 -0.1841 -0.0476
 6959SOL    HW232514   1.687   1.333   2.049  0.3488 -1.0175  0.1124
 6960SOL     OW32515   4.343   0.825   7.679 -0.0299 -0.7748 -0.0461
 6960SOL    HW132516   4.420   0.819   7.735 -0.0687 -0.4525  0.0420
 6960SOL    HW232517   4.379   0.857   7.596 -0.0567 -1.3447 -0.2768
 6961SOL     OW32518   1.705   1.636  16.466 -0.0056  0.4831  0.0541
 6961SOL    HW132519   1.671   1.702  16.406 -1.9852  0.8109  1.5788
 6961SOL    HW232520   1.676   1.551  16.432 -2.6005  1.0708  0.7881
 6962SOL     OW32521   3.462   4.207   7.250  0.7023  0.3474 -0.2189
 6962SOL    HW132522   3.548   4.177   7.279  0.2649 -1.9011 -1.2712
 6962SOL    HW232523   3.425   4.121   7.228  0.4333 -0.2321  2.5389
 6963SOL     OW32524   3.056   2.915   2.214  0.0288 -0.3737 -0.1539
 6963SOL    HW132525   3.096   3.002   2.208  1.7686 -1.0966  0.8591
 6963SOL    HW232526   3.117   2.868   2.271 -2.3336 -1.6943  1.2983
 6964SOL     OW32527   0.127   1.357   1.713  0.5050 -0.2357 -0.7917
 6964SOL    HW132528   0.062   1.333   1.779  0.3642  2.5585  0.0888
 6964SOL    HW232529   0.086   1.319   1.635 -1.2479 -0.0879  0.0578
 6965SOL     OW32530   0.028   2.615  11.549  0.3111 -0.9673 -0.4384
 6965SOL    HW132531   4.702   2.681  11.550 -0.3163 -1.6705  2.6040
 6965SOL    HW232532   0.106   2.671  11.554  0.6033 -1.1785 -2.7471
 6966SOL     OW32533   0.391   2.404   8.540  0.1630 -0.0635 -0.0210
 6966SOL    HW132534   0.406   2.449   8.623  0.5408  0.6881 -0.4930
 6966SOL    HW232535   0.309   2.358   8.559 -0.3710  0.6422 -0.5923
 6967SOL     OW32536   2.517   4.394   3.115 -0.1512  0.0301 -0.2071
 6967SOL    HW132537   2.539   4.303   3.098 -0.7742 -0.1271 -0.1612
 6967SOL    HW232538   2.588   4.407   3.178 -1.0812 -1.8711  1.2147
 6968SOL     OW32539   1.387   1.588   3.258 -0.4369 -0.3173 -0.0654
 6968SOL    HW132540   1.419   1.589   3.168  1.9678  1.0559  0.7852
 6968SOL    HW232541   1.294   1.600   3.240 -0.3539  0.6990  0.1712
 6969SOL     OW32542   2.988   4.168   8.796 -0.3945  0.0484 -0.2402
 6969SOL    HW132543   2.983   4.181   8.701  3.7351 -0.1023 -0.4902
 6969SOL    HW232544   2.934   4.241   8.827  0.1763  1.1209 -1.7481
 6970SOL     OW32545   2.506   4.573   5.644  0.5574  0.1619 -0.1350
 6970SOL    HW132546   2.411   4.565   5.658  0.6195 -2.1442 -1.0173
 6970SOL    HW232547   2.538   4.582   5.734  2.0299 -0.8543 -0.5479
 6971SOL     OW32548   0.549   1.448   3.906  0.1384 -0.1468  0.2181
 6971SOL    HW132549   0.472   1.503   3.913  0.9697  0.8570  1.3852
 6971SOL    HW232550   0.617   1.512   3.883 -1.2645  0.3879 -2.4126
 6972SOL     OW32551   4.224   2.710   2.431  0.4064 -0.1632  0.5868
 6972SOL    HW132552   4.269   2.795   2.431  2.0668 -1.0444 -0.4237
 6972SOL    HW232553   4.167   2.718   2.354  0.3552 -2.2504  0.4104
 6973SOL     OW32554   1.953   1.155   8.879 -0.6444  0.4326  0.1608
 6973SOL    HW132555   1.882   1.156   8.943 -1.8064 -1.8704 -1.0862
 6973SOL    HW232556   1.909   1.101   8.813  1.5265  0.0534 -0.9870
 6974SOL     OW32557   0.498   3.349   2.553  0.0055  0.3554 -0.2808
 6974SOL    HW132558   0.412   3.309   2.568  0.5192 -0.3144  0.9120
 6974SOL    HW232559   0.525   3.309   2.471 -0.4070 -3.0878  1.2667
 6975SOL     OW32560   0.622   2.880  14.809  0.3173 -0.1175  0.0364
 6975SOL    HW132561   0.621   2.824  14.731  0.2132 -0.7303  0.4833
 6975SOL    HW232562   0.576   2.959  14.779 -0.9623 -1.0476 -0.4341
 6976SOL     OW32563   1.386   0.355  15.882 -0.3244 -0.6811 -0.1803
 6976SOL    HW132564   1.466   0.402  15.859 -0.3819  0.3726  1.7717
 6976SOL    HW232565   1.313   0.385  15.828 -0.8730 -0.3047  0.7721
 6977SOL     OW32566   4.231   0.857   3.828 -0.1275 -0.0916 -0.0251
 6977SOL    HW132567   4.257   0.879   3.738 -2.4582  1.2960 -0.3544
 6977SOL    HW232568   4.171   0.928   3.851 -0.2192  0.2759 -1.3817
 6978SOL     OW32569   3.486   0.723  11.346  0.5187  0.1352  0.6051
 6978SOL    HW132570   3.414   0.784  11.328  0.1034  0.4265  3.2511
 6978SOL    HW232571   3.564   0.757  11.303  0.5742  0.8600  1.2712
 6979SOL     OW32572   0.188   2.672  10.577 -0.0584 -0.2309 -0.8217
 6979SOL    HW132573   0.153   2.585  10.561 -2.1837  0.7916 -1.7584
 6979SOL    HW232574   0.226   2.663  10.665 -0.1986 -0.9778 -0.8348
 6980SOL     OW32575   4.470   3.744   3.997 -0.3506 -0.2793 -0.1710
 6980SOL    HW132576   4.560   3.771   4.016 -0.1503  0.0001 -1.5054
 6980SOL    HW232577   4.480   3.691   3.919  1.7055 -0.6358  0.3363
 6981SOL     OW32578   1.082   1.242   0.253 -0.3247  0.8510  0.6995
 6981SOL    HW132579   1.165   1.195   0.258 -0.8632 -0.2419 -0.7551
 6981SOL    HW232580   1.057   1.238   0.161  2.0837  1.2220  0.0348
 6982SOL     OW32581   1.663   1.706   0.763  0.1316 -0.4114  0.6389
 6982SOL    HW132582   1.677   1.769   0.692  2.0995  1.0676  2.3283
 6982SOL    HW232583   1.721   1.731   0.835  1.0103  2.3984 -1.0561
 6983SOL     OW32584   0.374   3.143  11.793  0.3153  0.0372  0.6327
 6983SOL    HW132585   0.326   3.075  11.746  2.7628 -1.4393  0.2688
 6983SOL    HW232586   0.331   3.218  11.753 -2.1996 -1.7227  0.0173
 6984SOL     OW32587   2.876   1.059   4.124  0.7068 -0.8254  0.1721
 6984SOL    HW132588   2.842   1.046   4.036 -0.2919  1.2984  0.2435
 6984SOL    HW232589   2.909   1.148   4.119  2.7783 -1.6802 -1.2605
 6985SOL     OW32590   3.344   0.425   2.442  0.2363 -0.5385  0.0352
 6985SOL    HW132591   3.423   0.442   2.493  0.1360  0.5510 -0.1811
 6985SOL    HW232592   3.364   0.333   2.424 -2.5278 -1.0000 -0.7313
 6986SOL     OW32593   3.403   3.939  10.173  0.1153  0.4053 -0.0899
 6986SOL    HW132594   3.351   3.983  10.240  0.5568 -0.1008  0.5826
 6986SOL    HW232595   3.488   3.937  10.218  0.6592  0.2562 -1.1127
 6987SOL     OW32596   0.724   2.418   9.213 -0.4233  0.0349  0.0109
 6987SOL    HW132597   0.786   2.348   9.195 -0.0207  0.4601 -0.2326
 6987SOL    HW232598   0.757   2.445   9.299  1.7575  2.2921 -1.5426
 6988SOL     OW32599   2.774   0.896   2.579 -0.2931  0.0432  0.7681
 6988SOL    HW132600   2.838   0.863   2.642  0.0777 -2.4382 -0.9055
 6988SOL    HW232601   2.812   0.985   2.581  1.1591 -0.4623 -3.1663
 6989SOL     OW32602   1.241   1.576  10.319  0.2717  0.1535  0.4114
 6989SOL    HW132603   1.242   1.625  10.236 -0.3435 -1.5390 -0.5825
 6989SOL    HW232604   1.170   1.513  10.308 -0.2993  0.9443 -0.4714
 6990SOL     OW32605   1.466   4.168   6.604  0.2146 -0.2833  0.1929
 6990SOL    HW132606   1.432   4.082   6.627 -0.6647  0.3545  1.2755
 6990SOL    HW232607   1.541   4.165   6.664 -0.6821 -0.4997  1.2923
 6991SOL     OW32608   4.537   1.114   8.632 -0.4562  0.4687  0.2759
 6991SOL    HW132609   4.505   1.087   8.718 -1.8277 -0.6725 -0.5909
 6991SOL    HW232610   4.472   1.061   8.585 -0.5438  0.7323  0.0998
 6992SOL     OW32611   0.552   3.218   9.801 -0.1261 -0.0336 -0.0639
 6992SOL    HW132612   0.535   3.299   9.753 -0.9998 -0.1792  0.0108
 6992SOL    HW232613   0.475   3.167   9.778 -0.9245  1.1353  0.0323
 6993SOL     OW32614   3.221   1.551   5.614  0.6922  0.1053 -0.6369
 6993SOL    HW132615   3.143   1.513   5.572 -0.5538  1.1135  0.7672
 6993SOL    HW232616   3.283   1.482   5.591 -1.4236 -1.8553 -0.4438
 6994SOL     OW32617   3.641   2.653   0.245 -1.0542 -0.1768 -0.4534
 6994SOL    HW132618   3.669   2.732   0.199  0.5036 -1.9350 -2.5454
 6994SOL    HW232619   3.681   2.582   0.195 -0.4803  0.0835 -0.3656
 6995SOL     OW32620   3.338   2.714   3.975 -0.0760  0.0645  0.0157
 6995SOL    HW132621   3.376   2.769   4.044 -1.0629  1.9233 -0.9487
 6995SOL    HW232622   3.352   2.774   3.902 -0.4686 -1.0787 -0.9881
 6996SOL     OW32623   0.528   4.337   2.382 -0.3774  0.0954 -0.5444
 6996SOL    HW132624   0.565   4.308   2.466  0.2069  2.2698 -0.0495
 6996SOL    HW232625   0.498   4.425   2.402 -1.1543 -0.3176  0.1352
 6997SOL     OW32626   0.075   0.753   6.105 -0.6538 -0.4712  0.2452
 6997SOL    HW132627   0.052   0.846   6.111  0.3014 -0.1430 -1.2262
 6997SOL    HW232628   0.069   0.739   6.011  0.1302 -2.2057  0.4521
 6998SOL     OW32629   2.660   2.715  10.305  0.7376  0.4494  0.7785
 6998SOL    HW132630   2.607   2.652  10.352 -0.8901  1.1631 -0.1128
 6998SOL    HW232631   2.745   2.686  10.338  2.2178  2.3273 -1.3235
 6999SOL     OW32632   2.937   1.932   2.446  0.1556 -0.5894  0.1723
 6999SOL    HW132633   2.874   1.995   2.479 -1.9885 -2.6119 -0.0956
 6999SOL    HW232634   2.881   1.855   2.445 -0.1044 -0.3622 -2.1598
 7000SOL     OW32635   1.379   2.179   2.472  0.2041 -0.1814  0.0938
 7000SOL    HW132636   1.318   2.191   2.544  1.0829 -0.6424  0.9161
 7000SOL    HW232637   1.459   2.148   2.515  0.7197 -0.1764 -0.8396
 7001SOL     OW32638   2.475   3.942   4.277  0.3203 -0.3083 -0.1932
 7001SOL    HW132639   2.542   3.897   4.225  0.9320 -0.4558  0.7311
 7001SOL    HW232640   2.415   3.872   4.303  1.2968  0.0333  3.0183
 7002SOL     OW32641   3.900   1.637  13.919  0.1603  0.3871 -0.2057
 7002SOL    HW132642   3.852   1.618  13.838  0.0630  0.0296 -0.0657
 7002SOL    HW232643   3.833   1.697  13.950 -0.0696  0.1145 -0.1785
 7003SOL     OW32644   3.767   3.843   7.335 -0.2089 -0.1106 -0.6174
 7003SOL    HW132645   3.827   3.769   7.339 -0.9914 -0.8023 -1.5613
 7003SOL    HW232646   3.689   3.802   7.371 -0.8589  2.0332  0.3664
 7004SOL     OW32647   1.077   4.669  14.444 -0.6861 -0.0476  0.2980
 7004SOL    HW132648   1.151   4.709  14.489 -0.7951 -0.5027  0.8804
 7004SOL    HW232649   1.044   0.006  14.401  0.7357 -0.0194 -0.7300
 7005SOL     OW32650   1.520   3.283   1.506 -0.0174  0.2695 -0.0787
 7005SOL    HW132651   1.570   3.334   1.442  0.4924  0.4664  0.4812
 7005SOL    HW232652   1.444   3.341   1.511  0.4003  0.7321  0.9092
 7006SOL     OW32653   0.856   3.808   2.144 -0.1165 -0.4043  0.6058
 7006SOL    HW132654   0.854   3.722   2.104  0.6875 -1.1359  2.1576
 7006SOL    HW232655   0.830   3.857   2.065  1.3206  0.1873  0.5058
 7007SOL     OW32656   3.987   1.064   2.954  0.4208 -0.1367  0.6097
 7007SOL    HW132657   4.065   1.009   2.966 -1.4219 -3.0950 -1.1606
 7007SOL    HW232658   4.019   1.112   2.877  0.7259 -0.8397  0.3005
 7008SOL     OW32659   0.703   4.682  14.352 -0.0348  0.5260 -0.2879
 7008SOL    HW132660   0.701   4.647  14.441 -4.5965 -0.5196 -0.8009
 7008SOL    HW232661   0.791   4.719  14.350 -0.9806  2.7013 -1.5839
 7009SOL     OW32662   1.490   4.328  15.541 -0.0001 -0.0765  0.2637
 7009SOL    HW132663   1.443   4.298  15.618 -2.4178  0.1203 -1.1272
 7009SOL    HW232664   1.552   4.256  15.528  1.1566  1.2477 -1.5705
 7010SOL     OW32665   1.983   4.445   9.241 -0.2681  0.0895  0.2064
 7010SOL    HW132666   1.931   4.524   9.230 -0.4363 -0.0385  0.0794
 7010SOL    HW232667   1.920   4.376   9.220 -1.2312  1.1331 -0.3109
 7011SOL     OW32668   1.640   2.822   4.767  0.4322  0.0619 -0.3282
 7011SOL    HW132669   1.687   2.745   4.799  0.0463 -0.2434 -0.4961
 7011SOL    HW232670   1.595   2.798   4.686 -0.7817 -0.1541  0.4259
 7012SOL     OW32671   2.417   0.628   6.240  0.0086 -0.0243 -0.6795
 7012SOL    HW132672   2.489   0.617   6.177 -0.9556  0.4132 -1.8660
 7012SOL    HW232673   2.419   0.720   6.268 -2.4242  0.3491 -1.7148
 7013SOL     OW32674   3.467   3.854   4.219 -0.3773 -0.1222 -0.6411
 7013SOL    HW132675   3.552   3.843   4.263 -0.7027  0.1991  0.0652
 7013SOL    HW232676   3.413   3.857   4.298  2.2142 -2.3075  1.2221
 7014SOL     OW32677   0.145   2.680  14.788 -0.0105 -0.5188 -0.3072
 7014SOL    HW132678   0.240   2.691  14.778  0.0666  1.1688  2.1968
 7014SOL    HW232679   0.117   2.730  14.711  0.1862  0.1442  0.0508
 7015SOL     OW32680   2.733   1.638   6.920  0.4663 -0.5290 -0.0270
 7015SOL    HW132681   2.811   1.593   6.889 -0.1267 -1.0313 -0.8078
 7015SOL    HW232682   2.772   1.698   6.983 -1.5873  2.3494 -1.4735
 7016SOL     OW32683   3.626   3.347   9.383  0.4313  0.4086 -0.2807
 7016SOL    HW132684   3.622   3.343   9.288 -0.0260  0.5152 -0.2669
 7016SOL    HW232685   3.543   3.394   9.395 -0.9946 -2.0636 -0.3958
 7017SOL     OW32686   3.671   4.093  15.239  0.0292  0.2277  0.4232
 7017SOL    HW132687   3.726   4.171  15.245  1.2860 -0.5586 -0.8007
 7017SOL    HW232688   3.648   4.093  15.146 -2.3232  1.5685  1.0264
 7018SOL     OW32689   0.953   1.096   1.299  0.6303  0.1905  0.5495
 7018SOL    HW132690   0.967   1.165   1.233 -1.8070 -1.1802 -1.4169
 7018SOL    HW232691   1.004   1.025   1.262 -0.1837 -0.8724  1.4667
 7019SOL     OW32692   3.376   1.920   6.667 -0.5855 -0.2376  0.2005
 7019SOL    HW132693   3.381   1.999   6.722 -0.4484  1.1134 -1.7441
 7019SOL    HW232694   3.460   1.880   6.691 -0.8813 -0.0580  1.5705
 7020SOL     OW32695   0.106   3.940  13.916  0.1435  0.4066  0.0709
 7020SOL    HW132696   0.189   3.895  13.898  1.8625  3.4300  0.4885
 7020SOL    HW232697   0.084   3.916  14.006  2.2305  0.8415  0.7066
 7021SOL     OW32698   3.185   2.569   2.130 -0.1593  0.0234  0.3618
 7021SOL    HW132699   3.255   2.551   2.067 -1.3992  1.6588 -1.4825
 7021SOL    HW232700   3.157   2.649   2.085  2.7069  1.2310  0.7213
 7022SOL     OW32701   2.272   1.819   5.068  0.5590  0.5228  0.3549
 7022SOL    HW132702   2.317   1.753   5.121  1.0911  0.7176  0.1475
 7022SOL    HW232703   2.276   1.781   4.980 -1.0444  2.3571 -0.4960
 7023SOL     OW32704   1.383   1.187  11.040 -0.0866  0.0309  0.1506
 7023SOL    HW132705   1.389   1.264  11.096 -2.9312  0.9510 -0.8516
 7023SOL    HW232706   1.291   1.163  11.041 -0.2862  0.7900  0.1100
 7024SOL     OW32707   0.951   2.630   3.415  0.3033  0.2117 -0.4616
 7024SOL    HW132708   0.892   2.683   3.469  0.6612 -1.4272  1.4981
 7024SOL    HW232709   1.031   2.680   3.433 -1.8557  3.3142  0.5411
 7025SOL     OW32710   1.540   3.115   7.383  0.5654  0.0361  0.1420
 7025SOL    HW132711   1.586   3.194   7.354  2.0740 -0.7662  0.3480
 7025SOL    HW232712   1.602   3.045   7.366  1.3265  0.4585  1.1446
 7026SOL     OW32713   1.922   4.167  17.480 -0.1138 -0.3478 -0.4326
 7026SOL    HW132714   1.957   4.256  17.476  1.2740 -0.8373  0.5026
 7026SOL    HW232715   1.995   4.122  17.436  2.4483  2.3057  1.0728
 7027SOL     OW32716   4.569   2.087   7.276 -0.4439  0.4396 -0.2677
 7027SOL    HW132717   4.595   2.016   7.335  1.4973  0.8852 -0.5826
 7027SOL    HW232718   4.603   2.048   7.195  1.3102 -1.0789  1.1926
 7028SOL     OW32719   2.176   2.452  17.220 -0.2086 -0.4402  0.3780
 7028SOL    HW132720   2.084   2.478  17.218 -0.0757 -0.1784 -1.9834
 7028SOL    HW232721   2.199   2.463  17.128 -1.7830 -1.7632 -0.1825
 7029SOL     OW32722   3.436   4.568   6.038 -0.3320 -0.1785  0.1386
 7029SOL    HW132723   3.349   4.540   6.009 -0.5459 -0.8372  1.4296
 7029SOL    HW232724   3.476   4.485   6.061  2.6490  1.5040  1.0027
 7030SOL     OW32725   0.109   2.062   3.161  0.0069  0.1559  0.0369
 7030SOL    HW132726   0.200   2.044   3.185 -0.0235 -0.4852 -0.3192
 7030SOL    HW232727   0.077   2.104   3.241 -0.9393 -1.3785  0.4845
 7031SOL     OW32728   1.900   1.940   7.727 -0.1451 -0.0472  0.1921
 7031SOL    HW132729   1.942   1.918   7.809 -0.6709  0.0225  0.4813
 7031SOL    HW232730   1.825   1.881   7.729 -0.1319 -0.0527  0.4491
 7032SOL     OW32731   4.194   1.170   6.718  0.2699  0.5140  0.1043
 7032SOL    HW132732   4.273   1.223   6.715  1.2401 -0.9732 -0.6476
 7032SOL    HW232733   4.176   1.153   6.625  0.9623  0.9838 -0.1140
 7033SOL     OW32734   4.638   3.558   8.280 -0.6374 -0.2058  0.3561
 7033SOL    HW132735   4.657   3.617   8.207 -0.6911  0.2313  0.7005
 7033SOL    HW232736   4.560   3.515   8.247 -0.4004 -0.5017  0.1749
 7034SOL     OW32737   3.308   2.092   8.663 -0.2931 -0.1289 -0.5212
 7034SOL    HW132738   3.328   1.999   8.674  1.1153 -0.1576 -3.1267
 7034SOL    HW232739   3.213   2.091   8.650  0.0587  2.4493 -3.3339
 7035SOL     OW32740   4.242   4.734  14.298 -0.0557  0.5527  0.4077
 7035SOL    HW132741   4.234   4.672  14.371  0.5802 -1.3339 -1.0999
 7035SOL    HW232742   4.154   4.737  14.261 -0.0325 -0.8413  0.2238
 7036SOL     OW32743   1.810   0.364   6.991  0.1901  0.5922 -0.0129
 7036SOL    HW132744   1.730   0.368   6.938  0.2931 -0.2144 -0.2258
 7036SOL    HW232745   1.830   0.271   7.004  0.5190  0.5523 -0.8312
 7037SOL     OW32746   2.338   0.740   7.213  0.0384 -0.3351 -0.3211
 7037SOL    HW132747   2.391   0.749   7.135 -1.0787 -0.3719 -1.0877
 7037SOL    HW232748   2.254   0.705   7.181 -1.2540  1.4899  1.0961
 7038SOL     OW32749   3.905   0.296   6.109  0.5015 -0.0247 -0.3265
 7038SOL    HW132750   3.908   0.233   6.037  3.5351  1.3262 -1.4167
 7038SOL    HW232751   3.886   0.234   6.179 -0.0798  1.3388  0.7128
 7039SOL     OW32752   2.655   0.461   3.134 -0.3702  0.0594 -0.1269
 7039SOL    HW132753   2.707   0.432   3.208  1.5814 -0.8245 -1.8375
 7039SOL    HW232754   2.638   0.376   3.092  1.9008 -0.5438  0.1801
 7040SOL     OW32755   2.378   2.935  17.407 -0.1334  0.4756 -0.0843
 7040SOL    HW132756   2.302   2.993  17.407  0.4903  1.3012 -0.3659
 7040SOL    HW232757   2.341   2.849  17.391  0.3946  0.8170 -3.3728
 7041SOL     OW32758   4.398   2.267  17.386 -0.1808 -0.0632  0.3559
 7041SOL    HW132759   4.400   2.316  17.303 -0.0103 -1.5990 -0.5618
 7041SOL    HW232760   4.462   2.310  17.442 -2.0066 -0.2339  2.5430
 7042SOL     OW32761   4.469   1.887  16.256  0.3852 -0.0106  0.2392
 7042SOL    HW132762   4.461   1.793  16.239 -1.8229  0.3475 -0.6365
 7042SOL    HW232763   4.415   1.902  16.334  1.1047 -0.4706  0.8339
 7043SOL     OW32764   1.930   3.056   8.035  0.2108  0.0385  0.1206
 7043SOL    HW132765   1.834   3.059   8.035  0.2175  1.1318 -2.0237
 7043SOL    HW232766   1.949   3.129   8.094 -0.8260 -1.9127  2.8524
 7044SOL     OW32767   1.208   2.311   7.055 -0.0647 -0.0756  0.3703
 7044SOL    HW132768   1.118   2.278   7.059 -0.1011  0.3815  2.9980
 7044SOL    HW232769   1.201   2.367   6.978 -0.7876 -0.3893  0.2025
 7045SOL     OW32770   2.733   2.940   2.359  0.3161  0.0814 -0.3852
 7045SOL    HW132771   2.735   2.870   2.294  0.4874  1.0748 -1.4534
 7045SOL    HW232772   2.652   2.914   2.404 -0.3266  1.8692 -0.5066
 7046SOL     OW32773   3.289   2.783  17.488 -0.5020  0.3255 -0.2382
 7046SOL    HW132774   3.333   2.866  17.507  0.7662 -0.2285 -0.7556
 7046SOL    HW232775   3.313   2.726  17.562 -2.5907 -0.9476 -0.5636
 7047SOL     OW32776   1.317   1.863   4.913 -0.0105  0.0179 -0.5125
 7047SOL    HW132777   1.371   1.785   4.925 -2.1553 -1.2775  0.5313
 7047SOL    HW232778   1.379   1.936   4.914  0.0120 -0.0052 -0.2361
 7048SOL     OW32779   3.728   1.474   6.285 -0.1329  0.2164 -0.4650
 7048SOL    HW132780   3.794   1.404   6.288  0.3868  0.8096  1.6706
 7048SOL    HW232781   3.699   1.467   6.194  0.7473  1.4059 -0.8323
 7049SOL     OW32782   2.488   1.712   0.580 -0.3447 -0.0791  0.4848
 7049SOL    HW132783   2.579   1.734   0.561 -0.1710 -0.3923  0.9306
 7049SOL    HW232784   2.437   1.696   0.502  1.7527 -1.6067 -0.5668
 7050SOL     OW32785   3.606   1.004  10.617 -0.0205  0.2175 -0.3531
 7050SOL    HW132786   3.574   1.065  10.683 -4.7138 -2.4112 -0.1773
 7050SOL    HW232787   3.533   0.994  10.556  1.5064 -0.4016 -2.0953
 7051SOL     OW32788   1.554   1.066   3.909 -0.0731 -0.0354 -0.0233
 7051SOL    HW132789   1.471   1.113   3.913  0.6164  1.2543 -0.6239
 7051SOL    HW232790   1.512   0.983   3.929  0.4336 -0.4121 -0.5159
 7052SOL     OW32791   2.795   4.064   0.227 -0.5936  0.4352  0.0183
 7052SOL    HW132792   2.775   4.076   0.320 -2.2062 -0.5589 -0.2153
 7052SOL    HW232793   2.715   4.019   0.202  1.0615 -2.6918  0.3671
 7053SOL     OW32794   2.269   0.165   2.478  0.8528  0.6146  0.0070
 7053SOL    HW132795   2.255   0.140   2.387  0.4256 -0.7481  0.4463
 7053SOL    HW232796   2.180   0.145   2.507  0.1954 -0.3087 -2.6447
 7054SOL     OW32797   2.908   1.762  14.004 -0.5029 -0.1379 -0.7382
 7054SOL    HW132798   2.907   1.851  13.971  0.6275  0.8654  1.9624
 7054SOL    HW232799   2.819   1.731  13.986 -1.2912  1.5878  0.2866
 7055SOL     OW32800   3.729   1.217   0.727 -0.2296  0.0828  0.0932
 7055SOL    HW132801   3.745   1.284   0.661 -0.1860 -1.9449 -1.9456
 7055SOL    HW232802   3.635   1.207   0.715 -0.4097  1.2300  0.5735
 7056SOL     OW32803   0.880   3.229   4.972  0.5878  0.4755  0.4384
 7056SOL    HW132804   0.937   3.301   5.000 -1.3318  1.6807  1.2238
 7056SOL    HW232805   0.941   3.157   4.988  1.0124  0.2524 -2.2114
 7057SOL     OW32806   4.700   3.617   4.772  0.0188  0.1842 -0.0426
 7057SOL    HW132807   0.038   3.568   4.756 -0.8167 -0.4876 -2.2427
 7057SOL    HW232808   4.725   3.652   4.857  0.1715  1.2373 -0.5252
 7058SOL     OW32809   2.883   0.812   4.274  0.0988 -0.1528 -0.1567
 7058SOL    HW132810   2.877   0.906   4.257  0.9043 -0.4327 -1.9309
 7058SOL    HW232811   2.917   0.775   4.193 -1.5087  0.8990 -1.2907
 7059SOL     OW32812   0.901   2.180  15.653 -0.3104 -0.3641  0.0202
 7059SOL    HW132813   0.824   2.233  15.674  0.8732  1.0028  0.9901
 7059SOL    HW232814   0.914   2.117  15.723 -0.9731 -1.7423 -1.1006
 7060SOL     OW32815   4.211   3.619   2.851 -0.0490 -0.0676 -0.4486
 7060SOL    HW132816   4.217   3.712   2.833 -2.0208  0.9817  4.1049
 7060SOL    HW232817   4.119   3.605   2.876 -0.0753  0.9583  0.0081
 7061SOL     OW32818   2.235   1.261   8.187 -0.3976 -0.0196  0.2330
 7061SOL    HW132819   2.309   1.256   8.125  1.3870 -1.4383  2.4618
 7061SOL    HW232820   2.264   1.328   8.248  0.1627  0.2145 -0.2871
 7062SOL     OW32821   1.526   1.590   3.960  0.0671 -0.3488  0.3586
 7062SOL    HW132822   1.477   1.669   3.983  1.0627  0.4998 -0.4070
 7062SOL    HW232823   1.514   1.600   3.865  2.3945  0.3182  0.1337
 7063SOL     OW32824   1.304   0.807  11.740 -0.0630  0.3855  0.3537
 7063SOL    HW132825   1.288   0.886  11.687  0.9057  1.7006  2.0369
 7063SOL    HW232826   1.300   0.740  11.672 -1.6994 -1.1701  1.9983
 7064SOL     OW32827   2.451   3.880   4.633  0.2122  0.0986  0.5192
 7064SOL    HW132828   2.431   3.819   4.561  2.3758  3.8048 -3.2265
 7064SOL    HW232829   2.547   3.881   4.634  0.2110 -0.6294  0.9081
 7065SOL     OW32830   4.515   1.110   4.014  0.3939 -0.7124 -0.6872
 7065SOL    HW132831   4.473   1.076   4.093  1.4067  0.8877  0.5384
 7065SOL    HW232832   4.546   1.198   4.036 -2.7496  0.6284 -1.5425
 7066SOL     OW32833   4.543   3.247   3.700  0.2701 -0.0269 -0.2570
 7066SOL    HW132834   4.528   3.158   3.667 -1.0050  1.3618 -3.3857
 7066SOL    HW232835   4.478   3.242   3.770 -0.8446  2.5916 -1.1486
 7067SOL     OW32836   2.034   3.585   0.254 -0.1699  0.2425  0.1350
 7067SOL    HW132837   2.059   3.676   0.265 -2.1534  1.0859 -2.3300
 7067SOL    HW232838   2.122   3.555   0.232 -0.9040 -2.7036  1.1408
 7068SOL     OW32839   3.675   0.537  14.991 -0.0865  0.0756  0.0572
 7068SOL    HW132840   3.594   0.487  14.986 -0.3474  0.3561  1.3237
 7068SOL    HW232841   3.734   0.466  14.967  0.8249  0.0258  2.4609
 7069SOL     OW32842   3.979   2.915   7.134 -0.3490 -0.4193 -0.1552
 7069SOL    HW132843   3.981   2.834   7.084 -0.3880 -1.6005  1.7693
 7069SOL    HW232844   3.918   2.962   7.076 -1.3126 -1.6869 -0.1454
 7070SOL     OW32845   1.467   2.580   2.448 -0.0911  0.2410 -0.5141
 7070SOL    HW132846   1.489   2.672   2.462  1.0710  0.0717 -1.2296
 7070SOL    HW232847   1.543   2.554   2.499  0.2627  1.3113 -0.4952
 7071SOL     OW32848   3.906   2.412   1.427  0.1230 -0.2256  0.3236
 7071SOL    HW132849   3.926   2.431   1.519  0.6766  0.3249  0.0882
 7071SOL    HW232850   3.884   2.500   1.397 -2.1499 -0.6057  0.8827
 7072SOL     OW32851   3.327   4.286   9.021 -0.1998  0.2036  0.1202
 7072SOL    HW132852   3.301   4.354   8.958  0.4291 -0.7882 -1.2163
 7072SOL    HW232853   3.346   4.212   8.962  3.4546  0.7563  0.6157
 7073SOL     OW32854   0.448   1.718   8.681  0.0929 -0.5870 -0.0247
 7073SOL    HW132855   0.359   1.722   8.714 -0.0054 -0.9165 -0.2500
 7073SOL    HW232856   0.485   1.653   8.740  1.0017 -0.2839 -0.2501
 7074SOL     OW32857   2.965   1.239   6.310  0.4203  0.2425  0.7220
 7074SOL    HW132858   2.930   1.315   6.356  0.1154 -0.2360  1.2855
 7074SOL    HW232859   3.050   1.269   6.279 -0.3736  0.4169 -1.2610
 7075SOL     OW32860   0.651   0.797   4.306 -0.0697 -0.1770  0.3874
 7075SOL    HW132861   0.557   0.804   4.291  0.2335  1.4633 -0.7418
 7075SOL    HW232862   0.660   0.730   4.374  0.6698 -1.9148 -1.4169
 7076SOL     OW32863   2.533   2.031   3.058  0.4258  0.3877 -0.6160
 7076SOL    HW132864   2.570   1.945   3.042 -1.5155 -0.8300  1.4894
 7076SOL    HW232865   2.456   2.031   3.001  1.0229  1.5839 -1.4212
 7077SOL     OW32866   1.398   0.225   3.486  0.3533  0.1720  0.0837
 7077SOL    HW132867   1.381   0.137   3.452  2.4474 -0.4558  0.6703
 7077SOL    HW232868   1.350   0.279   3.423  0.2736 -0.6318 -0.5423
 7078SOL     OW32869   3.202   2.483   4.058  0.2243  0.1292  0.0631
 7078SOL    HW132870   3.251   2.563   4.035 -0.7615  1.1513  1.5044
 7078SOL    HW232871   3.272   2.423   4.082  0.4959  0.5178  0.2495
 7079SOL     OW32872   2.983   1.214   8.030 -0.4866  0.0783  0.4178
 7079SOL    HW132873   3.067   1.260   8.027 -0.7490  0.5019 -0.4406
 7079SOL    HW232874   3.010   1.122   8.040  3.0047  1.0961  0.4495
 7080SOL     OW32875   2.758   2.564   0.937 -0.1510  0.2530 -1.1334
 7080SOL    HW132876   2.737   2.494   1.000 -0.3462 -0.4606 -1.9969
 7080SOL    HW232877   2.755   2.516   0.855  1.1669  1.1774 -1.7190
 7081SOL     OW32878   0.316   3.952   3.619  0.1880  0.3810 -0.7308
 7081SOL    HW132879   0.350   3.910   3.698  1.6751  1.1701 -0.9358
 7081SOL    HW232880   0.379   4.021   3.596 -1.4677  2.2470  0.3848
 7082SOL     OW32881   2.529   3.691   7.758 -0.3680 -0.2420 -0.2732
 7082SOL    HW132882   2.496   3.632   7.826  0.5967 -0.2489  0.1818
 7082SOL    HW232883   2.623   3.695   7.776 -0.6461  3.0946  0.4163
 7083SOL     OW32884   2.294   0.685   9.183 -0.7359 -0.2456  0.1504
 7083SOL    HW132885   2.219   0.662   9.238 -1.8942 -0.9147 -1.6876
 7083SOL    HW232886   2.261   0.744   9.115 -1.4041  1.5482  2.0530
 7084SOL     OW32887   3.007   3.469   7.503  0.4288  0.5411  0.4227
 7084SOL    HW132888   3.011   3.387   7.453 -3.2805 -0.2699  1.4170
 7084SOL    HW232889   2.942   3.520   7.454  0.6951  0.1542 -0.3235
 7085SOL     OW32890   2.110   3.398  13.822  0.1184 -0.4322  0.2695
 7085SOL    HW132891   2.039   3.338  13.798  0.8637 -2.0405  2.0343
 7085SOL    HW232892   2.070   3.431  13.903 -1.3412  2.1273 -1.4755
 7086SOL     OW32893   0.880   2.319   4.145 -0.0876  0.1205  0.6835
 7086SOL    HW132894   0.876   2.413   4.165  0.8424  0.4090 -0.4479
 7086SOL    HW232895   0.903   2.287   4.232 -2.7523 -1.6323  0.7284
 7087SOL     OW32896   1.732   1.944   4.183  0.1311  0.1516 -0.3821
 7087SOL    HW132897   1.819   1.911   4.205  1.2164  2.7746 -0.7233
 7087SOL    HW232898   1.720   1.920   4.091 -0.7795 -0.5931 -0.0774
 7088SOL     OW32899   2.578   0.510   5.194  0.2002  0.8992 -0.5387
 7088SOL    HW132900   2.654   0.524   5.251  0.9321 -2.7362 -0.5973
 7088SOL    HW232901   2.570   0.414   5.187 -2.8920  1.0158  1.6451
 7089SOL     OW32902   0.313   4.517  14.896  0.6931 -0.3581 -0.8298
 7089SOL    HW132903   0.249   4.470  14.842  1.1782 -0.7119 -1.0961
 7089SOL    HW232904   0.361   4.446  14.938  0.4201 -1.4625 -2.3893
 7090SOL     OW32905   4.114   2.065   7.661 -0.1067 -0.1444 -0.0352
 7090SOL    HW132906   4.192   2.031   7.617 -0.1223 -0.3267  0.0814
 7090SOL    HW232907   4.049   2.071   7.590 -0.4765  0.5038  0.3602
 7091SOL     OW32908   4.129   4.239  10.223  0.2722  0.1041 -0.7541
 7091SOL    HW132909   4.118   4.317  10.278 -2.6825 -1.7649  1.2914
 7091SOL    HW232910   4.159   4.181  10.294 -1.1592  1.4010  0.9312
 7092SOL     OW32911   3.289   1.318  17.519 -0.0850  0.0499 -0.2013
 7092SOL    HW132912   3.251   1.305  17.432 -1.6155  1.1369  0.3042
 7092SOL    HW232913   3.297   1.413  17.509 -0.1703  0.0430 -0.3387
 7093SOL     OW32914   0.140   1.172  11.767 -0.0617 -0.0693 -0.2752
 7093SOL    HW132915   0.075   1.111  11.802  0.6347 -0.1355  0.8816
 7093SOL    HW232916   0.150   1.128  11.682 -0.5725  0.2052 -0.4760
 7094SOL     OW32917   0.720   0.887   6.295  0.3134  0.0547 -0.0098
 7094SOL    HW132918   0.691   0.966   6.248  0.2109 -1.0485 -1.8077
 7094SOL    HW232919   0.751   0.840   6.218 -1.6690 -0.1371 -0.6975
 7095SOL     OW32920   1.514   4.126   8.511  0.1651 -0.2975 -0.5195
 7095SOL    HW132921   1.436   4.174   8.543 -0.5704 -0.5469 -1.9470
 7095SOL    HW232922   1.537   4.179   8.435 -0.1814  2.2306  1.0980
 7096SOL     OW32923   3.993   1.807   6.738 -0.0712  0.5832  0.2067
 7096SOL    HW132924   4.066   1.747   6.721 -0.5841  0.1151 -0.3137
 7096SOL    HW232925   3.928   1.744   6.768  0.7223 -0.1543  0.3626
 7097SOL     OW32926   2.450   2.138   2.379 -0.2149  0.3629  0.2943
 7097SOL    HW132927   2.516   2.198   2.345 -0.4446  1.6847  2.1743
 7097SOL    HW232928   2.501   2.074   2.429 -1.6357 -0.9491  0.0894
 7098SOL     OW32929   2.288   0.332  15.608  0.6758 -0.0380  0.0034
 7098SOL    HW132930   2.297   0.372  15.694 -1.8448  0.4160  0.0530
 7098SOL    HW232931   2.276   0.239  15.631  0.9780 -0.0712  0.0231
 7099SOL     OW32932   1.062   4.371  15.016 -0.0802  0.1111 -0.2346
 7099SOL    HW132933   1.070   4.334  15.105 -2.2470 -0.2694 -0.2018
 7099SOL    HW232934   1.042   4.461  15.041  0.8953  0.3108 -0.1602
 7100SOL     OW32935   4.326   0.497   9.931 -0.2521  1.0402 -0.3762
 7100SOL    HW132936   4.412   0.525   9.963  0.1067 -1.2927  0.6874
 7100SOL    HW232937   4.274   0.575   9.951 -0.9827  0.7198 -1.0386
 7101SOL     OW32938   2.043   1.316   2.101  0.0257  0.1128  0.5047
 7101SOL    HW132939   2.004   1.247   2.155  0.4364 -0.5378 -0.0340
 7101SOL    HW232940   1.967   1.336   2.046 -0.6995  0.0599  1.4877
 7102SOL     OW32941   3.902   0.928   9.824 -0.6418 -0.0956  0.6455
 7102SOL    HW132942   3.967   0.856   9.826 -1.3595 -0.8259 -2.2360
 7102SOL    HW232943   3.818   0.885   9.811 -0.1234 -0.9447  0.0607
 7103SOL     OW32944   2.036   4.561   3.165 -0.0653 -0.3382  0.3968
 7103SOL    HW132945   2.077   4.475   3.177  2.3161  0.6727 -0.5064
 7103SOL    HW232946   2.106   4.626   3.156  0.1810 -0.2015  3.2374
 7104SOL     OW32947   0.723   4.084   6.779  0.5938 -0.6400 -0.0061
 7104SOL    HW132948   0.653   4.124   6.726  2.5123  0.2947 -1.8220
 7104SOL    HW232949   0.756   4.162   6.823 -0.1845 -1.4449  1.9897
 7105SOL     OW32950   3.287   0.254   7.758  0.1643  0.0355  0.0360
 7105SOL    HW132951   3.206   0.245   7.707  1.0559 -0.2950 -1.3202
 7105SOL    HW232952   3.251   0.254   7.846 -0.9558 -2.7296 -0.4192
 7106SOL     OW32953   2.848   0.254   6.620  0.3231 -0.1350 -0.4130
 7106SOL    HW132954   2.920   0.195   6.596  1.3351  0.8860  0.0952
 7106SOL    HW232955   2.869   0.263   6.713  0.5724 -1.3341 -0.3477
 7107SOL     OW32956   0.817   4.005   9.043  0.7369 -0.0609  0.0386
 7107SOL    HW132957   0.762   3.939   9.002  2.0002 -2.1864  1.7800
 7107SOL    HW232958   0.842   4.060   8.969  1.0420 -0.2367  0.0145
 7108SOL     OW32959   3.978   1.014  15.102  0.5272 -0.1900  0.4954
 7108SOL    HW132960   3.892   0.975  15.119 -0.5238  1.3428 -1.4316
 7108SOL    HW232961   4.029   0.968  15.170  4.0418 -0.7796 -2.5579
 7109SOL     OW32962   3.969   2.573   7.863 -0.0461 -0.3522  0.6415
 7109SOL    HW132963   4.047   2.561   7.809 -0.4834 -0.0831 -0.0469
 7109SOL    HW232964   3.901   2.522   7.819 -1.2979  1.9977 -0.1552
 7110SOL     OW32965   4.621   0.387   7.354 -0.1527  0.4841  0.2280
 7110SOL    HW132966   4.540   0.347   7.323  0.1305 -0.7426  1.0629
 7110SOL    HW232967   4.687   0.372   7.286  1.3009 -1.4744  2.0576
 7111SOL     OW32968   0.881   2.852   2.173  0.4683 -0.4956  0.3805
 7111SOL    HW132969   0.952   2.861   2.236 -0.4698 -3.2519  1.8423
 7111SOL    HW232970   0.866   2.757   2.181  1.6661 -0.6122  1.2545
 7112SOL     OW32971   2.244   1.963   7.326 -0.4552  0.4974  0.5805
 7112SOL    HW132972   2.275   1.879   7.359 -1.6233 -0.8339 -1.6435
 7112SOL    HW232973   2.153   1.942   7.347 -0.2089 -0.8753  0.2960
 7113SOL     OW32974   3.038   0.077   6.534 -0.0936  0.1387 -0.6301
 7113SOL    HW132975   3.032   0.139   6.461  0.9795  1.1118  0.1218
 7113SOL    HW232976   3.131   0.093   6.547 -0.8375  0.3388  4.2056
 7114SOL     OW32977   1.970   2.805   4.510  0.8619 -0.1292  0.0760
 7114SOL    HW132978   1.959   2.747   4.585 -1.4604 -0.0860 -0.2266
 7114SOL    HW232979   1.915   2.765   4.443  2.8037 -0.8376 -1.1011
 7115SOL     OW32980   0.589   2.631   7.118 -0.1647 -0.2083 -0.5369
 7115SOL    HW132981   0.642   2.606   7.194 -2.9344 -0.7614  1.2278
 7115SOL    HW232982   0.562   2.721   7.137  3.5297  0.5134  1.3956
 7116SOL     OW32983   1.453   1.315   3.965  0.4980 -0.3914 -0.0430
 7116SOL    HW132984   1.488   1.401   3.942  1.6093 -0.8576 -0.1046
 7116SOL    HW232985   1.401   1.297   3.886  2.2182 -0.2261 -1.2256
 7117SOL     OW32986   4.218   2.115   1.107  0.3293  0.4739 -0.5660
 7117SOL    HW132987   4.155   2.174   1.149  1.1567  0.3873  0.7734
 7117SOL    HW232988   4.192   2.035   1.153 -0.6321 -0.7580 -3.2319
 7118SOL     OW32989   3.444   2.681  10.619  0.0087  0.2001 -0.2682
 7118SOL    HW132990   3.516   2.662  10.559 -0.0649 -0.7688 -0.0502
 7118SOL    HW232991   3.494   2.724  10.688 -2.2697  2.7393 -0.1783
 7119SOL     OW32992   2.050   2.298   8.649 -0.2453  0.2083 -0.6321
 7119SOL    HW132993   2.012   2.369   8.700 -0.3842  0.1645 -0.6742
 7119SOL    HW232994   2.086   2.239   8.716  0.5891  0.8722 -0.5052
 7120SOL     OW32995   0.190   4.254   2.915  0.0126  0.0239  0.4553
 7120SOL    HW132996   0.255   4.202   2.963 -0.0004 -0.2021  0.2287
 7120SOL    HW232997   0.240   4.323   2.873  0.1227  0.6832  1.6760
 7121SOL     OW32998   0.869   0.760   4.962  0.3556 -0.1186  0.3724
 7121SOL    HW132999   0.941   0.750   5.024  0.7351 -1.4090 -0.2669
 7121SOL    HW233000   0.874   0.854   4.944  1.7233 -0.2637 -0.0188
 7122SOL     OW33001   1.752   3.386  16.042 -0.6770 -0.0877 -0.1792
 7122SOL    HW133002   1.766   3.420  16.130 -4.3117 -0.4774  0.5121
 7122SOL    HW233003   1.787   3.298  16.054  1.5138  0.8460  0.3961
 7123SOL     OW33004   2.640   4.673   5.107 -0.0003  0.6942 -0.3728
 7123SOL    HW133005   2.632   4.621   5.187  0.8722  2.7994  1.0967
 7123SOL    HW233006   2.648   4.605   5.040 -1.4922 -0.6721  0.8323
 7124SOL     OW33007   4.020   4.678   1.878 -0.3479  0.6265 -0.4136
 7124SOL    HW133008   4.058   4.617   1.941  1.7652  0.6087 -1.7216
 7124SOL    HW233009   4.098   4.721   1.843 -1.8408  1.5223 -2.6230
 7125SOL     OW33010   0.279   2.891  13.438 -0.6284 -0.1271 -0.1354
 7125SOL    HW133011   0.357   2.936  13.405 -0.0663  0.4407  1.9037
 7125SOL    HW233012   0.307   2.802  13.420  2.6207  0.8377  0.0172
 7126SOL     OW33013   3.555   2.297   3.118 -0.2952 -0.0117  0.0944
 7126SOL    HW133014   3.493   2.258   3.180 -1.7748  0.6042 -0.9821
 7126SOL    HW233015   3.588   2.365   3.175 -0.7792  1.9559 -1.9470
 7127SOL     OW33016   0.046   0.613   1.480 -0.5270 -0.0808 -0.7073
 7127SOL    HW133017   0.135   0.581   1.495 -0.6940 -0.8329 -1.3155
 7127SOL    HW233018   0.008   0.534   1.441 -0.3330 -0.1433 -0.7726
 7128SOL     OW33019   0.477   3.442   2.132 -0.2091  0.6491 -0.2877
 7128SOL    HW133020   0.551   3.382   2.121 -0.9968 -0.3152 -0.2870
 7128SOL    HW233021   0.472   3.478   2.044 -2.3928 -0.9870 -0.8227
 7129SOL     OW33022   0.194   3.471   4.689  0.2075  0.0994  0.3529
 7129SOL    HW133023   0.244   3.502   4.614 -2.0573  0.6630 -0.9104
 7129SOL    HW233024   0.163   3.385   4.661  1.2345 -0.4899  1.0044
 7130SOL     OW33025   1.408   2.742  13.649 -0.6228  0.1057  0.2839
 7130SOL    HW133026   1.392   2.765  13.558  1.5851 -0.6619 -0.3012
 7130SOL    HW233027   1.479   2.798  13.681  0.7891 -1.3933 -0.2416
 7131SOL     OW33028   1.662   1.005   2.342 -0.1463  0.5714  0.0053
 7131SOL    HW133029   1.746   0.958   2.344 -0.4723  0.0754  1.8663
 7131SOL    HW233030   1.647   1.015   2.248 -1.2910 -0.9847  0.0172
 7132SOL     OW33031   1.372   0.433   8.737 -0.0394 -0.1561 -0.0957
 7132SOL    HW133032   1.313   0.501   8.707 -0.8779  0.0239  1.9741
 7132SOL    HW233033   1.368   0.365   8.670  1.6288  0.2143 -0.5757
 7133SOL     OW33034   0.621   1.021   7.116 -0.2065 -0.1549 -0.5468
 7133SOL    HW133035   0.620   1.005   7.022  1.1299  1.2651 -0.8008
 7133SOL    HW233036   0.710   1.002   7.144 -0.3398 -0.4119 -0.2973
 7134SOL     OW33037   4.718   0.719   6.743  0.2559  0.1258  0.0184
 7134SOL    HW133038   0.034   0.748   6.674  1.2518 -1.8489  0.0438
 7134SOL    HW233039   4.741   0.626   6.739  1.1089  0.4138 -1.6749
 7135SOL     OW33040   3.878   3.293   9.168  0.1721  0.4483 -0.2631
 7135SOL    HW133041   3.801   3.242   9.143  0.1323  1.0342 -1.3166
 7135SOL    HW233042   3.874   3.361   9.101  2.5662 -0.6152 -1.4892
 7136SOL     OW33043   1.867   2.142  10.278  0.1229  0.1156 -0.2883
 7136SOL    HW133044   1.916   2.195  10.341  0.3251 -0.0931 -0.2659
 7136SOL    HW233045   1.921   2.067  10.249 -0.2774  0.1254 -1.0436
 7137SOL     OW33046   3.082   4.068   3.660 -0.0194  0.5137 -1.2362
 7137SOL    HW133047   3.019   4.014   3.708  1.9631 -1.3253 -0.6591
 7137SOL    HW233048   3.131   4.013   3.598  0.2203 -0.0206 -0.5642
 7138SOL     OW33049   1.045   4.022   8.673  0.3456  0.3652 -0.0361
 7138SOL    HW133050   0.971   3.963   8.660  2.0724 -1.1653 -2.7044
 7138SOL    HW233051   1.096   3.964   8.729  1.7937  0.7421 -0.9767
 7139SOL     OW33052   3.243   0.568   1.206  0.2834  0.1592  0.4038
 7139SOL    HW133053   3.189   0.572   1.128  0.2785 -1.2936  0.3215
 7139SOL    HW233054   3.271   0.476   1.205 -0.3912 -0.0483  0.7129
 7140SOL     OW33055   2.183   1.451   9.063 -0.3340 -0.4615 -0.0436
 7140SOL    HW133056   2.134   1.514   9.011  0.0991 -0.7276 -0.7783
 7140SOL    HW233057   2.104   1.407   9.096 -0.7995 -1.4679 -2.4371
 7141SOL     OW33058   0.227   0.614   3.867 -0.1940  0.2459 -0.0795
 7141SOL    HW133059   0.166   0.683   3.892  0.3888 -0.3121  2.9294
 7141SOL    HW233060   0.185   0.578   3.789 -0.3892  0.6354 -0.1555
 7142SOL     OW33061   4.171   3.988   8.840 -0.3133 -0.1009  0.1863
 7142SOL    HW133062   4.230   4.025   8.906 -0.5345  1.1990 -0.3434
 7142SOL    HW233063   4.137   4.074   8.815  0.8339  0.0682 -0.7743
 7143SOL     OW33064   3.877   4.227   9.331  0.0602 -0.4678  0.2722
 7143SOL    HW133065   3.827   4.159   9.376 -0.0579 -0.8569 -0.4396
 7143SOL    HW233066   3.895   4.281   9.408  1.3798  0.1088 -0.4373
 7144SOL     OW33067   1.304   1.310   3.232  0.1248 -0.1654 -0.4159
 7144SOL    HW133068   1.318   1.400   3.263  2.1088 -0.5501 -0.1735
 7144SOL    HW233069   1.395   1.287   3.212  0.3849 -0.7661  1.4583
 7145SOL     OW33070   3.882   4.276   4.203 -0.5220  0.3569 -0.2028
 7145SOL    HW133071   3.852   4.328   4.128  0.1964  0.6875 -0.2566
 7145SOL    HW233072   3.902   4.341   4.271 -0.0846 -0.9405  0.9122
 7146SOL     OW33073   3.133   2.689  14.180  0.7782 -0.0864  0.3602
 7146SOL    HW133074   3.067   2.759  14.171  1.1106 -0.2203 -3.1051
 7146SOL    HW233075   3.188   2.729  14.247  1.3713 -1.1925  0.5236
 7147SOL     OW33076   0.969   4.146  14.892 -0.6367 -0.2778 -0.0381
 7147SOL    HW133077   1.015   4.220  14.932 -1.1677  0.2580 -0.4123
 7147SOL    HW233078   1.009   4.136  14.806 -0.7233 -1.6654  0.0906
 7148SOL     OW33079   3.311   0.633  13.115  0.5472  0.4427 -0.1911
 7148SOL    HW133080   3.346   0.548  13.089 -2.9430 -2.0024  2.9844
 7148SOL    HW233081   3.358   0.684  13.049  1.6059  0.4287  0.5443
 7149SOL     OW33082   2.019   0.809  12.247  0.6251 -0.7992  0.3628
 7149SOL    HW133083   2.063   0.871  12.189  2.7512 -0.2976  2.5639
 7149SOL    HW233084   2.097   0.766  12.281 -0.4802 -2.2572  1.0479
 7150SOL     OW33085   4.577   2.746   2.070 -0.8510  0.1629 -0.0715
 7150SOL    HW133086   4.593   2.800   1.992  1.3071 -0.0800  0.2040
 7150SOL    HW233087   4.664   2.752   2.108 -0.8064 -1.4068  0.0477
 7151SOL     OW33088   3.093   3.118   3.564  0.3221  0.6412 -0.0251
 7151SOL    HW133089   3.178   3.158   3.546  0.8077 -0.7152 -0.6795
 7151SOL    HW233090   3.096   3.074   3.649  1.4850  1.7961  0.5404
 7152SOL     OW33091   1.452   4.559   7.116 -0.1526  0.7619  0.2115
 7152SOL    HW133092   1.513   4.518   7.054  0.9555  3.6767 -0.6325
 7152SOL    HW233093   1.408   4.483   7.155 -0.0225  1.1497  1.0956
 7153SOL     OW33094   0.638   0.831   5.092 -0.0498  0.0525 -0.2963
 7153SOL    HW133095   0.614   0.743   5.121 -1.4906  0.4688 -0.2158
 7153SOL    HW233096   0.723   0.801   5.061  0.4080  1.7861 -0.7490
 7154SOL     OW33097   0.034   2.488   8.826  0.4402  0.2006  0.3369
 7154SOL    HW133098   0.063   2.422   8.889 -1.4618  0.7719  1.8249
 7154SOL    HW233099   4.689   2.513   8.857  1.2198  1.4268  1.5776
 7155SOL     OW33100   1.276   0.273   1.267  0.3872 -0.4362  0.7490
 7155SOL    HW133101   1.259   0.314   1.182 -1.4263  0.1912  1.4337
 7155SOL    HW233102   1.274   0.355   1.317  3.3753  0.3124 -0.3022
 7156SOL     OW33103   4.349   0.176   2.786 -0.0965 -0.2523 -0.0252
 7156SOL    HW133104   4.295   0.234   2.839  0.7899  1.4086 -0.9703
 7156SOL    HW233105   4.301   0.143   2.710 -0.2393  1.2318 -0.5621
 7157SOL     OW33106   3.184   4.177   4.739  0.2746  0.4796  0.0108
 7157SOL    HW133107   3.268   4.137   4.760  0.2942 -1.1666 -3.2185
 7157SOL    HW233108   3.212   4.235   4.668  0.2986  3.5478  2.5098
 7158SOL     OW33109   1.757   0.253   2.946 -0.0255 -0.0707  0.0191
 7158SOL    HW133110   1.839   0.231   2.902  1.4027  0.7943  2.2622
 7158SOL    HW233111   1.705   0.266   2.867 -0.6005 -1.5613  0.1423
 7159SOL     OW33112   3.705   1.293  15.021 -0.6173  0.3512 -0.3631
 7159SOL    HW133113   3.680   1.365  15.078  0.3315  0.4080 -0.0224
 7159SOL    HW233114   3.647   1.225  15.058 -0.0231  0.2091  0.3065
 7160SOL     OW33115   0.394   2.672  14.784 -0.2043  0.6044 -0.4387
 7160SOL    HW133116   0.415   2.616  14.858 -0.8869  0.7301 -0.1416
 7160SOL    HW233117   0.453   2.747  14.796 -1.3511  1.4348  0.0505
 7161SOL     OW33118   3.580   2.636   5.820  0.0783 -0.1340  0.5913
 7161SOL    HW133119   3.527   2.564   5.856  0.7658 -0.4227  1.0217
 7161SOL    HW233120   3.540   2.710   5.865  0.8171  2.9649 -3.8357
 7162SOL     OW33121   1.855   3.739   3.718 -0.1559  0.1133  0.0883
 7162SOL    HW133122   1.899   3.823   3.734  0.9131 -0.6166  0.9172
 7162SOL    HW233123   1.771   3.768   3.681  0.9791 -0.7851 -3.2329
 7163SOL     OW33124   1.552   3.568   3.623 -0.2108  0.3191 -0.2654
 7163SOL    HW133125   1.606   3.533   3.552 -1.1859 -1.1751 -0.2718
 7163SOL    HW233126   1.467   3.561   3.580  0.0182 -0.1472 -0.6410
 7164SOL     OW33127   2.206   1.037   4.886  0.0594 -0.4016  0.0076
 7164SOL    HW133128   2.166   1.124   4.895  0.0278 -0.3979 -0.1796
 7164SOL    HW233129   2.171   0.991   4.962 -1.2602 -0.9103 -0.9189
 7165SOL     OW33130   4.318   3.166   7.579  0.1901 -0.2833  0.0833
 7165SOL    HW133131   4.365   3.207   7.506  0.7452 -0.0243  0.5822
 7165SOL    HW233132   4.227   3.156   7.551  0.4685 -1.5081 -0.3702
 7166SOL     OW33133   4.637   3.764   2.139 -0.0425 -0.6403 -0.3941
 7166SOL    HW133134   4.673   3.851   2.154  0.8817 -1.7654  3.7054
 7166SOL    HW233135   4.619   3.743   2.230  1.1717  0.9356  0.2104
 7167SOL     OW33136   0.854   3.710   7.942 -0.0252  0.0328 -0.2724
 7167SOL    HW133137   0.761   3.718   7.922 -0.6410 -1.0750  2.0912
 7167SOL    HW233138   0.877   3.617   7.940 -1.5279 -0.2956 -2.8167
 7168SOL     OW33139   3.699   1.784  16.680 -0.3839  0.5162  1.0705
 7168SOL    HW133140   3.785   1.763  16.642 -0.3835 -0.4962  1.6328
 7168SOL    HW233141   3.729   1.835  16.755 -0.2121  0.2229  1.2018
 7169SOL     OW33142   4.179   1.617  16.506  0.1942  0.1399 -0.2630
 7169SOL    HW133143   4.156   1.526  16.525  0.8564  0.4489  1.9558
 7169SOL    HW233144   4.265   1.625  16.547 -1.1326  1.6810  2.2089
 7170SOL     OW33145   1.760   3.937  15.278 -0.6743 -0.2805 -0.4026
 7170SOL    HW133146   1.796   3.872  15.338  1.2690 -0.4288 -1.7099
 7170SOL    HW233147   1.802   3.912  15.196 -0.4123  1.2888 -0.7470
 7171SOL     OW33148   4.029   3.146   8.157  0.1648  0.2121 -0.2075
 7171SOL    HW133149   4.083   3.076   8.192  1.1301  0.9746 -0.1747
 7171SOL    HW233150   4.076   3.161   8.075  2.5765  0.6554  1.2763
 7172SOL     OW33151   4.733   2.967   6.755  0.4340  0.3345  0.0737
 7172SOL    HW133152   0.003   3.056   6.720 -1.1388 -0.1079 -1.5939
 7172SOL    HW233153   4.638   2.975   6.753  0.3797 -0.1061  1.0167
 7173SOL     OW33154   2.544   1.198   9.971 -0.3881 -0.0594  0.1743
 7173SOL    HW133155   2.449   1.202   9.974 -0.4479 -0.8693 -0.6050
 7173SOL    HW233156   2.557   1.206   9.877  1.4649 -2.0845  0.2716
 7174SOL     OW33157   3.226   0.320  11.570  0.2226  0.6787 -0.5433
 7174SOL    HW133158   3.211   0.231  11.603  1.2688  0.3018 -1.1077
 7174SOL    HW233159   3.140   0.330  11.528 -0.8020  0.4163  1.4455
 7175SOL     OW33160   4.224   2.328   7.774 -0.4221 -0.0469 -0.6845
 7175SOL    HW133161   4.196   2.254   7.720 -1.2673 -0.0092 -0.2902
 7175SOL    HW233162   4.227   2.283   7.859  2.1445  0.7004 -0.3827
 7176SOL     OW33163   2.369   2.173   7.449 -0.1690  0.1024 -0.1079
 7176SOL    HW133164   2.325   2.091   7.429 -0.2209 -0.1466  1.0107
 7176SOL    HW233165   2.456   2.155   7.413 -1.0157 -1.8475 -1.1708
 7177SOL     OW33166   4.100   0.435   1.397  0.0938  0.2898 -0.0812
 7177SOL    HW133167   4.011   0.451   1.427 -0.1477 -1.3184  0.0506
 7177SOL    HW233168   4.127   0.386   1.474 -1.2888 -0.6189 -0.1791
 7178SOL     OW33169   0.297   1.955   1.507  0.1602 -0.2870 -0.1054
 7178SOL    HW133170   0.214   1.907   1.507 -0.9852  1.6650 -1.5430
 7178SOL    HW233171   0.364   1.887   1.498 -0.2759 -0.7356 -0.0012
 7179SOL     OW33172   0.773   0.517  11.509  0.2970 -0.2625  0.3414
 7179SOL    HW133173   0.852   0.536  11.560  1.6421  2.2355 -2.7096
 7179SOL    HW233174   0.712   0.576  11.554 -0.9453 -2.6557  1.8058
 7180SOL     OW33175   4.097   0.436   4.736  0.0692 -0.7102 -0.1832
 7180SOL    HW133176   4.037   0.450   4.810 -0.3090  0.3666 -0.6880
 7180SOL    HW233177   4.145   0.519   4.740 -0.3817 -0.4114 -0.9103
 7181SOL     OW33178   2.206   3.796   7.384  0.7651 -0.2705  0.2170
 7181SOL    HW133179   2.129   3.747   7.414  0.4301  0.5658  0.7140
 7181SOL    HW233180   2.277   3.755   7.432  1.1225  0.7082  0.5209
 7182SOL     OW33181   3.812   0.526   2.987  0.1549 -0.1994 -0.0469
 7182SOL    HW133182   3.851   0.604   2.946 -0.9254 -0.4371 -1.5210
 7182SOL    HW233183   3.721   0.554   2.990  1.1022  2.9518 -0.4470
 7183SOL     OW33184   0.907   2.601   8.401 -0.0412  0.6118 -0.4994
 7183SOL    HW133185   0.880   2.509   8.408  2.4759 -0.2033 -1.2014
 7183SOL    HW233186   0.838   2.646   8.353  0.1915  2.8693  1.3084
 7184SOL     OW33187   1.829   3.285   3.258  0.2024  1.0058  0.7196
 7184SOL    HW133188   1.889   3.211   3.268 -0.9205  0.1308  0.9504
 7184SOL    HW233189   1.773   3.253   3.188  0.5355  1.4710  0.2416
 7185SOL     OW33190   0.375   2.817   5.545  0.1882 -0.5241  0.2773
 7185SOL    HW133191   0.436   2.796   5.474 -0.3944 -0.6605 -0.1778
 7185SOL    HW233192   0.387   2.745   5.607  3.9369  0.6888  0.9857
 7186SOL     OW33193   2.371   1.432  10.613  0.2378  0.2337 -0.0614
 7186SOL    HW133194   2.338   1.500  10.672  1.6051  2.9349 -2.4290
 7186SOL    HW233195   2.330   1.362  10.665 -2.2237  1.7466  0.0057
 7187SOL     OW33196   3.158   1.022  10.629  0.0129  0.2941  0.2497
 7187SOL    HW133197   3.096   0.957  10.664  0.0896  0.6430  1.0266
 7187SOL    HW233198   3.212   0.970  10.570  0.2930  1.1461 -0.2344
 7188SOL     OW33199   1.637   2.935  13.692  0.3388  0.0187 -0.7358
 7188SOL    HW133200   1.662   2.871  13.758 -0.2961  1.5702  0.9896
 7188SOL    HW233201   1.595   3.009  13.736 -0.7556 -0.5015 -0.8874
 7189SOL     OW33202   3.778   2.420   7.728  0.0428 -0.4965  0.0465
 7189SOL    HW133203   3.803   2.329   7.743  3.5053  0.0546 -2.4984
 7189SOL    HW233204   3.769   2.422   7.633 -2.1836 -1.9557  0.2354
 7190SOL     OW33205   1.591   4.606   3.837  0.2364  0.1638  0.6605
 7190SOL    HW133206   1.639   4.609   3.919 -0.5417 -2.9479  1.2462
 7190SOL    HW233207   1.551   4.692   3.842  1.0352  0.5817 -0.2012
 7191SOL     OW33208   4.377   2.990   3.325 -0.8702  0.3947 -0.1221
 7191SOL    HW133209   4.343   2.989   3.236 -2.0415 -1.6973  0.3436
 7191SOL    HW233210   4.472   3.004   3.319 -0.7718 -0.9096 -1.5413
 7192SOL     OW33211   1.868   2.633   4.318 -0.0988 -0.2214 -0.4353
 7192SOL    HW133212   1.895   2.662   4.232  0.3084  0.6602 -0.0097
 7192SOL    HW233213   1.799   2.572   4.296  0.6642 -0.7982 -1.2270
 7193SOL     OW33214   0.522   3.293   6.329  0.1963  0.0009  0.1962
 7193SOL    HW133215   0.480   3.208   6.345 -1.0258  0.5203 -0.2451
 7193SOL    HW233216   0.609   3.275   6.364  0.0775  2.5376  1.7749
 7194SOL     OW33217   3.386   4.559   3.178  0.2454 -0.6077 -0.4753
 7194SOL    HW133218   3.317   4.596   3.233 -1.6058  0.0815 -3.2331
 7194SOL    HW233219   3.343   4.553   3.093  0.8546 -1.2955 -0.7338
 7195SOL     OW33220   3.813   1.152   1.199 -0.2070  0.0645  0.1678
 7195SOL    HW133221   3.787   1.132   1.109 -0.3500  1.4192 -0.0807
 7195SOL    HW233222   3.903   1.178   1.182  0.4157 -2.5903 -0.6808
 7196SOL     OW33223   3.257   2.386  10.350  0.2407  0.0309  0.6734
 7196SOL    HW133224   3.315   2.347  10.284 -1.0571 -1.8213  0.6036
 7196SOL    HW233225   3.261   2.477  10.321 -1.5825 -0.1943 -0.2948
 7197SOL     OW33226   2.194   1.737  16.593  0.2351 -0.2252  0.0872
 7197SOL    HW133227   2.103   1.729  16.565  0.2569 -1.4992  0.4112
 7197SOL    HW233228   2.180   1.803  16.662  0.0095 -2.1797  1.8986
 7198SOL     OW33229   1.189   0.058   2.099 -0.1955  0.5917 -0.4030
 7198SOL    HW133230   1.207   4.709   2.116 -0.1407  0.5487 -0.6984
 7198SOL    HW233231   1.218   0.052   2.008  0.9188 -1.3804  0.0996
 7199SOL     OW33232   4.432   1.245  10.877 -0.4281 -0.0578 -0.2392
 7199SOL    HW133233   4.340   1.264  10.858 -0.5491  0.9028  1.2611
 7199SOL    HW233234   4.426   1.191  10.956  0.5186  0.9412  0.5236
 7200SOL     OW33235   3.843   3.628  12.460 -0.1787 -0.2382 -0.1050
 7200SOL    HW133236   3.847   3.559  12.393  0.9132 -1.4263  1.1825
 7200SOL    HW233237   3.770   3.601  12.517 -1.7501  2.4101 -0.8746
 7201SOL     OW33238   4.674   4.441   8.433 -0.4955  0.2801 -0.0116
 7201SOL    HW133239   4.599   4.449   8.374 -0.1208  1.0221 -0.3848
 7201SOL    HW233240   4.666   4.512   8.497 -0.3509  1.3555 -1.1872
 7202SOL     OW33241   0.267   2.635  17.592  0.4400 -0.3031  0.0893
 7202SOL    HW133242   0.318   2.633  17.673  0.4206  1.1894  0.1342
 7202SOL    HW233243   0.184   2.610  17.634  0.0110  1.1465  0.0988
 7203SOL     OW33244   0.828   2.198   9.043 -0.5449 -0.7425  0.1468
 7203SOL    HW133245   0.903   2.174   8.989 -1.6174 -1.2304 -1.1079
 7203SOL    HW233246   0.764   2.221   8.976 -1.2819 -0.6830  0.8694
 7204SOL     OW33247   3.073   2.224  16.933  0.1365 -0.2395  0.6460
 7204SOL    HW133248   3.080   2.135  16.967  1.4726  0.1192  1.3113
 7204SOL    HW233249   3.135   2.282  16.977  0.2154 -0.3051  0.6207
 7205SOL     OW33250   2.834   2.624   9.546 -0.5007 -0.0526  0.1346
 7205SOL    HW133251   2.916   2.663   9.575 -0.3094  0.7496 -1.4669
 7205SOL    HW233252   2.776   2.698   9.527 -1.4159  0.1861  3.8425
 7206SOL     OW33253   1.395   1.059  14.346 -0.1059 -0.2370 -0.0582
 7206SOL    HW133254   1.414   1.057  14.439 -0.7196  1.3160  0.1020
 7206SOL    HW233255   1.333   0.987  14.351 -0.5273  0.0424 -1.2166
 7207SOL     OW33256   3.254   4.378   5.258 -0.2439  0.1518 -0.2845
 7207SOL    HW133257   3.160   4.393   5.246 -0.6285 -0.5656  1.8604
 7207SOL    HW233258   3.246   4.334   5.342  2.6533 -1.9733 -1.1478
 7208SOL     OW33259   1.796   2.920   2.051  0.4723  0.7161 -0.1147
 7208SOL    HW133260   1.816   2.930   2.144  0.9660 -0.6462 -0.0650
 7208SOL    HW233261   1.878   2.881   2.021 -0.9530 -1.7788 -0.7272
 7209SOL     OW33262   1.380   1.680   7.658 -0.4916 -0.7166  0.1968
 7209SOL    HW133263   1.328   1.620   7.712 -1.5113 -1.1457 -1.2408
 7209SOL    HW233264   1.318   1.753   7.649 -1.5173 -1.9442 -2.6517
 7210SOL     OW33265   1.963   2.794   7.226  0.0567 -0.1930  0.0917
 7210SOL    HW133266   1.886   2.736   7.221  0.1327 -0.2959  0.1096
 7210SOL    HW233267   2.024   2.760   7.161  1.0334 -0.1367  0.9887
 7211SOL     OW33268   2.507   3.117   6.145  0.5680 -0.3549  0.1020
 7211SOL    HW133269   2.542   3.104   6.233  2.7600 -0.7022 -0.8085
 7211SOL    HW233270   2.509   3.023   6.123  1.5307 -0.1709 -0.5962
 7212SOL     OW33271   1.007   4.409   2.610 -0.2716  0.0425 -0.2604
 7212SOL    HW133272   0.968   4.323   2.626 -1.0613  0.3313 -0.5795
 7212SOL    HW233273   0.960   4.474   2.662 -2.5256 -2.2071  0.4974
 7213SOL     OW33274   0.741   3.407  14.572  0.2594 -0.6505  0.6026
 7213SOL    HW133275   0.803   3.459  14.624  1.3187 -0.1952 -1.0862
 7213SOL    HW233276   0.679   3.477  14.550  1.6721  0.7130  0.9439
 7214SOL     OW33277   0.223   0.018  14.111  0.1210  0.2672  0.4248
 7214SOL    HW133278   0.262   0.066  14.038 -0.1707 -0.2346 -0.0632
 7214SOL    HW233279   0.301   4.722  14.151 -0.7058  0.5303  2.2463
 7215SOL     OW33280   0.820   3.249   0.364  0.5608 -0.3985  0.1347
 7215SOL    HW133281   0.769   3.330   0.358  2.8977  1.0125 -0.9920
 7215SOL    HW233282   0.865   3.244   0.280 -0.9033 -2.2386 -0.5121
 7216SOL     OW33283   1.471   2.181   8.884 -0.3339  0.3915  0.2845
 7216SOL    HW133284   1.535   2.114   8.856 -1.4946 -0.8844  0.6834
 7216SOL    HW233285   1.496   2.191   8.976 -1.9354  3.6565  0.3365
 7217SOL     OW33286   1.142   1.002   3.442 -0.3207  0.0372  0.3687
 7217SOL    HW133287   1.180   1.021   3.356 -0.4548  0.3199  0.3684
 7217SOL    HW233288   1.120   0.909   3.448 -0.9488  0.2867  1.9998
 7218SOL     OW33289   1.204   3.784   6.515  0.0970 -1.2155  0.3940
 7218SOL    HW133290   1.161   3.845   6.576  1.0466 -1.4375  1.2661
 7218SOL    HW233291   1.154   3.706   6.537 -0.6296 -0.2023  2.3188
 7219SOL     OW33292   4.555   1.112   4.856 -0.4372 -0.5792 -0.1855
 7219SOL    HW133293   4.544   1.126   4.762 -1.3725  0.3538  0.0603
 7219SOL    HW233294   4.524   1.196   4.891 -1.2849 -0.0840 -2.1639
 7220SOL     OW33295   2.333   4.353   5.165 -0.6068  0.3933 -0.0341
 7220SOL    HW133296   2.399   4.362   5.234 -0.4515 -0.9943 -0.0022
 7220SOL    HW233297   2.320   4.447   5.152  0.9957  0.4778 -1.0539
 7221SOL     OW33298   2.240   2.730   0.464 -0.7385 -0.2215 -1.1109
 7221SOL    HW133299   2.217   2.793   0.532 -0.1798  0.4970 -1.5917
 7221SOL    HW233300   2.164   2.671   0.458 -1.4991  0.5694  0.9007
 7222SOL     OW33301   0.312   0.309   5.462 -0.6508  0.3428  0.0306
 7222SOL    HW133302   0.328   0.285   5.553  1.8698  0.8991 -0.2379
 7222SOL    HW233303   0.322   0.404   5.466  0.4946  0.2929 -1.3399
 7223SOL     OW33304   3.504   3.644   5.630  0.4808  0.3143 -0.4108
 7223SOL    HW133305   3.513   3.560   5.676 -2.7569 -0.0151 -0.4006
 7223SOL    HW233306   3.595   3.651   5.599  0.8683 -1.3526  0.3379
 7224SOL     OW33307   3.015   3.324   2.331 -0.1065  0.0260  0.3009
 7224SOL    HW133308   2.977   3.248   2.375 -1.2582 -0.6369 -1.8150
 7224SOL    HW233309   3.086   3.281   2.283  0.0358  1.4486 -0.7708
 7225SOL     OW33310   2.002   1.638   2.878  0.1848  0.1494  0.0771
 7225SOL    HW133311   1.958   1.598   2.803  0.5903 -0.9873  0.4297
 7225SOL    HW233312   2.006   1.728   2.847 -0.3234 -0.7726 -2.6619
 7226SOL     OW33313   3.737   0.554   3.959 -0.9517 -0.1032 -0.1427
 7226SOL    HW133314   3.795   0.491   4.002  0.1690  0.8478 -0.2821
 7226SOL    HW233315   3.665   0.500   3.925  0.2797 -2.6253  1.2988
 7227SOL     OW33316   2.053   1.816  11.056  0.0743  0.3992 -0.0584
 7227SOL    HW133317   2.107   1.756  11.005 -1.7357 -0.9092 -0.4474
 7227SOL    HW233318   2.027   1.764  11.132 -2.0840 -0.1629 -1.1627
 7228SOL     OW33319   4.472   3.615   3.770 -0.2751 -0.0618  0.2463
 7228SOL    HW133320   4.486   3.698   3.723 -0.7426  0.9925  1.9471
 7228SOL    HW233321   4.528   3.555   3.721  1.7569  1.4017  0.7557
 7229SOL     OW33322   3.522   1.377   9.125  0.2040 -0.0043 -0.4547
 7229SOL    HW133323   3.507   1.469   9.146 -2.0378 -0.4642 -0.0584
 7229SOL    HW233324   3.569   1.380   9.042 -0.6730  1.7152 -0.8848
 7230SOL     OW33325   2.079   0.611   7.440 -0.0329 -0.4131 -0.4017
 7230SOL    HW133326   2.092   0.541   7.376  0.4223 -0.7416  0.0450
 7230SOL    HW233327   2.028   0.565   7.506 -1.7415  1.0582 -0.7220
 7231SOL     OW33328   0.222   3.012  11.074  0.3966  0.0061 -0.0262
 7231SOL    HW133329   0.262   2.925  11.076  2.1392  0.7840 -0.7435
 7231SOL    HW233330   0.297   3.071  11.070 -0.2175  0.8691  1.6565
 7232SOL     OW33331   2.246   1.229   1.257  0.8083 -0.0529  0.4712
 7232SOL    HW133332   2.241   1.323   1.273 -1.7481 -0.5532  2.5915
 7232SOL    HW233333   2.170   1.204   1.308  0.9518 -0.2923  0.5669
 7233SOL     OW33334   4.030   4.211   3.856  0.0707  0.7141  0.0668
 7233SOL    HW133335   4.084   4.219   3.935  1.9737  1.0327 -1.2419
 7233SOL    HW233336   4.001   4.301   3.844  0.1440  0.8520  0.8978
 7234SOL     OW33337   2.043   3.630  16.665 -0.2343 -0.6608 -0.2624
 7234SOL    HW133338   2.124   3.680  16.661 -0.7510  0.1113 -0.9628
 7234SOL    HW233339   1.980   3.700  16.648 -2.4792 -1.7507  3.3930
 7235SOL     OW33340   1.584   4.061  16.280 -0.1854  0.0168 -0.2831
 7235SOL    HW133341   1.602   4.125  16.349 -0.0944 -0.5877  0.2602
 7235SOL    HW233342   1.530   4.000  16.331  0.2016  0.2141  0.3599
 7236SOL     OW33343   0.656   2.045   5.413  0.7598  0.2222 -0.1058
 7236SOL    HW133344   0.676   1.953   5.429  0.3503  0.5144  2.0540
 7236SOL    HW233345   0.648   2.070   5.505 -0.3047  0.9746 -0.4011
 7237SOL     OW33346   1.446   4.644  13.116  0.0459  0.2865 -0.4189
 7237SOL    HW133347   1.428   4.682  13.202 -0.6169  1.0461 -0.8886
 7237SOL    HW233348   1.415   4.554  13.128 -0.1625  0.3935 -0.1517
 7238SOL     OW33349   3.328   2.263   0.440  0.0799 -0.0563 -0.0455
 7238SOL    HW133350   3.341   2.254   0.345  1.5421 -0.1581  0.1700
 7238SOL    HW233351   3.402   2.320   0.457  0.2406 -0.3504  0.2372
 7239SOL     OW33352   4.340   1.338   9.375  0.2746  0.0941  0.1939
 7239SOL    HW133353   4.367   1.298   9.293 -1.8525 -0.4038 -0.2572
 7239SOL    HW233354   4.373   1.428   9.372 -0.4763  0.4013  0.9790
 7240SOL     OW33355   0.149   0.307   6.299  0.4167 -0.0348  0.1646
 7240SOL    HW133356   0.118   0.397   6.288  2.1501  0.3363 -1.5698
 7240SOL    HW233357   0.235   0.314   6.340  0.5475  0.9546 -0.2805
 7241SOL     OW33358   1.322   4.171  15.383 -0.4782  0.2061 -0.1312
 7241SOL    HW133359   1.389   4.231  15.415 -2.0915  1.8170  0.2461
 7241SOL    HW233360   1.307   4.106  15.452 -1.7808  0.1406 -0.4782
 7242SOL     OW33361   0.232   3.133   2.539 -0.1846 -0.7901  0.0998
 7242SOL    HW133362   0.168   3.085   2.592  1.1007 -0.5299  1.8557
 7242SOL    HW233363   0.189   3.215   2.516  1.3577  0.6340  2.3968
 7243SOL     OW33364   0.401   2.642   1.897  0.0884  0.8016 -0.4414
 7243SOL    HW133365   0.419   2.603   1.811  0.8824 -0.2432  0.1950
 7243SOL    HW233366   0.324   2.696   1.879 -0.7348 -0.2134  0.0548
 7244SOL     OW33367   4.183   3.684   9.209  0.5570  0.0706 -0.1339
 7244SOL    HW133368   4.114   3.744   9.236 -0.3842 -1.4517  0.8797
 7244SOL    HW233369   4.143   3.601   9.235 -0.5396  1.6564  3.1557
 7245SOL     OW33370   0.217   3.766  16.735 -0.1303 -0.5116 -0.1340
 7245SOL    HW133371   0.206   3.726  16.649  0.2914 -2.1556  0.5639
 7245SOL    HW233372   0.244   3.687  16.782  1.8132  0.3499  0.1907
 7246SOL     OW33373   1.461   3.035   6.017  0.4304  0.4686 -0.1415
 7246SOL    HW133374   1.455   3.129   6.036 -1.2441  0.5194 -0.9333
 7246SOL    HW233375   1.407   3.032   5.938  1.1820 -2.2847 -0.5567
 7247SOL     OW33376   0.767   3.496   1.762  0.1277 -0.4032 -0.0456
 7247SOL    HW133377   0.805   3.486   1.675 -0.2172  0.7495 -0.3234
 7247SOL    HW233378   0.692   3.437   1.756  1.4436 -1.9084 -1.6983
 7248SOL     OW33379   3.066   3.077   7.051  0.4946  0.0774  0.1549
 7248SOL    HW133380   3.096   3.012   6.987  2.7947  1.6323 -0.3399
 7248SOL    HW233381   3.032   3.140   6.988  0.9436 -0.1512 -0.3175
 7249SOL     OW33382   1.944   3.733   7.859 -0.8405 -0.2232 -0.0307
 7249SOL    HW133383   1.983   3.712   7.944  1.8075  1.5836 -0.8151
 7249SOL    HW233384   1.960   3.657   7.803 -0.7436 -0.3022  0.1041
 7250SOL     OW33385   2.178   2.671  13.370 -0.6600 -0.0268 -0.1552
 7250SOL    HW133386   2.243   2.660  13.439 -3.2870  0.9904  2.5110
 7250SOL    HW233387   2.141   2.583  13.382 -2.0722  0.8275  1.7246
 7251SOL     OW33388   0.907   1.035   0.986 -0.1428 -0.1258 -0.1082
 7251SOL    HW133389   0.842   1.020   1.055  0.5990 -0.0979  0.5946
 7251SOL    HW233390   0.934   1.126   0.999 -0.5131  0.3093 -2.4618
 7252SOL     OW33391   3.810   4.332   3.395  0.2178 -0.3281 -0.0727
 7252SOL    HW133392   3.821   4.287   3.312  2.2841  3.9906 -2.0991
 7252SOL    HW233393   3.901   4.336   3.424  0.5561 -2.2050 -0.9023
 7253SOL     OW33394   3.971   0.395   7.699  0.1913 -0.9922  0.5497
 7253SOL    HW133395   3.898   0.365   7.752  1.0475 -3.6511  0.2383
 7253SOL    HW233396   3.935   0.480   7.676 -2.0977 -2.1653 -0.2127
 7254SOL     OW33397   4.671   1.040  11.866 -0.1443 -0.1246  0.5608
 7254SOL    HW133398   4.614   1.093  11.922 -1.0155 -0.0025 -0.4531
 7254SOL    HW233399   4.601   1.010  11.808 -1.8347 -2.1999  3.6862
 7255SOL     OW33400   0.390   4.159   0.572  0.8366  0.2810 -0.4337
 7255SOL    HW133401   0.415   4.132   0.660 -0.1270  1.1617  0.1134
 7255SOL    HW233402   0.465   4.151   0.513  1.6846  0.8980  0.5638
 7256SOL     OW33403   2.038   0.641  14.103  0.1066  0.1138  0.4887
 7256SOL    HW133404   1.948   0.654  14.133 -1.3712 -2.1511 -2.9001
 7256SOL    HW233405   2.079   0.699  14.167 -1.2420  0.2904  1.1918
 7257SOL     OW33406   4.022   0.662   5.311 -0.0173 -0.0108  0.0675
 7257SOL    HW133407   3.980   0.660   5.226 -1.6591  2.8538  0.8242
 7257SOL    HW233408   4.114   0.652   5.287  0.0828 -0.0968  0.4852
 7258SOL     OW33409   4.346   4.221   9.319 -0.5931  0.0557 -0.0542
 7258SOL    HW133410   4.364   4.251   9.229  1.1304  0.1013  0.3124
 7258SOL    HW233411   4.346   4.128   9.298 -1.2585 -0.4241  2.0853
 7259SOL     OW33412   3.134   3.961   0.318  0.0072  0.0702  0.1553
 7259SOL    HW133413   3.072   4.032   0.333  0.7984  0.9336 -0.6729
 7259SOL    HW233414   3.183   4.007   0.250 -1.7059 -0.0834 -1.1936
 7260SOL     OW33415   2.875   0.014   5.386 -0.2809 -0.2777  0.0723
 7260SOL    HW133416   2.792   0.060   5.380  0.4205  0.6345 -2.4670
 7260SOL    HW233417   2.863   4.689   5.453 -0.8803 -1.8658 -1.6397
 7261SOL     OW33418   4.728   4.340   5.640 -0.3258  0.9676 -0.5135
 7261SOL    HW133419   4.710   4.279   5.568  1.7343 -0.1832 -0.0698
 7261SOL    HW233420   0.054   4.299   5.693 -0.7158  1.1997  0.1713
 7262SOL     OW33421   2.375   4.114   0.758  0.2538  0.3682  0.1541
 7262SOL    HW133422   2.334   4.141   0.841  0.1668  1.8575 -0.3800
 7262SOL    HW233423   2.340   4.025   0.745  1.3352 -0.0952  0.4222
 7263SOL     OW33424   0.725   0.917   7.844 -0.0441 -0.0126 -0.3777
 7263SOL    HW133425   0.717   0.854   7.773 -1.2646 -0.2802 -0.0015
 7263SOL    HW233426   0.812   0.893   7.876  0.4340  1.3258 -0.6460
 7264SOL     OW33427   3.474   0.496   5.909 -0.1156  0.3225  0.1779
 7264SOL    HW133428   3.519   0.456   5.983 -0.5277 -0.5030 -0.0129
 7264SOL    HW233429   3.441   0.578   5.946 -0.9916  0.3977 -0.7610
 7265SOL     OW33430   4.370   3.148   2.409  1.3324  0.1031 -0.2029
 7265SOL    HW133431   4.451   3.178   2.370  2.3017 -0.1815  1.5847
 7265SOL    HW233432   4.324   3.110   2.334  0.3884 -0.8268  0.8401
 7266SOL     OW33433   1.379   4.488   4.555  0.5036  0.4781 -0.0494
 7266SOL    HW133434   1.399   4.408   4.604  1.4377 -0.9336 -2.7621
 7266SOL    HW233435   1.336   4.537   4.625 -1.6429  1.0898 -1.7955
 7267SOL     OW33436   2.442   2.337   0.914  0.2840 -0.0580  0.2642
 7267SOL    HW133437   2.488   2.350   0.831  1.3690  0.7659  0.9981
 7267SOL    HW233438   2.420   2.427   0.938 -0.3370 -0.1903  0.1932
 7268SOL     OW33439   2.521   2.532   1.161 -0.6708 -0.2092  0.1492
 7268SOL    HW133440   2.488   2.586   1.090 -1.0938 -0.2021  0.3494
 7268SOL    HW233441   2.603   2.502   1.122 -0.9315 -1.6019  0.6723
 7269SOL     OW33442   0.403   4.018   6.389  0.6995 -0.2728 -0.3860
 7269SOL    HW133443   0.462   3.942   6.385  0.5346 -0.5545  2.2924
 7269SOL    HW233444   0.465   4.089   6.376 -0.2103  1.0757  2.5307
 7270SOL     OW33445   4.524   3.772   2.397  0.1493  0.0873 -0.2045
 7270SOL    HW133446   4.566   3.705   2.452  1.0612  0.4922 -0.4101
 7270SOL    HW233447   4.564   3.848   2.439  0.0976 -0.3178  0.5735
 7271SOL     OW33448   0.823   0.870   8.996  0.0170  0.1427 -0.4636
 7271SOL    HW133449   0.755   0.926   9.033  0.0859 -0.2723  0.2858
 7271SOL    HW233450   0.769   0.797   8.967  0.4236 -0.5005  0.3974
 7272SOL     OW33451   4.448   1.339   1.998  0.1392 -0.1979 -0.3757
 7272SOL    HW133452   4.453   1.266   2.059 -1.7874 -0.2071 -0.2217
 7272SOL    HW233453   4.362   1.375   2.019  0.7956  1.3873 -0.3687
 7273SOL     OW33454   3.680   2.360   6.593 -0.5016 -0.2345  0.7695
 7273SOL    HW133455   3.672   2.455   6.580  0.4086 -0.0479  1.5182
 7273SOL    HW233456   3.700   2.317   6.510  1.7981  0.3696  1.0018
 7274SOL     OW33457   1.087   4.600   5.053  0.1989  0.2127  0.0308
 7274SOL    HW133458   0.998   4.626   5.027 -0.2004 -2.2171 -1.0630
 7274SOL    HW233459   1.075   4.521   5.106  3.2642  1.1927  2.1909
 7275SOL     OW33460   2.538   2.489  12.406 -0.4065  0.3882  0.2315
 7275SOL    HW133461   2.614   2.448  12.367 -1.2682  0.5885 -1.6452
 7275SOL    HW233462   2.573   2.487  12.495  2.9365  3.6076 -1.0131
 7276SOL     OW33463   2.063   0.374  14.057  0.1680  0.8485 -0.0198
 7276SOL    HW133464   1.974   0.348  14.081  1.1606 -0.6952  1.9756
 7276SOL    HW233465   2.058   0.469  14.066 -2.2521  0.4627  2.8945
 7277SOL     OW33466   1.653   2.273   2.984  0.7378  0.0772  0.1894
 7277SOL    HW133467   1.727   2.217   3.006  0.0154 -0.0822  2.1915
 7277SOL    HW233468   1.604   2.276   3.066 -1.4143 -2.1096 -0.9923
 7278SOL     OW33469   3.032   0.716   1.336  0.0722 -0.0874 -0.4867
 7278SOL    HW133470   3.022   0.664   1.417  1.1892  0.3327 -0.0852
 7278SOL    HW233471   3.114   0.681   1.300  1.2283 -0.0358  2.0335
 7279SOL     OW33472   3.427   3.860   5.889  0.6691 -0.3393 -0.4127
 7279SOL    HW133473   3.393   3.930   5.945  0.7893  0.3057 -1.1432
 7279SOL    HW233474   3.430   3.904   5.804  0.7071  1.3513  0.4449
 7280SOL     OW33475   4.242   1.150   3.368  0.7917 -0.0988  0.3005
 7280SOL    HW133476   4.196   1.231   3.390 -0.4843 -0.7864  0.1785
 7280SOL    HW233477   4.172   1.105   3.320 -0.9845  3.8166 -0.7136
 7281SOL     OW33478   4.327   0.053  12.639 -0.1322  0.3686  0.0740
 7281SOL    HW133479   4.376   4.713  12.647 -1.5269 -0.7555 -2.8551
 7281SOL    HW233480   4.398   0.106  12.604  0.3041 -0.2061  0.0793
 7282SOL     OW33481   2.315   3.730   4.356 -0.2024  0.3271 -0.5621
 7282SOL    HW133482   2.304   3.695   4.268 -2.1309  1.9354 -0.9527
 7282SOL    HW233483   2.224   3.725   4.386 -0.1133  1.2352 -0.1250
 7283SOL     OW33484   3.095   2.370   5.826 -0.4811 -0.0293  0.1448
 7283SOL    HW133485   3.088   2.284   5.866 -0.9374  0.3006  0.7712
 7283SOL    HW233486   3.184   2.391   5.856 -0.6934  0.2714  0.5593
 7284SOL     OW33487   4.040   0.272   9.331  0.0890  0.0088 -0.1579
 7284SOL    HW133488   4.110   0.334   9.313 -0.0260 -0.1510 -1.1763
 7284SOL    HW233489   3.998   0.258   9.246 -0.2299 -1.1857  0.1883
 7285SOL     OW33490   4.417   1.195  14.456  0.3585 -0.5517  0.3939
 7285SOL    HW133491   4.383   1.285  14.446  0.7669 -0.5487 -0.8321
 7285SOL    HW233492   4.406   1.161  14.368  2.6551 -1.2838  0.4162
 7286SOL     OW33493   0.952   2.939   3.341  0.5173  0.0741  0.1494
 7286SOL    HW133494   0.956   2.940   3.436 -0.5065 -1.4982  0.1949
 7286SOL    HW233495   0.861   2.925   3.317  1.0447 -0.0819 -1.8244
 7287SOL     OW33496   2.768   0.829   2.964  0.4168 -0.0970  0.8591
 7287SOL    HW133497   2.694   0.781   2.929 -1.0793  2.6142  0.2727
 7287SOL    HW233498   2.715   0.896   3.008  1.1720  0.7270  0.5149
 7288SOL     OW33499   2.941   1.610   0.222  0.0753 -0.4938  0.2859
 7288SOL    HW133500   2.971   1.684   0.275 -0.9436 -1.0304  1.5839
 7288SOL    HW233501   2.941   1.649   0.134  0.2398  0.4444  0.7050
 7289SOL     OW33502   3.931   2.219  12.813 -0.5735 -0.4577 -0.3760
 7289SOL    HW133503   4.021   2.239  12.790 -0.9642  1.6289 -0.0670
 7289SOL    HW233504   3.939   2.176  12.898  0.6417 -1.3956 -0.9742
 7290SOL     OW33505   1.393   3.957   7.449 -0.1940  0.4965 -0.0135
 7290SOL    HW133506   1.375   3.863   7.445  0.6143  0.3896 -1.4830
 7290SOL    HW233507   1.302   3.984   7.442 -0.6453 -1.0986 -0.2708
 7291SOL     OW33508   0.472   4.737  14.210 -0.2488 -0.2467 -0.6184
 7291SOL    HW133509   0.515   4.730  14.295  1.6667  1.2720 -1.4811
 7291SOL    HW233510   0.440   0.085  14.210  3.4054  1.0497 -3.3370
 7292SOL     OW33511   1.773   0.846   7.493  0.3802 -0.5689 -0.2458
 7292SOL    HW133512   1.851   0.819   7.540  0.7924 -0.4972 -0.8796
 7292SOL    HW233513   1.813   0.857   7.406  0.4373 -0.6605 -0.2303
 7293SOL     OW33514   4.177   2.439   4.522  0.1149 -0.1999 -0.2779
 7293SOL    HW133515   4.106   2.392   4.567  0.8522 -0.4878  0.5810
 7293SOL    HW233516   4.147   2.469   4.436 -1.6256 -1.0916  0.0182
 7294SOL     OW33517   3.914   0.252  16.346  0.8876 -0.1219  0.1475
 7294SOL    HW133518   3.896   0.159  16.356  2.3706 -0.1365  2.6778
 7294SOL    HW233519   4.007   0.245  16.323  0.6810 -0.1329 -0.6734
 7295SOL     OW33520   3.599   3.746   8.240 -0.1128 -0.0855  0.3915
 7295SOL    HW133521   3.518   3.751   8.189 -0.8562 -2.9117  1.2981
 7295SOL    HW233522   3.671   3.762   8.180 -1.0350  0.3143 -0.6055
 7296SOL     OW33523   4.203   3.566  13.942  0.4323 -0.3408  0.0604
 7296SOL    HW133524   4.284   3.603  13.908 -0.1309 -0.2033 -1.1434
 7296SOL    HW233525   4.197   3.612  14.025  0.0059  2.7986 -1.7270
 7297SOL     OW33526   2.441   4.202   8.129 -0.4180  0.2947 -0.5342
 7297SOL    HW133527   2.451   4.146   8.206 -0.5024 -1.0090 -1.4609
 7297SOL    HW233528   2.474   4.146   8.059 -0.3428  0.1484 -0.3815
 7298SOL     OW33529   2.207   1.499   3.257  0.1521 -0.4450 -0.0527
 7298SOL    HW133530   2.149   1.481   3.331 -0.5816  1.2868 -0.2066
 7298SOL    HW233531   2.242   1.413   3.238  1.3817  0.1110 -0.2936
 7299SOL     OW33532   0.145   4.084   5.008 -0.2480 -0.0221 -0.0132
 7299SOL    HW133533   0.095   4.146   4.955  0.8098  0.6081 -0.2957
 7299SOL    HW233534   0.181   4.143   5.074  1.1025 -0.2007 -0.5799
 7300SOL     OW33535   3.568   0.649   7.328  0.2959  0.3078  0.5921
 7300SOL    HW133536   3.521   0.728   7.302  1.7424  1.2388  0.7446
 7300SOL    HW233537   3.645   0.647   7.271 -0.3750  1.5898 -0.3515
 7301SOL     OW33538   2.149   4.263   3.849 -0.1697 -0.5103  0.3814
 7301SOL    HW133539   2.189   4.310   3.923 -1.1921 -2.1229  1.9534
 7301SOL    HW233540   2.071   4.318   3.841 -0.0559 -0.3441  0.4183
 7302SOL     OW33541   1.235   4.288  16.718  0.4766 -0.4442  0.0967
 7302SOL    HW133542   1.195   4.269  16.634  1.7377  0.8120 -0.7853
 7302SOL    HW233543   1.230   4.383  16.703 -0.5341 -0.2256  1.7240
 7303SOL     OW33544   0.125   0.452   9.005  0.2911 -0.2311  0.1021
 7303SOL    HW133545   0.040   0.411   9.017 -0.2932  0.9466  0.0588
 7303SOL    HW233546   0.175   0.418   9.079 -0.4550  1.2196  1.2843
 7304SOL     OW33547   1.829   0.862  10.312 -0.0480 -0.2010  0.0175
 7304SOL    HW133548   1.875   0.895  10.234 -1.9360 -2.7265 -2.1653
 7304SOL    HW233549   1.763   0.931  10.312  0.6078  0.4153  2.6988
 7305SOL     OW33550   2.203   1.448   2.970  0.5217 -0.2648 -0.0038
 7305SOL    HW133551   2.159   1.533   2.977 -2.1446 -1.5939 -0.5464
 7305SOL    HW233552   2.130   1.389   2.951  0.3516 -0.8642  2.4363
 7306SOL     OW33553   1.672   2.836   0.158  0.5099 -0.1437  0.4642
 7306SOL    HW133554   1.759   2.864   0.184 -0.0129  1.2015  0.7720
 7306SOL    HW233555   1.634   2.900   0.098 -0.9625  1.0933  2.7036
 7307SOL     OW33556   1.210   4.136   8.162 -0.2041 -0.2455 -0.8126
 7307SOL    HW133557   1.149   4.079   8.209 -1.0161 -0.5868 -2.3060
 7307SOL    HW233558   1.207   4.220   8.208 -2.1959 -1.2396  0.8971
 7308SOL     OW33559   3.824   1.483  16.432 -0.4814  0.4280 -0.4873
 7308SOL    HW133560   3.842   1.555  16.492  1.4141  0.6921 -1.3658
 7308SOL    HW233561   3.758   1.436  16.483 -0.2659  0.6888  0.0285
 7309SOL     OW33562   3.883   4.558   3.182  0.4298 -0.0504 -0.7462
 7309SOL    HW133563   3.855   4.482   3.232  0.6788 -0.7036 -1.6035
 7309SOL    HW233564   3.919   4.620   3.246 -2.1880  0.0591  0.6131
 7310SOL     OW33565   1.441   2.033   3.841  0.1056 -0.6979  0.3323
 7310SOL    HW133566   1.432   2.121   3.804 -1.0009 -0.8698  0.1746
 7310SOL    HW233567   1.351   2.000   3.843 -0.0828 -0.3101 -2.3925
 7311SOL     OW33568   3.297   0.559   8.447 -0.4307 -0.3355 -0.1021
 7311SOL    HW133569   3.339   0.610   8.377  0.7990 -2.0237 -0.6173
 7311SOL    HW233570   3.379   0.518   8.474 -0.7554 -1.6753 -1.1479
 7312SOL     OW33571   3.693   0.621   9.903 -0.2355  0.2619  0.1729
 7312SOL    HW133572   3.780   0.583   9.892 -0.6898 -0.8911  0.5386
 7312SOL    HW233573   3.692   0.603   9.997 -0.4674  5.0090  1.0744
 7313SOL     OW33574   4.349   2.855   8.796  0.6854 -0.0731  0.3328
 7313SOL    HW133575   4.372   2.866   8.704  1.7352 -0.9513  0.4792
 7313SOL    HW233576   4.265   2.809   8.792 -0.9040  2.7258  1.8079
 7314SOL     OW33577   4.423   1.220  17.333  0.0061  0.4377 -0.2458
 7314SOL    HW133578   4.508   1.176  17.341  2.2736  4.4317 -2.3321
 7314SOL    HW233579   4.436   1.288  17.267 -1.6722  0.7562 -0.2587
 7315SOL     OW33580   3.838   1.649   4.870 -0.0584  0.0846 -0.2441
 7315SOL    HW133581   3.811   1.633   4.779  1.4030  1.5080 -0.9305
 7315SOL    HW233582   3.925   1.682   4.849  0.3701 -0.8546  0.0675
 7316SOL     OW33583   0.140   2.626   4.249 -0.3191  0.3019 -0.0392
 7316SOL    HW133584   0.060   2.575   4.263 -0.9777  0.7807 -2.0973
 7316SOL    HW233585   0.151   2.688   4.321  0.6104  1.1631 -0.9073
 7317SOL     OW33586   1.544   1.073   0.623 -0.5401  0.4467 -0.7598
 7317SOL    HW133587   1.540   1.033   0.710 -2.9892  0.4615 -0.8775
 7317SOL    HW233588   1.637   1.096   0.631 -0.3203 -0.4209 -0.8478
 7318SOL     OW33589   4.085   0.023   3.559 -0.2135  0.0777 -0.1776
 7318SOL    HW133590   4.155   4.705   3.536 -0.0812 -0.2300  1.0145
 7318SOL    HW233591   4.120   0.076   3.630 -1.7738 -1.6606  1.9114
 7319SOL     OW33592   3.864   2.224  14.623  0.6234 -0.1009  0.0341
 7319SOL    HW133593   3.862   2.132  14.650  0.9824 -0.1731 -0.1980
 7319SOL    HW233594   3.771   2.249  14.627  0.9113  1.4076 -2.9519
 7320SOL     OW33595   3.956   0.198   0.960 -0.1322 -0.3001  0.0762
 7320SOL    HW133596   3.942   0.223   0.868  1.9438  0.6586  0.0139
 7320SOL    HW233597   3.961   0.282   1.006 -2.1879 -0.9973  1.5737
 7321SOL     OW33598   0.990   4.627   4.251 -0.4868  0.2499 -0.2962
 7321SOL    HW133599   1.084   4.639   4.265  0.0744 -2.7272 -1.5572
 7321SOL    HW233600   0.971   4.582   4.169 -0.2556  2.4505 -1.5422
 7322SOL     OW33601   1.915   3.699   8.733  0.1248 -0.5920 -0.6443
 7322SOL    HW133602   1.840   3.703   8.673 -1.8835 -0.2694  1.8664
 7322SOL    HW233603   1.896   3.625   8.790 -0.3916  0.9104  1.1506
 7323SOL     OW33604   1.356   3.323  10.235  0.0466  0.3092  0.5014
 7323SOL    HW133605   1.391   3.363  10.314 -0.6549 -1.0139  1.4972
 7323SOL    HW233606   1.385   3.233  10.252 -0.8405  0.2195  1.5740
 7324SOL     OW33607   1.396   2.317  13.839 -0.0920 -0.0581  0.7392
 7324SOL    HW133608   1.330   2.275  13.783  0.0235  0.5007  0.1833
 7324SOL    HW233609   1.356   2.404  13.840  0.1165  0.0205  1.8154
 7325SOL     OW33610   2.536   4.306  12.870  0.1785 -0.4906 -0.2768
 7325SOL    HW133611   2.621   4.263  12.876 -0.1563 -1.2818 -1.2305
 7325SOL    HW233612   2.558   4.399  12.871 -1.8404 -0.0395  0.7776
 7326SOL     OW33613   1.805   3.275   5.358 -0.2640 -0.9244 -0.6491
 7326SOL    HW133614   1.834   3.221   5.431 -1.6262 -0.0366  0.5392
 7326SOL    HW233615   1.773   3.217   5.289 -1.3219  0.1575 -1.0686
 7327SOL     OW33616   3.481   4.569  12.914  0.2738 -0.7708 -0.0143
 7327SOL    HW133617   3.395   4.594  12.948  0.0297 -3.0481  1.0434
 7327SOL    HW233618   3.540   4.567  12.989  1.3320 -0.3454 -0.8390
 7328SOL     OW33619   0.027   2.310   5.408  0.3203 -0.0447  0.4929
 7328SOL    HW133620   4.702   2.255   5.447  0.7144 -1.6608 -1.1264
 7328SOL    HW233621   4.736   2.327   5.320  0.3054  2.2201  0.9326
 7329SOL     OW33622   3.273   4.119   4.427 -0.0931 -0.5303 -0.5165
 7329SOL    HW133623   3.282   4.204   4.470  0.1458  0.0178 -1.6450
 7329SOL    HW233624   3.260   4.147   4.337 -0.6123 -1.0734 -0.6138
 7330SOL     OW33625   3.919   1.878   8.699  0.1170  0.2166  1.0625
 7330SOL    HW133626   3.876   1.950   8.652  0.9480  1.1443  1.7238
 7330SOL    HW233627   3.841   1.864   8.753  2.3805 -2.5598  3.6090
 7331SOL     OW33628   3.258   3.314   7.254  0.0742 -0.0313  0.3187
 7331SOL    HW133629   3.232   3.248   7.318  1.7787 -0.5775  0.4416
 7331SOL    HW233630   3.181   3.368   7.237  1.2812  0.7040 -2.7793
 7332SOL     OW33631   4.433   0.711   9.252  0.6059  0.0550 -0.5982
 7332SOL    HW133632   4.472   0.787   9.294  1.5073 -0.3896 -0.6095
 7332SOL    HW233633   4.495   0.638   9.258 -1.6711 -1.7869  0.4104
 7333SOL     OW33634   3.413   3.201   3.860  0.1054 -0.3944 -0.4584
 7333SOL    HW133635   3.360   3.277   3.836  0.5441 -0.3621 -1.3221
 7333SOL    HW233636   3.492   3.209   3.807 -0.6268  1.1046 -1.3437
 7334SOL     OW33637   3.660   1.377  12.735 -0.3678 -0.3586 -0.2877
 7334SOL    HW133638   3.647   1.397  12.828  2.4907  0.1506 -0.0117
 7334SOL    HW233639   3.755   1.366  12.732 -0.1703  1.5907 -1.0790
 7335SOL     OW33640   4.264   0.239   4.704 -0.6097  0.1626 -0.1750
 7335SOL    HW133641   4.202   0.309   4.723 -2.0944 -0.8520 -1.2808
 7335SOL    HW233642   4.253   0.212   4.613 -0.8430  0.2058 -0.1594
 7336SOL     OW33643   0.320   4.254   7.608 -0.9077  0.2279  0.3006
 7336SOL    HW133644   0.278   4.340   7.611 -1.2490  0.1319 -1.3678
 7336SOL    HW233645   0.368   4.253   7.691 -1.2511  0.8041  0.5095
 7337SOL     OW33646   3.005   1.561  13.796 -0.0063 -0.0817 -0.3285
 7337SOL    HW133647   3.011   1.473  13.834 -1.1052 -0.6050 -1.3583
 7337SOL    HW233648   3.007   1.597  13.884  0.1864 -0.1890 -0.2894
 7338SOL     OW33649   3.258   1.580  13.681 -0.4589  0.0820  0.3059
 7338SOL    HW133650   3.169   1.571  13.714  0.0910  0.8283  1.9837
 7338SOL    HW233651   3.273   1.670  13.708  2.1294 -0.4461  0.6147
 7339SOL     OW33652   1.754   3.380   4.684 -0.2018 -0.5379  0.7710
 7339SOL    HW133653   1.822   3.430   4.639 -0.6122  0.7881  1.6421
 7339SOL    HW233654   1.782   3.294   4.654  1.6475 -0.0636  1.1461
 7340SOL     OW33655   2.406   1.537   6.306  0.1268  0.0636 -0.0873
 7340SOL    HW133656   2.334   1.475   6.304  0.2407 -0.1034  1.2735
 7340SOL    HW233657   2.381   1.587   6.229  0.5403  0.3766 -0.0199
 7341SOL     OW33658   1.551   4.139  14.715  0.3600 -0.4288  0.2563
 7341SOL    HW133659   1.493   4.211  14.692  2.9679  1.6969  0.3797
 7341SOL    HW233660   1.504   4.102  14.790  0.5054  1.9410  1.4996
 7342SOL     OW33661   1.923   1.484   5.657  0.0664 -0.1205  1.1279
 7342SOL    HW133662   1.985   1.417   5.684 -0.9879 -1.1740  0.9127
 7342SOL    HW233663   1.962   1.561   5.699  3.0417 -0.8107 -0.3231
 7343SOL     OW33664   2.538   3.422  14.072 -0.8869 -0.2632  0.2050
 7343SOL    HW133665   2.507   3.333  14.091 -2.0396  0.2400  0.6524
 7343SOL    HW233666   2.471   3.454  14.013  0.6580  2.5686 -0.0066
 7344SOL     OW33667   4.322   1.419   4.403 -0.2107 -0.5501  0.9062
 7344SOL    HW133668   4.238   1.463   4.415  0.1152  0.5645 -0.7743
 7344SOL    HW233669   4.349   1.414   4.494  0.1928  1.5380  0.8888
 7345SOL     OW33670   3.334   3.613   5.987  0.0291  0.1485  0.0812
 7345SOL    HW133671   3.304   3.700   5.963 -0.3137  0.3988  1.3954
 7345SOL    HW233672   3.428   3.630   5.985  0.0611  0.1599  1.7076
 7346SOL     OW33673   0.393   1.817  11.707  0.3854 -0.1075 -0.2460
 7346SOL    HW133674   0.454   1.745  11.692  1.5261  0.8864 -0.3791
 7346SOL    HW233675   0.316   1.769  11.737 -2.0683  1.4114 -3.9445
 7347SOL     OW33676   2.263   2.514   2.241  0.0641  0.2628  0.3576
 7347SOL    HW133677   2.354   2.517   2.212  0.3172 -1.7796  0.9845
 7347SOL    HW233678   2.231   2.600   2.213  2.3400  1.1056  0.3776
 7348SOL     OW33679   4.265   1.300   0.215 -0.2377  0.6660  0.3171
 7348SOL    HW133680   4.331   1.292   0.284  0.7288 -0.9959 -0.7752
 7348SOL    HW233681   4.309   1.358   0.153  0.9333 -0.3988  0.1508
 7349SOL     OW33682   4.256   3.486  16.514 -0.3399  0.5480  0.0706
 7349SOL    HW133683   4.200   3.442  16.450  1.9342 -2.4186  0.0948
 7349SOL    HW233684   4.324   3.532  16.465 -0.1488 -0.1701 -0.3319
 7350SOL     OW33685   4.635   1.269   3.584 -0.0415  0.0477  0.2160
 7350SOL    HW133686   4.668   1.247   3.497 -0.7963 -1.2046  0.2410
 7350SOL    HW233687   4.540   1.275   3.576  0.0900  2.6506  0.6304
 7351SOL     OW33688   0.374   4.720   0.858 -0.2331  0.1444  0.0823
 7351SOL    HW133689   0.409   0.065   0.849  2.0824 -0.7317  0.5506
 7351SOL    HW233690   0.423   4.669   0.794 -0.7531 -1.2790  0.7986
 7352SOL     OW33691   0.186   4.558   3.351 -0.0513  0.0898  0.0896
 7352SOL    HW133692   0.247   4.485   3.363 -1.8759 -1.5462 -0.4319
 7352SOL    HW233693   0.225   4.614   3.284 -0.8170  0.1226 -0.3263
 7353SOL     OW33694   0.778   4.234   0.569  0.0098  0.1866  0.3065
 7353SOL    HW133695   0.700   4.279   0.535  0.6589  0.3416 -0.9629
 7353SOL    HW233696   0.779   4.168   0.501  0.8391 -0.5301  1.0232
 7354SOL     OW33697   2.851   3.358  12.934 -0.1139 -0.1256  0.3068
 7354SOL    HW133698   2.945   3.343  12.943 -0.5192 -1.7078  1.8371
 7354SOL    HW233699   2.850   3.391  12.845  2.9132 -0.5298  0.1208
 7355SOL     OW33700   3.161   2.672   8.468  0.2196  0.2592  0.3657
 7355SOL    HW133701   3.205   2.740   8.520 -2.5465  2.3217 -0.0309
 7355SOL    HW233702   3.080   2.664   8.519  0.7658 -1.6278  0.9494
 7356SOL     OW33703   4.449   1.288   0.408 -0.1880  0.2485 -0.1005
 7356SOL    HW133704   4.530   1.251   0.441  0.1242  2.6127  1.8429
 7356SOL    HW233705   4.389   1.244   0.468 -0.2494  0.1403 -0.2420
 7357SOL     OW33706   1.867   2.650   2.264 -0.0855 -0.7645  0.2888
 7357SOL    HW133707   1.884   2.631   2.172 -1.6962  1.3123 -0.4221
 7357SOL    HW233708   1.903   2.573   2.308 -1.6026 -0.1259  2.6126
 7358SOL     OW33709   0.482   0.969  12.488 -0.2837 -0.1215 -0.0220
 7358SOL    HW133710   0.542   0.903  12.522  0.6943  1.1464  0.6899
 7358SOL    HW233711   0.425   0.989  12.562 -0.3407 -1.4030  0.2804
 7359SOL     OW33712   2.158   4.409   3.498 -0.7631  0.1778 -0.3361
 7359SOL    HW133713   2.192   4.395   3.587  0.7707 -0.9266 -1.0866
 7359SOL    HW233714   2.236   4.434   3.448 -1.6692 -1.1151 -2.3978
 7360SOL     OW33715   3.399   1.021   4.258 -0.0683 -0.3887 -0.2280
 7360SOL    HW133716   3.480   1.005   4.211  0.0906 -0.2902  0.0128
 7360SOL    HW233717   3.368   1.098   4.212 -2.3934 -1.4137 -0.4039
 7361SOL     OW33718   2.085   2.226   6.136 -0.2472  0.5334  0.2818
 7361SOL    HW133719   2.166   2.205   6.089  0.2456  0.0847  1.3394
 7361SOL    HW233720   2.030   2.150   6.120  0.9866 -0.6420  1.6110
 7362SOL     OW33721   1.632   0.966   3.403 -0.1335 -0.2535 -0.2886
 7362SOL    HW133722   1.568   0.956   3.473 -1.7406 -2.0704 -2.0041
 7362SOL    HW233723   1.575   1.003   3.335 -0.8526  1.8163  1.4356
 7363SOL     OW33724   1.612   2.831   2.451 -0.3906  0.2759  0.1710
 7363SOL    HW133725   1.630   2.901   2.514 -0.1767 -1.3174  1.8647
 7363SOL    HW233726   1.678   2.858   2.386 -1.5514  1.4943 -0.5057
 7364SOL     OW33727   1.559   3.012   1.477 -0.4523 -0.0647 -0.2979
 7364SOL    HW133728   1.654   3.014   1.468 -0.3693 -1.2699  0.3968
 7364SOL    HW233729   1.533   3.103   1.492 -1.4974 -0.1546 -1.5318
 7365SOL     OW33730   4.314   4.565  17.220 -0.1357 -0.3793  0.1982
 7365SOL    HW133731   4.301   4.646  17.271  0.6322  0.9924 -1.7723
 7365SOL    HW233732   4.377   4.515  17.271  1.7529  1.7525 -0.0053
 7366SOL     OW33733   4.432   4.100   7.477 -0.0534 -0.3833  0.2002
 7366SOL    HW133734   4.365   4.164   7.499 -0.3701 -0.9607  0.9003
 7366SOL    HW233735   4.438   4.105   7.382 -2.3479  0.0218  0.0775
 7367SOL     OW33736   4.082   1.705  13.183 -0.4660 -0.2010 -0.2789
 7367SOL    HW133737   4.001   1.747  13.210 -0.8809 -0.8684 -0.4847
 7367SOL    HW233738   4.073   1.719  13.089  1.9854 -0.1051 -0.5013
 7368SOL     OW33739   4.163   2.206   4.026  0.3920 -0.1156  0.3484
 7368SOL    HW133740   4.230   2.205   3.957  0.4203 -0.8166  0.3855
 7368SOL    HW233741   4.098   2.163   3.971 -0.0585  1.7065 -0.5655
 7369SOL     OW33742   4.525   3.502  15.522  0.1565 -0.0919  0.0984
 7369SOL    HW133743   4.616   3.531  15.534  0.4743 -1.4872  1.0814
 7369SOL    HW233744   4.539   3.410  15.545  0.5430  0.2024  1.0673
 7370SOL     OW33745   2.682   0.135   9.310 -0.2860 -0.2544  0.2153
 7370SOL    HW133746   2.732   0.215   9.292 -0.0220 -0.4910 -0.0859
 7370SOL    HW233747   2.655   0.107   9.223  0.2862 -1.6546  0.4878
 7371SOL     OW33748   4.375   4.717   7.178  0.0347 -0.1943 -0.1682
 7371SOL    HW133749   4.459   4.674   7.195  0.6799  0.2784 -2.1605
 7371SOL    HW233750   4.396   0.035   7.107  0.8547 -0.7170 -0.3766
 7372SOL     OW33751   4.601   1.321  12.451 -0.7763  0.6254 -0.0534
 7372SOL    HW133752   4.611   1.282  12.538 -0.6806  2.2672  0.6730
 7372SOL    HW233753   4.677   1.379  12.445 -1.2385  1.2484  0.1193
 7373SOL     OW33754   3.232   1.786  12.236 -0.0761  0.5776  0.5207
 7373SOL    HW133755   3.245   1.762  12.328 -2.4770 -2.0610  0.1872
 7373SOL    HW233756   3.151   1.738  12.218 -1.2967  2.4028  1.1382
 7374SOL     OW33757   4.032   4.442  10.947  0.1625 -0.2087  0.1169
 7374SOL    HW133758   4.019   4.362  10.896  1.3399 -1.8882  2.4302
 7374SOL    HW233759   4.094   4.493  10.894  1.7422  1.1324  3.2255
 7375SOL     OW33760   1.053   4.480  17.419 -0.1063  0.1259  0.2493
 7375SOL    HW133761   1.096   4.474  17.334  0.0717  2.9117  0.1193
 7375SOL    HW233762   0.966   4.460  17.385 -0.4475 -0.4730  1.4735
 7376SOL     OW33763   0.492   4.305   6.344 -0.4799  0.0786 -0.1519
 7376SOL    HW133764   0.569   4.353   6.373 -0.2888  0.6302 -1.6112
 7376SOL    HW233765   0.438   4.368   6.296  1.1464  0.8340 -0.9588
 7377SOL     OW33766   2.263   4.737   3.162 -0.1817  0.4003 -0.7267
 7377SOL    HW133767   2.356   0.014   3.165 -0.9766  3.9916  0.6404
 7377SOL    HW233768   2.227   0.056   3.226  0.6378  0.4952 -0.3634
 7378SOL     OW33769   1.718   4.243   6.763  0.2566  0.1809 -0.3987
 7378SOL    HW133770   1.721   4.314   6.699 -0.1575 -0.1946 -0.8367
 7378SOL    HW233771   1.809   4.217   6.773 -0.0095 -0.3046  0.7361
 7379SOL     OW33772   0.875   3.935   5.275 -0.0267  0.6194  0.1362
 7379SOL    HW133773   0.880   3.964   5.367  2.1647  0.0066  0.2091
 7379SOL    HW233774   0.867   4.018   5.228  1.2304  0.1216 -0.9597
 7380SOL     OW33775   3.488   2.129   6.912  0.8278 -0.2973  0.0380
 7380SOL    HW133776   3.469   2.222   6.899  1.3197 -0.1339  0.4866
 7380SOL    HW233777   3.568   2.123   6.859  0.4418  2.7760 -0.9026
 7381SOL     OW33778   2.580   1.427   5.996 -0.4691 -0.0623 -0.3361
 7381SOL    HW133779   2.599   1.513   6.032 -1.8488  0.3302 -0.5230
 7381SOL    HW233780   2.653   1.413   5.936  0.5369  0.2747  0.8241
 7382SOL     OW33781   3.537   3.420  13.835 -0.7084 -0.3466  0.3730
 7382SOL    HW133782   3.541   3.391  13.926 -0.5673 -1.2174  0.0930
 7382SOL    HW233783   3.516   3.341  13.784  1.1656 -0.2030 -0.6132
 7383SOL     OW33784   0.707   1.526  14.299 -0.6680  0.4765  0.0450
 7383SOL    HW133785   0.717   1.433  14.318 -1.9850 -0.1227 -2.1187
 7383SOL    HW233786   0.625   1.533  14.249 -1.4596  0.7046  1.3789
 7384SOL     OW33787   2.166   0.799   4.242  0.1975  0.0689  0.0648
 7384SOL    HW133788   2.196   0.761   4.324  0.2320  0.4594  0.2326
 7384SOL    HW233789   2.226   0.753   4.183 -0.6764 -2.0903  0.8762
 7385SOL     OW33790   3.536   1.780  15.760  0.3842  0.1858 -0.3612
 7385SOL    HW133791   3.592   1.716  15.716  0.3464 -1.1733  1.5624
 7385SOL    HW233792   3.531   1.748  15.850 -0.0549 -1.3022 -0.9046
 7386SOL     OW33793   0.483   3.049  11.300 -0.4592  0.0821  0.1460
 7386SOL    HW133794   0.512   2.969  11.256 -2.0871 -3.2753  5.2190
 7386SOL    HW233795   0.559   3.065  11.357  0.0427 -0.2671 -0.4239
 7387SOL     OW33796   4.520   2.242   9.568  0.1762 -0.3160  0.0870
 7387SOL    HW133797   4.458   2.312   9.546 -1.4408 -1.7690  0.0505
 7387SOL    HW233798   4.594   2.271   9.514 -1.3063  1.2287 -1.1613
 7388SOL     OW33799   4.530   1.141   6.177 -0.2612 -0.1387 -0.5773
 7388SOL    HW133800   4.460   1.207   6.173 -1.7077 -1.5885  0.8440
 7388SOL    HW233801   4.509   1.097   6.095  0.3055 -1.0015 -0.2561
 7389SOL     OW33802   1.059   4.318   2.242 -0.0518  0.4835 -0.4922
 7389SOL    HW133803   0.991   4.260   2.276 -0.6576  1.3885 -0.1625
 7389SOL    HW233804   1.139   4.266   2.235  0.4637  1.1968  0.0655
 7390SOL     OW33805   3.208   1.503   0.239 -0.1014 -0.8397 -0.1115
 7390SOL    HW133806   3.184   1.584   0.283  1.0095 -1.4122  1.5797
 7390SOL    HW233807   3.237   1.535   0.153  2.1744  0.5505  1.1643
 7391SOL     OW33808   0.807   3.393   5.751  0.1305 -0.0821  0.2153
 7391SOL    HW133809   0.715   3.405   5.724  0.5961  0.2801 -1.2196
 7391SOL    HW233810   0.796   3.391   5.846  1.5258  0.7799  0.3885
 7392SOL     OW33811   3.802   4.467   7.103 -0.2194 -0.3794  0.2378
 7392SOL    HW133812   3.765   4.555   7.096  0.7073 -0.0753 -0.9394
 7392SOL    HW233813   3.770   4.438   7.188  1.2737 -0.7335  0.6885
 7393SOL     OW33814   2.659   3.844   0.509 -0.3830  0.0343 -0.7219
 7393SOL    HW133815   2.606   3.840   0.588  0.7295 -1.4639 -0.0304
 7393SOL    HW233816   2.676   3.750   0.505  2.5948  0.5083  0.3194
 7394SOL     OW33817   2.571   3.052   6.380  0.5635  0.8965  0.0018
 7394SOL    HW133818   2.534   2.970   6.413  2.3448  0.6802  1.4727
 7394SOL    HW233819   2.649   3.050   6.435  0.5660  2.5773  0.0524
 7395SOL     OW33820   4.724   1.222  16.023 -0.6587 -0.0622 -0.4726
 7395SOL    HW133821   0.061   1.205  15.973 -0.3928 -0.2841  0.0318
 7395SOL    HW233822   0.018   1.193  16.106  0.0811 -1.2518 -1.2154
 7396SOL     OW33823   2.498   4.623   6.139  0.2258 -0.3768  0.0127
 7396SOL    HW133824   2.461   4.705   6.104  1.9696  0.1706 -0.5208
 7396SOL    HW233825   2.576   4.652   6.187  0.3990 -1.5869  0.4453
 7397SOL     OW33826   3.173   0.719  12.028  0.5422  0.5345  0.4849
 7397SOL    HW133827   3.182   0.677  11.943 -0.3431 -1.9415  1.6118
 7397SOL    HW233828   3.152   0.811  12.013  3.4327  0.9607 -0.8497
 7398SOL     OW33829   1.134   0.081  15.234  0.0677  0.3377 -0.0370
 7398SOL    HW133830   1.042   0.108  15.231 -0.5127 -1.9379 -1.8974
 7398SOL    HW233831   1.143   0.090  15.329 -0.2583 -0.4821  0.0694
 7399SOL     OW33832   2.201   1.746   0.873  0.3994 -0.2804  0.3054
 7399SOL    HW133833   2.119   1.792   0.892  0.4229 -0.1359  0.0592
 7399SOL    HW233834   2.180   1.662   0.913  1.0876 -1.1001 -1.0797
 7400SOL     OW33835   0.410   2.921   8.065 -0.3714  0.3431 -0.2542
 7400SOL    HW133836   0.370   3.003   8.036 -2.2402 -0.0916  1.0949
 7400SOL    HW233837   0.500   2.952   8.070 -1.2468  1.8638  5.8505
 7401SOL     OW33838   0.415   1.359   4.373  0.4402 -0.4846  0.1105
 7401SOL    HW133839   0.364   1.336   4.451 -0.5603  0.1838 -0.3511
 7401SOL    HW233840   0.437   1.272   4.339 -2.3913 -1.2944  0.3738
 7402SOL     OW33841   2.505   1.038   3.683  0.3301 -0.1571  0.1792
 7402SOL    HW133842   2.544   1.121   3.711  0.3590 -0.1704  0.1777
 7402SOL    HW233843   2.494   0.990   3.765  0.5968 -0.1349  0.2263
 7403SOL     OW33844   3.439   3.284  11.212 -0.5959  0.3773 -0.4068
 7403SOL    HW133845   3.512   3.315  11.158 -0.5351 -1.1730 -1.2231
 7403SOL    HW233846   3.487   3.208  11.245 -1.1443  1.5049  3.0164
 7404SOL     OW33847   3.170   4.346   7.529  0.3285  0.4018 -0.2072
 7404SOL    HW133848   3.164   4.351   7.625 -0.5511 -0.3710 -0.2238
 7404SOL    HW233849   3.258   4.379   7.512  1.2228 -2.3775 -0.9264
 7405SOL     OW33850   2.634   3.263   2.066 -0.0738  0.1649 -0.5147
 7405SOL    HW133851   2.609   3.190   2.009 -0.9050  1.3948 -1.7350
 7405SOL    HW233852   2.586   3.340   2.036  0.7371  0.2967 -1.4810
 7406SOL     OW33853   3.309   1.733   1.497  0.3631  0.4786  0.2001
 7406SOL    HW133854   3.389   1.780   1.521  0.7227 -0.3146  0.5652
 7406SOL    HW233855   3.239   1.779   1.545 -2.2202 -0.4883 -2.6366
 7407SOL     OW33856   1.138   4.555   7.783  0.0572  0.5217 -0.6826
 7407SOL    HW133857   1.067   4.492   7.770 -1.9228  2.5493  0.3267
 7407SOL    HW233858   1.085   4.632   7.804 -3.9433 -1.2734 -4.2472
 7408SOL     OW33859   1.939   0.536   4.346 -0.3056 -0.2108 -0.2432
 7408SOL    HW133860   1.979   0.475   4.284  0.5824  2.4644 -2.2790
 7408SOL    HW233861   1.967   0.618   4.306 -1.4788 -1.0806 -2.8545
 7409SOL     OW33862   4.167   1.320   7.397  0.0650 -0.5405 -0.6544
 7409SOL    HW133863   4.188   1.412   7.378 -0.0876 -0.1018  1.2383
 7409SOL    HW233864   4.257   1.294   7.417  0.1352  0.4638  0.3687
 7410SOL     OW33865   3.395   0.824   4.656  0.1332 -0.4239 -0.0639
 7410SOL    HW133866   3.454   0.864   4.592 -1.1297 -2.8382 -2.7442
 7410SOL    HW233867   3.440   0.744   4.682  0.7301  0.0263  0.2972
 7411SOL     OW33868   0.634   4.715   5.051  0.6116  0.1716 -0.4654
 7411SOL    HW133869   0.635   4.687   5.142  2.5305  0.5912 -0.3725
 7411SOL    HW233870   0.549   4.678   5.025  0.2164 -0.0736  1.1848
 7412SOL     OW33871   3.106   3.350  16.040  0.9480 -0.0848  0.2029
 7412SOL    HW133872   3.109   3.325  16.132  1.1372  0.9762  0.4861
 7412SOL    HW233873   3.185   3.306  16.008  1.2382  0.9534 -0.5273
 7413SOL     OW33874   3.099   0.247  13.794 -0.1983  0.5631 -0.4406
 7413SOL    HW133875   3.086   0.203  13.878  0.4168  0.7924 -0.2260
 7413SOL    HW233876   3.030   0.310  13.815 -1.8688 -1.2987 -0.3545
 7414SOL     OW33877   1.532   0.134   8.263  0.1171 -0.5256 -0.3051
 7414SOL    HW133878   1.557   0.225   8.275 -0.4355 -0.7207  2.3394
 7414SOL    HW233879   1.530   0.094   8.350 -0.8634 -1.6218 -0.8330
 7415SOL     OW33880   2.934   1.332   8.741 -0.1242 -0.2987  0.2798
 7415SOL    HW133881   2.957   1.286   8.821 -2.2977 -3.2304 -0.7698
 7415SOL    HW233882   3.013   1.385   8.734 -0.2699 -0.1895 -0.5552
 7416SOL     OW33883   4.081   2.682   9.303  0.1337 -0.2033 -0.0233
 7416SOL    HW133884   4.145   2.697   9.373 -0.7806 -1.5802  1.0844
 7416SOL    HW233885   4.002   2.711   9.347 -0.6288 -2.8196  0.3053
 7417SOL     OW33886   4.714   2.668   8.034 -0.5092  0.8142  0.0186
 7417SOL    HW133887   0.042   2.688   8.095 -0.2391 -0.5876  0.1513
 7417SOL    HW233888   4.737   2.581   8.001 -0.9476  0.0739  1.7218
 7418SOL     OW33889   3.070   1.282  14.284 -0.0987 -0.4884 -0.0420
 7418SOL    HW133890   3.051   1.325  14.367  2.0029  1.1888 -0.4521
 7418SOL    HW233891   2.988   1.309  14.241  0.8065  0.1114 -1.4025
 7419SOL     OW33892   1.324   2.738   4.856 -0.4707  0.0206  0.2264
 7419SOL    HW133893   1.382   2.686   4.800  0.6624  3.6054 -2.0013
 7419SOL    HW233894   1.267   2.778   4.790  0.0372  1.6610  0.7871
 7420SOL     OW33895   1.895   4.244   8.494  0.4647  0.0507 -0.2269
 7420SOL    HW133896   1.946   4.168   8.469  0.0092 -0.4098  0.2517
 7420SOL    HW233897   1.820   4.251   8.435  0.5126  2.4947 -0.0162
 7421SOL     OW33898   4.482   4.501  16.251  0.3941  0.7077 -0.4706
 7421SOL    HW133899   4.445   4.421  16.213 -2.7040  2.4642 -1.1599
 7421SOL    HW233900   4.529   4.540  16.177 -0.4364  1.2815 -0.6978
 7422SOL     OW33901   2.194   3.480   1.749 -0.2162  0.4250  0.2869
 7422SOL    HW133902   2.198   3.392   1.711 -1.6837 -0.2020  1.5674
 7422SOL    HW233903   2.126   3.519   1.695 -0.7041 -2.0159 -0.8432
 7423SOL     OW33904   3.180   2.996   3.294 -0.4499  0.2787 -0.0004
 7423SOL    HW133905   3.135   2.986   3.378 -2.2905 -0.5603 -1.0781
 7423SOL    HW233906   3.172   3.089   3.271 -1.9048 -0.3449 -1.9607
 7424SOL     OW33907   3.116   1.252   4.326  0.4671  0.4238  0.3123
 7424SOL    HW133908   3.056   1.277   4.256 -0.0971 -0.2575  0.5570
 7424SOL    HW233909   3.189   1.226   4.269  0.2978  1.5852 -0.4476
 7425SOL     OW33910   3.260   1.112  12.335 -0.2919  0.1489 -0.0607
 7425SOL    HW133911   3.184   1.057  12.320  0.6704 -1.3686  0.6834
 7425SOL    HW233912   3.224   1.201  12.342 -1.3964 -0.1923 -1.4541
 7426SOL     OW33913   2.548   1.980   4.399  0.4735  0.3974  0.0490
 7426SOL    HW133914   2.512   2.053   4.449  2.1633  1.4750 -0.2978
 7426SOL    HW233915   2.640   2.001   4.382  0.6899  1.2206  2.2035
 7427SOL     OW33916   4.227   2.850   8.424 -0.4208 -0.8526  0.4137
 7427SOL    HW133917   4.219   2.907   8.348 -1.1151 -0.6692  0.6204
 7427SOL    HW233918   4.296   2.899   8.469  1.0812 -2.0662 -0.5661
 7428SOL     OW33919   2.625   3.448   7.393  0.1529 -0.0743  0.0068
 7428SOL    HW133920   2.610   3.543   7.399 -1.2372 -0.2899 -0.1601
 7428SOL    HW233921   2.548   3.420   7.441 -0.1761 -1.0368 -1.0915
 7429SOL     OW33922   1.562   4.459   9.125 -0.1804 -0.2947 -0.0501
 7429SOL    HW133923   1.513   4.385   9.162  1.2688 -0.4218  1.6094
 7429SOL    HW233924   1.496   4.527   9.143 -2.3463 -1.6654 -2.8476
 7430SOL     OW33925   0.501   0.572   8.521 -0.2751  0.2506  0.5800
 7430SOL    HW133926   0.516   0.571   8.615  0.6616  0.2870  0.4234
 7430SOL    HW233927   0.405   0.575   8.513 -0.0090  3.2502 -1.6716
 7431SOL     OW33928   0.717   0.681  10.087  0.4487 -0.5562  0.2545
 7431SOL    HW133929   0.694   0.640  10.170 -0.9995 -1.3178 -0.5400
 7431SOL    HW233930   0.635   0.724  10.065  0.7043  0.3339  1.0156
 7432SOL     OW33931   3.434   2.831  15.041 -0.0580 -0.0414  0.0742
 7432SOL    HW133932   3.511   2.812  14.987  0.4216  0.7736  0.4628
 7432SOL    HW233933   3.462   2.914  15.081 -0.5698 -0.1694  0.6999
 7433SOL     OW33934   0.453   3.532   6.482  0.6389  0.4980 -0.0971
 7433SOL    HW133935   0.512   3.515   6.408  1.1864  2.2153 -0.0366
 7433SOL    HW233936   0.376   3.485   6.450  1.0744 -1.1888  1.3328
 7434SOL     OW33937   3.899   2.512   9.182  0.4767 -0.1662  0.2930
 7434SOL    HW133938   3.982   2.547   9.215 -0.2690  0.0465  1.9328
 7434SOL    HW233939   3.846   2.513   9.262 -1.1181  0.2816 -0.7577
 7435SOL     OW33940   2.619   0.755   4.351  0.1496 -0.0655  0.1860
 7435SOL    HW133941   2.711   0.774   4.329 -0.0796  0.1379 -0.6019
 7435SOL    HW233942   2.598   0.679   4.295 -2.5800  0.4019  0.5851
 7436SOL     OW33943   0.086   1.360   2.689  0.0411  0.3517  0.7487
 7436SOL    HW133944   0.093   1.271   2.654  3.7491  1.1918 -0.7074
 7436SOL    HW233945   0.165   1.394   2.646 -0.4798  0.1442 -0.3709
 7437SOL     OW33946   0.590   0.586   6.418 -0.2002  0.2148  0.4601
 7437SOL    HW133947   0.674   0.558   6.454  0.0058  1.0074  0.5945
 7437SOL    HW233948   0.545   0.630   6.489  0.9586 -0.3111  1.5124
 7438SOL     OW33949   4.437   0.119   3.448 -0.4654  0.2295 -0.4238
 7438SOL    HW133950   4.375   0.165   3.506  1.6037  1.0891  1.1013
 7438SOL    HW233951   4.506   0.099   3.511 -1.8285 -0.8972  0.7211
 7439SOL     OW33952   0.995   1.774   8.838  0.0202 -0.2198 -0.1306
 7439SOL    HW133953   1.069   1.713   8.829 -2.1103 -3.2493  2.5372
 7439SOL    HW233954   0.963   1.747   8.924 -1.2234  0.5959 -0.3465
 7440SOL     OW33955   3.317   2.276   5.980  0.5359 -0.0648  0.0928
 7440SOL    HW133956   3.229   2.254   6.011 -0.0236 -0.5421 -1.7942
 7440SOL    HW233957   3.363   2.200   6.013  1.5342  0.0092 -1.1212
 7441SOL     OW33958   4.623   1.534  13.258 -0.3967  0.1739 -0.0891
 7441SOL    HW133959   4.685   1.564  13.191 -0.5343  0.9910  0.1530
 7441SOL    HW233960   4.541   1.582  13.253 -0.2657  0.3183 -0.9184
 7442SOL     OW33961   3.373   0.687   0.320  0.2397  0.1396 -0.2402
 7442SOL    HW133962   3.326   0.604   0.322 -1.2950  1.0388  0.9651
 7442SOL    HW233963   3.348   0.727   0.237  0.1348 -2.6157 -1.5387
 7443SOL     OW33964   4.685   2.525   4.451  0.5174 -0.1315  0.2308
 7443SOL    HW133965   4.677   2.552   4.543 -0.7901  3.9943 -1.0950
 7443SOL    HW233966   4.595   2.547   4.427  0.7591  0.8173  0.2229
 7444SOL     OW33967   4.256   3.884   5.388 -0.2335  0.1031  0.0344
 7444SOL    HW133968   4.307   3.808   5.416  0.1058  0.9377  1.6596
 7444SOL    HW233969   4.310   3.905   5.312  0.5765 -2.3586 -0.0625
 7445SOL     OW33970   0.364   1.633   3.974 -0.4146 -0.1842 -0.6583
 7445SOL    HW133971   0.272   1.616   3.992 -0.1777  0.2950  1.0352
 7445SOL    HW233972   0.382   1.655   4.065  1.8479 -3.8434 -0.2131
 7446SOL     OW33973   0.587   4.445   1.263  0.2864 -0.2364 -0.1658
 7446SOL    HW133974   0.593   4.502   1.186 -1.5591  0.2685  0.0762
 7446SOL    HW233975   0.556   4.503   1.332  0.7249  1.4087 -1.3432
 7447SOL     OW33976   1.279   0.561   5.070 -0.1739  0.0639  0.1756
 7447SOL    HW133977   1.280   0.483   5.016 -0.5496  2.3848 -3.1628
 7447SOL    HW233978   1.325   0.626   5.017  0.7283  0.3436  1.3080
 7448SOL     OW33979   0.243   1.855  10.503 -0.3638  0.1039 -0.2441
 7448SOL    HW133980   0.178   1.885  10.565 -2.4304  0.0862 -2.3950
 7448SOL    HW233981   0.191   1.844  10.423  0.0530  0.1674 -0.5292
 7449SOL     OW33982   3.027   1.065   7.134 -0.3435  0.4753 -0.3272
 7449SOL    HW133983   3.039   1.096   7.045 -2.1558  0.7433 -0.4899
 7449SOL    HW233984   3.017   0.971   7.120 -1.2524  0.5384 -0.1707
 7450SOL     OW33985   3.781   4.134   4.539 -0.2479 -0.3409  0.8322
 7450SOL    HW133986   3.726   4.079   4.484  0.1898 -1.3477  1.4097
 7450SOL    HW233987   3.861   4.081   4.534 -1.0962 -1.4820 -0.6089
 7451SOL     OW33988   2.531   3.535   4.412  0.3613 -0.3323 -0.1796
 7451SOL    HW133989   2.471   3.580   4.352  0.5624 -1.3575 -1.1509
 7451SOL    HW233990   2.496   3.564   4.496  1.2925 -2.5786  0.9905
 7452SOL     OW33991   2.588   3.919   7.974 -0.2135  0.9022 -0.1067
 7452SOL    HW133992   2.497   3.892   7.959 -1.0140  1.5297  3.5220
 7452SOL    HW233993   2.632   3.866   7.907 -0.1149 -1.9931  2.2029
 7453SOL     OW33994   0.263   3.242   8.269  0.0774  0.5177 -0.0381
 7453SOL    HW133995   0.217   3.162   8.245  0.2715  0.1798  0.7132
 7453SOL    HW233996   0.354   3.211   8.265  0.0432  0.2328  1.1125
 7454SOL     OW33997   2.720   1.512  15.442  0.0994  0.1978 -0.4511
 7454SOL    HW133998   2.785   1.446  15.466  0.7416  0.3129 -1.8431
 7454SOL    HW233999   2.658   1.505  15.514  1.2222  1.1170  0.6001
 7455SOL     OW34000   1.679   2.938   8.699 -0.2719  0.1995 -0.2296
 7455SOL    HW134001   1.622   2.861   8.706  0.1271  0.0786  1.8608
 7455SOL    HW234002   1.627   3.017   8.708 -1.2882 -0.3390 -1.4079
 7456SOL     OW34003   0.538   2.669   8.587 -0.6180  0.1135  0.2417
 7456SOL    HW134004   0.631   2.689   8.592 -0.0852 -2.0060 -1.5384
 7456SOL    HW234005   0.538   2.607   8.660  1.4207  1.2629  1.2115
 7457SOL     OW34006   1.032   1.014   6.026 -0.2017 -0.2370  0.1727
 7457SOL    HW134007   1.040   1.066   5.946 -0.3192 -1.6469 -0.7474
 7457SOL    HW234008   1.120   0.977   6.026  1.1950  3.0875  0.0359
 7458SOL     OW34009   3.171   2.373   5.158 -0.2800 -0.1848 -0.2510
 7458SOL    HW134010   3.126   2.453   5.186  2.3996  1.2470 -0.0005
 7458SOL    HW234011   3.261   2.406   5.157 -0.5283  0.4904 -0.5051
 7459SOL     OW34012   3.496   0.762   5.136  0.2632  0.2319 -0.1200
 7459SOL    HW134013   3.506   0.667   5.142  1.9792  0.2825 -2.2612
 7459SOL    HW234014   3.401   0.772   5.132  0.5766  3.3596  0.4785
 7460SOL     OW34015   1.041   0.209  12.213 -0.3011 -0.4134 -0.0415
 7460SOL    HW134016   1.104   0.188  12.282  0.2502  0.4226 -0.2965
 7460SOL    HW234017   0.961   0.242  12.253 -0.5218 -0.0930 -0.7447
 7461SOL     OW34018   4.473   3.414   5.719  0.1168  0.1402  0.3680
 7461SOL    HW134019   4.465   3.506   5.743  2.3744 -0.2667  2.7587
 7461SOL    HW234020   4.556   3.395   5.763 -0.2910  0.4583  1.2735
 7462SOL     OW34021   0.593   0.945  16.071  0.2524 -0.3478 -0.2719
 7462SOL    HW134022   0.553   0.961  15.985  1.9820  2.4969 -0.5336
 7462SOL    HW234023   0.687   0.949  16.051  0.5341  1.3530  1.3833
 7463SOL     OW34024   2.254   0.293  11.071 -0.1437 -0.2033 -0.5810
 7463SOL    HW134025   2.268   0.198  11.078 -0.9201 -0.1780  1.1427
 7463SOL    HW234026   2.337   0.333  11.097  0.0794  0.1193 -1.7896
 7464SOL     OW34027   1.515   3.165   8.686  0.4382 -0.0222  0.2858
 7464SOL    HW134028   1.453   3.235   8.664  0.3410 -0.2004 -0.0042
 7464SOL    HW234029   1.448   3.103   8.714  1.4345 -1.4890 -0.5907
 7465SOL     OW34030   3.134   2.805   1.913 -0.0783 -0.6131  0.5063
 7465SOL    HW134031   3.050   2.839   1.941  1.1555  1.5265  1.6386
 7465SOL    HW234032   3.195   2.879   1.924  0.8784 -1.3862  0.4430
 7466SOL     OW34033   1.570   3.822   4.102  0.5885 -0.0090 -0.3317
 7466SOL    HW134034   1.564   3.744   4.158  1.6256 -0.1403 -0.4057
 7466SOL    HW234035   1.565   3.775   4.019 -0.3589  2.6990 -1.8106
 7467SOL     OW34036   0.215   4.108   6.198  1.1757 -0.4656  0.4378
 7467SOL    HW134037   0.285   4.094   6.261  0.0034 -0.4530  1.7317
 7467SOL    HW234038   0.175   4.021   6.201 -1.7068  0.8043 -0.7563
 7468SOL     OW34039   2.272   1.176  14.898  0.1697  0.0060 -0.2827
 7468SOL    HW134040   2.331   1.251  14.908 -0.6935  0.4916  1.2057
 7468SOL    HW234041   2.338   1.118  14.860 -0.9482 -1.7553  0.4676
 7469SOL     OW34042   3.325   1.915   8.998  0.3220  0.0146  0.6056
 7469SOL    HW134043   3.309   1.998   8.955  0.7201  1.1775  2.7013
 7469SOL    HW234044   3.420   1.907   8.994  0.3712  0.2071  1.3274
 7470SOL     OW34045   4.734   3.026   1.134 -0.7039  0.0780  0.0874
 7470SOL    HW134046   4.643   3.055   1.123 -1.0516 -0.4078  1.7376
 7470SOL    HW234047   4.726   2.962   1.204  0.7511 -2.7132 -2.3319
 7471SOL     OW34048   4.008   1.917   1.186  0.4742 -0.0073 -0.5650
 7471SOL    HW134049   4.059   1.847   1.227  2.3915  1.1065 -1.0885
 7471SOL    HW234050   3.972   1.864   1.115 -0.0714 -0.8732  0.3622
 7472SOL     OW34051   1.483   3.190   5.679 -0.6007 -0.2309  0.0533
 7472SOL    HW134052   1.414   3.253   5.656 -1.3397 -0.3440  1.8821
 7472SOL    HW234053   1.458   3.170   5.769  0.8229  0.7782  0.6825
 7473SOL     OW34054   4.148   3.001   2.591  0.4462  0.1653  0.4448
 7473SOL    HW134055   4.145   3.063   2.517  2.0607 -0.6849 -0.3216
 7473SOL    HW234056   4.238   3.010   2.622  1.1312  1.8855 -1.9780
 7474SOL     OW34057   2.098   3.489   0.504  0.2272 -0.0446  0.2908
 7474SOL    HW134058   2.024   3.428   0.502  0.6448 -0.5414  0.0733
 7474SOL    HW234059   2.108   3.524   0.415  3.2197 -0.7357  0.3587
 7475SOL     OW34060   4.603   2.950   3.943 -0.1164 -0.1522 -0.6021
 7475SOL    HW134061   4.529   2.893   3.922  0.5296 -1.4590  0.7183
 7475SOL    HW234062   4.607   2.951   4.039 -0.7110 -3.1636 -0.5689
 7476SOL     OW34063   2.369   4.677   8.274  0.7735 -0.4974  0.3517
 7476SOL    HW134064   2.372   4.600   8.331 -0.1287  0.4440  1.6695
 7476SOL    HW234065   2.322   4.645   8.197 -0.7900  0.7956  0.7681
 7477SOL     OW34066   3.924   2.915   5.186  0.5640  0.3927  0.2880
 7477SOL    HW134067   3.928   2.845   5.251  1.3675 -0.7214 -0.9698
 7477SOL    HW234068   3.993   2.877   5.132  0.7392 -2.3465  2.4606
 7478SOL     OW34069   4.170   1.936  12.784 -0.2344 -0.2506 -0.0016
 7478SOL    HW134070   4.233   1.884  12.835  1.9473  1.7805 -0.6659
 7478SOL    HW234071   4.093   1.879  12.793  1.9866 -3.0752  1.0006
 7479SOL     OW34072   4.539   0.990  16.002  0.4583 -0.3930  0.6881
 7479SOL    HW134073   4.620   1.039  15.989  0.8480 -1.1634  0.2292
 7479SOL    HW234074   4.479   1.061  15.980  0.9823  0.3503  1.6673
 7480SOL     OW34075   1.460   2.677   6.271 -0.2374  0.2981  0.0033
 7480SOL    HW134076   1.518   2.660   6.196 -1.0432  0.7499 -0.7248
 7480SOL    HW234077   1.380   2.636   6.238  0.2596 -0.1476 -0.6544
 7481SOL     OW34078   2.753   1.055   5.688 -0.7437  0.2218  0.0354
 7481SOL    HW134079   2.824   1.091   5.742 -1.0152  0.1628  0.4318
 7481SOL    HW234080   2.806   1.027   5.614  1.9878 -0.4325  2.2275
 7482SOL     OW34081   0.109   4.579   2.040  0.0010  0.0765  0.2594
 7482SOL    HW134082   0.189   4.581   1.988 -1.9469 -1.0605 -2.8045
 7482SOL    HW234083   0.057   4.539   1.970  0.3274 -2.5097  1.4682
 7483SOL     OW34084   3.128   2.935   3.813 -0.0536  0.6732  0.6653
 7483SOL    HW134085   3.118   2.845   3.842 -0.9730  0.3945 -0.5269
 7483SOL    HW234086   3.223   2.942   3.820  0.0089 -0.3815  0.8633
 7484SOL     OW34087   2.403   1.723   7.062  0.0250  0.1153  0.4060
 7484SOL    HW134088   2.341   1.752   6.995  0.4335  0.4852  0.1905
 7484SOL    HW234089   2.350   1.683   7.131 -2.2672  2.9654  0.2998
 7485SOL     OW34090   1.763   3.378   5.790 -0.2051 -0.6226 -0.2282
 7485SOL    HW134091   1.849   3.402   5.823 -1.1484 -0.4235  2.1234
 7485SOL    HW234092   1.755   3.289   5.824 -1.9093 -0.7516 -0.9595
 7486SOL     OW34093   2.785   4.215   4.951  0.1946 -0.3632  0.0194
 7486SOL    HW134094   2.791   4.219   4.855 -1.7112 -1.0854 -0.1201
 7486SOL    HW234095   2.876   4.196   4.973 -0.1013 -2.2289 -0.4047
 7487SOL     OW34096   3.609   2.053   6.088  0.7263  0.5691  0.3081
 7487SOL    HW134097   3.699   2.085   6.081  0.8524  0.2734  0.5789
 7487SOL    HW234098   3.566   2.126   6.132 -0.4145 -0.7264  1.3804
 7488SOL     OW34099   3.514   3.363   3.003  0.4478  0.2237  0.9734
 7488SOL    HW134100   3.514   3.434   3.067  2.4712 -0.2582  1.4982
 7488SOL    HW234101   3.607   3.347   2.988  0.0654  0.7291 -2.0090
 7489SOL     OW34102   1.335   4.678   9.115 -0.3900  0.6484 -0.3951
 7489SOL    HW134103   1.281   4.725   9.052  1.7339  1.8168 -1.3465
 7489SOL    HW234104   1.381   0.009   9.155 -0.3461  0.2914  0.2107
 7490SOL     OW34105   3.539   3.794  15.932  0.0404  0.1935 -0.6790
 7490SOL    HW134106   3.540   3.828  16.022  1.6999  1.0759 -1.0400
 7490SOL    HW234107   3.506   3.707  15.952  0.2970  0.2630  0.0314
 7491SOL     OW34108   2.554   3.817   0.777 -0.3449  0.0953 -0.9872
 7491SOL    HW134109   2.619   3.870   0.823 -1.8113  0.7041  0.4075
 7491SOL    HW234110   2.473   3.845   0.819  1.0054  0.9796  1.0300
 7492SOL     OW34111   1.159   3.584   7.207  0.1816 -0.2335 -0.2688
 7492SOL    HW134112   1.223   3.514   7.192  2.0379  1.9039 -2.4842
 7492SOL    HW234113   1.157   3.628   7.122  1.2232 -0.2323 -0.2877
 7493SOL     OW34114   3.445   3.353   0.561 -0.1105 -0.3763  0.0082
 7493SOL    HW134115   3.449   3.320   0.471  1.3498  1.2821 -0.5508
 7493SOL    HW234116   3.487   3.279   0.604  0.7365 -1.0338 -1.9560
 7494SOL     OW34117   1.161   2.103   5.295  0.2398 -0.4085 -0.2442
 7494SOL    HW134118   1.170   2.144   5.381  1.2450 -2.5884  0.6970
 7494SOL    HW234119   1.117   2.169   5.243  3.8254  0.7023 -1.8767
 7495SOL     OW34120   1.112   1.532   0.393  0.5417  0.0815 -0.3880
 7495SOL    HW134121   1.089   1.532   0.301 -0.8277 -0.8828 -0.0460
 7495SOL    HW234122   1.068   1.609   0.430  1.0169  0.0447  0.2716
 7496SOL     OW34123   1.883   1.294  12.295 -0.0256 -0.1072 -0.3015
 7496SOL    HW134124   1.882   1.208  12.338  0.5050  0.7829  1.5003
 7496SOL    HW234125   1.968   1.335  12.306  0.8352 -1.3968 -2.1584
 7497SOL     OW34126   3.629   1.985  14.639  0.1911  0.7027  0.2232
 7497SOL    HW134127   3.684   1.987  14.718 -0.1162  1.3074  0.4210
 7497SOL    HW234128   3.695   1.949  14.580 -2.1210 -1.7792 -0.8296
 7498SOL     OW34129   3.007   2.542   7.857 -0.1866  0.2837 -0.1603
 7498SOL    HW134130   2.930   2.495   7.891  0.6112 -1.9376 -1.3825
 7498SOL    HW234131   3.075   2.497   7.908  0.1820  1.4513  0.3652
 7499SOL     OW34132   4.029   4.237  10.767  0.3317  0.3246  0.4870
 7499SOL    HW134133   3.978   4.187  10.702 -1.4959  0.7032  1.6325
 7499SOL    HW234134   4.117   4.233  10.730  0.1707  2.7172 -0.1632
 7500SOL     OW34135   0.861   3.557   2.011  0.3951 -0.2411 -0.5338
 7500SOL    HW134136   0.852   3.470   2.051  0.3916 -0.4911 -1.0820
 7500SOL    HW234137   0.828   3.549   1.922 -1.9284 -1.9314  0.4817
 7501SOL     OW34138   3.577   4.703   9.026 -0.5081 -0.8998 -0.1929
 7501SOL    HW134139   3.538   0.047   9.015 -1.8812 -1.6671 -1.3733
 7501SOL    HW234140   3.532   4.668   8.950 -1.0059 -0.5183 -0.0730
 7502SOL     OW34141   2.846   0.669   6.051 -0.1385  0.2957  0.0076
 7502SOL    HW134142   2.854   0.692   6.144 -0.7642 -1.1813  0.4240
 7502SOL    HW234143   2.920   0.615   6.023 -1.6494 -2.2593  0.9226
 7503SOL     OW34144   1.556   3.641  12.535  0.2303  0.8655 -0.0945
 7503SOL    HW134145   1.463   3.665  12.532 -0.3461 -1.2058  0.9444
 7503SOL    HW234146   1.554   3.554  12.496 -1.6210  0.1367  1.6100
 7504SOL     OW34147   0.566   3.707   8.319 -0.0946  0.0669  0.4810
 7504SOL    HW134148   0.582   3.745   8.405 -2.7214  0.4136  0.8131
 7504SOL    HW234149   0.597   3.779   8.264  0.1321  0.3026  0.9184
 7505SOL     OW34150   0.521   2.687   3.785  0.5674  0.0432 -1.0199
 7505SOL    HW134151   0.479   2.770   3.808  0.8310  0.1212 -0.8194
 7505SOL    HW234152   0.600   2.685   3.839  0.1063 -1.4906 -0.4025
 7506SOL     OW34153   2.086   0.925   2.563  0.6021  0.3484 -0.7294
 7506SOL    HW134154   2.052   0.838   2.583  0.1106  0.9534  1.0491
 7506SOL    HW234155   2.141   0.937   2.640 -0.9556  0.3911  0.3701
 7507SOL     OW34156   1.588   1.848  11.452 -0.5494  0.3555 -0.1013
 7507SOL    HW134157   1.601   1.801  11.535 -0.3073  0.3319 -0.1498
 7507SOL    HW234158   1.609   1.774  11.394  1.7297  1.1732 -0.3513
 7508SOL     OW34159   0.277   3.377  16.406  0.0139  0.3842 -0.2294
 7508SOL    HW134160   0.241   3.408  16.489  1.8082 -1.4263  1.1968
 7508SOL    HW234161   0.203   3.391  16.346 -0.0910  2.7561  0.4591
 7509SOL     OW34162   2.384   2.159  13.626 -0.0415  0.3115 -0.1496
 7509SOL    HW134163   2.419   2.232  13.574 -0.0849  0.8953  0.6525
 7509SOL    HW234164   2.411   2.172  13.717  2.6138  1.2970 -1.0639
 7510SOL     OW34165   4.644   0.638   7.874 -0.2031  0.0655 -0.2653
 7510SOL    HW134166   4.558   0.678   7.886 -0.6920 -0.9625 -0.4319
 7510SOL    HW234167   4.701   0.715   7.867  0.7141 -0.4971  0.9379
 7511SOL     OW34168   1.052   1.995   9.241  0.5377  0.4909  0.3355
 7511SOL    HW134169   1.059   2.071   9.298 -1.0103  1.2923 -0.5338
 7511SOL    HW234170   1.065   1.921   9.300 -1.1393  0.9292  1.2748
 7512SOL     OW34171   3.018   0.801  10.143  0.0498  0.0954 -0.0104
 7512SOL    HW134172   3.008   0.853  10.063 -1.1710 -0.0527  0.0431
 7512SOL    HW234173   2.977   0.715  10.129  2.4299 -0.7237 -1.9931
 7513SOL     OW34174   1.726   1.440   3.317 -0.6550  0.6584  0.5646
 7513SOL    HW134175   1.821   1.446   3.329 -0.6959  0.7960  0.8324
 7513SOL    HW234176   1.715   1.523   3.271  0.9878  0.1869 -0.7063
 7514SOL     OW34177   1.136   4.569   2.966 -0.0215  0.2722  0.0044
 7514SOL    HW134178   1.186   4.505   2.914 -1.8996 -0.3768 -0.9915
 7514SOL    HW234179   1.081   4.609   2.899 -0.4293 -1.3050 -0.6161
 7515SOL     OW34180   1.887   0.841   3.274  0.3438  0.2908 -0.2663
 7515SOL    HW134181   1.904   0.841   3.368  1.6311  1.9861 -0.5112
 7515SOL    HW234182   1.793   0.858   3.268  0.3746  0.0775 -1.3014
 7516SOL     OW34183   4.097   3.760   9.569 -0.2099  0.4200 -0.3070
 7516SOL    HW134184   4.073   3.852   9.575  0.0878  0.3502  2.0205
 7516SOL    HW234185   4.127   3.756   9.478 -0.7023 -2.5127 -0.3372
 7517SOL     OW34186   4.625   0.325  10.100 -0.0146 -0.0619  0.2304
 7517SOL    HW134187   4.596   0.415  10.118 -2.9546 -0.5782 -2.0217
 7517SOL    HW234188   4.616   0.287  10.188 -0.1262 -0.0747  0.2133
 7518SOL     OW34189   2.953   2.161   7.383  0.8070  0.1424 -0.3469
 7518SOL    HW134190   2.961   2.126   7.294  0.7307  1.4677 -0.8723
 7518SOL    HW234191   2.971   2.254   7.373  3.3156 -0.4838 -1.7711
 7519SOL     OW34192   2.200   3.844   2.925 -0.3788  0.0434  0.1001
 7519SOL    HW134193   2.104   3.841   2.932 -0.4794  0.1766 -1.2442
 7519SOL    HW234194   2.215   3.755   2.895 -1.2707  0.0185 -0.2751
 7520SOL     OW34195   3.362   2.272  15.526 -0.3032  0.5899 -0.1829
 7520SOL    HW134196   3.439   2.294  15.472 -1.2075  1.7194 -1.0148
 7520SOL    HW234197   3.391   2.290  15.615  0.0451 -1.7995  0.1818
 7521SOL     OW34198   4.559   4.149   3.798 -0.3533  0.1616  0.1900
 7521SOL    HW134199   4.617   4.084   3.758  0.6701  2.7253 -2.5205
 7521SOL    HW234200   4.478   4.100   3.786  0.2322 -0.5568 -0.8442
 7522SOL     OW34201   1.990   1.027   3.678  0.0321 -0.3161  0.2254
 7522SOL    HW134202   1.940   1.032   3.760  2.3428  1.5340  1.5199
 7522SOL    HW234203   1.952   1.099   3.626  0.5701 -1.2661 -1.4628
 7523SOL     OW34204   1.649   2.150   0.180  0.2929 -0.0930  0.6028
 7523SOL    HW134205   1.710   2.185   0.114 -0.3259 -0.2286 -0.0273
 7523SOL    HW234206   1.572   2.159   0.124 -0.4736 -2.1512  1.3461
 7524SOL     OW34207   1.836   2.003   1.187 -0.1592 -0.3281 -0.4946
 7524SOL    HW134208   1.827   1.944   1.262 -1.4921  3.1193  2.0490
 7524SOL    HW234209   1.900   2.063   1.224  0.7226 -0.5093 -1.7138
 7525SOL     OW34210   4.110   3.318  14.255 -0.8052 -0.1024 -0.3344
 7525SOL    HW134211   4.119   3.226  14.279 -1.4752  0.8134  3.4364
 7525SOL    HW234212   4.081   3.342  14.343 -1.3539  0.4265 -0.6656
 7526SOL     OW34213   2.620   4.454   3.587  0.0898  0.2275  0.9255
 7526SOL    HW134214   2.564   4.443   3.664 -0.5520  1.4744  0.6377
 7526SOL    HW234215   2.636   4.365   3.558 -1.3012 -0.4213  2.1310
 7527SOL     OW34216   2.499   4.672   4.496 -0.2414 -0.0148  0.5555
 7527SOL    HW134217   2.544   4.724   4.563  1.1316  2.0323 -1.9630
 7527SOL    HW234218   2.556   4.596   4.483  0.5413  0.4585  1.1771
 7528SOL     OW34219   2.148   4.577  10.870 -0.1088 -0.0342  0.6464
 7528SOL    HW134220   2.117   4.551  10.957 -1.9117  1.0901  0.3331
 7528SOL    HW234221   2.066   4.586  10.823 -0.3633 -0.0770  1.0765
 7529SOL     OW34222   2.053   3.726  12.210 -0.5884 -1.0845  0.1301
 7529SOL    HW134223   1.958   3.732  12.215 -0.4733  0.6555 -0.0505
 7529SOL    HW234224   2.069   3.647  12.263  0.1371 -0.4764  0.8202
 7530SOL     OW34225   0.393   0.314   8.755 -0.0680  0.3486 -0.1207
 7530SOL    HW134226   0.408   0.222   8.775  0.6204  0.5036  0.0711
 7530SOL    HW234227   0.353   0.303   8.669 -0.5515 -0.0668  0.1542
 7531SOL     OW34228   4.650   1.264  12.715  1.1656 -0.1773 -0.3021
 7531SOL    HW134229   4.732   1.312  12.725 -0.5192  1.7233  4.1940
 7531SOL    HW234230   4.595   1.286  12.791 -0.2706 -0.5507 -1.2190
 7532SOL     OW34231   0.908   3.315  14.386  0.3813 -0.0523  0.0599
 7532SOL    HW134232   0.873   3.330  14.298 -0.4880  2.1356  0.7773
 7532SOL    HW234233   0.851   3.359  14.449  2.0444  1.7705  0.2624
 7533SOL     OW34234   3.679   3.345  15.555 -0.1961 -0.3026 -0.3966
 7533SOL    HW134235   3.697   3.281  15.487  0.5102 -1.2192  0.6488
 7533SOL    HW234236   3.672   3.436  15.524  2.9168 -0.3196 -1.1625
 7534SOL     OW34237   2.327   1.295  15.851  0.1974 -0.1276 -0.3956
 7534SOL    HW134238   2.242   1.287  15.809 -0.1298  1.3271 -0.0043
 7534SOL    HW234239   2.382   1.278  15.774  0.9760 -0.1197  0.1489
 7535SOL     OW34240   3.572   3.559   2.742  0.1003 -0.1402 -0.1940
 7535SOL    HW134241   3.594   3.635   2.688 -1.5624  0.8189  0.4789
 7535SOL    HW234242   3.641   3.500   2.713  1.5485  0.6891  1.5241
 7536SOL     OW34243   2.331   2.993   7.856  0.4066  0.6311 -0.2156
 7536SOL    HW134244   2.348   3.066   7.915  2.0422 -0.5189  0.7255
 7536SOL    HW234245   2.236   2.978   7.857  0.5705 -0.1373  2.3757
 7537SOL     OW34246   4.724   2.950  11.194 -0.5737  0.4087 -0.0170
 7537SOL    HW134247   0.073   2.958  11.169 -0.8559 -2.3913 -1.9734
 7537SOL    HW234248   4.699   3.038  11.166 -0.3840  0.2355 -0.7519
 7538SOL     OW34249   2.976   0.365   6.861 -0.0818  0.9978  0.4164
 7538SOL    HW134250   3.047   0.407   6.909 -0.6008  2.0613  0.2598
 7538SOL    HW234251   2.910   0.355   6.930  2.1460 -1.9994  2.1291
 7539SOL     OW34252   3.793   2.327   5.543  0.1856 -0.1260  0.4324
 7539SOL    HW134253   3.865   2.391   5.542 -0.7487  0.9046 -2.0308
 7539SOL    HW234254   3.764   2.334   5.634 -0.5333 -1.8895  0.3261
 7540SOL     OW34255   1.561   2.602   0.230  0.2426 -0.4215  0.5366
 7540SOL    HW134256   1.643   2.562   0.260  0.8854  0.3546 -0.1826
 7540SOL    HW234257   1.603   2.684   0.203 -0.6476 -0.5691 -1.2701
 7541SOL     OW34258   4.638   4.223   7.703  0.5964 -0.0697 -0.1816
 7541SOL    HW134259   4.677   4.168   7.771  0.6576 -0.6271 -0.6667
 7541SOL    HW234260   4.651   4.170   7.624 -0.3761 -0.5798 -0.0080
 7542SOL     OW34261   0.902   4.560   0.488 -0.1122 -0.2143 -0.2445
 7542SOL    HW134262   0.918   4.619   0.415  1.0815 -1.9805 -1.4091
 7542SOL    HW234263   0.899   4.472   0.451  1.5744 -0.1498 -0.5261
 7543SOL     OW34264   0.600   3.501  17.199  0.3043 -0.4786  0.9960
 7543SOL    HW134265   0.505   3.497  17.184  0.8345 -0.5336 -2.2731
 7543SOL    HW234266   0.620   3.407  17.192  2.4755 -0.0408  1.3047
 7544SOL     OW34267   3.847   2.710   4.023 -0.0030 -0.0894 -0.0707
 7544SOL    HW134268   3.920   2.653   4.048  0.3140  0.2605 -0.1967
 7544SOL    HW234269   3.890   2.791   4.052 -1.4973  0.8772 -0.5582
 7545SOL     OW34270   3.846   0.074  11.733 -0.3970 -0.0738  0.0403
 7545SOL    HW134271   3.756   0.065  11.765 -0.5063 -1.2238 -0.5989
 7545SOL    HW234272   3.879   0.118  11.811  1.3372  1.1081 -1.3538
 7546SOL     OW34273   4.717   3.053   7.565 -0.7886  0.1870  0.1637
 7546SOL    HW134274   4.657   3.048   7.490  1.4153  0.9257 -1.6797
 7546SOL    HW234275   4.691   2.978   7.619 -0.6050  1.5617  2.1488
 7547SOL     OW34276   0.459   0.430   5.073 -0.1284  0.1733  0.1148
 7547SOL    HW134277   0.509   0.455   4.996  0.6273 -1.3688  0.1089
 7547SOL    HW234278   0.473   0.336   5.061  0.3418  0.4633 -1.5962
 7548SOL     OW34279   3.047   4.021  15.370  0.1876  0.1832 -0.5175
 7548SOL    HW134280   2.980   4.089  15.361 -2.8751 -2.4649  2.0914
 7548SOL    HW234281   3.125   4.073  15.353  0.9016 -0.3211  1.1618
 7549SOL     OW34282   3.381   1.966   7.519 -0.2442  0.0849 -0.6485
 7549SOL    HW134283   3.302   1.941   7.470  0.9461  1.3230 -3.2262
 7549SOL    HW234284   3.352   2.023   7.591  2.1082  0.2488  0.1541
 7550SOL     OW34285   3.407   3.622  12.956 -0.7314  0.3533 -0.4491
 7550SOL    HW134286   3.313   3.633  12.969 -1.2885 -2.9743 -1.7623
 7550SOL    HW234287   3.439   3.683  13.023  1.1367  0.0909 -1.0880
 7551SOL     OW34288   2.311   2.080   8.759 -0.1186 -0.1425 -0.5375
 7551SOL    HW134289   2.279   1.992   8.781  0.1733 -0.7822 -2.6880
 7551SOL    HW234290   2.309   2.122   8.845 -0.6404  1.6265 -1.4107
 7552SOL     OW34291   2.204   2.404   8.438 -0.2208 -0.1196  0.1051
 7552SOL    HW134292   2.163   2.373   8.519  0.5555 -1.3687  0.0152
 7552SOL    HW234293   2.227   2.318   8.403  0.4681 -1.2557  3.3745
 7553SOL     OW34294   1.134   1.118  12.062 -0.2889 -0.2073  0.2832
 7553SOL    HW134295   1.205   1.181  12.069  2.1469 -2.9453  0.4457
 7553SOL    HW234296   1.056   1.155  12.103 -0.8489 -0.6429 -0.3917
 7554SOL     OW34297   2.141   0.133   3.360  0.1443 -0.1161  0.2707
 7554SOL    HW134298   2.048   0.155   3.355  0.1642 -0.4499 -1.5133
 7554SOL    HW234299   2.159   0.086   3.441 -1.2515 -0.6623  0.2580
 7555SOL     OW34300   4.576   3.681  15.219  0.2445  0.3597  0.0472
 7555SOL    HW134301   4.525   3.675  15.300 -0.8768 -0.5463 -0.7243
 7555SOL    HW234302   4.651   3.625  15.238 -0.8187 -0.5756  1.4751
 7556SOL     OW34303   3.775   2.303   5.825 -0.2072  1.0305  0.3066
 7556SOL    HW134304   3.863   2.270   5.806 -1.2423 -1.2441 -0.5663
 7556SOL    HW234305   3.758   2.265   5.911  1.9065 -0.5614  0.0257
 7557SOL     OW34306   2.148   3.377   8.762 -0.5458  0.0160 -0.3213
 7557SOL    HW134307   2.068   3.330   8.739 -0.6154  0.0778 -0.2055
 7557SOL    HW234308   2.162   3.418   8.676  0.9777  0.6789  0.2395
 7558SOL     OW34309   2.163   1.456   0.005 -0.3911 -0.0716 -0.4230
 7558SOL    HW134310   2.193   1.433   0.093  1.7177 -2.3004 -1.6983
 7558SOL    HW234311   2.068   1.444   0.010 -0.3803 -0.9185 -2.1131
 7559SOL     OW34312   3.103   0.531  14.776 -0.0085 -0.4527  0.2446
 7559SOL    HW134313   3.037   0.466  14.757 -1.5595  1.1355  0.1830
 7559SOL    HW234314   3.183   0.483  14.799  1.0019  0.3282 -1.6144
 7560SOL     OW34315   4.316   3.199   6.996  0.3854 -0.2626  0.7643
 7560SOL    HW134316   4.304   3.113   7.037 -0.7950 -0.5860 -0.2689
 7560SOL    HW234317   4.294   3.258   7.068  0.1664  0.2998  0.2355
 7561SOL     OW34318   3.190   4.073  10.283  0.1184  0.2284  0.2257
 7561SOL    HW134319   3.123   4.134  10.316  1.4320  1.2241  1.0589
 7561SOL    HW234320   3.184   4.010  10.355  0.8956  2.7149  2.4856
 7562SOL     OW34321   1.508   1.764   4.292 -0.0369  0.5494 -0.0524
 7562SOL    HW134322   1.576   1.829   4.309 -1.1978  1.4323  1.2054
 7562SOL    HW234323   1.498   1.783   4.199 -0.9621 -2.5248 -0.5928
 7563SOL     OW34324   2.561   0.452   6.583  0.2243 -0.0088  0.0749
 7563SOL    HW134325   2.611   0.466   6.663 -0.6210 -3.0931  1.1296
 7563SOL    HW234326   2.551   0.359   6.601  0.7833 -0.5529 -2.4055
 7564SOL     OW34327   0.859   4.023   1.835  0.3654 -0.1663  0.0677
 7564SOL    HW134328   0.796   4.094   1.825 -0.3757 -0.9846 -1.0394
 7564SOL    HW234329   0.940   4.072   1.820 -1.0102  1.6859 -1.3332
 7565SOL     OW34330   3.134   1.909   7.377 -0.2570  0.2677  0.6921
 7565SOL    HW134331   3.069   1.941   7.315 -1.8456 -0.8531  1.7976
 7565SOL    HW234332   3.157   1.821   7.346 -1.3803  0.4217 -0.5506
 7566SOL     OW34333   3.289   0.428   5.273  0.8522  0.4028  0.0471
 7566SOL    HW134334   3.259   0.337   5.275  3.1803 -0.3293  1.4435
 7566SOL    HW234335   3.248   0.464   5.352  0.4057  1.5118 -0.6940
 7567SOL     OW34336   3.147   0.568   8.720 -0.1707 -0.0810  0.1433
 7567SOL    HW134337   3.171   0.570   8.627 -1.6693  2.3235 -0.2099
 7567SOL    HW234338   3.201   0.642   8.748 -0.3226 -0.5454  1.6436
 7568SOL     OW34339   3.990   2.513   8.922 -0.6517 -0.1392  0.4165
 7568SOL    HW134340   3.997   2.432   8.872  0.0058  0.0577  0.1832
 7568SOL    HW234341   3.963   2.486   9.010  0.2150  0.8142  0.9894
 7569SOL     OW34342   1.184   3.120   8.725 -0.6140 -0.1058  0.3768
 7569SOL    HW134343   1.224   3.203   8.751 -0.3732  0.3596 -1.4998
 7569SOL    HW234344   1.142   3.086   8.804  0.1343 -0.6167  0.5634
 7570SOL     OW34345   1.782   0.460   5.714  0.0851  0.2853 -0.2630
 7570SOL    HW134346   1.768   0.376   5.671  1.1402 -1.2883  2.4096
 7570SOL    HW234347   1.804   0.436   5.804  1.9910  0.4357 -0.6934
 7571SOL     OW34348   1.127   3.699   5.832  0.6921  0.3982  0.0029
 7571SOL    HW134349   1.101   3.629   5.772  1.1358  0.8116 -0.6789
 7571SOL    HW234350   1.043   3.747   5.836  1.0306  1.0948 -1.2444
 7572SOL     OW34351   0.909   3.626   7.295 -0.0675 -0.1441  1.1190
 7572SOL    HW134352   1.002   3.604   7.291  0.7326  3.7666 -1.0442
 7572SOL    HW234353   0.885   3.615   7.203 -0.2351  0.4881  1.0909
 7573SOL     OW34354   3.902   1.219   7.976  0.0394  0.3312  0.0384
 7573SOL    HW134355   3.822   1.167   7.968 -0.1782  0.9092 -1.6245
 7573SOL    HW234356   3.966   1.151   7.997  2.3287  1.7202 -2.3809
 7574SOL     OW34357   0.262   2.303  16.330  0.1705  0.6514  0.0731
 7574SOL    HW134358   0.235   2.256  16.251  1.7716  2.7604 -1.7005
 7574SOL    HW234359   0.334   2.244  16.352 -0.7412 -1.0841 -1.5484
 7575SOL     OW34360   1.517   1.194   1.963  0.0278 -0.1812  0.2825
 7575SOL    HW134361   1.546   1.243   1.886 -0.8107  0.6009  0.4657
 7575SOL    HW234362   1.480   1.264   2.017  0.8756  0.6909 -0.2598
 7576SOL     OW34363   4.577   2.824  11.634  0.6927 -0.0622  0.4496
 7576SOL    HW134364   4.493   2.796  11.671  0.9078 -0.2780  0.7723
 7576SOL    HW234365   4.592   2.907  11.679  1.8043 -0.0174 -0.0189
 7577SOL     OW34366   3.744   0.033   8.728 -0.6221 -0.3413  0.0031
 7577SOL    HW134367   3.766   0.111   8.778  2.4189 -2.4435  1.9884
 7577SOL    HW234368   3.779   4.707   8.784  1.3515  0.8040  0.1607
 7578SOL     OW34369   1.475   0.416  11.219  0.1292  0.4438 -0.1800
 7578SOL    HW134370   1.382   0.396  11.209  0.7464 -1.5688 -1.7333
 7578SOL    HW234371   1.511   0.429  11.131 -0.9681 -0.0226 -0.7021
 7579SOL     OW34372   2.596   2.549   4.767 -0.2525 -0.3803  0.0299
 7579SOL    HW134373   2.639   2.634   4.768  3.6763 -2.3579 -0.7952
 7579SOL    HW234374   2.604   2.533   4.673 -0.3325  0.2487 -0.0813
 7580SOL     OW34375   0.152   3.897   8.135  0.7065  0.1080 -0.0910
 7580SOL    HW134376   0.178   3.913   8.226  2.3614  2.1238 -0.9063
 7580SOL    HW234377   0.201   3.822   8.103  0.1187 -1.2775  2.2328
 7581SOL     OW34378   4.653   2.165   4.538  0.1926  0.3837  0.2696
 7581SOL    HW134379   4.608   2.223   4.599  2.6191  1.3441  1.1223
 7581SOL    HW234380   4.612   2.203   4.460 -2.1941 -2.5652  0.0797
 7582SOL     OW34381   0.897   3.416   7.977  0.2762  0.4058 -0.2126
 7582SOL    HW134382   0.984   3.382   7.997  0.1400 -0.0274 -0.3670
 7582SOL    HW234383   0.863   3.434   8.064  0.3126 -0.1134 -0.0944
 7583SOL     OW34384   2.136   4.696   8.853  0.3363 -0.3322 -0.1442
 7583SOL    HW134385   2.061   0.006   8.880 -0.2032 -1.8313  1.2693
 7583SOL    HW234386   2.139   4.641   8.932  1.8707 -1.7118 -1.1654
 7584SOL     OW34387   1.481   2.168  16.236  0.4099  0.3481  0.1326
 7584SOL    HW134388   1.533   2.224  16.179 -2.3774  2.5037 -0.2855
 7584SOL    HW234389   1.522   2.193  16.319  1.3226 -1.0755  0.1102
 7585SOL     OW34390   4.339   4.079   8.399 -0.0879  0.6112  0.6919
 7585SOL    HW134391   4.358   4.011   8.464  1.3740 -0.1276 -0.4925
 7585SOL    HW234392   4.418   4.062   8.347 -1.0744  0.6364 -0.7788
 7586SOL     OW34393   0.671   2.752   9.874 -0.8729  0.1864  0.1216
 7586SOL    HW134394   0.577   2.764   9.864 -1.2524 -2.3097  0.7416
 7586SOL    HW234395   0.693   2.811   9.946 -2.1300  1.5013 -0.5993
 7587SOL     OW34396   4.585   3.052   7.266  0.3067  0.3920 -0.0044
 7587SOL    HW134397   4.639   3.020   7.194 -4.5148 -1.4540 -2.7607
 7587SOL    HW234398   4.569   3.145   7.246  0.7603  0.7889  1.4601
 7588SOL     OW34399   2.793   3.172   5.277  0.0952 -0.2674  0.1416
 7588SOL    HW134400   2.787   3.100   5.215 -3.2258  0.4450 -0.3683
 7588SOL    HW234401   2.871   3.219   5.247 -1.0160  0.8265 -1.0067
 7589SOL     OW34402   4.335   0.176   6.557  0.4490  0.2634  0.0529
 7589SOL    HW134403   4.383   0.227   6.492 -0.2557 -0.7415 -1.2483
 7589SOL    HW234404   4.396   0.106   6.580  0.2671  0.2551  0.5077
 7590SOL     OW34405   2.284   3.396   2.403 -0.3480 -0.4237  0.2564
 7590SOL    HW134406   2.302   3.306   2.431  0.3071  0.2757  2.0326
 7590SOL    HW234407   2.191   3.409   2.423 -0.6497 -0.7677 -0.8838
 7591SOL     OW34408   3.809   3.034   6.924  0.2103 -0.1489 -0.8778
 7591SOL    HW134409   3.724   2.995   6.905 -0.9118  2.0086 -0.1733
 7591SOL    HW234410   3.784   3.119   6.959  0.4465  0.0178 -1.1110
 7592SOL     OW34411   2.958   2.038  11.433 -0.0896 -0.5384  0.6623
 7592SOL    HW134412   2.965   1.968  11.498  1.0923 -0.9258  0.1105
 7592SOL    HW234413   2.863   2.044  11.429 -0.1888 -2.9401 -0.5702
 7593SOL     OW34414   4.389   1.100  11.110 -0.0927 -0.3465  0.2208
 7593SOL    HW134415   4.412   1.009  11.131  1.5825  0.3531  1.3450
 7593SOL    HW234416   4.293   1.098  11.105 -0.0764  1.8199 -0.6237
 7594SOL     OW34417   0.656   3.110  15.457 -0.2934  0.1946  0.1252
 7594SOL    HW134418   0.646   3.068  15.542 -2.6337  1.3503  0.4171
 7594SOL    HW234419   0.748   3.085  15.444 -0.1013 -0.0812  1.9856
 7595SOL     OW34420   0.574   0.123   4.135 -0.1467 -0.0717  0.0233
 7595SOL    HW134421   0.663   0.125   4.100 -0.4613 -1.4803 -0.8482
 7595SOL    HW234422   0.545   0.213   4.119 -0.2396 -0.2810 -1.0008
 7596SOL     OW34423   0.087   3.090   2.142  0.4673  0.0414 -0.0073
 7596SOL    HW134424   0.167   3.040   2.124 -0.7415 -0.5621 -3.4535
 7596SOL    HW234425   0.051   3.055   2.224  2.4072 -1.0119  0.3931
 7597SOL     OW34426   0.934   1.652  15.889  0.1619  0.3777  0.2636
 7597SOL    HW134427   0.931   1.625  15.981 -0.0710  1.7240  0.6501
 7597SOL    HW234428   0.841   1.662  15.869  0.4286  0.8989 -0.7004
 7598SOL     OW34429   3.546   0.035  13.251 -0.2854  0.4688 -0.5298
 7598SOL    HW134430   3.463   0.062  13.211 -0.2841  0.9330 -0.2287
 7598SOL    HW234431   3.606   0.080  13.191 -0.2213  0.6917 -0.2998
 7599SOL     OW34432   3.456   1.293   6.495  0.4820 -0.6397 -0.1363
 7599SOL    HW134433   3.506   1.255   6.567  1.0210  0.2206 -0.0611
 7599SOL    HW234434   3.423   1.216   6.449 -1.0076 -1.2159  1.9274
 7600SOL     OW34435   0.314   2.238   5.058 -0.3285  0.5489 -0.7838
 7600SOL    HW134436   0.325   2.181   5.134 -1.5083 -0.2331 -1.1936
 7600SOL    HW234437   0.403   2.231   5.024 -0.4090  1.7524 -1.2478
 7601SOL     OW34438   0.708   3.089   5.246 -0.0273  0.0573 -0.7300
 7601SOL    HW134439   0.790   3.099   5.294 -0.6201  0.7058  0.1558
 7601SOL    HW234440   0.645   3.102   5.317  1.6158 -1.8463  1.0624
 7602SOL     OW34441   1.319   3.190   8.463 -0.1903 -0.0156 -0.1752
 7602SOL    HW134442   1.328   3.101   8.431 -0.0043 -0.6970  1.7361
 7602SOL    HW234443   1.225   3.199   8.483 -0.1749 -0.6553  0.1601
 7603SOL     OW34444   0.564   1.935   5.646  0.7239  0.6048 -0.5676
 7603SOL    HW134445   0.494   1.999   5.660 -0.1165 -0.4166 -0.0932
 7603SOL    HW234446   0.527   1.855   5.682 -0.7912  1.0419 -1.1636
 7604SOL     OW34447   2.258   3.184   2.590 -0.5030 -0.1011  0.2206
 7604SOL    HW134448   2.340   3.223   2.619 -0.2166  0.1692 -0.9730
 7604SOL    HW234449   2.218   3.157   2.673 -0.1007 -0.2562  0.3657
 7605SOL     OW34450   3.582   0.274  14.971 -0.3969  0.5493  0.0027
 7605SOL    HW134451   3.553   0.236  14.889  1.0913 -0.6842  0.0438
 7605SOL    HW234452   3.503   0.313  15.009 -1.6492 -0.3103 -1.7300
 7606SOL     OW34453   1.469   1.544   2.999 -0.1897  0.0186 -0.0282
 7606SOL    HW134454   1.502   1.480   2.936 -1.2506  0.3430 -0.9079
 7606SOL    HW234455   1.397   1.574   2.944 -1.7099 -1.5264  1.1667
 7607SOL     OW34456   1.803   1.347  15.082  0.5554  0.3667 -0.6868
 7607SOL    HW134457   1.815   1.285  15.154 -0.0519 -0.3838 -1.2268
 7607SOL    HW234458   1.730   1.401  15.114  0.9621  0.1081  0.7163
 7608SOL     OW34459   3.236   1.615   8.513  0.5339  0.1836 -0.6807
 7608SOL    HW134460   3.302   1.552   8.543  1.2950  0.1331 -2.4613
 7608SOL    HW234461   3.258   1.622   8.420 -2.4977 -0.9351 -1.4777
 7609SOL     OW34462   4.276   0.300  10.505  0.0814  0.1623  0.0557
 7609SOL    HW134463   4.331   0.340  10.572  1.0926  0.3512 -0.8904
 7609SOL    HW234464   4.225   0.379  10.489  1.9501  1.3772  0.0886
 7610SOL     OW34465   1.561   0.783   3.696 -0.4129 -0.0669  0.0335
 7610SOL    HW134466   1.472   0.750   3.687 -0.4395  0.3754 -1.4063
 7610SOL    HW234467   1.548   0.874   3.672 -1.6488 -0.2825 -0.1086
 7611SOL     OW34468   1.135   2.803   2.326  0.4237 -0.4304 -0.1768
 7611SOL    HW134469   1.152   2.710   2.338 -1.0004 -0.6063  0.4376
 7611SOL    HW234470   1.173   2.824   2.241 -1.6666  0.1299 -0.9592
 7612SOL     OW34471   1.123   2.206  15.119  0.4588  0.5688 -0.4754
 7612SOL    HW134472   1.056   2.185  15.184  0.5669 -2.4647 -1.3706
 7612SOL    HW234473   1.096   2.290  15.080  1.7279  0.6492 -1.1749
 7613SOL     OW34474   3.113   3.997   8.007 -0.1324  0.3285 -0.6629
 7613SOL    HW134475   3.178   4.040   7.952  1.0898 -1.1874 -0.4209
 7613SOL    HW234476   3.045   4.064   8.017 -0.4724 -0.1130  0.0029
 7614SOL     OW34477   4.339   2.341   6.078  0.2115 -0.0107  0.3506
 7614SOL    HW134478   4.431   2.349   6.051 -0.0266  0.0877 -0.4468
 7614SOL    HW234479   4.322   2.435   6.089 -1.5884 -0.3558  0.4255
 7615SOL     OW34480   1.993   3.596   9.169 -0.8177 -0.4648 -0.3589
 7615SOL    HW134481   1.983   3.501   9.173 -1.4316 -0.4713 -2.1549
 7615SOL    HW234482   2.064   3.612   9.231 -0.0076 -2.8985 -0.6379
 7616SOL     OW34483   2.277   2.313   5.750  0.0306 -0.1536 -0.1104
 7616SOL    HW134484   2.353   2.371   5.741 -0.6233  0.8429  0.7143
 7616SOL    HW234485   2.210   2.380   5.735 -1.1188 -1.6601 -1.8134
 7617SOL     OW34486   2.541   4.026  15.809  0.0943 -0.4841  0.9407
 7617SOL    HW134487   2.630   4.045  15.838  0.2994  0.8430 -0.5545
 7617SOL    HW234488   2.526   4.089  15.739  3.3561  0.3680  1.0183
 7618SOL     OW34489   0.081   3.764   3.091 -0.1545 -0.3316 -0.1992
 7618SOL    HW134490   0.117   3.692   3.143  1.1358 -0.1151 -0.8058
 7618SOL    HW234491   0.156   3.821   3.080 -1.9723  1.2241 -4.3904
 7619SOL     OW34492   0.257   4.418   0.343  0.3338  0.0966  0.5713
 7619SOL    HW134493   0.204   4.467   0.406 -1.3303 -0.9985  0.0043
 7619SOL    HW234494   0.233   4.328   0.365  1.7895  0.2882  2.9615
 7620SOL     OW34495   4.380   2.568   3.320  0.1355 -0.1558  0.2677
 7620SOL    HW134496   4.336   2.644   3.359  1.2536 -0.8153  2.8601
 7620SOL    HW234497   4.461   2.605   3.285 -0.0665  0.4346  0.4122
 7621SOL     OW34498   2.567   1.643   1.512 -0.0764 -0.0396 -0.0338
 7621SOL    HW134499   2.553   1.691   1.594  3.0333  0.1639  0.4043
 7621SOL    HW234500   2.578   1.554   1.544  1.5582 -1.1311 -3.5907
 7622SOL     OW34501   1.359   3.921   8.009 -0.4234  0.1563 -0.2998
 7622SOL    HW134502   1.288   3.879   7.960 -1.2570  2.3939 -1.0084
 7622SOL    HW234503   1.315   3.985   8.064  1.9621  1.0811  0.5465
 7623SOL     OW34504   1.999   3.694   1.267 -0.7250 -0.1673 -0.0824
 7623SOL    HW134505   1.991   3.670   1.175 -0.5225  0.4418 -0.2585
 7623SOL    HW234506   2.089   3.726   1.271 -0.4180 -1.1160  0.6559
 7624SOL     OW34507   0.476   2.536   4.676 -0.1709 -0.0901 -0.2124
 7624SOL    HW134508   0.402   2.497   4.630  1.1788  0.5577 -2.8959
 7624SOL    HW234509   0.430   2.565   4.755  2.5836  1.1501  0.9428
 7625SOL     OW34510   2.057   3.063   2.762  0.0195 -0.3334 -0.9153
 7625SOL    HW134511   2.078   2.988   2.707 -0.2154 -1.0384 -0.0404
 7625SOL    HW234512   1.999   3.021   2.826  0.2185 -0.4340 -0.8025
 7626SOL     OW34513   0.763   0.663   3.065 -0.2387  0.0315  0.5578
 7626SOL    HW134514   0.820   0.672   3.141 -2.5075 -0.8626  2.3741
 7626SOL    HW234515   0.791   0.581   3.023 -1.0870 -0.9284  1.8838
 7627SOL     OW34516   3.513   4.210   3.878 -0.5753  0.1285 -0.2672
 7627SOL    HW134517   3.483   4.149   3.945  1.9790 -0.9883 -0.1584
 7627SOL    HW234518   3.448   4.279   3.892  1.5557  1.8530  1.1888
 7628SOL     OW34519   0.348   2.879   6.304 -0.1709 -0.2732 -0.1860
 7628SOL    HW134520   0.325   2.824   6.379 -0.2746  1.2780  0.9347
 7628SOL    HW234521   0.416   2.930   6.349  1.8189 -2.8857 -0.1844
 7629SOL     OW34522   0.482   2.063   4.021  0.4159 -0.1562 -0.0056
 7629SOL    HW134523   0.428   1.991   4.055  0.2675  0.9213  2.0642
 7629SOL    HW234524   0.552   2.065   4.086  1.5883 -1.4491 -1.2358
 7630SOL     OW34525   4.710   0.842  17.078  0.3368 -0.1303 -0.1155
 7630SOL    HW134526   4.684   0.883  17.161  0.5289 -0.8094  0.2810
 7630SOL    HW234527   4.649   0.893  17.025  0.2291 -0.6121 -0.4538
 7631SOL     OW34528   2.355   0.435   6.419 -0.2660 -0.4861  0.3947
 7631SOL    HW134529   2.429   0.453   6.477 -0.8726 -1.6091  1.5178
 7631SOL    HW234530   2.375   0.489   6.342 -0.0239 -0.3399  0.5614
 7632SOL     OW34531   3.416   4.439   5.586  0.1853 -0.3025 -0.8147
 7632SOL    HW134532   3.466   4.423   5.506 -0.7355  1.9158 -1.8079
 7632SOL    HW234533   3.473   4.389   5.645 -0.2279 -1.1986 -1.1819
 7633SOL     OW34534   4.065   2.250   8.845  0.7627 -0.4018 -0.1738
 7633SOL    HW134535   4.111   2.193   8.783  0.0589  1.1407 -2.0658
 7633SOL    HW234536   3.976   2.216   8.847  1.0829 -1.2870 -0.8557
 7634SOL     OW34537   2.341   2.922   8.897  0.3046  0.2021  0.2560
 7634SOL    HW134538   2.288   2.869   8.838  0.6469  1.9744 -1.6628
 7634SOL    HW234539   2.302   3.010   8.893 -0.7428 -0.1343  2.4941
 7635SOL     OW34540   0.955   0.040   9.244 -0.3576  0.4491  0.0627
 7635SOL    HW134541   0.934   0.057   9.152 -2.0902  0.4381  0.4591
 7635SOL    HW234542   0.888   4.716   9.259 -0.1106  0.1560 -0.1229
 7636SOL     OW34543   1.945   4.728  11.961  0.5334  0.6754 -0.0807
 7636SOL    HW134544   1.996   4.735  11.880  0.4080  3.5631  0.0990
 7636SOL    HW234545   1.912   0.074  11.976  0.4279  0.6875 -0.3837
 7637SOL     OW34546   4.159   0.766   5.931  0.2619 -0.2099  0.8503
 7637SOL    HW134547   4.224   0.803   5.871  0.1485  0.1356  0.9448
 7637SOL    HW234548   4.191   0.808   6.010  1.6515  1.1146 -0.4193
 7638SOL     OW34549   1.123   3.911   3.254  0.3474 -0.1148  0.1521
 7638SOL    HW134550   1.044   3.902   3.200  0.6082  0.3570 -0.2982
 7638SOL    HW234551   1.096   3.913   3.346 -3.0558 -0.2400 -0.8202
 7639SOL     OW34552   2.026   0.929   3.057  0.9972 -0.8548 -0.8788
 7639SOL    HW134553   1.961   0.903   3.122  0.5880  0.6811 -0.6879
 7639SOL    HW234554   2.102   0.923   3.115  2.0685  1.1709 -2.0974
 7640SOL     OW34555   3.432   1.001   3.305  0.4793 -0.2577 -0.2405
 7640SOL    HW134556   3.441   0.982   3.212 -1.3147 -0.7901 -0.3189
 7640SOL    HW234557   3.505   0.946   3.333 -1.0476 -2.3639 -0.3127
 7641SOL     OW34558   2.103   4.368   5.869  0.1099 -0.0539 -0.4595
 7641SOL    HW134559   2.128   4.333   5.955  1.9864 -0.7085 -1.2574
 7641SOL    HW234560   2.050   4.294   5.839 -0.7285  0.8421 -1.1716
 7642SOL     OW34561   3.201   1.987   1.841 -0.6284 -0.2898  0.2374
 7642SOL    HW134562   3.168   2.067   1.883 -0.4086  0.6452 -1.3876
 7642SOL    HW234563   3.135   1.952   1.782 -0.2384  1.5077 -1.2787
 7643SOL     OW34564   4.118   1.905   8.866 -0.4513  0.3253  0.1667
 7643SOL    HW134565   4.051   1.881   8.802  0.3415  2.9626 -1.6694
 7643SOL    HW234566   4.122   1.820   8.910  1.8843 -0.3440 -1.3218
 7644SOL     OW34567   1.547   2.120  17.238  0.4334  0.0456 -0.5420
 7644SOL    HW134568   1.535   2.114  17.333 -0.8044 -0.0307 -0.7106
 7644SOL    HW234569   1.574   2.029  17.225  2.6609  0.3270  2.1062
 7645SOL     OW34570   0.574   3.069  14.062  0.1735  0.3574  0.0057
 7645SOL    HW134571   0.606   3.154  14.032 -2.2814  0.6010 -1.9940
 7645SOL    HW234572   0.651   3.043  14.112 -0.0605 -1.4531 -0.5556
 7646SOL     OW34573   1.194   0.483   1.090  0.1930 -0.0951  0.2340
 7646SOL    HW134574   1.125   0.537   1.051  0.6787 -0.6450 -1.3723
 7646SOL    HW234575   1.253   0.544   1.133  0.3206  0.4086 -0.6559
 7647SOL     OW34576   3.908   4.330   9.573  0.4704  0.0910  0.1805
 7647SOL    HW134577   3.879   4.415   9.606  0.6053 -0.2371  1.1393
 7647SOL    HW234578   4.000   4.329   9.598  0.6026  0.5605 -0.3049
 7648SOL     OW34579   2.691   2.774   0.559  0.0822  0.1017 -0.5312
 7648SOL    HW134580   2.749   2.828   0.506  0.5757 -0.9974 -1.1174
 7648SOL    HW234581   2.726   2.786   0.647  1.9436 -0.0792 -1.2586
 7649SOL     OW34582   2.915   3.011   6.695  0.3369  0.1570 -0.1243
 7649SOL    HW134583   2.890   2.954   6.768  0.3990 -0.5459 -0.6620
 7649SOL    HW234584   2.945   3.082   6.753 -1.0649 -0.4700  1.3918
 7650SOL     OW34585   4.537   4.421  15.007 -0.1921 -0.4792 -0.1278
 7650SOL    HW134586   4.521   4.336  15.048  1.9217 -1.2632 -0.9122
 7650SOL    HW234587   4.451   4.464  15.009 -0.1935 -0.4978  0.1722
 7651SOL     OW34588   1.931   0.111  10.848 -0.3434  0.4535  0.0427
 7651SOL    HW134589   1.850   0.127  10.799 -0.5694 -2.0352 -0.4416
 7651SOL    HW234590   1.986   0.185  10.825  0.7042 -0.3910 -0.1930
 7652SOL     OW34591   3.783   0.837   1.281  0.3612 -0.3566 -0.1758
 7652SOL    HW134592   3.694   0.824   1.312  0.8597 -2.3929  0.4229
 7652SOL    HW234593   3.790   0.931   1.269 -0.0544 -0.0209  2.2535
 7653SOL     OW34594   3.720   4.543   5.026  0.0846  0.1968 -0.1517
 7653SOL    HW134595   3.742   4.532   5.118  0.7560 -0.5543 -0.4053
 7653SOL    HW234596   3.756   4.460   4.993  0.6130  0.6630 -0.7364
 7654SOL     OW34597   0.353   2.851   4.619 -0.7447 -0.3730 -0.2268
 7654SOL    HW134598   0.416   2.794   4.663 -0.7749  1.6762  2.5088
 7654SOL    HW234599   0.338   2.937   4.660  1.5827  0.4356 -1.0178
 7655SOL     OW34600   4.625   3.883   4.205 -0.2793  0.1330 -0.0825
 7655SOL    HW134601   4.561   3.820   4.238  2.5088 -0.9970  3.2860
 7655SOL    HW234602   4.580   3.962   4.176 -2.0336 -1.1618 -0.8726
 7656SOL     OW34603   3.742   4.634   6.702 -0.3902 -0.0109  0.3340
 7656SOL    HW134604   3.817   4.672   6.750 -1.9077 -1.2770  3.6908
 7656SOL    HW234605   3.731   4.549   6.743 -1.2593 -0.0521  0.0067
 7657SOL     OW34606   1.787   0.260   9.242 -0.0445 -0.7051 -0.5855
 7657SOL    HW134607   1.880   0.279   9.255  0.0962 -1.8406  0.0826
 7657SOL    HW234608   1.757   0.307   9.320  1.8084  0.0892 -0.3644
 7658SOL     OW34609   1.642   3.457   1.355 -0.6989  0.3166  0.2653
 7658SOL    HW134610   1.687   3.454   1.270 -1.4494  1.1880 -0.1678
 7658SOL    HW234611   1.592   3.535   1.330 -2.8075 -1.0514  0.1891
 7659SOL     OW34612   2.109   4.509   5.025 -0.2907  0.5543 -0.2994
 7659SOL    HW134613   2.090   4.561   5.103  1.2713  3.0055 -1.5665
 7659SOL    HW234614   2.203   4.530   5.027  0.0520 -0.9607 -0.2983
 7660SOL     OW34615   4.579   2.513   4.098 -0.0061 -0.0366  0.7829
 7660SOL    HW134616   4.623   2.429   4.113  1.0990  0.6355  1.2409
 7660SOL    HW234617   4.540   2.525   4.184  0.6111 -0.9766  1.1906
 7661SOL     OW34618   1.578   0.634   6.397 -0.0406 -0.5040 -0.0814
 7661SOL    HW134619   1.556   0.574   6.468  0.0130 -0.7977 -0.3134
 7661SOL    HW234620   1.672   0.639   6.414 -0.4186 -1.7533  2.2884
 7662SOL     OW34621   3.020   1.928   6.414 -0.2443 -0.0963  0.9067
 7662SOL    HW134622   3.040   1.838   6.441 -0.5362  0.4545  2.9398
 7662SOL    HW234623   3.104   1.970   6.434 -0.3680  0.7491 -0.3348
 7663SOL     OW34624   0.600   1.022   9.051  0.1254  0.3172  0.0313
 7663SOL    HW134625   0.585   1.056   8.963  0.1689 -0.8507 -0.4145
 7663SOL    HW234626   0.534   0.953   9.050 -0.1357  0.5653 -0.0650
 7664SOL     OW34627   3.370   3.748   4.680 -0.2861 -0.0530  0.3685
 7664SOL    HW134628   3.449   3.795   4.710 -1.6231  3.0614 -1.0341
 7664SOL    HW234629   3.304   3.771   4.746  0.1472  1.5576  0.2555
 7665SOL     OW34630   3.000   3.297   2.689 -0.5855 -0.4623  0.2108
 7665SOL    HW134631   3.021   3.227   2.628  0.7634 -0.0411  0.1933
 7665SOL    HW234632   2.936   3.346   2.637 -1.6496 -0.4246  1.5519
 7666SOL     OW34633   2.175   0.985   7.822  0.1046  0.0519 -0.1923
 7666SOL    HW134634   2.166   0.894   7.851  0.3232  0.5968  1.6011
 7666SOL    HW234635   2.119   0.983   7.745 -1.4200  0.4933  0.9053
 7667SOL     OW34636   0.019   1.835  14.419  0.2056  0.2987 -0.4580
 7667SOL    HW134637   4.719   1.862  14.337 -1.5190  1.9646  0.9919
 7667SOL    HW234638   0.103   1.879  14.409 -0.3038  1.3855  0.0435
 7668SOL     OW34639   4.320   3.948   0.633  0.1884  0.0457  0.3827
 7668SOL    HW134640   4.301   3.968   0.541  1.0651 -1.1321 -0.0513
 7668SOL    HW234641   4.414   3.928   0.631  0.1944  0.3203 -1.4701
 7669SOL     OW34642   0.362   3.619   3.607  0.3455  0.1005  0.1641
 7669SOL    HW134643   0.317   3.544   3.645 -3.0775  0.8721 -2.3399
 7669SOL    HW234644   0.386   3.676   3.680 -2.4432 -1.3193  2.1782
 7670SOL     OW34645   0.996   4.082   3.566  0.4529  0.1573 -0.1276
 7670SOL    HW134646   1.049   4.142   3.514  1.3326 -0.1863  0.3765
 7670SOL    HW234647   1.054   4.076   3.642  0.0703 -0.3195  0.1258
 7671SOL     OW34648   2.034   3.608   6.890  0.0436 -0.1397  0.2475
 7671SOL    HW134649   2.092   3.683   6.898 -0.5780  0.3176  0.4815
 7671SOL    HW234650   1.950   3.649   6.870 -0.4153 -1.8871 -1.4825
 7672SOL     OW34651   2.418   0.634   4.695  0.1194  0.0097  0.3417
 7672SOL    HW134652   2.495   0.618   4.749 -1.5302 -3.2544  1.6967
 7672SOL    HW234653   2.352   0.664   4.758 -0.7010 -2.3090  0.5650
 7673SOL     OW34654   3.918   3.486   3.120  0.2233  0.0085 -0.0984
 7673SOL    HW134655   3.957   3.494   3.207  0.3226  3.9073 -0.5141
 7673SOL    HW234656   3.858   3.560   3.118  0.6153  0.3070 -0.8493
 7674SOL     OW34657   3.703   3.518   2.356 -0.2370 -0.2154  0.4965
 7674SOL    HW134658   3.609   3.534   2.350 -0.1822  0.2268  0.8186
 7674SOL    HW234659   3.734   3.589   2.300 -1.1753  0.1140  0.3974
 7675SOL     OW34660   4.218   2.315   4.268 -0.0302  0.6760  0.3365
 7675SOL    HW134661   4.204   2.306   4.174 -0.4992 -3.3680  0.7998
 7675SOL    HW234662   4.132   2.296   4.304  0.3457 -0.3388  0.6895
 7676SOL     OW34663   3.340   1.201   3.040  0.0737  0.4241 -0.1096
 7676SOL    HW134664   3.245   1.211   3.045  0.3213  2.3524  0.7944
 7676SOL    HW234665   3.357   1.111   3.011 -2.8933 -0.5894  1.3288
 7677SOL     OW34666   4.006   1.089   3.236  0.0992 -0.2411  0.6458
 7677SOL    HW134667   4.002   1.059   3.145  2.7647  0.4177  0.3031
 7677SOL    HW234668   3.918   1.122   3.249 -0.6392 -1.7134 -0.5401
 7678SOL     OW34669   4.018   4.268   6.818  0.4400 -0.1643  0.3146
 7678SOL    HW134670   4.023   4.269   6.914 -0.1614  0.6195  0.3398
 7678SOL    HW234671   4.083   4.335   6.799  0.1471  0.0038 -0.0938
 7679SOL     OW34672   4.654   3.595   6.250  0.8068 -0.6542  0.4834
 7679SOL    HW134673   4.602   3.595   6.330  0.3939 -0.9485  0.2203
 7679SOL    HW234674   4.642   3.507   6.214 -1.3855 -0.1175 -0.1004
 7680SOL     OW34675   3.983   3.602   1.570 -0.4846  0.3419 -0.1324
 7680SOL    HW134676   3.915   3.549   1.612 -2.9314  3.4074 -0.2333
 7680SOL    HW234677   4.061   3.553   1.595  0.2032  1.0643 -0.8662
 7681SOL     OW34678   0.774   3.721  17.190 -0.0083  0.3919  0.4979
 7681SOL    HW134679   0.766   3.765  17.275  1.8743  1.5099  0.1090
 7681SOL    HW234680   0.698   3.664  17.198  0.7813 -0.6517  0.5685
 7682SOL     OW34681   3.343   0.821  12.219  0.1074 -0.4947 -0.1914
 7682SOL    HW134682   3.323   0.899  12.167  0.9544 -0.8800 -1.0975
 7682SOL    HW234683   3.297   0.761  12.160  0.2024 -0.7310 -0.0281
 7683SOL     OW34684   2.742   1.408  16.799 -0.2445  0.2360  0.1695
 7683SOL    HW134685   2.649   1.426  16.785 -0.0930  1.9841  1.4888
 7683SOL    HW234686   2.753   1.340  16.731 -0.2840 -0.1083  0.5066
 7684SOL     OW34687   1.905   2.192   5.353 -0.0769  0.1363 -0.3751
 7684SOL    HW134688   1.900   2.165   5.261 -0.0536  1.5900 -0.8086
 7684SOL    HW234689   1.984   2.153   5.390 -1.9491 -0.3508  3.1225
 7685SOL     OW34690   1.525   3.472   8.803 -0.0707  0.2739 -0.1360
 7685SOL    HW134691   1.555   3.540   8.742 -0.0304  1.2274  0.9325
 7685SOL    HW234692   1.606   3.431   8.833 -0.7711  0.0495  1.4138
 7686SOL     OW34693   3.413   4.122   5.711  0.0776  0.2966 -0.1250
 7686SOL    HW134694   3.382   4.068   5.638  0.0853 -1.0518  0.8803
 7686SOL    HW234695   3.499   4.129   5.670 -1.2104  0.5862 -2.7800
 7687SOL     OW34696   3.927   0.041   6.853  0.1215  0.1360 -0.3814
 7687SOL    HW134697   3.980   0.022   6.776  2.9674  1.9297  1.1307
 7687SOL    HW234698   3.974   0.101   6.911  0.4780  0.4185 -0.9726
 7688SOL     OW34699   2.328   2.662  17.374  0.1062  0.0614  0.0544
 7688SOL    HW134700   2.271   2.589  17.352  1.0721 -0.8620  0.6701
 7688SOL    HW234701   2.363   2.687  17.289  1.6582 -1.9778  0.1095
 7689SOL     OW34702   1.421   0.012   8.735 -0.3760  0.1004 -0.3194
 7689SOL    HW134703   1.472   4.739   8.655 -2.4972  1.5809 -1.9660
 7689SOL    HW234704   1.451   4.677   8.782  2.5205  1.9168  0.8160
 7690SOL     OW34705   3.253   2.299   9.249  0.0472  0.2101 -0.0907
 7690SOL    HW134706   3.211   2.243   9.314  2.2507  0.4763  1.5709
 7690SOL    HW234707   3.245   2.383   9.295 -1.3401 -0.6670  1.2863
 7691SOL     OW34708   1.540   3.765   8.254 -0.1764 -0.6750 -0.2792
 7691SOL    HW134709   1.502   3.678   8.244 -3.4332  0.7307 -0.1454
 7691SOL    HW234710   1.536   3.802   8.166 -2.0018 -0.5333 -0.1281
 7692SOL     OW34711   3.121   3.684   9.576  0.1266  0.0429  0.1075
 7692SOL    HW134712   3.057   3.754   9.576 -2.4573 -2.3378  1.7017
 7692SOL    HW234713   3.099   3.633   9.497 -1.6130  1.0958 -0.0662
 7693SOL     OW34714   2.774   3.385   7.174 -0.6902 -0.5226 -0.3490
 7693SOL    HW134715   2.702   3.325   7.155 -2.7478  1.7940  0.1311
 7693SOL    HW234716   2.728   3.411   7.254  0.3565 -1.3196  0.5076
 7694SOL     OW34717   2.153   3.507   8.539 -0.6751  0.1850 -0.3055
 7694SOL    HW134718   2.163   3.599   8.563  1.3495 -0.4700  1.3346
 7694SOL    HW234719   2.074   3.513   8.484 -1.0928  0.2293  0.2983
 7695SOL     OW34720   4.000   0.564  13.582 -0.3905  0.6183 -0.4069
 7695SOL    HW134721   4.087   0.574  13.620 -1.0888 -1.5912  1.7506
 7695SOL    HW234722   4.024   0.498  13.517  1.0738  0.6113  0.1459
 7696SOL     OW34723   2.622   4.259  12.532  0.3309 -0.0267  0.2710
 7696SOL    HW134724   2.637   4.274  12.438  0.6909  1.6758  0.5978
 7696SOL    HW234725   2.551   4.196  12.529  1.4568 -1.2352 -1.2884
 7697SOL     OW34726   3.505   3.216   0.342  0.4691  0.0653  0.6570
 7697SOL    HW134727   3.500   3.211   0.247 -1.5700  0.8633  0.7012
 7697SOL    HW234728   3.597   3.210   0.365  0.5762 -1.8503 -0.2779
 7698SOL     OW34729   3.508   4.423   8.358 -0.1282  0.2966  0.3858
 7698SOL    HW134730   3.549   4.455   8.277  1.1210 -0.0613  0.8693
 7698SOL    HW234731   3.465   4.342   8.333  1.0060  0.0879 -0.9390
 7699SOL     OW34732   4.386   1.324   5.319 -0.3115  0.5631  0.3129
 7699SOL    HW134733   4.472   1.292   5.292 -0.6707  0.8446 -1.1878
 7699SOL    HW234734   4.362   1.237   5.351 -0.9248  0.9849  1.0001
 7700SOL     OW34735   3.989   2.506  16.587 -0.1514 -0.0560 -0.7882
 7700SOL    HW134736   4.074   2.463  16.598 -0.6334 -1.0143 -0.7754
 7700SOL    HW234737   3.928   2.454  16.639 -1.3962  0.4620 -1.7591
 7701SOL     OW34738   1.797   0.918   4.705 -0.0617 -0.2078 -0.2360
 7701SOL    HW134739   1.784   0.987   4.769 -0.2086 -2.5127  2.1952
 7701SOL    HW234740   1.721   0.862   4.723  0.9508 -0.8924  1.8941
 7702SOL     OW34741   1.353   3.811   2.139  0.4091  0.6281 -0.1589
 7702SOL    HW134742   1.287   3.864   2.182 -1.5395 -0.3156 -1.9944
 7702SOL    HW234743   1.345   3.836   2.047  0.8502 -2.3942 -1.0246
 7703SOL     OW34744   2.608   3.231  15.017 -0.4946  0.1276 -0.1596
 7703SOL    HW134745   2.693   3.273  15.004  0.2018 -1.4931 -0.7804
 7703SOL    HW234746   2.558   3.291  14.962 -1.7273 -1.0257 -0.3019
 7704SOL     OW34747   2.657   3.315  15.410  0.1195 -0.2981  0.9119
 7704SOL    HW134748   2.635   3.395  15.456 -0.4717  0.8454 -1.3401
 7704SOL    HW234749   2.611   3.246  15.459 -0.7823 -0.1952  0.2287
 7705SOL     OW34750   4.517   0.570   8.544 -0.3826  0.1122 -0.1481
 7705SOL    HW134751   4.471   0.488   8.525  0.9379 -0.4728 -0.7976
 7705SOL    HW234752   4.478   0.635   8.485 -0.3743 -1.3059 -1.7322
 7706SOL     OW34753   0.504   1.813   2.740  0.5032  0.3351 -0.3124
 7706SOL    HW134754   0.561   1.807   2.664 -0.3750 -0.3077 -0.9109
 7706SOL    HW234755   0.418   1.822   2.700  0.5557 -1.0281 -0.7051
 7707SOL     OW34756   1.313   3.013  12.972 -0.0378 -0.1152 -0.0853
 7707SOL    HW134757   1.386   2.968  12.929 -0.0456 -0.4635  0.2616
 7707SOL    HW234758   1.344   3.045  13.056 -0.0760 -0.2811 -0.0090
 7708SOL     OW34759   3.780   2.874   6.598 -0.3038  0.3702 -0.1786
 7708SOL    HW134760   3.861   2.918   6.625  1.3357 -1.3548 -2.2606
 7708SOL    HW234761   3.714   2.942   6.583 -0.5900  0.2262  0.4180
 7709SOL     OW34762   1.921   2.116   4.106  0.3289  0.3443 -0.3010
 7709SOL    HW134763   1.837   2.083   4.136 -0.8878  2.3354 -1.5054
 7709SOL    HW234764   1.893   2.148   4.020  1.8135  1.0323 -0.5358
 7710SOL     OW34765   2.439   2.797   5.342 -0.3798 -0.0903  0.0713
 7710SOL    HW134766   2.414   2.856   5.271 -2.0213  0.2121  0.9157
 7710SOL    HW234767   2.415   2.711   5.307 -3.8460  0.1371  1.9228
 7711SOL     OW34768   3.088   1.877   5.851 -0.5608 -0.1330  0.0859
 7711SOL    HW134769   3.171   1.887   5.897  0.1335 -0.7625 -1.0323
 7711SOL    HW234770   3.081   1.781   5.855 -0.0638 -0.1796 -0.1723
 7712SOL     OW34771   3.051   2.161   6.046  0.7656  0.1217  0.1903
 7712SOL    HW134772   3.045   2.221   6.121 -1.3647  0.0483  0.0576
 7712SOL    HW234773   3.046   2.073   6.082 -1.9360  0.3565  0.3848
 7713SOL     OW34774   4.509   2.226   7.741  0.4930  0.1465  0.2627
 7713SOL    HW134775   4.431   2.200   7.789 -0.1846  1.4950 -0.0803
 7713SOL    HW234776   4.479   2.315   7.722  1.1804  0.2537 -0.3172
 7714SOL     OW34777   4.458   3.311  15.273  0.3648  0.0481 -0.5099
 7714SOL    HW134778   4.441   3.400  15.302 -0.5145 -0.8491  1.7418
 7714SOL    HW234779   4.478   3.271  15.358 -3.0080 -1.8668 -0.6374
 7715SOL     OW34780   3.576   3.610   7.955  0.6354  0.7129  0.0079
 7715SOL    HW134781   3.555   3.517   7.949  1.2263  0.5020  1.3309
 7715SOL    HW234782   3.670   3.625   7.963  1.0666 -1.5116 -0.9338
 7716SOL     OW34783   1.584   1.908   1.870 -0.0871 -0.0424  0.3180
 7716SOL    HW134784   1.495   1.886   1.898 -0.5787  1.3124 -0.1971
 7716SOL    HW234785   1.596   1.980   1.932  1.8354 -0.1323  0.0650
 7717SOL     OW34786   2.538   1.612   4.402  0.6330  0.4043  0.2638
 7717SOL    HW134787   2.541   1.547   4.333 -2.7071 -0.6351  1.1157
 7717SOL    HW234788   2.486   1.680   4.359  1.2637 -0.8805 -2.5198
 7718SOL     OW34789   3.808   4.029  15.461  0.3826 -0.0804  0.1008
 7718SOL    HW134790   3.802   3.933  15.467  1.2268 -0.2142 -1.5093
 7718SOL    HW234791   3.772   4.038  15.373  0.6376  1.9381  0.2175
 7719SOL     OW34792   3.474   1.279   6.898 -0.2675 -0.1549 -0.6387
 7719SOL    HW134793   3.517   1.316   6.976  1.4499 -1.5228 -0.9340
 7719SOL    HW234794   3.546   1.231   6.858 -2.2624 -3.9666  0.4064
 7720SOL     OW34795   4.462   0.969  11.700  0.2133 -0.0090  0.1568
 7720SOL    HW134796   4.467   0.974  11.605 -0.9368 -0.0294  0.0960
 7720SOL    HW234797   4.401   1.034  11.734 -0.5049 -0.8365  0.4402
 7721SOL     OW34798   2.672   1.332   3.173  0.0615  0.0820  0.1594
 7721SOL    HW134799   2.601   1.337   3.109  0.3208 -2.2792 -0.3258
 7721SOL    HW234800   2.628   1.370   3.249 -0.7483  0.3322 -0.4389
 7722SOL     OW34801   4.334   3.091  13.574  1.1971  0.3833  0.5683
 7722SOL    HW134802   4.270   3.147  13.528 -0.0605 -1.1374  0.4711
 7722SOL    HW234803   4.295   3.098  13.661 -1.8192  1.4042 -0.8670
 7723SOL     OW34804   3.914   4.066   6.644  0.2641 -0.2049  0.3482
 7723SOL    HW134805   3.926   4.138   6.706  2.5358 -1.3375  1.2248
 7723SOL    HW234806   3.861   4.005   6.696  0.2781 -2.3653 -2.1583
 7724SOL     OW34807   1.981   2.178   4.919 -0.0424 -0.2083 -0.0727
 7724SOL    HW134808   2.047   2.136   4.975  0.4749 -1.1964 -1.4243
 7724SOL    HW234809   1.939   2.096   4.894 -1.4711  0.5010 -0.0010
 7725SOL     OW34810   3.328   4.413   3.922  0.0818 -0.0892 -0.5560
 7725SOL    HW134811   3.353   4.494   3.967 -1.6441  0.0087  0.2361
 7725SOL    HW234812   3.236   4.400   3.946  0.7680 -0.1607  2.0462
 7726SOL     OW34813   1.957   1.884   5.433 -0.0750  0.6893 -0.1630
 7726SOL    HW134814   1.934   1.884   5.340 -1.3076  0.0369  0.1389
 7726SOL    HW234815   2.035   1.829   5.437 -1.7767 -1.6600  0.7653
 7727SOL     OW34816   3.123   3.322   2.934 -0.0902  0.1747 -0.5408
 7727SOL    HW134817   3.161   3.410   2.933  0.9919 -0.2765  0.3946
 7727SOL    HW234818   3.083   3.310   2.849 -0.5062  2.0154 -0.5961
 7728SOL     OW34819   0.689   2.385   4.602  0.4304  0.3705 -0.2920
 7728SOL    HW134820   0.660   2.294   4.608 -0.9475  0.8146 -0.3426
 7728SOL    HW234821   0.623   2.440   4.644 -1.2561 -0.9751 -1.1723
 7729SOL     OW34822   1.688   3.666   5.616  0.2580 -0.3407 -0.3384
 7729SOL    HW134823   1.741   3.669   5.696  0.6652 -1.5645 -0.5642
 7729SOL    HW234824   1.748   3.613   5.564  0.8293 -0.3899  0.3690
 7730SOL     OW34825   1.801   1.918   8.397 -0.4284 -0.1968 -0.6761
 7730SOL    HW134826   1.831   1.846   8.341  0.0213  0.9701 -1.9303
 7730SOL    HW234827   1.850   1.889   8.474 -0.2569  0.1850 -0.6440
 7731SOL     OW34828   0.930   1.735   9.551 -0.5775  0.2143  0.5115
 7731SOL    HW134829   0.934   1.767   9.641 -2.5574  0.6848  0.4198
 7731SOL    HW234830   0.849   1.686   9.538  0.2186 -0.6357 -1.1875
 7732SOL     OW34831   0.263   3.208   6.597  0.4601  0.7884  0.5119
 7732SOL    HW134832   0.298   3.152   6.666  0.7881 -0.8627 -1.0064
 7732SOL    HW234833   0.197   3.152   6.557  1.5185 -0.3734  0.3757
 7733SOL     OW34834   0.629   3.286   1.440  0.2358  0.1533  0.2362
 7733SOL    HW134835   0.613   3.293   1.534 -0.4794  0.8464  0.0634
 7733SOL    HW234836   0.696   3.355   1.436 -0.0935  0.3911 -1.0852
 7734SOL     OW34837   2.550   4.389   8.970 -0.0541 -0.0213 -0.3037
 7734SOL    HW134838   2.552   4.429   9.056  1.8673  1.3688 -0.9841
 7734SOL    HW234839   2.508   4.459   8.920 -1.2805 -0.0618  0.6603
 7735SOL     OW34840   1.396   2.454   8.828 -0.1635 -0.5285  0.0760
 7735SOL    HW134841   1.405   2.500   8.912 -0.2964 -2.5857  1.2164
 7735SOL    HW234842   1.403   2.361   8.852  1.6536 -0.6101 -0.8110
 7736SOL     OW34843   0.081   0.793   1.258  0.3703 -0.2126  0.7365
 7736SOL    HW134844   0.101   0.762   1.346  1.1259 -0.1726  0.5780
 7736SOL    HW234845   4.736   0.831   1.266  0.1188 -0.4654 -0.7751
 7737SOL     OW34846   0.481   2.758   3.450  0.1576 -0.6840 -0.0721
 7737SOL    HW134847   0.458   2.845   3.482 -0.6045 -1.4302  1.4032
 7737SOL    HW234848   0.408   2.707   3.486 -0.4491 -0.2473 -0.6886
 7738SOL     OW34849   4.247   3.531   2.461  0.5160  0.3124 -0.3226
 7738SOL    HW134850   4.231   3.625   2.472 -1.1375  0.2089 -1.9214
 7738SOL    HW234851   4.163   3.509   2.420 -0.2398  1.4714  0.6057
 7739SOL     OW34852   1.400   3.731   8.997 -0.1289  0.2284  0.2072
 7739SOL    HW134853   1.493   3.708   9.000  0.2844  1.9227  0.5637
 7739SOL    HW234854   1.414   3.823   9.022 -0.0685  0.7366 -1.6779
 7740SOL     OW34855   1.343   0.608   1.547  0.0368  0.5421 -0.4358
 7740SOL    HW134856   1.400   0.563   1.610 -1.0478 -0.6397 -0.3004
 7740SOL    HW234857   1.340   0.694   1.590 -0.9978 -0.0020  0.5926
 7741SOL     OW34858   0.886   0.759   8.034 -0.4609  0.4916  0.2332
 7741SOL    HW134859   0.880   0.853   8.048 -1.0778  0.4901 -0.0240
 7741SOL    HW234860   0.916   0.726   8.119 -1.9464  1.9604  1.3177
 7742SOL     OW34861   1.245   0.892   5.447  0.1067  0.0986 -0.2206
 7742SOL    HW134862   1.303   0.913   5.519  0.1134 -0.1991 -0.1400
 7742SOL    HW234863   1.189   0.970   5.451  0.7013  0.6846 -3.2559
 7743SOL     OW34864   4.668   1.346   5.206  0.1474 -0.4542  0.0983
 7743SOL    HW134865   4.709   1.389   5.131 -0.3011  0.6993  0.5248
 7743SOL    HW234866   4.741   1.309   5.257  0.6910  1.3400  0.5996
 7744SOL     OW34867   2.976   4.424   5.229 -0.0222 -0.0210 -0.2234
 7744SOL    HW134868   2.953   4.439   5.138 -1.3935 -0.2546  0.0907
 7744SOL    HW234869   2.913   4.362   5.267 -0.3213 -0.5377 -1.5585
 7745SOL     OW34870   1.145   2.527   6.257 -0.3848 -0.3134 -0.2336
 7745SOL    HW134871   1.110   2.492   6.175 -2.4890  1.5147 -0.0984
 7745SOL    HW234872   1.183   2.453   6.305  3.2703  0.3996 -1.9980
 7746SOL     OW34873   4.540   3.776   8.155 -0.0020  0.1484 -0.1926
 7746SOL    HW134874   4.556   3.862   8.195  0.6501 -1.2387  2.5095
 7746SOL    HW234875   4.508   3.736   8.235  0.8082 -1.8898 -0.8960
 7747SOL     OW34876   3.540   3.346   9.095  0.1259  0.3156 -0.2246
 7747SOL    HW134877   3.559   3.419   9.035  0.5020 -0.1394 -0.6638
 7747SOL    HW234878   3.445   3.348   9.084  0.2138 -1.0003 -1.1675
 7748SOL     OW34879   4.394   4.503   8.749  0.0152 -0.2428 -0.2033
 7748SOL    HW134880   4.372   4.449   8.673 -1.3027 -0.9883  0.7233
 7748SOL    HW234881   4.464   4.555   8.709 -0.3075  0.0373 -0.4104
 7749SOL     OW34882   3.465   4.285   5.116 -0.3785  0.0567 -0.0058
 7749SOL    HW134883   3.437   4.209   5.066  0.4750 -1.7921  2.3173
 7749SOL    HW234884   3.390   4.309   5.170  0.0805 -0.4557  0.8614
 7750SOL     OW34885   1.055   1.338   3.320 -0.0654  0.5254 -0.0962
 7750SOL    HW134886   1.147   1.318   3.300 -0.4095 -1.6545  0.5185
 7750SOL    HW234887   1.044   1.417   3.267 -2.1033  0.2985  0.0133
 7751SOL     OW34888   1.056   0.246   0.901 -0.1065 -0.1804 -0.4468
 7751SOL    HW134889   1.125   0.186   0.926  1.9517  1.2058 -2.7577
 7751SOL    HW234890   1.069   0.325   0.954 -0.9115  0.0450 -0.5865
 7752SOL     OW34891   3.429   0.342   3.063 -0.1470 -0.3139  0.1852
 7752SOL    HW134892   3.396   0.322   3.150 -1.9994  1.6824 -0.0253
 7752SOL    HW234893   3.480   0.267   3.033  0.1744 -0.5344  1.2893
 7753SOL     OW34894   3.678   3.130   8.007 -0.1685  0.0723 -0.0809
 7753SOL    HW134895   3.706   3.068   7.940 -0.0439  1.3612 -1.2334
 7753SOL    HW234896   3.618   3.077   8.058  1.0441 -2.4765 -1.3029
 7754SOL     OW34897   1.773   0.759   3.890  0.0976  0.1493 -0.1857
 7754SOL    HW134898   1.692   0.750   3.839  1.0079 -1.9925 -1.2540
 7754SOL    HW234899   1.732   0.773   3.976  0.0892  0.5706 -0.2590
 7755SOL     OW34900   2.053   3.698  14.274  0.3542  0.1912  0.2227
 7755SOL    HW134901   2.109   3.758  14.224 -0.1507 -0.4655 -1.1362
 7755SOL    HW234902   2.078   3.732  14.360  0.2255  0.8648 -0.0081
 7756SOL     OW34903   2.879   0.524   7.524 -0.3952 -0.0149 -0.5222
 7756SOL    HW134904   2.885   0.602   7.580 -1.4761  0.3060 -0.8521
 7756SOL    HW234905   2.888   0.453   7.587 -1.4932 -0.0556 -0.4158
 7757SOL     OW34906   3.969   0.960   6.830 -0.2933  0.3449 -0.2116
 7757SOL    HW134907   3.967   1.043   6.878 -1.5294  0.5689 -0.6228
 7757SOL    HW234908   3.969   0.905   6.908 -2.2981 -0.5767 -0.8424
 7758SOL     OW34909   1.708   1.545   5.836  0.5867 -0.1020  0.1978
 7758SOL    HW134910   1.653   1.468   5.851  0.4408 -0.1167 -0.3854
 7758SOL    HW234911   1.757   1.506   5.763  1.4614 -0.0121  0.7299
 7759SOL     OW34912   1.015   0.331   9.000  0.0436 -0.3777  0.3883
 7759SOL    HW134913   1.084   0.265   8.998  0.9317  0.5827 -0.0680
 7759SOL    HW234914   0.938   0.275   9.012 -0.1114 -0.2679 -0.0803
 7760SOL     OW34915   3.646   0.829   9.742  0.0785 -0.3642 -0.3928
 7760SOL    HW134916   3.635   0.760   9.807  2.5789 -0.4144 -0.0074
 7760SOL    HW234917   3.627   0.771   9.669 -0.6194  0.8499 -1.1737
 7761SOL     OW34918   1.115   4.206  11.501  0.1479  0.4469 -0.5494
 7761SOL    HW134919   1.164   4.239  11.426 -0.8721  0.8411 -1.0548
 7761SOL    HW234920   1.053   4.280  11.507  0.3881  0.5323  0.7787
 7762SOL     OW34921   4.382   0.497   5.027 -0.4244  0.5021 -0.2605
 7762SOL    HW134922   4.402   0.522   4.936  0.0681 -1.2334 -0.6122
 7762SOL    HW234923   4.389   0.404   5.007 -0.4319  0.6421 -0.9092
 7763SOL     OW34924   1.984   4.039   3.364  0.1526 -0.5562  0.8935
 7763SOL    HW134925   1.915   4.046   3.298  1.8857  0.9339 -0.7568
 7763SOL    HW234926   1.988   3.943   3.356 -1.0108 -0.5183 -0.2471
 7764SOL     OW34927   2.300   3.520  15.424 -0.1042 -0.6076 -0.2797
 7764SOL    HW134928   2.328   3.454  15.488  0.1651 -0.7003 -0.4905
 7764SOL    HW234929   2.260   3.452  15.370 -0.3238 -0.3763 -0.4068
 7765SOL     OW34930   0.478   0.758   8.996 -0.2237 -0.3104  0.2247
 7765SOL    HW134931   0.562   0.717   9.014 -0.1467  0.1392  0.9217
 7765SOL    HW234932   0.422   0.688   8.963  0.6257  1.1323 -4.1838
 7766SOL     OW34933   0.114   2.098   9.455  0.4387 -0.2680  0.2107
 7766SOL    HW134934   0.204   2.114   9.425  0.3711  0.7489  0.5666
 7766SOL    HW234935   0.075   2.184   9.440  0.0339 -0.7788 -1.6766
 7767SOL     OW34936   3.673   3.677   4.962  0.5334  0.4492  0.4847
 7767SOL    HW134937   3.589   3.686   5.007 -0.1341  0.6140 -0.8251
 7767SOL    HW234938   3.734   3.679   5.036 -0.7966  0.0334  1.6011
 7768SOL     OW34939   1.797   0.915  14.906  0.0775  0.3263 -0.3179
 7768SOL    HW134940   1.732   0.983  14.887 -0.4513 -0.1392 -0.1818
 7768SOL    HW234941   1.841   0.898  14.823 -0.4688  0.8036 -0.7034
 7769SOL     OW34942   0.418   2.564  15.694  0.0654  0.2831  0.2521
 7769SOL    HW134943   0.363   2.611  15.757  0.1994 -1.0477  1.3331
 7769SOL    HW234944   0.416   2.471  15.716 -0.7136  0.4993  1.0844
 7770SOL     OW34945   2.444   1.239  13.007  0.0192 -0.3416 -0.5747
 7770SOL    HW134946   2.500   1.282  12.943 -0.8041  1.2803 -0.1955
 7770SOL    HW234947   2.447   1.303  13.078 -1.6256  0.3365 -1.1157
 7771SOL     OW34948   1.127   1.070  17.036 -0.0266 -0.6722 -0.1908
 7771SOL    HW134949   1.102   1.029  17.118  0.4563 -1.3539 -0.3817
 7771SOL    HW234950   1.191   1.128  17.076  0.7845  0.3183 -2.8830
 7772SOL     OW34951   1.025   1.984   2.420  0.4030  0.5776  0.2495
 7772SOL    HW134952   1.077   2.047   2.369  0.1492  1.8909  1.5881
 7772SOL    HW234953   1.000   2.033   2.499  2.5781 -0.2145  1.4232
 7773SOL     OW34954   3.220   0.169   5.267 -0.4623 -0.0789  0.1438
 7773SOL    HW134955   3.225   0.084   5.311  0.3800 -0.4796 -0.7459
 7773SOL    HW234956   3.172   0.149   5.186 -1.6968  0.4552  0.7395
 7774SOL     OW34957   3.854   0.305  13.596  0.0366 -0.6791 -0.0604
 7774SOL    HW134958   3.801   0.384  13.609  0.1776 -0.4984 -0.5743
 7774SOL    HW234959   3.843   0.266  13.510 -1.8407 -4.1226  1.7474
 7775SOL     OW34960   1.976   1.478  11.429 -0.6635 -0.0687  0.4275
 7775SOL    HW134961   1.983   1.484  11.334  0.0796 -0.8991  0.4260
 7775SOL    HW234962   2.039   1.548  11.446  0.4389 -1.2026  1.0178
 7776SOL     OW34963   1.318   0.329   4.924  0.3899  0.2844 -0.6615
 7776SOL    HW134964   1.314   0.251   4.979 -2.8215 -0.6416 -2.2197
 7776SOL    HW234965   1.406   0.316   4.887 -0.0731  0.5826 -1.8760
 7777SOL     OW34966   0.851   0.787  13.150  0.1071  0.8059 -0.5876
 7777SOL    HW134967   0.850   0.767  13.243  1.8454  1.0535 -0.5155
 7777SOL    HW234968   0.935   0.749  13.125 -1.0409 -1.5244 -0.9264
 7778SOL     OW34969   0.911   0.099   6.947  0.4075 -0.0497 -0.3140
 7778SOL    HW134970   0.976   0.034   6.975  0.9154 -0.8012 -3.2764
 7778SOL    HW234971   0.854   0.078   7.021  0.8622 -0.2141 -0.0115
 7779SOL     OW34972   3.596   3.636   6.685 -0.6050 -0.0955 -0.3783
 7779SOL    HW134973   3.527   3.570   6.687 -1.1148  0.4504  0.1494
 7779SOL    HW234974   3.561   3.717   6.647 -0.8715 -0.5819 -1.1815
 7780SOL     OW34975   1.129   0.665   2.012 -0.5007  0.0499  0.1960
 7780SOL    HW134976   1.198   0.611   1.974 -0.1733  2.1131 -2.1516
 7780SOL    HW234977   1.143   0.642   2.104  0.4401 -0.2788 -0.0261
 7781SOL     OW34978   3.594   4.518  13.178 -0.1263  0.4267 -0.0139
 7781SOL    HW134979   3.556   4.587  13.232 -2.3848 -0.6559 -0.2486
 7781SOL    HW234980   3.685   4.505  13.204  0.5932  3.3218 -1.0548
 7782SOL     OW34981   4.444   3.355   5.276  0.2860 -0.3072  0.2732
 7782SOL    HW134982   4.455   3.280   5.217  1.5273  0.0124  0.0878
 7782SOL    HW234983   4.534   3.368   5.304  0.0369 -1.1371  1.4181
 7783SOL     OW34984   0.973   4.415  16.461  0.1388  0.3540 -0.1206
 7783SOL    HW134985   0.966   4.501  16.420  1.5475  1.2087  1.4007
 7783SOL    HW234986   0.885   4.395  16.492  0.9228 -0.5282  1.5364
 7784SOL     OW34987   0.506   4.324   0.881  0.0064  0.0956 -0.1382
 7784SOL    HW134988   0.584   4.275   0.904  0.7903  2.0206  1.2922
 7784SOL    HW234989   0.445   4.302   0.952  0.3977 -0.8607 -0.0982
 7785SOL     OW34990   1.349   2.956   8.132 -0.2990 -0.9823  0.0867
 7785SOL    HW134991   1.369   2.894   8.202 -1.9685  0.6063  1.9663
 7785SOL    HW234992   1.271   2.991   8.174 -0.7829 -2.1347  0.1526
 7786SOL     OW34993   0.551   4.092   5.947  0.3570  0.7084  0.0487
 7786SOL    HW134994   0.529   4.183   5.924 -0.2180  0.6403  0.3297
 7786SOL    HW234995   0.465   4.052   5.937  0.6373  0.1632 -0.1942
 7787SOL     OW34996   1.571   0.911   9.335  0.3807 -0.4413  0.1669
 7787SOL    HW134997   1.487   0.956   9.329  2.1183  2.6613 -0.7873
 7787SOL    HW234998   1.560   0.849   9.263  0.0406 -0.6588  0.4046
 7788SOL     OW34999   1.913   3.005   3.373  0.9355 -0.0246 -0.4947
 7788SOL    HW135000   2.002   3.024   3.404  0.0072 -1.6725  3.1506
 7788SOL    HW235001   1.924   2.991   3.279  0.4400  1.4264 -0.7759
 7789SOL     OW35002   3.508   3.121   9.477  0.2785  0.3391 -0.2562
 7789SOL    HW135003   3.567   3.182   9.433 -0.7313  1.4509 -0.0837
 7789SOL    HW235004   3.532   3.145   9.566 -2.5181  1.7680  0.1136
 7790SOL     OW35005   4.526   3.795   8.539 -0.0328 -0.2299 -0.6364
 7790SOL    HW135006   4.584   3.773   8.612 -0.2116  2.3725  0.2848
 7790SOL    HW235007   4.484   3.868   8.584 -1.1136 -0.0474 -1.9465
 7791SOL     OW35008   3.309   1.401  14.378  0.6688 -0.0433  0.1702
 7791SOL    HW135009   3.219   1.378  14.354  0.1896  0.4907  1.4700
 7791SOL    HW235010   3.313   1.495  14.356 -1.2954  0.1154  0.4807
 7792SOL     OW35011   4.475   0.650  12.944 -0.2423  0.0200  0.6595
 7792SOL    HW135012   4.542   0.607  12.891 -1.1083  0.2200 -0.5963
 7792SOL    HW235013   4.464   0.577  13.005 -3.0308  1.0110  1.3471
 7793SOL     OW35014   3.579   2.588   0.634 -0.9393 -0.3099  0.0411
 7793SOL    HW135015   3.596   2.678   0.606 -1.9031  0.2524  1.2201
 7793SOL    HW235016   3.526   2.552   0.563  0.0731  0.2528 -0.9970
 7794SOL     OW35017   1.914   3.938  12.678  0.3272  0.0994  0.3989
 7794SOL    HW135018   1.980   3.927  12.747  0.7880 -2.7650 -0.4937
 7794SOL    HW235019   1.949   3.876  12.613 -1.7233  1.4562 -1.9811
 7795SOL     OW35020   2.159   3.851   7.117  0.3380 -0.1027 -0.1334
 7795SOL    HW135021   2.183   3.849   7.210  0.3175  1.3380 -0.0998
 7795SOL    HW235022   2.066   3.867   7.127  0.7434  2.4401 -0.4330
 7796SOL     OW35023   4.142   3.511   8.921 -0.1672  0.0970  0.1217
 7796SOL    HW135024   4.217   3.559   8.957 -0.8572  1.5498 -0.4063
 7796SOL    HW235025   4.119   3.562   8.843 -0.1433  1.9631  1.3501
 7797SOL     OW35026   1.173   0.614   6.658 -0.2121 -0.4790 -0.3708
 7797SOL    HW135027   1.138   0.703   6.663 -1.4032 -1.0163  0.8068
 7797SOL    HW235028   1.100   0.563   6.693 -0.2943  0.5406  0.9493
 7798SOL     OW35029   1.210   2.766   5.914 -0.5078 -0.5288 -0.3444
 7798SOL    HW135030   1.304   2.745   5.916 -1.0062 -2.7974 -0.0704
 7798SOL    HW235031   1.181   2.692   5.860 -2.3647  0.1058 -0.1820
 7799SOL     OW35032   2.248   3.775  12.019 -0.0400  0.1680  0.4581
 7799SOL    HW135033   2.224   3.864  12.045 -0.1414  0.2014  0.2518
 7799SOL    HW235034   2.164   3.733  12.037  0.4168 -1.8068 -2.0186
 7800SOL     OW35035   1.411   0.908   2.360 -0.2148  0.3740 -0.1252
 7800SOL    HW135036   1.417   0.840   2.294  1.7297 -0.3335  0.7975
 7800SOL    HW235037   1.502   0.926   2.383  0.3514 -0.2557 -1.8816
 7801SOL     OW35038   1.220   3.197   6.523 -0.3565 -0.5579 -0.3789
 7801SOL    HW135039   1.312   3.222   6.522 -0.3123 -0.6963  0.3607
 7801SOL    HW235040   1.228   3.109   6.486  0.3227 -2.1846  3.6399
 7802SOL     OW35041   3.357   1.025  13.250 -0.4079  0.1641 -0.3385
 7802SOL    HW135042   3.382   1.115  13.269 -1.3423  0.4754 -0.5468
 7802SOL    HW235043   3.381   1.016  13.157 -0.5632  0.8359 -0.4430
 7803SOL     OW35044   1.135   4.668   3.246 -0.0630 -0.3336  0.4147
 7803SOL    HW135045   1.076   4.600   3.280 -1.1529  0.5431  0.2732
 7803SOL    HW235046   1.147   4.647   3.153 -1.8215 -1.3949  0.4207
 7804SOL     OW35047   1.539   2.070  17.532  0.7157  0.3465  0.0061
 7804SOL    HW135048   1.471   2.020  17.578 -0.3350  1.4204 -0.3791
 7804SOL    HW235049   1.546   2.149  17.586  2.6970  0.1456  0.0304
 7805SOL     OW35050   0.216   1.564   0.030  0.4560  0.1031 -0.4543
 7805SOL    HW135051   0.197   1.575   0.123 -1.1437  0.6733 -0.8497
 7805SOL    HW235052   0.189   1.648  17.762  1.6627  0.6626 -0.0580
 7806SOL     OW35053   1.969   1.941  10.557  0.4518 -0.2637  0.0410
 7806SOL    HW135054   2.057   1.968  10.534  0.2161  1.4938  1.2324
 7806SOL    HW235055   1.942   1.889  10.481 -1.4331 -0.0652  0.5624
 7807SOL     OW35056   3.506   1.537   8.596 -0.1218  0.1877  0.2675
 7807SOL    HW135057   3.558   1.499   8.667 -0.1985 -0.7539 -0.1791
 7807SOL    HW235058   3.487   1.462   8.540 -2.1616  1.1564 -0.3172
 7808SOL     OW35059   4.538   2.270  13.539 -0.2197 -0.2155 -0.5417
 7808SOL    HW135060   4.626   2.293  13.567 -0.3476 -3.0421  2.1877
 7808SOL    HW235061   4.534   2.268  13.443  0.2562 -0.2002 -0.5594
 7809SOL     OW35062   4.155   2.952   0.203  0.2049 -0.1520  0.4098
 7809SOL    HW135063   4.167   2.869   0.157  1.9475 -0.1931  0.9367
 7809SOL    HW235064   4.104   3.007   0.144  1.1875  3.0197  2.4861
 7810SOL     OW35065   2.029   3.504  15.906  0.1662 -0.0795  0.1486
 7810SOL    HW135066   1.960   3.441  15.930 -1.3028  1.1294 -0.9226
 7810SOL    HW235067   2.015   3.563  15.981 -1.1312 -0.6965  0.3986
 7811SOL     OW35068   3.868   1.870   1.881  0.3954 -0.1405 -0.1302
 7811SOL    HW135069   3.914   1.787   1.889  1.5858  0.5996  0.7851
 7811SOL    HW235070   3.948   1.923   1.873  0.8538 -0.9843 -1.0909
 7812SOL     OW35071   4.464   1.035  11.428 -0.3488 -0.3840  0.1433
 7812SOL    HW135072   4.502   0.978  11.361  0.0167 -1.2625  1.0917
 7812SOL    HW235073   4.531   1.103  11.429 -1.0728  0.3207 -0.3543
 7813SOL     OW35074   4.540   3.686  10.092  0.0890 -0.0215  0.1109
 7813SOL    HW135075   4.497   3.757  10.044  0.5857 -1.8416 -3.0050
 7813SOL    HW235076   4.631   3.710  10.076 -0.2573  0.7317 -0.7525
 7814SOL     OW35077   1.276   0.442   3.349  0.5360  0.2685  0.2596
 7814SOL    HW135078   1.205   0.450   3.413 -1.2703  0.3134 -1.7385
 7814SOL    HW235079   1.237   0.488   3.274  0.6573 -1.5431 -0.9206
 7815SOL     OW35080   2.735   0.935  17.574  0.1633  0.5320  0.1098
 7815SOL    HW135081   2.697   1.022  17.563 -1.9868 -0.3394  0.6698
 7815SOL    HW235082   2.659   0.892  17.534 -0.6904 -0.2776  2.5839
 7816SOL     OW35083   1.633   4.562   4.367 -0.2979  0.2768  0.0595
 7816SOL    HW135084   1.691   4.569   4.443  2.3797  1.0099 -2.0365
 7816SOL    HW235085   1.546   4.560   4.405  0.2497  1.3794  1.4025
 7817SOL     OW35086   2.745   0.459  12.581 -0.5772 -0.3360  0.3320
 7817SOL    HW135087   2.731   0.380  12.529  1.2647  0.1427 -0.9126
 7817SOL    HW235088   2.840   0.470  12.585 -0.3231 -1.8454 -1.9757
 7818SOL     OW35089   3.438   3.055   7.798  0.3227 -0.3735 -0.5584
 7818SOL    HW135090   3.363   3.002   7.825 -1.2025  1.5925 -0.8756
 7818SOL    HW235091   3.506   3.007   7.845 -1.0775 -0.4529  1.4268
 7819SOL     OW35092   2.375   4.203   9.164 -0.0286 -0.7864  0.1436
 7819SOL    HW135093   2.439   4.273   9.172  0.4676 -1.1289 -0.7887
 7819SOL    HW235094   2.429   4.130   9.196  2.5910  1.0035 -0.2238
 7820SOL     OW35095   0.576   1.221   6.554  0.0257 -0.9142 -0.5751
 7820SOL    HW135096   0.492   1.248   6.591  0.2820 -0.9551  0.0444
 7820SOL    HW235097   0.563   1.126   6.546  1.0844 -1.3117  2.1427
 7821SOL     OW35098   3.542   2.583   4.246  0.0424  0.3985 -0.0573
 7821SOL    HW135099   3.542   2.556   4.154  0.6150 -0.6484  0.2389
 7821SOL    HW235100   3.542   2.678   4.233 -1.7764  0.0077 -2.8572
 7822SOL     OW35101   0.737   1.205   5.208 -0.0185  0.5941  0.0192
 7822SOL    HW135102   0.808   1.239   5.262 -0.4207 -1.3691  1.7920
 7822SOL    HW235103   0.725   1.121   5.252 -0.2523  1.6500  2.0112
 7823SOL     OW35104   0.086   4.681   6.504  0.8597  0.7248  0.2634
 7823SOL    HW135105   0.179   4.674   6.483  0.2083 -0.6899 -2.1604
 7823SOL    HW235106   0.069   4.593   6.539 -0.6682  0.3204 -1.4953
 7824SOL     OW35107   1.076   1.043  11.830 -0.5335 -0.2502 -0.0525
 7824SOL    HW135108   1.082   0.950  11.811 -0.2495 -0.6755  2.2284
 7824SOL    HW235109   1.104   1.042  11.921  0.5577  2.3106 -0.3399
 7825SOL     OW35110   2.209   2.422   3.529 -0.3485  0.1317 -0.3991
 7825SOL    HW135111   2.273   2.484   3.562 -1.6545  0.9188  0.6533
 7825SOL    HW235112   2.150   2.409   3.603 -0.7106 -1.1597 -0.8955
 7826SOL     OW35113   3.599   4.664   2.781 -0.4074  1.0164  0.1834
 7826SOL    HW135114   3.640   4.639   2.698 -0.6383 -0.6508  0.5783
 7826SOL    HW235115   3.644   4.614   2.849 -1.0186  0.0115 -0.1484
 7827SOL     OW35116   0.909   3.564  12.546  0.1073  0.9344 -0.1607
 7827SOL    HW135117   0.929   3.535  12.635  0.9533  1.1868 -0.2733
 7827SOL    HW235118   0.818   3.533  12.540  0.1308  1.2360 -2.0499
 7828SOL     OW35119   1.285   2.933   6.416  0.1863  0.1274 -0.6890
 7828SOL    HW135120   1.367   2.916   6.369  0.3029 -0.7823 -0.1615
 7828SOL    HW235121   1.235   2.921   6.336 -0.4904  0.3329 -0.3012
 7829SOL     OW35122   2.126   4.679   6.542  0.7869  0.1067  0.6154
 7829SOL    HW135123   2.083   0.021   6.534 -1.8656 -0.8824  4.3745
 7829SOL    HW235124   2.187   4.691   6.469  1.0910 -2.5248  0.4444
 7830SOL     OW35125   3.693   0.873   7.586 -0.5696  0.1312  0.3348
 7830SOL    HW135126   3.775   0.887   7.537  0.1002 -0.0676  1.4107
 7830SOL    HW235127   3.647   0.945   7.542  2.4073  2.0607  0.3391
 7831SOL     OW35128   4.006   1.911   7.047  0.3588 -0.3506 -0.2103
 7831SOL    HW135129   3.930   1.923   6.990 -1.2424 -1.5962  1.6950
 7831SOL    HW235130   3.985   1.827   7.086  1.7622  0.2161  1.7793
 7832SOL     OW35131   4.009   3.387   5.032  0.7779  0.3629  0.3760
 7832SOL    HW135132   3.942   3.414   4.969  1.8016  1.0287 -0.4401
 7832SOL    HW235133   4.086   3.386   4.975  1.2515  0.6366  1.0150
 7833SOL     OW35134   0.660   1.090   5.944 -0.2566  0.3611  0.3059
 7833SOL    HW135135   0.668   1.022   5.877 -0.8212  1.6154 -1.0365
 7833SOL    HW235136   0.604   1.037   6.000 -0.0251 -1.2961 -1.0363
 7834SOL     OW35137   0.596   0.162   7.522 -0.3470  0.2204 -0.6218
 7834SOL    HW135138   0.624   0.245   7.560 -0.0199  0.0954 -0.5896
 7834SOL    HW235139   0.679   0.132   7.484 -0.7100 -0.3236 -0.9784
 7835SOL     OW35140   3.174   1.692   2.162  0.0938  0.3490  0.2194
 7835SOL    HW135141   3.211   1.679   2.075 -2.0091 -1.2971 -0.4380
 7835SOL    HW235142   3.158   1.601   2.190 -1.7159  0.1476 -1.4780
 7836SOL     OW35143   0.110   3.097  14.213  0.2067  0.2225  0.3826
 7836SOL    HW135144   0.202   3.091  14.187  0.9375 -0.0258  3.0245
 7836SOL    HW235145   0.108   3.174  14.270  1.6115 -0.3134  1.1677
 7837SOL     OW35146   4.669   4.335   2.837 -0.0628 -0.4141  0.5827
 7837SOL    HW135147   0.009   4.307   2.876 -1.1096 -1.5193  2.0259
 7837SOL    HW235148   4.659   4.270   2.767  1.4368 -0.3052  0.2740
 7838SOL     OW35149   4.099   4.105   5.956  0.6770 -0.0016 -0.3755
 7838SOL    HW135150   4.164   4.131   6.021  0.2614  1.4089 -0.5126
 7838SOL    HW235151   4.138   4.020   5.938 -0.8372 -0.7896  0.1156
 7839SOL     OW35152   2.069   3.055   1.759 -0.0564 -0.3445  0.4587
 7839SOL    HW135153   2.033   2.989   1.700  0.5863 -2.5375  2.4979
 7839SOL    HW235154   2.156   3.017   1.767 -0.3256 -1.0250  0.1495
 7840SOL     OW35155   0.094   3.273   1.650 -0.0209  1.1076 -0.6880
 7840SOL    HW135156   0.103   3.259   1.744  0.3655 -1.2315 -1.0651
 7840SOL    HW235157   0.022   3.215   1.624  2.0387 -2.0052  0.4114
 7841SOL     OW35158   2.314   3.696   3.133 -0.1826  0.0188 -0.0028
 7841SOL    HW135159   2.271   3.737   3.057  3.0238  3.1048 -0.1687
 7841SOL    HW235160   2.262   3.616   3.143 -0.6034  0.1424 -1.1520
 7842SOL     OW35161   2.330   1.775   6.145  0.5458  0.8064  0.2573
 7842SOL    HW135162   2.321   1.742   6.056  0.4089  0.3607  0.4335
 7842SOL    HW235163   2.372   1.860   6.140 -0.4820  1.3677  1.0732
 7843SOL     OW35164   4.475   4.741  14.136  0.4791 -0.7214 -0.5613
 7843SOL    HW135165   4.406   0.002  14.069 -1.1397 -1.0612  1.0862
 7843SOL    HW235166   4.426   0.040  14.207 -0.0683 -0.5327 -1.0374
 7844SOL     OW35167   1.549   3.588   6.718  0.4768  0.1518  0.1404
 7844SOL    HW135168   1.500   3.614   6.796  0.0727  0.6696 -0.2932
 7844SOL    HW235169   1.484   3.526   6.684  0.2732  0.5940 -0.2771
 7845SOL     OW35170   2.161   1.751   1.682  0.1846  0.0043 -0.0202
 7845SOL    HW135171   2.167   1.831   1.734 -0.5535  0.2571 -0.3261
 7845SOL    HW235172   2.189   1.789   1.599  1.5818  1.5303  1.1477
 7846SOL     OW35173   1.716   1.763   1.076  0.1037  0.3012 -0.0548
 7846SOL    HW135174   1.639   1.735   1.127 -0.4279 -1.4105 -1.7950
 7846SOL    HW235175   1.722   1.854   1.104  0.2229 -0.2228  1.6398
 7847SOL     OW35176   1.024   4.628  15.052  0.0676 -0.1607 -0.1340
 7847SOL    HW135177   1.072   4.683  15.113 -0.2858 -0.8346  0.7494
 7847SOL    HW235178   1.015   4.691  14.980 -0.8343  2.2192  2.0712
 7848SOL     OW35179   4.193   0.325  14.491  0.6301  0.0299  0.2286
 7848SOL    HW135180   4.162   0.348  14.578 -2.9974  0.2036 -1.1002
 7848SOL    HW235181   4.112   0.305  14.443  1.0632  0.7087 -0.7704
 7849SOL     OW35182   2.293   0.088   5.763 -0.8513  0.3774  0.5475
 7849SOL    HW135183   2.286   0.126   5.851  1.5834 -0.7989  1.2774
 7849SOL    HW235184   2.266   4.741   5.786  2.5979 -1.1549 -1.3318
 7850SOL     OW35185   2.473   2.374   4.981  0.0219 -0.8871 -0.7052
 7850SOL    HW135186   2.377   2.381   4.985 -0.0043 -1.0146 -1.1065
 7850SOL    HW235187   2.487   2.395   4.888  2.3317  0.2850 -0.0930
 7851SOL     OW35188   2.158   4.704   3.621 -0.6771  0.3747 -0.6250
 7851SOL    HW135189   2.179   4.674   3.709  1.1409  0.2896 -1.0901
 7851SOL    HW235190   2.110   4.624   3.597  0.7950 -0.8909  0.6216
 7852SOL     OW35191   0.725   2.463   3.719 -0.1543 -0.7403 -0.3398
 7852SOL    HW135192   0.712   2.459   3.624  1.2279 -1.7825 -0.4931
 7852SOL    HW235193   0.698   2.377   3.753  1.3464 -1.3277 -0.6207
 7853SOL     OW35194   1.708   2.834   3.461  0.0444 -0.5592  0.3649
 7853SOL    HW135195   1.715   2.843   3.556  0.1097  1.0761  0.2121
 7853SOL    HW235196   1.775   2.899   3.438  0.1502 -0.4806  0.8761
 7854SOL     OW35197   3.006   2.025   7.151 -0.4447 -0.7192  0.0282
 7854SOL    HW135198   3.076   2.010   7.087  0.5685 -2.0519  1.4740
 7854SOL    HW235199   2.945   1.960   7.116 -0.0191  0.1928 -2.4268
 7855SOL     OW35200   1.487   4.550   2.349  0.1674 -0.1562  0.5228
 7855SOL    HW135201   1.415   4.583   2.403 -0.9240  0.4496 -1.3158
 7855SOL    HW235202   1.538   4.631   2.353  0.2325 -0.2593  1.9638
 7856SOL     OW35203   2.515   3.669   1.950  0.0279  0.2225  0.2519
 7856SOL    HW135204   2.548   3.679   2.039 -0.1110 -0.1317  0.3431
 7856SOL    HW235205   2.432   3.717   1.954  1.2725  2.1885  2.2437
 7857SOL     OW35206   1.944   3.663   7.363 -0.7443  0.3905 -0.3106
 7857SOL    HW135207   1.924   3.580   7.407 -0.6331  0.3490 -0.3378
 7857SOL    HW235208   1.952   3.631   7.273 -1.3455 -1.4985  0.2975
 7858SOL     OW35209   3.271   2.298   2.901 -0.4520  0.2377 -0.2592
 7858SOL    HW135210   3.263   2.322   2.993  2.9399  1.7374 -0.3465
 7858SOL    HW235211   3.336   2.363   2.875  0.3467 -0.6258 -0.4184
 7859SOL     OW35212   3.526   1.878   3.094 -0.0428 -1.0688  0.3452
 7859SOL    HW135213   3.523   1.929   3.175  1.2027  1.1924 -1.0694
 7859SOL    HW235214   3.448   1.898   3.042 -0.8152 -2.2871  1.0312
 7860SOL     OW35215   1.857   2.363   5.569 -0.5051 -0.0138  0.0279
 7860SOL    HW135216   1.938   2.410   5.553  0.0285 -1.7369 -2.3097
 7860SOL    HW235217   1.872   2.284   5.517 -2.5501 -0.4158  0.0616
 7861SOL     OW35218   4.361   0.159  12.244 -0.3896 -0.1359 -0.5133
 7861SOL    HW135219   4.394   0.069  12.235 -1.4050 -0.5267 -0.3198
 7861SOL    HW235220   4.272   0.145  12.275  0.0220  0.2461  0.8280
 7862SOL     OW35221   1.383   3.471   8.433 -0.0860  0.1352  0.3183
 7862SOL    HW135222   1.385   3.377   8.419  0.1918 -0.0585  1.6638
 7862SOL    HW235223   1.289   3.487   8.443 -0.5753 -2.1184 -0.7405
 7863SOL     OW35224   3.841   1.720   7.693  0.2112 -0.8291  1.0866
 7863SOL    HW135225   3.905   1.761   7.752  0.6302  0.9728 -0.6381
 7863SOL    HW235226   3.754   1.757   7.708  0.1247 -1.3814  2.0014
 7864SOL     OW35227   2.853   1.560   9.092  0.2154  0.0764  0.1108
 7864SOL    HW135228   2.807   1.627   9.143 -0.3580  0.5643 -1.0354
 7864SOL    HW235229   2.809   1.478   9.113 -0.2085  0.1624 -0.4400
 7865SOL     OW35230   0.166   0.182   2.092 -0.4302  0.0295  0.6868
 7865SOL    HW135231   0.199   0.173   2.003 -3.2078  0.3081 -0.3711
 7865SOL    HW235232   0.145   0.275   2.101  1.5491  0.6280 -0.7354
 7866SOL     OW35233   4.636   3.307   2.612 -1.3154  0.8517 -0.5577
 7866SOL    HW135234   4.639   3.375   2.680  2.1709  0.2146 -0.0605
 7866SOL    HW235235   4.589   3.232   2.649 -0.3521  0.0099 -1.0209
 7867SOL     OW35236   2.610   4.139   3.054 -0.4687  0.0076 -0.8694
 7867SOL    HW135237   2.669   4.092   3.112 -0.5954  0.6495 -0.2177
 7867SOL    HW235238   2.583   4.067   2.996  1.4240 -1.9846  0.7278
 7868SOL     OW35239   2.911   0.907   3.360  0.0011 -0.0769 -0.1549
 7868SOL    HW135240   2.831   0.857   3.377  0.3669 -0.8778 -0.8273
 7868SOL    HW235241   2.976   0.840   3.340  0.5509  0.1806  0.7851
 7869SOL     OW35242   2.351   0.272   6.855  0.2364  0.7225 -0.2968
 7869SOL    HW135243   2.372   0.196   6.909 -2.8489  1.1681  1.5319
 7869SOL    HW235244   2.378   0.245   6.768  3.1034  1.1012  0.4569
 7870SOL     OW35245   1.311   0.067  14.467  0.1382  0.5228 -0.8280
 7870SOL    HW135246   1.406   0.063  14.484 -0.0461 -0.2731 -0.0095
 7870SOL    HW235247   1.304   0.160  14.445  0.3522  1.0464  1.3002
 7871SOL     OW35248   4.213   4.576   5.269 -1.0243 -0.4443 -0.2270
 7871SOL    HW135249   4.247   4.509   5.328  1.9798 -1.3490 -2.9489
 7871SOL    HW235250   4.258   4.557   5.186  0.0942 -3.2051  0.9983
 7872SOL     OW35251   0.521   4.413   1.647  0.0541 -0.3806  0.7966
 7872SOL    HW135252   0.507   4.466   1.569  1.3699  1.5807  1.8856
 7872SOL    HW235253   0.611   4.442   1.657 -0.0345 -0.8675  3.1268
 7873SOL     OW35254   1.128   1.206  11.623  0.0167 -0.2208 -0.4007
 7873SOL    HW135255   1.091   1.154  11.694  0.5088 -0.8205 -0.5856
 7873SOL    HW235256   1.220   1.180  11.624  0.1345  0.3075  1.4197
 7874SOL     OW35257   1.742   1.738   8.731  0.2815  0.5778  0.5891
 7874SOL    HW135258   1.683   1.703   8.665 -0.7916  0.6857  1.4815
 7874SOL    HW235259   1.705   1.690   8.806 -0.0381 -0.0953 -0.0051
 7875SOL     OW35260   2.386   4.081  14.907  0.0877 -0.0179  0.5640
 7875SOL    HW135261   2.369   4.102  14.816  1.2046  0.6368  0.5003
 7875SOL    HW235262   2.333   4.148  14.950 -0.4232  1.0591 -1.8007
 7876SOL     OW35263   1.090   2.926  12.040 -0.3575  0.2474  0.0115
 7876SOL    HW135264   1.048   2.991  12.096 -3.6408  0.4810 -2.7176
 7876SOL    HW235265   1.078   2.941  11.947  0.8037  1.2233  0.0302
 7877SOL     OW35266   3.747   4.723   9.515 -0.3999  0.4839 -0.0817
 7877SOL    HW135267   3.671   4.699   9.462 -1.0998 -1.4496  1.7801
 7877SOL    HW235268   3.706   0.040   9.578 -1.1121 -1.5478  1.4159
 7878SOL     OW35269   1.199   3.652   5.455  0.3617 -0.1883  0.1493
 7878SOL    HW135270   1.108   3.637   5.479  1.0608 -3.0503  1.0241
 7878SOL    HW235271   1.230   3.697   5.535  0.8322 -0.2841  0.0233
 7879SOL     OW35272   2.093   0.540   1.455  0.2292  0.0707 -0.5800
 7879SOL    HW135273   2.022   0.591   1.495  0.9433 -0.3175  1.1527
 7879SOL    HW235274   2.137   0.605   1.399 -0.1372  1.6871  1.0182
 7880SOL     OW35275   0.073   3.805   8.453 -0.1820 -0.4903 -0.7309
 7880SOL    HW135276   0.000   3.743   8.439 -1.1066  0.3796  0.2678
 7880SOL    HW235277   0.146   3.747   8.430  0.4261  0.7840 -1.9991
 7881SOL     OW35278   0.412   3.857   2.893 -0.3765 -0.0827 -0.6791
 7881SOL    HW135279   0.429   3.813   2.809 -1.9569 -1.3530 -0.3301
 7881SOL    HW235280   0.409   3.789   2.960 -0.3794  0.5877  0.0021
 7882SOL     OW35281   4.483   3.474  12.031 -0.2671  0.2683 -0.8607
 7882SOL    HW135282   4.435   3.494  12.112  1.1436 -0.9597  0.2893
 7882SOL    HW235283   4.426   3.520  11.970  0.4884  0.5659 -1.3307
 7883SOL     OW35284   0.400   3.056   1.631 -0.1988  0.8527 -0.1850
 7883SOL    HW135285   0.488   3.021   1.616 -0.6650 -0.0798 -0.6983
 7883SOL    HW235286   0.400   3.067   1.726 -2.2304 -1.8549  0.1101
 7884SOL     OW35287   1.488   1.870   4.055  1.0047  0.1498 -0.4428
 7884SOL    HW135288   1.542   1.886   3.978  0.1493  0.1292 -1.0469
 7884SOL    HW235289   1.424   1.941   4.051 -1.1201 -1.5965  2.6589
 7885SOL     OW35290   3.215   2.857   7.847 -0.5754  0.6686  0.0185
 7885SOL    HW135291   3.120   2.871   7.853 -0.6238 -0.4759  1.9976
 7885SOL    HW235292   3.241   2.813   7.928  2.1060  1.4191 -0.4252
 7886SOL     OW35293   1.147   0.143  13.383  0.1605  0.1686 -0.0619
 7886SOL    HW135294   1.096   0.189  13.316  1.4682 -0.0736 -1.2388
 7886SOL    HW235295   1.107   0.187  13.457  0.3506  0.2052  0.0197
 7887SOL     OW35296   4.334   1.013   9.147  0.1767  0.0345 -0.2917
 7887SOL    HW135297   4.392   0.941   9.171 -0.7561 -0.0784  1.6009
 7887SOL    HW235298   4.252   0.992   9.191  0.1212  1.2261  0.1462
 7888SOL     OW35299   2.850   0.427   7.272 -0.2217 -0.3761  0.3671
 7888SOL    HW135300   2.875   0.499   7.213  0.7714 -1.4489 -0.5333
 7888SOL    HW235301   2.868   0.478   7.351  0.0225  0.2631 -0.0958
 7889SOL     OW35302   2.347   2.782   4.814  0.2151 -0.9786  1.3439
 7889SOL    HW135303   2.413   2.726   4.774 -0.1001  1.0608 -1.9798
 7889SOL    HW235304   2.274   2.722   4.801 -2.3050  2.2861  0.5217
 7890SOL     OW35305   4.314   1.259   3.056 -0.1534  0.1070  0.5089
 7890SOL    HW135306   4.225   1.293   3.064 -1.1839 -2.1058 -1.4456
 7890SOL    HW235307   4.335   1.301   2.973 -0.0070  0.3987  0.6953
 7891SOL     OW35308   0.012   3.539  14.348  0.0125  0.2582  0.2186
 7891SOL    HW135309   0.036   3.456  14.389 -0.7937 -0.3452 -0.5211
 7891SOL    HW235310   0.046   3.518  14.262  0.9868 -3.5901  1.5705
 7892SOL     OW35311   1.016   4.161   6.855  0.0616  0.9777 -0.2936
 7892SOL    HW135312   1.083   4.225   6.878  3.6578 -1.9241 -2.6885
 7892SOL    HW235313   0.993   4.198   6.770 -3.8836 -3.3230 -1.1477
 7893SOL     OW35314   2.944   3.607  13.276 -0.4189 -0.1936 -0.3864
 7893SOL    HW135315   2.996   3.564  13.345  0.4055  0.8402 -0.3586
 7893SOL    HW235316   2.879   3.651  13.330 -0.5348 -2.7877  1.5854
 7894SOL     OW35317   1.656   0.522   4.830 -0.4394  0.0974  0.5988
 7894SOL    HW135318   1.578   0.509   4.778 -1.3934  1.5651  1.6562
 7894SOL    HW235319   1.697   0.436   4.818 -1.3425 -0.4508  1.4637
 7895SOL     OW35320   2.519   3.100  16.911 -0.6376 -0.0217  0.0442
 7895SOL    HW135321   2.590   3.038  16.924 -0.5259 -0.0353 -0.6331
 7895SOL    HW235322   2.510   3.134  17.000 -2.5015 -1.8100  0.5154
 7896SOL     OW35323   1.093   0.489   1.579 -0.2588  0.6701  0.0367
 7896SOL    HW135324   1.186   0.504   1.592  0.3526 -2.2647 -0.9374
 7896SOL    HW235325   1.081   0.404   1.621  0.4139 -0.7386 -2.6047
 7897SOL     OW35326   3.722   0.855   2.683 -0.0441 -0.1039  0.1766
 7897SOL    HW135327   3.716   0.802   2.603 -1.5565 -0.4160  0.5007
 7897SOL    HW235328   3.780   0.809   2.743  0.1093  0.0447  0.1426
 7898SOL     OW35329   3.154   3.756   4.895  0.3823 -0.4382 -0.0180
 7898SOL    HW135330   3.113   3.688   4.948  1.0545 -0.4341  0.5085
 7898SOL    HW235331   3.189   3.810   4.966  0.8168 -1.5131  0.5904
 7899SOL     OW35332   2.550   2.304   7.959 -0.3337 -0.7010 -0.0400
 7899SOL    HW135333   2.489   2.247   7.913 -0.0949 -0.4031 -0.7209
 7899SOL    HW235334   2.502   2.324   8.040 -1.1117 -0.3673 -0.5848
 7900SOL     OW35335   3.791   0.676   8.648  0.1182  0.1435 -0.0038
 7900SOL    HW135336   3.858   0.640   8.705  0.5328  0.2067 -0.4523
 7900SOL    HW235337   3.818   0.768   8.642 -3.5775  1.2369 -0.2854
 7901SOL     OW35338   4.011   0.561   2.373  0.4323 -0.1580  0.2579
 7901SOL    HW135339   4.069   0.625   2.332  1.1376 -0.6128  0.5511
 7901SOL    HW235340   4.023   0.487   2.313 -2.3716 -1.0270  0.7737
 7902SOL     OW35341   0.240   1.346   8.566  0.9142 -0.7938  0.0956
 7902SOL    HW135342   0.230   1.363   8.659 -0.8069 -0.6173 -0.1194
 7902SOL    HW235343   0.157   1.375   8.527  0.7529 -0.2608  0.8443
 7903SOL     OW35344   2.967   1.231   5.327  0.9064 -0.1660 -0.1098
 7903SOL    HW135345   3.051   1.230   5.281  1.1239  0.0348  0.2867
 7903SOL    HW235346   2.915   1.261   5.253  0.4374  0.6127  0.5390
 7904SOL     OW35347   3.972   0.904   9.515  0.0086  0.1932  0.0456
 7904SOL    HW135348   4.012   0.951   9.588 -0.9329 -1.9942  1.9518
 7904SOL    HW235349   3.883   0.938   9.508 -0.3742 -0.9147 -0.3636
 7905SOL     OW35350   0.810   1.584  17.329 -0.1067 -0.4456 -0.0858
 7905SOL    HW135351   0.734   1.562  17.383 -0.4637  2.6106  0.6406
 7905SOL    HW235352   0.785   1.528  17.255 -0.2414 -2.5558  1.5853
 7906SOL     OW35353   4.023   4.589   4.549  0.5717  0.0991  0.4109
 7906SOL    HW135354   3.978   4.506   4.532  0.7647  0.2454 -0.8114
 7906SOL    HW235355   4.022   4.631   4.462 -0.2871  0.1639  0.4518
 7907SOL     OW35356   4.191   2.645   4.325 -0.0450 -0.1338  0.4388
 7907SOL    HW135357   4.134   2.720   4.343 -0.4140 -0.1411 -0.6799
 7907SOL    HW235358   4.183   2.634   4.230 -0.9541  0.8601  0.3980
 7908SOL     OW35359   1.456   0.858   8.032 -0.4656  0.8201 -0.1595
 7908SOL    HW135360   1.363   0.882   8.035 -0.7428 -0.2103 -0.3519
 7908SOL    HW235361   1.460   0.805   8.112 -0.2088  0.3162 -0.5025
 7909SOL     OW35362   2.380   4.398   0.875  0.2512  0.5855 -0.2563
 7909SOL    HW135363   2.342   4.394   0.963  1.8988  0.5122  0.4404
 7909SOL    HW235364   2.325   4.470   0.844 -1.6129 -0.3786  0.7763
 7910SOL     OW35365   1.299   1.306  17.624 -0.2105 -0.5635  0.6122
 7910SOL    HW135366   1.220   1.254  17.612  0.6927 -1.5151 -1.2264
 7910SOL    HW235367   1.297   1.332  17.717 -1.0386 -0.2650  0.5058
 7911SOL     OW35368   2.961   2.248   4.287 -0.6584 -0.6191  0.3361
 7911SOL    HW135369   2.949   2.157   4.313 -0.3527 -0.7540  0.0123
 7911SOL    HW235370   3.039   2.273   4.337 -0.6070  0.3358 -0.2101
 7912SOL     OW35371   1.364   4.004  12.071  0.7260 -0.4387  0.3635
 7912SOL    HW135372   1.418   4.014  11.993 -1.5409  2.8357 -0.7764
 7912SOL    HW235373   1.296   4.065  12.044 -0.0469 -1.3958  0.1398
 7913SOL     OW35374   3.548   1.909   0.943 -0.0374 -0.6634 -0.4608
 7913SOL    HW135375   3.594   1.941   1.021  1.5680  0.3198 -1.7984
 7913SOL    HW235376   3.573   1.817   0.950  1.6884 -0.2653 -1.4311
 7914SOL     OW35377   2.437   2.820   6.153  0.1679 -0.0205 -0.2245
 7914SOL    HW135378   2.343   2.826   6.136  0.1198  3.1816  1.2586
 7914SOL    HW235379   2.468   2.790   6.067 -1.7361  1.4285 -1.4100
 7915SOL     OW35380   3.902   1.819   5.726  0.4835  0.0532 -0.4904
 7915SOL    HW135381   3.908   1.752   5.658 -1.3595 -0.5591 -0.0606
 7915SOL    HW235382   3.822   1.793   5.772 -0.2454 -1.1771 -2.4491
 7916SOL     OW35383   1.282   1.938  12.303  0.4731 -0.0825  0.3882
 7916SOL    HW135384   1.222   1.947  12.229  0.0779 -1.6657  0.5046
 7916SOL    HW235385   1.287   2.029  12.332  2.0176 -0.1791  0.4487
 7917SOL     OW35386   2.527   4.198   5.885 -0.4647  0.2738 -0.3671
 7917SOL    HW135387   2.555   4.150   5.962  1.0878  2.1642  0.2393
 7917SOL    HW235388   2.549   4.290   5.901 -1.1369  0.3495  0.1047
 7918SOL     OW35389   4.648   3.844  13.765  0.0862  0.0609  0.1877
 7918SOL    HW135390   4.703   3.901  13.818  0.6608  0.5152 -0.8989
 7918SOL    HW235391   4.713   3.778  13.738 -0.9245 -0.3440 -1.2308
 7919SOL     OW35392   2.747   3.267   5.880 -0.2830 -0.9348  0.8460
 7919SOL    HW135393   2.784   3.298   5.963  1.2509 -1.4838  0.3675
 7919SOL    HW235394   2.674   3.327   5.864  1.4853 -0.0198 -3.5674
 7920SOL     OW35395   4.574   3.152   5.152 -0.1898  0.3740  0.7342
 7920SOL    HW135396   4.543   3.081   5.207 -1.1717 -0.4955 -0.9699
 7920SOL    HW235397   4.666   3.124   5.146  0.0717  1.0642  1.4106
 7921SOL     OW35398   2.435   0.793   5.616  0.1486 -0.5485 -0.5719
 7921SOL    HW135399   2.525   0.764   5.600  0.8611 -0.9179  4.2809
 7921SOL    HW235400   2.437   0.809   5.710  2.1157 -1.4490 -0.4517
 7922SOL     OW35401   1.007   2.254   9.400  0.5872  0.0549  0.1700
 7922SOL    HW135402   1.057   2.321   9.354 -1.8064  1.5285 -0.3273
 7922SOL    HW235403   0.924   2.300   9.417  0.7930  0.7697 -0.7251
 7923SOL     OW35404   4.374   4.058   0.863 -0.4335 -0.0463  0.4154
 7923SOL    HW135405   4.341   4.025   0.779 -1.0055  1.9151 -0.1199
 7923SOL    HW235406   4.294   4.089   0.905  0.2061  0.8208  0.9878
 7924SOL     OW35407   2.737   3.557   5.332 -0.3318  0.1076  0.0971
 7924SOL    HW135408   2.705   3.647   5.339 -2.6273 -0.6799 -0.2791
 7924SOL    HW235409   2.829   3.579   5.317 -0.6258  1.7106  0.7055
 7925SOL     OW35410   2.681   3.661   4.723 -0.2672 -0.1562  0.1289
 7925SOL    HW135411   2.596   3.619   4.714 -0.4307  0.4864 -1.2145
 7925SOL    HW235412   2.701   3.678   4.815 -1.5470 -0.3689  0.4458
 7926SOL     OW35413   2.755   1.198   7.695 -0.2717  0.5314  0.7711
 7926SOL    HW135414   2.820   1.131   7.716 -2.4252 -2.3820 -2.0104
 7926SOL    HW235415   2.737   1.167   7.606 -0.2021  0.2054  0.8720
 7927SOL     OW35416   0.761   4.264   7.234  0.5260 -0.3837  0.2573
 7927SOL    HW135417   0.762   4.294   7.325  0.3051 -2.4163  0.9240
 7927SOL    HW235418   0.810   4.182   7.237  1.2281  0.1345  3.5255
 7928SOL     OW35419   3.951   2.390  17.716  0.0953 -0.3124 -0.1142
 7928SOL    HW135420   4.042   2.369  17.738  0.3492  1.2778  0.3761
 7928SOL    HW235421   3.920   2.404   0.038  0.9686 -0.2780  0.1842
 7929SOL     OW35422   0.241   3.518   3.215 -0.0725  0.4645 -0.2851
 7929SOL    HW135423   0.232   3.593   3.274 -1.5344  2.0879 -2.6028
 7929SOL    HW235424   0.335   3.506   3.232 -0.5549 -0.7484  1.4748
 7930SOL     OW35425   4.294   3.168   5.816  0.3959  0.6275 -0.1266
 7930SOL    HW135426   4.245   3.219   5.752 -1.2445 -0.4502  0.2855
 7930SOL    HW235427   4.379   3.196   5.781  0.9987 -0.6550  0.3169
 7931SOL     OW35428   0.875   1.522   6.251 -0.7122 -0.7376 -0.8599
 7931SOL    HW135429   0.970   1.527   6.235 -0.3816 -1.3237  0.9408
 7931SOL    HW235430   0.868   1.461   6.325  0.3992  0.9517  0.6232
 7932SOL     OW35431   3.106   0.905   7.624 -0.3403  0.2387 -0.5685
 7932SOL    HW135432   3.144   0.834   7.574 -1.1195 -1.5136  1.3083
 7932SOL    HW235433   3.030   0.865   7.666  0.5460 -0.8398  0.0150
 7933SOL     OW35434   4.555   2.333   4.728  0.4579  0.1894 -0.5641
 7933SOL    HW135435   4.503   2.411   4.712  0.3529  0.6310  1.9018
 7933SOL    HW235436   4.493   2.271   4.766  0.3253  0.2862 -0.6245
 7934SOL     OW35437   3.983   2.935  17.237 -0.6898  0.6288 -0.5958
 7934SOL    HW135438   4.015   2.973  17.156 -2.0296  0.6237 -1.1213
 7934SOL    HW235439   3.900   2.980  17.249  0.1959  2.1217  0.0725
 7935SOL     OW35440   3.138   2.228   1.952  0.1032 -0.1765  0.4597
 7935SOL    HW135441   3.170   2.214   2.041 -0.2814 -1.6323  0.3738
 7935SOL    HW235442   3.205   2.284   1.913  0.3936  0.4268  1.8397
 7936SOL     OW35443   3.705   2.914   7.820  0.5579  0.1621  0.0675
 7936SOL    HW135444   3.792   2.921   7.779  0.7953 -0.8186  0.3974
 7936SOL    HW235445   3.658   2.871   7.749 -0.2415  0.1804  0.5836
 7937SOL     OW35446   3.233   1.689   7.591 -0.0659 -0.0749 -0.4974
 7937SOL    HW135447   3.169   1.675   7.522 -0.8533 -1.1033  0.4383
 7937SOL    HW235448   3.203   1.622   7.652 -3.1481 -0.8418 -2.8321
 7938SOL     OW35449   4.637   0.391   1.060 -0.3405  0.1616 -0.1603
 7938SOL    HW135450   4.716   0.395   1.114 -1.3021  1.4350  1.1490
 7938SOL    HW235451   4.599   0.472   1.093 -1.1198 -0.7496  1.1578
 7939SOL     OW35452   3.084   3.463   3.998 -0.0343 -0.5673  0.1353
 7939SOL    HW135453   3.057   3.439   4.087 -0.2042  0.0766  0.2539
 7939SOL    HW235454   3.070   3.378   3.955 -0.6905  0.0088 -0.7925
 7940SOL     OW35455   2.995   0.754  15.119 -0.5470 -0.7953  0.1108
 7940SOL    HW135456   2.930   0.688  15.094 -0.2298 -2.0862  2.6440
 7940SOL    HW235457   3.009   0.795  15.034 -0.6441 -0.7930  0.0960
 7941SOL     OW35458   1.223   3.840  11.792 -1.1589  0.1437 -0.0846
 7941SOL    HW135459   1.314   3.832  11.822 -0.2791 -0.0886 -2.8309
 7941SOL    HW235460   1.246   3.893  11.716 -0.4854 -0.0434 -0.0109
 7942SOL     OW35461   2.936   4.332   5.933 -0.2488  0.0005 -0.7493
 7942SOL    HW135462   2.848   4.368   5.942 -0.4604 -0.9878  1.2107
 7942SOL    HW235463   2.927   4.265   6.001 -0.6619  0.4817 -0.3347
 7943SOL     OW35464   3.258   1.284   8.624 -0.3094 -0.2530 -0.3279
 7943SOL    HW135465   3.237   1.228   8.699  1.5088  0.8950  1.0523
 7943SOL    HW235466   3.343   1.251   8.594  0.4879  0.9552  0.5819
 7944SOL     OW35467   0.543   3.218   4.601  0.4873  0.3164  0.1316
 7944SOL    HW135468   0.603   3.210   4.527 -0.6223  0.3680 -0.7568
 7944SOL    HW235469   0.597   3.259   4.670 -0.9938  1.5995  0.5331
 7945SOL     OW35470   3.354   2.371   1.756 -0.0863 -0.5141  0.2820
 7945SOL    HW135471   3.312   2.457   1.755 -3.5949 -2.1944  1.0054
 7945SOL    HW235472   3.441   2.394   1.789 -0.2148  0.3356  0.0243
 7946SOL     OW35473   2.415   4.325  13.921  0.1290  0.0004 -0.1596
 7946SOL    HW135474   2.485   4.373  13.877 -0.7782  1.2899 -0.1919
 7946SOL    HW235475   2.353   4.334  13.849 -0.6056  1.0726  0.6089
 7947SOL     OW35476   3.932   3.315   6.600 -0.4235  0.6703  0.1897
 7947SOL    HW135477   3.916   3.335   6.692  0.5387  0.3037  0.4377
 7947SOL    HW235478   3.862   3.367   6.559  0.4046  0.0179 -2.0351
 7948SOL     OW35479   0.812   1.764  11.813 -0.1558 -0.2478  0.3035
 7948SOL    HW135480   0.881   1.706  11.845  1.7489 -0.2611 -3.7553
 7948SOL    HW235481   0.740   1.742  11.872 -1.6635  0.3812 -1.3003
 7949SOL     OW35482   4.572   0.151   3.708  0.1297  0.1006 -0.0815
 7949SOL    HW135483   4.525   0.212   3.764 -1.0396 -1.7951  1.0099
 7949SOL    HW235484   4.631   0.118   3.776  2.0126  0.3503 -1.5840
 7950SOL     OW35485   3.936   0.951   5.289 -0.9851 -0.1827 -0.2614
 7950SOL    HW135486   4.012   0.897   5.307 -1.1023 -0.1781  0.2453
 7950SOL    HW235487   3.865   0.888   5.301 -1.3318 -0.1086 -1.9399
 7951SOL     OW35488   4.574   3.473   9.131  0.8205  0.3325 -0.5782
 7951SOL    HW135489   4.578   3.509   9.219 -1.0266 -2.5350  0.6735
 7951SOL    HW235490   4.483   3.449   9.114  0.7159 -0.5392  1.1752
 7952SOL     OW35491   3.893   1.721   6.369 -0.6907 -0.0017  0.0362
 7952SOL    HW135492   3.862   1.645   6.320  1.4487 -1.1240  0.3957
 7952SOL    HW235493   3.938   1.670   6.436 -2.5434 -1.1487  0.4116
 7953SOL     OW35494   4.573   2.557   7.190  0.0592 -0.8311 -0.5509
 7953SOL    HW135495   4.572   2.506   7.109  2.7104  0.0573 -1.1411
 7953SOL    HW235496   4.543   2.488   7.250  0.0045 -1.2495 -1.0581
 7954SOL     OW35497   0.045   0.688   2.587 -0.0400  0.2537  0.2965
 7954SOL    HW135498   0.126   0.677   2.538 -0.5921  0.4827 -0.6799
 7954SOL    HW235499   0.065   0.648   2.671  1.5527 -1.2070 -0.7678
 7955SOL     OW35500   0.593   1.672  11.933 -0.3572 -0.2716  0.1009
 7955SOL    HW135501   0.499   1.659  11.928 -0.6266  1.2432  1.3049
 7955SOL    HW235502   0.620   1.600  11.876 -2.2185  0.1855 -1.3523
 7956SOL     OW35503   1.044   2.274   6.757  0.3618 -0.8123 -0.0271
 7956SOL    HW135504   1.039   2.362   6.720  0.5782 -2.5154 -4.1147
 7956SOL    HW235505   1.134   2.246   6.739  0.9085  0.9599 -0.0420
 7957SOL     OW35506   3.883   2.792   3.036 -0.1689 -0.1220  0.3220
 7957SOL    HW135507   3.876   2.697   3.032 -0.8337 -0.1034  1.0305
 7957SOL    HW235508   3.836   2.824   2.959 -0.1864 -0.7565  0.0725
 7958SOL     OW35509   2.057   1.547  13.158  0.4228  0.4811  0.5721
 7958SOL    HW135510   2.068   1.453  13.145  0.7525  0.6993 -0.8021
 7958SOL    HW235511   2.008   1.557  13.240  0.0209  0.7771  0.2985
 7959SOL     OW35512   4.071   1.432   1.309  0.0354  0.2173  0.2341
 7959SOL    HW135513   4.078   1.343   1.345  1.2431  0.3540  0.3466
 7959SOL    HW235514   4.134   1.479   1.363  0.1294 -1.5470  1.6748
 7960SOL     OW35515   2.013   3.508   7.156  0.2314  0.1083 -0.2587
 7960SOL    HW135516   1.943   3.448   7.132  1.2614 -1.3765  0.4135
 7960SOL    HW235517   2.026   3.550   7.071 -3.8781  0.9450 -0.4662
 7961SOL     OW35518   4.465   1.587   9.318 -0.6369 -0.3568  0.4713
 7961SOL    HW135519   4.543   1.642   9.328 -0.3302 -0.7433  0.2311
 7961SOL    HW235520   4.411   1.646   9.370  0.0342  1.0502 -0.4182
 7962SOL     OW35521   1.409   3.683   7.389  0.3605  0.1224  0.3207
 7962SOL    HW135522   1.432   3.647   7.475 -2.9356 -1.0295  0.7238
 7962SOL    HW235523   1.466   3.621   7.344  0.5820  1.0276 -0.6688
 7963SOL     OW35524   0.120   1.599   3.547 -0.8329 -0.2110 -0.2766
 7963SOL    HW135525   0.102   1.557   3.631 -1.0837 -0.5598 -0.5064
 7963SOL    HW235526   0.174   1.674   3.574 -2.1832  1.3949 -2.1112
 7964SOL     OW35527   2.066   4.715  12.593  0.1878  0.7542  0.5762
 7964SOL    HW135528   2.142   4.670  12.555  1.2652  1.3741  2.0197
 7964SOL    HW235529   2.032   4.640  12.641  0.4792 -0.9464 -1.8335
 7965SOL     OW35530   4.419   3.563  11.699 -0.0163 -0.1328 -0.0998
 7965SOL    HW135531   4.498   3.613  11.716 -1.2515  1.0029  2.2127
 7965SOL    HW235532   4.383   3.626  11.636 -1.3973 -1.2170 -0.3921
 7966SOL     OW35533   0.502   0.946   3.647 -0.0005 -0.4412  0.0670
 7966SOL    HW135534   0.543   1.019   3.693  0.3540 -1.5206  1.4795
 7966SOL    HW235535   0.417   0.985   3.629  0.3203 -0.0128 -0.5077
 7967SOL     OW35536   1.057   2.499   7.656 -0.5763 -0.0171  0.4625
 7967SOL    HW135537   1.098   2.419   7.622  0.5614 -0.2035  2.3019
 7967SOL    HW235538   1.097   2.507   7.742 -0.4446  1.2622  0.2863
 7968SOL     OW35539   3.197   4.211   6.166 -0.3504 -0.1060  0.2606
 7968SOL    HW135540   3.220   4.136   6.221 -1.7676  0.7780  2.0855
 7968SOL    HW235541   3.252   4.199   6.089  2.2526 -2.6289  2.4842
 7969SOL     OW35542   3.197   2.471  17.048 -0.3309  0.0764 -0.5540
 7969SOL    HW135543   3.288   2.476  17.078 -0.3047  2.4521 -0.9827
 7969SOL    HW235544   3.185   2.559  17.011  1.6523 -0.6130 -2.8497
 7970SOL     OW35545   3.435   4.035  14.243 -0.4587 -0.1695  0.2332
 7970SOL    HW135546   3.455   4.074  14.157 -1.7147 -1.2988 -0.5722
 7970SOL    HW235547   3.453   4.110  14.300  0.2270 -0.4522  0.3915
 7971SOL     OW35548   3.317   1.400   4.468 -0.6736 -0.0861  0.2017
 7971SOL    HW135549   3.250   1.394   4.399 -1.4399 -0.3480  0.9769
 7971SOL    HW235550   3.269   1.422   4.548  1.1262  2.0731  0.6748
 7972SOL     OW35551   0.545   2.116   3.565  0.2256  0.0192  0.1828
 7972SOL    HW135552   0.527   2.203   3.529 -0.3934  0.3902  1.3782
 7972SOL    HW235553   0.473   2.105   3.628 -0.1551 -2.3957 -0.6837
 7973SOL     OW35554   3.653   0.311  11.363 -0.0548  0.0385  0.2545
 7973SOL    HW135555   3.704   0.370  11.307  0.0131  1.2551  1.5847
 7973SOL    HW235556   3.709   0.238  11.391 -2.0407 -1.0463  1.4180
 7974SOL     OW35557   0.562   3.629   7.842  0.0688  0.0842  0.3119
 7974SOL    HW135558   0.562   3.596   7.932 -1.6027 -2.7878 -0.7628
 7974SOL    HW235559   0.563   3.558   7.779 -0.5794 -0.1387  0.5528
 7975SOL     OW35560   4.222   3.779   4.991  0.1970  0.3861  0.0984
 7975SOL    HW135561   4.212   3.865   5.032  0.5204  0.2853  0.3755
 7975SOL    HW235562   4.254   3.734   5.068  1.7247 -0.2654 -0.9267
 7976SOL     OW35563   0.089   2.728   0.700 -0.2430  0.0926  0.3409
 7976SOL    HW135564   0.087   2.789   0.626 -1.7966  0.0243  0.3354
 7976SOL    HW235565   0.063   2.789   0.769  2.0641  1.0850  0.3623
 7977SOL     OW35566   3.012   1.155   5.737  0.3790 -0.0855  0.3700
 7977SOL    HW135567   3.070   1.084   5.709  0.8702  0.5712 -0.2565
 7977SOL    HW235568   3.005   1.144   5.832 -0.2737  1.6820  0.5275
 7978SOL     OW35569   3.476   3.692   9.789  0.2400 -0.0619  0.1165
 7978SOL    HW135570   3.470   3.728   9.701 -0.3162  0.3550  0.3288
 7978SOL    HW235571   3.440   3.766   9.838  0.8858 -0.1865  0.7743
 7979SOL     OW35572   4.199   3.177   4.011  0.2470  0.2692 -0.3988
 7979SOL    HW135573   4.246   3.184   4.094  0.6737  0.6904 -0.6745
 7979SOL    HW235574   4.152   3.260   4.006  1.2224  0.7561 -1.4070
 7980SOL     OW35575   4.633   0.680   4.652  0.4165  0.2315 -0.1122
 7980SOL    HW135576   4.606   0.605   4.600 -1.1507 -0.0543  1.0899
 7980SOL    HW235577   4.560   0.703   4.710  1.1189 -0.6274  1.1036
 7981SOL     OW35578   4.557   3.221   8.189 -0.3953 -0.0425 -0.5302
 7981SOL    HW135579   4.508   3.176   8.120 -2.0964 -1.4914  1.6367
 7981SOL    HW235580   4.576   3.295   8.131 -3.7743  1.7829  0.6920
 7982SOL     OW35581   3.087   3.260   3.220  0.3808 -0.5396  0.5972
 7982SOL    HW135582   3.129   3.339   3.252 -1.2715 -0.2144  1.9303
 7982SOL    HW235583   3.090   3.269   3.124  0.1807 -2.3117  0.4245
 7983SOL     OW35584   3.018   4.226   9.804 -0.1243 -0.2190 -0.0319
 7983SOL    HW135585   2.933   4.196   9.773 -0.5461  1.1051 -0.1949
 7983SOL    HW235586   3.022   4.169   9.881 -1.0384  0.4807  0.5353
 7984SOL     OW35587   3.349   3.186  16.696 -0.2235 -0.0615 -0.1329
 7984SOL    HW135588   3.346   3.280  16.716 -0.0762 -0.3370  1.2327
 7984SOL    HW235589   3.259   3.169  16.670 -0.1823 -0.6673  0.1193
 7985SOL     OW35590   0.672   2.166   9.426  0.0887 -0.3305 -0.8897
 7985SOL    HW135591   0.703   2.112   9.353 -1.8546  0.4259 -2.2872
 7985SOL    HW235592   0.749   2.186   9.479 -1.5160  1.6510  0.7140
 7986SOL     OW35593   4.664   1.745  17.146 -0.4022  0.3169  0.1298
 7986SOL    HW135594   4.723   1.734  17.221  0.2963  0.4415 -0.3965
 7986SOL    HW235595   4.709   1.676  17.096  1.2274  1.0548  0.5837
 7987SOL     OW35596   0.629   1.949  14.754 -0.3472  0.5082  0.0147
 7987SOL    HW135597   0.557   1.980  14.699  0.1046  1.6022  0.0407
 7987SOL    HW235598   0.583   1.876  14.795 -0.4113  0.0801 -0.8222
 7988SOL     OW35599   1.216   4.518   5.619  0.1777 -0.2264 -0.0465
 7988SOL    HW135600   1.151   4.586   5.602  0.1389 -0.2130  0.1459
 7988SOL    HW235601   1.171   4.469   5.688 -1.7761  1.0926 -0.3944
 7989SOL     OW35602   3.040   1.238  10.520  0.6165 -0.5716  0.2132
 7989SOL    HW135603   3.099   1.166  10.542  0.4946 -0.2990  1.4431
 7989SOL    HW235604   3.008   1.206  10.436  0.5086  0.0775  0.0115
 7990SOL     OW35605   3.268   2.630   1.752  0.0275 -1.3064  0.1429
 7990SOL    HW135606   3.185   2.613   1.706  1.1882 -0.6670 -2.1586
 7990SOL    HW235607   3.243   2.696   1.817  0.9863  1.7860 -2.6542
 7991SOL     OW35608   0.439   0.549   1.193  0.2593  0.0476 -0.1933
 7991SOL    HW135609   0.477   0.467   1.163  1.7819 -0.2022  2.4096
 7991SOL    HW235610   0.512   0.610   1.203  1.1625 -0.5957 -3.0007
 7992SOL     OW35611   3.782   2.392  12.384 -0.3738 -0.2686  0.1949
 7992SOL    HW135612   3.786   2.429  12.296 -1.1587  2.0308  1.1245
 7992SOL    HW235613   3.875   2.380  12.400 -0.2301  0.3982 -0.1256
 7993SOL     OW35614   4.561   4.625   9.716 -0.4008  0.1099  0.2527
 7993SOL    HW135615   4.504   4.700   9.696  1.4956  2.0406  2.0177
 7993SOL    HW235616   4.536   4.607   9.807  1.8745 -0.2182  0.7980
 7994SOL     OW35617   4.139   1.002  15.359 -0.4573  0.1860  0.1685
 7994SOL    HW135618   4.215   0.990  15.303 -0.3937  0.8857  0.0988
 7994SOL    HW235619   4.149   0.926  15.416 -1.4241 -2.0661 -2.6775
 7995SOL     OW35620   4.242   3.695   7.651 -0.5577 -0.0683  0.1078
 7995SOL    HW135621   4.267   3.659   7.737  2.0872 -1.4487 -1.2280
 7995SOL    HW235622   4.287   3.778   7.666 -1.9344  0.4089  1.6216
 7996SOL     OW35623   4.697   0.037   2.600 -0.5935  0.7596 -0.0467
 7996SOL    HW135624   4.643   4.736   2.534 -0.5036  0.2257  0.2374
 7996SOL    HW235625   4.658   0.000   2.679  2.3486  0.9002  1.4634
 7997SOL     OW35626   4.130   0.303  13.510  0.2874  0.7820 -0.0976
 7997SOL    HW135627   4.097   0.295  13.599 -1.6090  0.1432 -0.8511
 7997SOL    HW235628   4.089   0.225  13.472  1.4689 -0.8093  1.9185
 7998SOL     OW35629   3.980   0.220   7.128  0.4238 -0.2570  1.0740
 7998SOL    HW135630   4.064   0.246   7.167  1.9410 -0.3128 -2.1685
 7998SOL    HW235631   3.939   0.197   7.212 -1.4355  0.6695  0.3988
 7999SOL     OW35632   4.172   1.077   7.723 -0.7723  0.1562 -0.1072
 7999SOL    HW135633   4.225   1.152   7.752 -0.6494 -1.1231  2.9080
 7999SOL    HW235634   4.235   1.006   7.729  0.1193  1.1108  1.6668
 8000SOL     OW35635   0.657   4.568   8.872 -0.4863  0.1732 -0.7640
 8000SOL    HW135636   0.738   4.518   8.860  0.0858  1.3351 -1.7868
 8000SOL    HW235637   0.687   4.654   8.904 -0.3762 -0.1644  0.0554
 8001SOL     OW35638   0.039   1.815   8.556 -0.0796 -0.3486 -0.1970
 8001SOL    HW135639   4.720   1.823   8.483  1.6132  0.3981 -1.5387
 8001SOL    HW235640   4.724   1.773   8.620  1.2220  0.2047  1.3283
 8002SOL     OW35641   4.332   3.641  14.434  0.0811  0.5507 -0.1231
 8002SOL    HW135642   4.280   3.637  14.353 -0.4104  0.8066  0.1789
 8002SOL    HW235643   4.254   3.639  14.489  0.7284  0.6988  0.8071
 8003SOL     OW35644   0.373   0.310  12.625 -0.4511  0.2175 -0.2977
 8003SOL    HW135645   0.321   0.251  12.680 -1.7150  0.6296 -1.0476
 8003SOL    HW235646   0.325   0.304  12.542 -0.4466  0.6854 -0.3340
 8004SOL     OW35647   2.509   1.253   8.752 -0.2629 -0.1226 -0.0232
 8004SOL    HW135648   2.463   1.251   8.835  1.2721  2.2059  0.8871
 8004SOL    HW235649   2.480   1.339   8.721  1.7324  0.6121  0.1491
 8005SOL     OW35650   4.590   3.498   2.798 -0.2732 -0.3110 -0.6480
 8005SOL    HW135651   4.505   3.477   2.761 -1.5640  1.0073  1.5901
 8005SOL    HW235652   4.571   3.574   2.853 -1.2713 -0.6957 -0.4612
 8006SOL     OW35653   4.457   0.410   0.305 -0.1222  0.1729  0.3899
 8006SOL    HW135654   4.448   0.428   0.212  0.9648 -1.1748  0.0308
 8006SOL    HW235655   4.387   0.455   0.353 -1.0231 -1.4404  0.5876
 8007SOL     OW35656   2.023   0.779   5.638 -0.0754  0.4184  0.6054
 8007SOL    HW135657   2.045   0.818   5.554  0.5986  1.2978  1.1870
 8007SOL    HW235658   1.933   0.755   5.616  0.3383 -0.0499 -0.5727
 8008SOL     OW35659   0.403   1.129  15.573  0.1861 -0.2487  0.2160
 8008SOL    HW135660   0.392   1.223  15.555 -0.9969 -0.4093  0.1141
 8008SOL    HW235661   0.443   1.105  15.489  0.6295  2.4368 -0.3663
 8009SOL     OW35662   4.329   2.514   5.528 -0.0732 -0.1756  0.1117
 8009SOL    HW135663   4.346   2.446   5.594  0.2608 -0.2542 -0.0515
 8009SOL    HW235664   4.336   2.457   5.451 -2.9836 -2.9225  1.8932
 8010SOL     OW35665   3.605   0.678  11.610 -0.7581  0.3290  0.0678
 8010SOL    HW135666   3.539   0.617  11.577 -0.4586 -0.9222  1.7766
 8010SOL    HW235667   3.597   0.727  11.528  0.0722  0.4282  0.0450
 8011SOL     OW35668   0.454   4.718   0.320  0.2493  0.3197  0.2581
 8011SOL    HW135669   0.464   0.066   0.290  0.6249  1.0289  2.4944
 8011SOL    HW235670   0.374   4.717   0.372 -0.0068  2.2582 -0.1147
 8012SOL     OW35671   2.078   0.740   7.897  0.0660  0.2826 -0.5740
 8012SOL    HW135672   2.037   0.748   7.983  0.8608 -1.4388 -0.0260
 8012SOL    HW235673   2.029   0.671   7.852  0.4706  0.3605 -1.1302
 8013SOL     OW35674   0.083   0.297   4.602 -0.3556 -0.2635 -0.1010
 8013SOL    HW135675   0.057   0.223   4.656  0.7443 -0.9637 -0.5358
 8013SOL    HW235676   0.028   0.368   4.635  1.0042  0.4244  0.6868
 8014SOL     OW35677   3.875   0.285  14.528 -0.2165 -0.4708 -0.1555
 8014SOL    HW135678   3.893   0.276  14.622  2.1712  0.7273 -0.4837
 8014SOL    HW235679   3.824   0.365  14.530  0.9832  0.2914  0.1601
 8015SOL     OW35680   3.411   4.139   6.012 -0.0579 -0.4326  0.2584
 8015SOL    HW135681   3.399   4.151   5.918  1.2918 -1.2519 -0.0106
 8015SOL    HW235682   3.506   4.147   6.012 -0.1928  1.2672  1.8477
 8016SOL     OW35683   2.775   4.378  11.724  0.4090 -0.0830  0.3966
 8016SOL    HW135684   2.735   4.336  11.648  0.8152 -0.8471  0.6016
 8016SOL    HW235685   2.775   4.472  11.706 -0.5448 -0.1146  0.2145
 8017SOL     OW35686   1.754   0.183   5.154  0.4732 -0.4150 -0.1294
 8017SOL    HW135687   1.818   0.204   5.223 -0.3380 -3.2460  1.4614
 8017SOL    HW235688   1.734   0.273   5.128 -0.0835  0.0992  2.0582
 8018SOL     OW35689   0.150   0.096  17.271 -0.6426  0.7117 -0.2489
 8018SOL    HW135690   0.114   0.076  17.357  0.2782  2.9786  0.6632
 8018SOL    HW235691   0.205   0.169  17.298  0.0610  0.9753 -2.4023
 8019SOL     OW35692   1.503   2.788  14.916 -0.6965 -0.0324  0.0379
 8019SOL    HW135693   1.425   2.823  14.960  0.2560  2.3041 -0.1396
 8019SOL    HW235694   1.517   2.712  14.973  0.1344 -0.9641 -1.4088
 8020SOL     OW35695   1.043   1.873   3.213 -0.0272 -0.3328  0.1474
 8020SOL    HW135696   0.950   1.850   3.209 -0.1365  0.2019 -0.4336
 8020SOL    HW235697   1.075   1.825   3.138  0.8360 -0.3883  0.5555
 8021SOL     OW35698   4.235   0.288   6.805 -0.0984  0.5686  0.1692
 8021SOL    HW135699   4.295   0.247   6.743  0.0734  0.1394  0.6200
 8021SOL    HW235700   4.283   0.259   6.883  0.7728 -0.4182 -0.7395
 8022SOL     OW35701   4.569   0.062   9.378  0.0823  0.1228  0.2425
 8022SOL    HW135702   4.480   0.092   9.362  0.5066  1.4010  0.2964
 8022SOL    HW235703   4.584   0.086   9.469 -0.7433 -0.0527  0.4190
 8023SOL     OW35704   3.663   2.285   0.030 -0.1235  0.0819 -0.1097
 8023SOL    HW135705   3.728   2.245   0.087  2.7671  0.6123 -3.0800
 8023SOL    HW235706   3.659   2.230  17.719 -1.7391  0.6829 -0.4563
 8024SOL     OW35707   3.766   0.916  16.186 -0.5193  0.2329 -0.2300
 8024SOL    HW135708   3.761   0.997  16.135  1.1886 -0.3596 -1.3419
 8024SOL    HW235709   3.776   0.943  16.277 -0.6022  0.0365 -0.1641
 8025SOL     OW35710   0.123   2.615   6.338 -0.2577  0.4207  0.5952
 8025SOL    HW135711   0.196   2.643   6.392 -0.6660  1.5846  0.5400
 8025SOL    HW235712   0.080   2.553   6.397 -2.2111 -1.3757 -2.7438
 8026SOL     OW35713   4.069   3.403   8.353 -0.1156 -0.4498  0.0157
 8026SOL    HW135714   4.149   3.402   8.406  0.7374 -1.8408 -1.3216
 8026SOL    HW235715   4.082   3.323   8.303 -1.2735 -0.8910  0.4245
 8027SOL     OW35716   1.924   4.585   3.434  0.4538  0.2680  0.2606
 8027SOL    HW135717   1.961   4.601   3.347  0.9823 -0.8264  0.2849
 8027SOL    HW235718   1.919   4.489   3.437  1.8888  0.1628 -0.9127
 8028SOL     OW35719   0.429   3.624   2.437 -0.4966  0.3321 -0.7447
 8028SOL    HW135720   0.357   3.587   2.385 -1.4780 -0.9756  1.5527
 8028SOL    HW235721   0.490   3.556   2.407  2.2130  1.9197  1.2016
 8029SOL     OW35722   4.241   2.834  11.138 -0.2271 -0.3392  0.3281
 8029SOL    HW135723   4.274   2.789  11.216  1.0347 -1.1855 -0.7037
 8029SOL    HW235724   4.148   2.811  11.136  0.1337 -2.0028  2.0120
 8030SOL     OW35725   2.769   2.919   1.684  0.0526 -0.2989  0.0089
 8030SOL    HW135726   2.705   2.854   1.655  0.5916 -0.5963 -0.5108
 8030SOL    HW235727   2.843   2.859   1.680 -0.4808 -0.9500 -0.1416
 8031SOL     OW35728   1.274   3.568  17.517 -0.0274  0.4044  0.1485
 8031SOL    HW135729   1.224   3.647  17.495 -1.2408  0.1355  1.9056
 8031SOL    HW235730   1.207   3.506  17.546  0.3916 -0.2053 -0.1887
 8032SOL     OW35731   1.174   1.017   7.482  0.6437 -0.1395 -0.0133
 8032SOL    HW135732   1.203   0.971   7.404 -0.4987 -1.2052  0.1781
 8032SOL    HW235733   1.252   1.062   7.513  1.5737 -2.7074  1.3671
 8033SOL     OW35734   4.280   2.249  12.030  0.2921 -0.1702  0.4171
 8033SOL    HW135735   4.190   2.231  12.058  1.0136 -0.0333  2.8045
 8033SOL    HW235736   4.323   2.169  12.061 -0.3331 -0.5108  0.4035
 8034SOL     OW35737   0.418   2.219   8.909  0.4170 -0.3225  0.0834
 8034SOL    HW135738   0.505   2.254   8.890 -1.0427  3.1696  0.0083
 8034SOL    HW235739   0.384   2.277   8.977 -1.1998 -2.8603  1.4814
 8035SOL     OW35740   4.355   2.225   4.949 -0.7355  0.0157  0.8370
 8035SOL    HW135741   4.371   2.317   4.969  1.4353 -0.4189  1.0865
 8035SOL    HW235742   4.260   2.224   4.961 -0.5919 -3.3160  1.7022
 8036SOL     OW35743   0.007   2.719  15.031  0.8020 -0.3664  0.4419
 8036SOL    HW135744   0.060   2.716  14.951  1.0616 -0.6901  0.6230
 8036SOL    HW235745   4.688   2.786  15.002  0.2038 -0.5404  1.3137
 8037SOL     OW35746   4.461   2.766   7.335 -0.4061  0.4524  0.1519
 8037SOL    HW135747   4.490   2.857   7.328  1.0408 -0.1670 -2.0303
 8037SOL    HW235748   4.533   2.719   7.293  0.3703  0.4941  1.4601
 8038SOL     OW35749   0.984   3.289  15.266 -0.4347 -0.4317  0.0296
 8038SOL    HW135750   0.921   3.235  15.220 -0.4537  0.2533 -0.7446
 8038SOL    HW235751   1.016   3.231  15.336 -0.7761 -2.0451 -1.1417
 8039SOL     OW35752   1.642   1.642  16.713  0.2567  0.0067 -0.3917
 8039SOL    HW135753   1.650   1.629  16.618  2.5140 -0.5305 -0.1215
 8039SOL    HW235754   1.666   1.553  16.740  0.8565 -0.1330 -1.3702
 8040SOL     OW35755   3.347   3.788   7.641 -0.8886  0.5807 -0.5509
 8040SOL    HW135756   3.260   3.826   7.635 -1.1846 -0.4835 -3.0862
 8040SOL    HW235757   3.337   3.696   7.616 -0.9845  0.3980  0.1779
 8041SOL     OW35758   2.321   4.706  11.916 -0.8172 -0.0002 -0.1160
 8041SOL    HW135759   2.313   0.059  11.921 -1.7855 -0.0296 -1.2274
 8041SOL    HW235760   2.267   4.676  11.988  0.9800 -3.8070 -0.3654
 8042SOL     OW35761   4.589   4.550  13.766 -0.2103  0.1595  0.3988
 8042SOL    HW135762   4.660   4.553  13.830  0.2608  0.6316 -0.1494
 8042SOL    HW235763   4.611   4.626  13.712 -2.1409  0.4308 -0.0138
 8043SOL     OW35764   3.445   4.689   8.378 -0.7501  0.7554 -0.0886
 8043SOL    HW135765   3.461   4.598   8.404 -1.8598  0.5334 -0.1875
 8043SOL    HW235766   3.531   4.730   8.390  0.6822 -1.3932 -2.7977
 8044SOL     OW35767   2.545   4.022   9.264 -0.3852 -0.3980 -0.3513
 8044SOL    HW135768   2.560   3.970   9.343 -0.0130  1.6792  0.9401
 8044SOL    HW235769   2.631   4.027   9.222 -0.8396 -0.1278 -1.2640
 8045SOL     OW35770   0.805   3.558   3.896  0.6453  0.2386 -0.0947
 8045SOL    HW135771   0.832   3.496   3.829  1.0944  0.4141 -0.0755
 8045SOL    HW235772   0.816   3.643   3.853  1.6129  0.5448  0.7497
 8046SOL     OW35773   4.151   1.612   4.484  0.3456  0.9395  0.0832
 8046SOL    HW135774   4.220   1.671   4.516  0.3456  1.1622 -0.3300
 8046SOL    HW235775   4.083   1.678   4.466  0.2897  1.2824  1.5614
 8047SOL     OW35776   0.052   3.451   0.831 -0.1670 -0.2364  0.6276
 8047SOL    HW135777   0.030   3.416   0.745  1.6429 -1.4381  0.6556
 8047SOL    HW235778   0.147   3.459   0.827 -0.1609 -1.3021 -1.2938
 8048SOL     OW35779   2.312   2.573   7.674  0.0717  0.0215  0.1848
 8048SOL    HW135780   2.294   2.584   7.767  1.8682 -0.5273  0.5898
 8048SOL    HW235781   2.262   2.498   7.643  1.4143 -1.6503  2.0866
 8049SOL     OW35782   1.644   3.883   3.650  0.2477 -0.2186 -0.2222
 8049SOL    HW135783   1.664   3.960   3.704 -2.1406  0.4853 -0.3505
 8049SOL    HW235784   1.581   3.929   3.594 -0.4952 -0.6811  0.2446
 8050SOL     OW35785   3.311   2.541   8.274  0.3535 -0.1598 -0.3599
 8050SOL    HW135786   3.250   2.592   8.328 -0.9653 -1.1288 -0.9188
 8050SOL    HW235787   3.384   2.593   8.242  1.7506 -0.2391  2.6527
 8051SOL     OW35788   0.549   3.294   3.497 -0.3082  0.0771  0.1712
 8051SOL    HW135789   0.564   3.223   3.560  1.5712  1.5708  1.4293
 8051SOL    HW235790   0.592   3.257   3.420  0.4112 -0.4788  0.8363
 8052SOL     OW35791   4.695   0.056   2.225 -1.0729 -1.1368  0.4532
 8052SOL    HW135792   0.014   0.065   2.152 -1.4812  2.1224  0.4784
 8052SOL    HW235793   0.011   0.052   2.301  0.8704 -0.0049 -0.9638
 8053SOL     OW35794   2.377   3.939  13.250  0.1107 -0.5853 -0.3605
 8053SOL    HW135795   2.401   3.853  13.217 -1.3245 -1.4477  0.8511
 8053SOL    HW235796   2.304   3.964  13.194  0.0844  0.8636  0.3170
 8054SOL     OW35797   1.040   3.040  11.809 -0.7731 -0.0652 -0.1533
 8054SOL    HW135798   1.106   3.066  11.744 -0.5717 -0.6624 -0.1871
 8054SOL    HW235799   1.004   3.121  11.845  0.4814 -0.2453  1.4864
 8055SOL     OW35800   2.959   1.588   3.518 -0.1569  0.1440  0.4947
 8055SOL    HW135801   2.991   1.677   3.507 -1.3624  0.3015 -1.6471
 8055SOL    HW235802   2.976   1.535   3.440 -0.9293 -1.6633  1.5606
 8056SOL     OW35803   1.424   1.071  12.722 -0.2729  0.3918  0.4793
 8056SOL    HW135804   1.410   1.165  12.707 -0.4050  0.4154  0.7680
 8056SOL    HW235805   1.373   1.037  12.648  0.8459  0.2940 -0.2474
 8057SOL     OW35806   2.925   0.779   7.763 -0.1484  0.3378  0.1032
 8057SOL    HW135807   2.985   0.756   7.833 -1.8276 -0.3476  1.3316
 8057SOL    HW235808   2.880   0.856   7.798 -1.5361 -0.0790 -0.7560
 8058SOL     OW35809   0.809   1.277   2.730 -0.0332  0.4879  0.3327
 8058SOL    HW135810   0.786   1.295   2.821 -1.2821  1.2844 -0.1423
 8058SOL    HW235811   0.725   1.297   2.688 -0.1709  0.1808  0.4614
 8059SOL     OW35812   1.393   1.674  11.268  0.8602  0.4053 -0.4782
 8059SOL    HW135813   1.377   1.602  11.330  0.2364  2.4824  1.7539
 8059SOL    HW235814   1.488   1.680  11.275  1.1493 -1.9789 -2.2879
 8060SOL     OW35815   0.853   3.309  11.380 -0.7486 -0.5284  0.6123
 8060SOL    HW135816   0.790   3.369  11.340 -0.6290  0.1403  1.4352
 8060SOL    HW235817   0.829   3.315  11.472  2.4883  0.3090  1.4151
 8061SOL     OW35818   4.024   4.692   7.527  0.1164  0.2812  0.4827
 8061SOL    HW135819   4.042   0.037   7.562 -1.6359  1.3978 -1.4338
 8061SOL    HW235820   4.114   4.658   7.524 -0.0305 -0.2430  2.1894
 8062SOL     OW35821   1.320   2.147   0.773  0.4866  0.2512 -0.3877
 8062SOL    HW135822   1.227   2.172   0.769  0.5966  1.1081  2.1504
 8062SOL    HW235823   1.344   2.240   0.768 -0.5856  0.3277 -3.6944
 8063SOL     OW35824   3.606   0.547   5.431 -0.5200 -0.5843  0.8196
 8063SOL    HW135825   3.592   0.481   5.500  2.0383  0.1715  2.0582
 8063SOL    HW235826   3.614   0.498   5.349  1.8343  0.0531  0.6848
 8064SOL     OW35827   3.868   4.179   9.794  0.2831 -0.0526  0.0339
 8064SOL    HW135828   3.928   4.233   9.845 -1.9846  2.3719  0.1583
 8064SOL    HW235829   3.869   4.240   9.720  0.4275 -1.9249 -1.4985
 8065SOL     OW35830   1.820   3.401   1.541  0.1456  0.5127  0.3919
 8065SOL    HW135831   1.750   3.442   1.490  0.2803 -1.0602 -1.0287
 8065SOL    HW235832   1.785   3.363   1.621  2.8006  0.1598  1.3777
 8066SOL     OW35833   0.275   2.707   9.445  0.6770 -0.1074 -0.0714
 8066SOL    HW135834   0.234   2.752   9.519  0.9567  1.5627 -0.9359
 8066SOL    HW235835   0.195   2.683   9.397  1.0931 -0.2910 -0.6691
 8067SOL     OW35836   3.795   2.131   7.257 -0.2665 -0.1102 -0.1439
 8067SOL    HW135837   3.705   2.106   7.279 -0.5799  0.1914 -1.1076
 8067SOL    HW235838   3.777   2.181   7.178  2.0163 -0.6052 -0.9588
 8068SOL     OW35839   3.998   3.268   5.576 -0.2537 -0.1991 -0.5044
 8068SOL    HW135840   4.078   3.313   5.602  1.1944 -2.8837 -0.3533
 8068SOL    HW235841   3.996   3.298   5.485 -0.0018 -0.4987 -0.6099
 8069SOL     OW35842   1.341   0.631   9.432 -0.0287  0.2239 -0.2747
 8069SOL    HW135843   1.263   0.595   9.391 -1.1742  3.3825 -0.9129
 8069SOL    HW235844   1.350   0.710   9.378  0.2738  1.1627  1.1390
 8070SOL     OW35845   3.909   0.494   9.808  0.2536  0.5264  0.1216
 8070SOL    HW135846   3.918   0.468   9.717 -0.9206  3.0575 -0.7186
 8070SOL    HW235847   3.947   0.417   9.851  0.0400  0.4519  0.1819
 8071SOL     OW35848   0.044   4.129   7.468 -0.1481  0.1556 -0.6525
 8071SOL    HW135849   0.026   4.104   7.377  2.2186  0.0007 -1.0855
 8071SOL    HW235850   0.118   4.076   7.494 -0.9104 -1.0783 -1.0106
 8072SOL     OW35851   0.703   0.895   5.760  0.0641 -0.1839  0.1125
 8072SOL    HW135852   0.754   0.825   5.801 -1.4318  0.4428  3.0132
 8072SOL    HW235853   0.673   0.844   5.685 -0.1976 -0.9020  0.7056
 8073SOL     OW35854   0.927   3.045   8.091  0.3863 -0.8459  0.3783
 8073SOL    HW135855   0.963   3.017   8.175  2.3373 -0.8628 -0.4631
 8073SOL    HW235856   0.996   3.005   8.038  1.5057 -0.1966  1.3532
 8074SOL     OW35857   0.332   1.460   9.237 -0.2451 -0.1763  0.1202
 8074SOL    HW135858   0.288   1.377   9.221  1.3617 -0.9054 -0.3967
 8074SOL    HW235859   0.407   1.414   9.272  0.1502  0.6410  0.3490
 8075SOL     OW35860   4.269   2.083   2.554 -0.1812  0.6073  0.1898
 8075SOL    HW135861   4.234   2.022   2.619  0.2752  0.5340  0.3655
 8075SOL    HW235862   4.215   2.161   2.568  0.8158  1.3814 -0.2605
 8076SOL     OW35863   3.476   1.430   1.997 -0.2581 -0.3862 -0.3261
 8076SOL    HW135864   3.560   1.466   2.025 -0.9329  0.0248  1.1933
 8076SOL    HW235865   3.481   1.341   2.032 -0.4126 -0.2577  0.0260
 8077SOL     OW35866   1.039   3.041   5.030  0.6044  0.2816 -0.2856
 8077SOL    HW135867   1.045   2.995   5.114  1.0726  0.8805  0.0095
 8077SOL    HW235868   1.131   3.060   5.010  1.3116 -1.2600  1.4828
 8078SOL     OW35869   1.360   0.296   2.921 -0.7537  0.1329 -0.0700
 8078SOL    HW135870   1.320   0.360   2.981 -0.2672 -0.6780  1.1259
 8078SOL    HW235871   1.451   0.295   2.949 -0.5940 -2.1647 -0.6863
 8079SOL     OW35872   1.390   3.834  16.785 -0.1573 -0.6038 -0.1479
 8079SOL    HW135873   1.395   3.890  16.862  0.9383  0.0870 -0.7179
 8079SOL    HW235874   1.408   3.748  16.825 -0.4986  0.1847  1.6936
 8080SOL     OW35875   1.581   1.921  14.850 -0.6604  0.3795 -0.2624
 8080SOL    HW135876   1.596   1.835  14.889  1.0949  0.8888  0.1754
 8080SOL    HW235877   1.486   1.933  14.857 -1.0241 -0.8481 -3.3228
 8081SOL     OW35878   4.262   2.976   2.218 -0.9124  0.1902  0.0718
 8081SOL    HW135879   4.167   2.975   2.227 -0.4987  2.5788  4.8807
 8081SOL    HW235880   4.258   2.991   2.124  2.2367  3.0254  0.3739
 8082SOL     OW35881   1.702   2.816  10.102 -0.1751  0.6254 -0.3663
 8082SOL    HW135882   1.712   2.723  10.122  1.5000  0.9843  0.4759
 8082SOL    HW235883   1.760   2.829  10.027 -0.6432  2.0820 -0.4879
 8083SOL     OW35884   4.648   2.040   1.358 -0.6407 -0.0842 -0.0904
 8083SOL    HW135885   4.722   1.982   1.338  0.8726  1.2190  1.6436
 8083SOL    HW235886   4.586   2.025   1.287 -0.0887  0.5553 -0.7125
 8084SOL     OW35887   4.341   0.221   4.961  0.1857 -0.0418 -0.7850
 8084SOL    HW135888   4.275   0.157   4.986 -1.2335  1.2050 -1.3211
 8084SOL    HW235889   4.316   0.231   4.869  0.3873 -1.6021 -1.0131
 8085SOL     OW35890   2.205   3.258   2.949 -0.2324  0.5858  0.1577
 8085SOL    HW135891   2.135   3.247   2.885  0.5086  0.1153 -0.5647
 8085SOL    HW235892   2.154   3.248   3.030 -0.5671 -0.4892 -0.1833
 8086SOL     OW35893   0.307   4.723   2.659 -0.3602  0.1023  0.1119
 8086SOL    HW135894   0.246   0.021   2.597  0.2694  0.5858 -0.1941
 8086SOL    HW235895   0.301   0.039   2.734 -0.5737  1.7112 -1.1550
 8087SOL     OW35896   2.659   3.583   8.548 -0.5294 -0.0775 -0.1985
 8087SOL    HW135897   2.626   3.532   8.474 -2.5381 -1.5913  1.7252
 8087SOL    HW235898   2.731   3.528   8.577  0.9257  2.4599  0.9821
 8088SOL     OW35899   2.650   2.550   8.955  0.3855 -0.0790  0.2321
 8088SOL    HW135900   2.605   2.501   8.886 -0.2102 -0.6915  1.0526
 8088SOL    HW235901   2.739   2.516   8.961  0.9068  1.2320 -0.0545
 8089SOL     OW35902   0.782   4.087   3.387 -0.6501 -0.0330  0.0849
 8089SOL    HW135903   0.850   4.122   3.445 -0.1108  0.4043 -0.8241
 8089SOL    HW235904   0.772   4.000   3.426  2.6817 -0.0779  0.9044
 8090SOL     OW35905   4.476   3.767   4.510  0.0212 -0.0860  0.2797
 8090SOL    HW135906   4.454   3.749   4.419 -0.6391  1.8920  0.0307
 8090SOL    HW235907   4.443   3.685   4.547  0.1947 -0.0051  0.6123
 8091SOL     OW35908   3.598   4.096   9.325 -0.4547 -0.0778 -0.0854
 8091SOL    HW135909   3.666   4.037   9.358  0.2676  1.2589  0.8070
 8091SOL    HW235910   3.607   4.094   9.230 -0.0193  2.3563 -0.0891
 8092SOL     OW35911   3.339   3.580  17.548 -0.4563 -0.6898  0.4094
 8092SOL    HW135912   3.420   3.622  17.578 -0.2626 -2.3655  2.2102
 8092SOL    HW235913   3.378   3.522  17.483 -2.1797 -1.1709 -0.1806
 8093SOL     OW35914   3.488   2.582  16.249 -0.5468 -0.6318  0.3014
 8093SOL    HW135915   3.407   2.568  16.201 -0.4247  2.8224 -0.8995
 8093SOL    HW235916   3.509   2.669  16.217  2.6411 -1.4550  0.1038
 8094SOL     OW35917   2.498   0.690   7.425  0.2275 -0.2030 -0.4099
 8094SOL    HW135918   2.438   0.698   7.351  2.1823  0.6341 -1.8657
 8094SOL    HW235919   2.435   0.702   7.497  0.1890  1.5395 -0.7490
 8095SOL     OW35920   2.014   0.606   0.097 -0.0022  0.7916 -0.8289
 8095SOL    HW135921   2.102   0.621   0.063 -0.4219  0.9257 -1.8782
 8095SOL    HW235922   1.965   0.642   0.022 -1.2019 -1.0465 -0.9289
 8096SOL     OW35923   1.294   4.655  14.091  0.2875  0.5077  0.2498
 8096SOL    HW135924   1.240   4.683  14.017  2.0700  1.8373 -0.5367
 8096SOL    HW235925   1.229   4.629  14.157 -0.6914  0.5056 -0.7121
 8097SOL     OW35926   4.517   2.060   8.252  1.0716 -0.3801  0.3315
 8097SOL    HW135927   4.440   2.101   8.291 -0.0622 -0.2010 -2.0861
 8097SOL    HW235928   4.556   2.146   8.236 -1.1059  0.4977 -0.2925
 8098SOL     OW35929   1.232   1.972  12.963  0.5542  0.6983 -0.5515
 8098SOL    HW135930   1.280   1.937  12.888  1.6511  1.7247 -0.3320
 8098SOL    HW235931   1.219   2.060  12.927 -2.4150  0.5982  0.2837
 8099SOL     OW35932   0.166   3.721   3.422 -0.4326  0.0329 -0.1091
 8099SOL    HW135933   0.170   3.815   3.441  1.5369 -0.3304  1.2341
 8099SOL    HW235934   0.202   3.687   3.504 -3.5174 -1.1588  0.7389
 8100SOL     OW35935   0.869   0.717   6.907 -0.3874  0.9100  0.4031
 8100SOL    HW135936   0.858   0.685   6.996  0.0306  1.4908  0.6663
 8100SOL    HW235937   0.862   0.633   6.861 -0.7160 -0.0368  2.2030
 8101SOL     OW35938   1.899   0.391   0.675 -0.2037  0.4623  0.1960
 8101SOL    HW135939   1.991   0.418   0.670 -0.5041  0.6506 -4.9605
 8101SOL    HW235940   1.899   0.316   0.615 -1.3316 -0.9407  1.9797
 8102SOL     OW35941   1.688   2.859   5.969 -0.1222 -0.1326 -0.3672
 8102SOL    HW135942   1.724   2.884   5.884 -0.0455 -1.5239 -0.7396
 8102SOL    HW235943   1.620   2.926   5.981 -2.0075 -2.5620  2.6095
 8103SOL     OW35944   1.008   3.746  13.132  0.5164  0.4033  0.3067
 8103SOL    HW135945   0.925   3.750  13.083  0.0255  0.0398  1.1062
 8103SOL    HW235946   0.983   3.682  13.199  0.6702 -0.2647 -0.2707
 8104SOL     OW35947   1.647   2.294  16.075  0.3667 -0.1990 -0.0233
 8104SOL    HW135948   1.721   2.234  16.077 -1.6908 -2.7611 -0.6997
 8104SOL    HW235949   1.674   2.335  15.993 -1.6226  0.9551 -0.1056
 8105SOL     OW35950   2.945   4.330   3.593  0.7132  0.2418  0.0209
 8105SOL    HW135951   2.867   4.294   3.635 -0.1469  0.5535 -1.2925
 8105SOL    HW235952   3.005   4.258   3.610 -1.6588 -1.4377  1.2741
 8106SOL     OW35953   1.446   0.581   7.062  0.0777  0.0565 -0.6656
 8106SOL    HW135954   1.500   0.566   7.140 -1.9876  1.5304  1.0408
 8106SOL    HW235955   1.479   0.523   6.993  2.6110  0.5042  0.1488
 8107SOL     OW35956   3.435   4.286  11.295  0.2077  0.3888  0.0799
 8107SOL    HW135957   3.439   4.330  11.380 -1.3148  2.2698 -0.8144
 8107SOL    HW235958   3.348   4.314  11.267  0.3146  0.8284  0.1821
 8108SOL     OW35959   1.308   0.789   7.379  0.1030 -0.5428  0.1057
 8108SOL    HW135960   1.378   0.732   7.410  0.4950  0.2439  0.6862
 8108SOL    HW235961   1.235   0.731   7.357  0.8719 -0.8043 -1.7117
 8109SOL     OW35962   1.385   2.565   5.380 -0.4812  0.0653 -0.0289
 8109SOL    HW135963   1.300   2.576   5.337 -0.9454 -1.2104  0.5612
 8109SOL    HW235964   1.363   2.574   5.472 -2.0350 -1.4053 -0.2542
 8110SOL     OW35965   0.008   4.139   4.650  0.2578  0.1488 -0.0748
 8110SOL    HW135966   0.098   4.152   4.620  0.9285 -2.3978  0.8914
 8110SOL    HW235967   0.015   4.044   4.656  0.4418  0.3579  2.7533
 8111SOL     OW35968   1.414   4.021   4.178 -0.5123  0.6213  0.3111
 8111SOL    HW135969   1.457   3.939   4.152  0.2978  0.4305  2.3105
 8111SOL    HW235970   1.384   3.985   4.261 -1.5422 -0.5872 -0.5770
 8112SOL     OW35971   2.360   2.309   3.331 -0.1093 -0.5390  0.3614
 8112SOL    HW135972   2.289   2.348   3.381 -0.2421 -0.5211  0.1617
 8112SOL    HW235973   2.359   2.218   3.360 -1.9103 -0.0385  1.8583
 8113SOL     OW35974   1.909   2.224   7.596  0.5000 -0.0613  0.0443
 8113SOL    HW135975   1.871   2.224   7.508  2.8725 -1.2641 -0.9534
 8113SOL    HW235976   1.935   2.132   7.603  0.2954 -0.0653  0.7588
 8114SOL     OW35977   1.674   3.974  16.724 -0.0703  0.2844  0.0377
 8114SOL    HW135978   1.583   3.944  16.734 -0.4435  1.0406 -1.1064
 8114SOL    HW235979   1.673   4.062  16.688 -0.1542 -0.2352 -1.2439
 8115SOL     OW35980   1.709   4.075   2.913 -0.0769  0.2454 -0.1355
 8115SOL    HW135981   1.674   4.142   2.854 -0.5823  1.4621  1.5784
 8115SOL    HW235982   1.648   4.078   2.986 -1.7169  1.0981 -1.5425
 8116SOL     OW35983   2.100   3.395   5.525  0.0158 -0.7083 -0.0640
 8116SOL    HW135984   2.181   3.441   5.549 -0.3516  0.4286 -1.0475
 8116SOL    HW235985   2.132   3.305   5.534 -1.4684 -0.9969  2.3149
 8117SOL     OW35986   3.329   1.090   9.031 -0.1565  0.3118 -0.6081
 8117SOL    HW135987   3.294   1.133   9.108 -1.6567 -0.3905 -0.9054
 8117SOL    HW235988   3.399   1.042   9.075 -1.0699  1.5881  2.2392
 8118SOL     OW35989   2.481   2.183  11.491 -0.1228  0.4446  0.0965
 8118SOL    HW135990   2.444   2.098  11.516  0.0624  0.1099 -0.7519
 8118SOL    HW235991   2.539   2.146  11.424 -0.1073 -0.6490  0.7134
 8119SOL     OW35992   2.405   3.583  15.899 -0.0827  0.0362 -0.0900
 8119SOL    HW135993   2.446   3.670  15.896 -0.6083  0.2596 -1.0465
 8119SOL    HW235994   2.486   3.532  15.896 -1.2696 -1.8558 -0.1132
 8120SOL     OW35995   1.603   1.530  15.153  0.6823  0.2189  0.4224
 8120SOL    HW135996   1.617   1.573  15.069  0.3033  3.5064  2.0438
 8120SOL    HW235997   1.575   1.612  15.195 -1.1546 -0.5334  0.6393
 8121SOL     OW35998   2.594   1.148   7.232 -0.8023  0.1272 -0.5195
 8121SOL    HW135999   2.540   1.138   7.153 -1.3664 -0.7411 -0.0317
 8121SOL    HW236000   2.607   1.242   7.243  2.3666 -0.5034  1.0157
 8122SOL     OW36001   2.977   2.350   0.153  0.1113  0.3401 -0.5926
 8122SOL    HW136002   3.027   2.350   0.072 -1.3813 -0.6208 -1.5144
 8122SOL    HW236003   2.953   2.258   0.170  0.7655  0.2915  0.0521
 8123SOL     OW36004   0.417   4.340   5.930  0.5879  0.6850 -0.1212
 8123SOL    HW136005   0.396   4.363   5.840  1.3686  1.6103 -0.0655
 8123SOL    HW236006   0.335   4.363   5.974  1.0022  1.3384  0.3025
 8124SOL     OW36007   1.643   0.693   6.736  0.0797  0.2386 -0.2871
 8124SOL    HW136008   1.693   0.670   6.814 -1.4199 -1.1026  0.3014
 8124SOL    HW236009   1.578   0.624   6.752  2.2295 -0.9369  3.3788
 8125SOL     OW36010   3.125   2.138   7.990  0.4210  0.4860 -0.1906
 8125SOL    HW136011   3.050   2.108   7.939  1.0250  0.4984 -1.0873
 8125SOL    HW236012   3.185   2.169   7.922 -0.6720  0.5867 -1.1139
 8126SOL     OW36013   1.623   0.087   1.997  0.2110 -0.0448 -0.7108
 8126SOL    HW136014   1.573   0.096   2.078  1.3098  0.2258 -0.0656
 8126SOL    HW236015   1.712   0.088   2.032  1.1488 -1.4777 -3.0938
 8127SOL     OW36016   2.093   3.746   8.093  0.4850 -0.2054 -0.0142
 8127SOL    HW136017   2.104   3.798   8.173 -1.1727  2.1171 -1.3186
 8127SOL    HW236018   2.096   3.655   8.125  0.8095 -0.5167 -0.9243
 8128SOL     OW36019   3.569   0.577   0.455 -1.1231  0.1445 -0.0142
 8128SOL    HW136020   3.618   0.511   0.406 -2.3399  0.5606 -1.8003
 8128SOL    HW236021   3.525   0.628   0.387 -0.4442  1.7077  0.7279
 8129SOL     OW36022   2.279   4.018   3.138  0.1695  0.2313  0.4811
 8129SOL    HW136023   2.240   3.994   3.054  0.2116  1.3378  0.1407
 8129SOL    HW236024   2.361   3.970   3.131  1.6735  2.8541  0.2970
 8130SOL     OW36025   4.251   2.008   3.773 -0.3102 -0.1483 -0.7177
 8130SOL    HW136026   4.314   1.941   3.799 -2.2075 -1.7929 -0.3613
 8130SOL    HW236027   4.172   1.981   3.819 -0.4970 -0.1519 -1.0388
 8131SOL     OW36028   2.601   1.312   2.177  0.1515  0.1009  0.1496
 8131SOL    HW136029   2.537   1.322   2.107  0.8518  1.5285 -0.2825
 8131SOL    HW236030   2.562   1.251   2.240  0.0036  0.2309  0.1843
 8132SOL     OW36031   2.805   0.414   5.872 -0.5662 -0.7504  0.5172
 8132SOL    HW136032   2.775   0.456   5.791 -0.0135  1.1324  1.2791
 8132SOL    HW236033   2.739   0.347   5.889 -1.2135 -0.4085 -0.5860
 8133SOL     OW36034   0.242   0.457   4.106  0.1694 -0.1411 -0.1266
 8133SOL    HW136035   0.273   0.508   4.031 -0.9961  0.1512 -0.3989
 8133SOL    HW236036   0.159   0.503   4.117  0.0354 -0.3652 -0.1988
 8134SOL     OW36037   3.967   3.709   7.594  0.6106 -0.6401 -0.5213
 8134SOL    HW136038   3.920   3.763   7.658 -0.0169  0.4532 -1.9044
 8134SOL    HW236039   4.053   3.697   7.635 -0.4545 -1.0952  1.6219
 8135SOL     OW36040   0.723   1.619  16.459  0.1813 -0.2997 -0.2498
 8135SOL    HW136041   0.809   1.660  16.451  0.5552 -0.5635  2.7389
 8135SOL    HW236042   0.666   1.695  16.443  0.7228  0.2739  0.5476
 8136SOL     OW36043   0.592   0.889   7.484 -0.3212  0.1014  0.3228
 8136SOL    HW136044   0.674   0.938   7.479  0.3392 -0.8382  1.8728
 8136SOL    HW236045   0.532   0.942   7.536  0.1716 -0.5102  1.5250
 8137SOL     OW36046   3.842   3.128   5.008  0.1193  0.0623  0.1789
 8137SOL    HW136047   3.916   3.189   5.002  1.9526 -2.3035 -1.3176
 8137SOL    HW236048   3.870   3.085   5.089 -0.7421 -0.5509  0.1437
 8138SOL     OW36049   2.435   0.065   7.044 -0.2806  0.0360  0.5971
 8138SOL    HW136050   2.393   4.721   7.043 -0.3969  0.0927  0.4072
 8138SOL    HW236051   2.397   0.116   7.115 -2.1262 -0.0583 -0.3205
 8139SOL     OW36052   4.118   3.857  13.852 -0.2401 -1.2324 -0.0414
 8139SOL    HW136053   4.064   3.796  13.803  0.7824 -2.0465 -0.1368
 8139SOL    HW236054   4.207   3.822  13.854 -0.8159 -2.7399 -1.0154
 8140SOL     OW36055   3.423   1.974  13.266 -0.6777 -0.0614 -0.6310
 8140SOL    HW136056   3.455   2.028  13.194 -0.3326 -0.5623 -0.8566
 8140SOL    HW236057   3.484   1.993  13.337 -1.8004 -0.6480  0.5003
 8141SOL     OW36058   0.268   3.806  15.516 -0.0230  0.2109  0.0232
 8141SOL    HW136059   0.223   3.846  15.590  1.0222  2.6570 -0.6539
 8141SOL    HW236060   0.276   3.884  15.461  0.8682  0.3217  0.3205
 8142SOL     OW36061   1.357   0.863   8.591 -0.2975  0.5939  0.2817
 8142SOL    HW136062   1.431   0.840   8.535  0.4175  0.6219  1.2140
 8142SOL    HW236063   1.281   0.841   8.538 -0.8164 -0.6559  1.5387
 8143SOL     OW36064   3.853   3.669   5.700  0.2261 -0.6793 -0.3601
 8143SOL    HW136065   3.940   3.630   5.686  0.5831 -0.0040 -0.0435
 8143SOL    HW236066   3.805   3.666   5.617  0.0465 -1.4495 -0.2247
 8144SOL     OW36067   3.723   0.995   9.533 -0.3572  0.2346  0.6755
 8144SOL    HW136068   3.719   1.087   9.557  0.3854  0.5027 -0.2346
 8144SOL    HW236069   3.702   0.948   9.614 -1.1694 -0.7605 -0.1000
 8145SOL     OW36070   3.755   3.235  14.919  0.2177 -0.0201 -0.0309
 8145SOL    HW136071   3.773   3.229  14.826  2.3722 -1.3654  0.4603
 8145SOL    HW236072   3.839   3.271  14.948  0.0214  0.5445 -0.1487
 8146SOL     OW36073   2.057   4.052   8.667 -0.3650 -0.5719  0.2028
 8146SOL    HW136074   2.107   4.107   8.607 -1.8367 -0.6236 -1.0612
 8146SOL    HW236075   1.989   4.009   8.615  1.3268  0.5724 -2.9380
 8147SOL     OW36076   1.921   4.389   4.220 -0.0141  0.3482 -0.5258
 8147SOL    HW136077   1.975   4.467   4.219 -0.5518  0.7058 -1.7637
 8147SOL    HW236078   1.837   4.428   4.193 -1.2984 -1.9682  0.0820
 8148SOL     OW36079   1.996   1.279  11.033  0.0429 -0.1477 -0.1955
 8148SOL    HW136080   1.995   1.191  11.070  0.5417  0.2809  0.8517
 8148SOL    HW236081   2.017   1.271  10.940  2.8098 -1.8868  0.6091
 8149SOL     OW36082   2.694   2.040  14.810  0.6210  0.2418  0.3428
 8149SOL    HW136083   2.702   2.032  14.905  1.7297 -2.6346  0.0091
 8149SOL    HW236084   2.778   2.086  14.807  0.1699  0.8753 -2.5712
 8150SOL     OW36085   4.268   0.345   2.032 -0.0613  0.3015  0.4416
 8150SOL    HW136086   4.180   0.320   2.060 -0.3816  0.4601 -0.4276
 8150SOL    HW236087   4.253   0.350   1.938  1.1331  0.1036  0.2320
 8151SOL     OW36088   0.729   4.405   3.931  0.3931  0.0937  0.6315
 8151SOL    HW136089   0.698   4.348   4.002 -0.3281 -1.6584 -1.1104
 8151SOL    HW236090   0.666   4.477   3.929  1.9904  1.4352 -1.0474
 8152SOL     OW36091   1.735   1.355   9.357 -0.5456 -1.1111 -0.2923
 8152SOL    HW136092   1.817   1.388   9.395 -0.7571 -2.9531  1.7383
 8152SOL    HW236093   1.727   1.264   9.386 -2.9749 -1.3298 -1.6574
 8153SOL     OW36094   2.235   1.275  15.299  0.4799  0.3728 -0.1772
 8153SOL    HW136095   2.257   1.199  15.245 -0.0687  1.0864 -1.4046
 8153SOL    HW236096   2.235   1.338  15.227  2.0636 -0.0525 -0.5503
 8154SOL     OW36097   1.936   3.595  14.940 -0.0359  0.2463  0.4964
 8154SOL    HW136098   1.889   3.579  14.858  0.8287 -0.1727  0.0832
 8154SOL    HW236099   1.938   3.508  14.980 -1.2795 -0.7008 -1.4609
 8155SOL     OW36100   3.737   1.751   2.982 -0.0145 -0.1357 -0.2062
 8155SOL    HW136101   3.706   1.696   3.053 -1.4225 -1.3112 -1.7320
 8155SOL    HW236102   3.676   1.825   2.988  0.0309 -0.1906  0.8387
 8156SOL     OW36103   2.774   2.113  15.929  0.1106 -0.9427 -0.2234
 8156SOL    HW136104   2.751   2.021  15.918 -0.6464 -0.9614  1.5182
 8156SOL    HW236105   2.698   2.165  15.954 -0.2947 -0.7902 -1.7748
 8157SOL     OW36106   0.632   2.521  10.089 -0.1814 -0.3865 -0.1563
 8157SOL    HW136107   0.637   2.617  10.085  0.8442 -0.3207  2.5323
 8157SOL    HW236108   0.635   2.505  10.184 -0.9738 -0.7174 -0.1858
 8158SOL     OW36109   1.781   3.553   6.580 -0.5732  0.3202  0.2656
 8158SOL    HW136110   1.813   3.469   6.614 -0.4807  0.8476  1.4621
 8158SOL    HW236111   1.700   3.563   6.631 -2.2801  2.5344 -2.8483
 8159SOL     OW36112   0.552   2.481  16.060 -0.2877  0.1562  0.3950
 8159SOL    HW136113   0.515   2.408  16.011  2.4886  0.1788 -1.6800
 8159SOL    HW236114   0.589   2.437  16.136 -1.9795 -1.9708 -0.0037
 8160SOL     OW36115   3.510   1.919   1.521  0.0844 -0.5001 -0.2790
 8160SOL    HW136116   3.577   1.906   1.589  0.6000  0.5749 -0.5854
 8160SOL    HW236117   3.460   1.987   1.566  0.4602 -0.3971 -0.0199
 8161SOL     OW36118   1.325   1.985  15.103  0.3902 -0.6149 -0.0232
 8161SOL    HW136119   1.302   1.955  15.015 -0.3304  0.4309 -0.1965
 8161SOL    HW236120   1.240   2.014  15.137 -0.3262 -0.1598 -2.1343
 8162SOL     OW36121   1.537   2.550  10.887 -0.5440  0.3563  0.5355
 8162SOL    HW136122   1.555   2.461  10.917 -0.3194  0.7315  1.5044
 8162SOL    HW236123   1.624   2.587  10.875  0.1348 -1.2502  0.4924
 8163SOL     OW36124   0.103   1.698  16.135  0.1894 -0.2917  0.3291
 8163SOL    HW136125   0.181   1.650  16.162 -0.1377 -0.3320  1.1888
 8163SOL    HW236126   0.045   1.634  16.095 -0.4719  0.3483  0.2745
 8164SOL     OW36127   3.924   4.011  17.105 -0.0928 -0.3937 -0.2530
 8164SOL    HW136128   4.010   4.035  17.140 -0.6069  0.6414  0.2871
 8164SOL    HW236129   3.895   3.981  17.192  1.5136  1.4170  0.8910
 8165SOL     OW36130   1.213   1.517   9.823 -0.2675  0.4637  0.0383
 8165SOL    HW136131   1.122   1.505   9.797 -0.6314 -2.0901  2.4865
 8165SOL    HW236132   1.228   1.455   9.895  3.5951  1.9401  0.5043
 8166SOL     OW36133   3.445   1.834  12.107  0.0016  0.1399 -0.4329
 8166SOL    HW136134   3.396   1.801  12.032 -1.3696 -1.5097  1.1941
 8166SOL    HW236135   3.370   1.835  12.166  0.7677 -1.7037  0.5705
 8167SOL     OW36136   2.078   3.896   2.087 -0.1612  0.1079 -0.1781
 8167SOL    HW136137   2.053   3.803   2.091 -0.7104  0.3067  1.0326
 8167SOL    HW236138   2.168   3.895   2.056 -0.0278 -1.7366  0.2665
 8168SOL     OW36139   3.512   4.047  11.603 -0.2920 -0.5144 -0.2743
 8168SOL    HW136140   3.584   3.985  11.610 -0.9281 -1.0610  1.4524
 8168SOL    HW236141   3.477   4.032  11.691  0.4816  1.0706  0.3068
 8169SOL     OW36142   2.638   1.615   6.413  0.1387 -0.5720  0.0166
 8169SOL    HW136143   2.546   1.590   6.399 -0.2792  2.0904 -1.8797
 8169SOL    HW236144   2.622   1.642   6.504 -2.0310 -0.2926 -0.4463
 8170SOL     OW36145   2.021   1.284  15.476  0.5980  0.3165  0.3271
 8170SOL    HW136146   2.064   1.322  15.400 -0.9429 -0.2805 -0.8484
 8170SOL    HW236147   1.992   1.203  15.434  1.4759 -0.8987  2.0520
 8171SOL     OW36148   2.300   2.758   1.545 -0.2584  0.7249  0.3541
 8171SOL    HW136149   2.274   2.765   1.637 -0.9336  0.6139  0.1729
 8171SOL    HW236150   2.221   2.715   1.511 -1.1690  2.3534  0.3952
 8172SOL     OW36151   1.665   3.801   2.076  0.2710  0.3246  0.3541
 8172SOL    HW136152   1.689   3.734   2.140 -1.4936 -0.5810  0.0729
 8172SOL    HW236153   1.570   3.803   2.092  0.3087  2.6490  0.3528
 8173SOL     OW36154   2.505   0.836   2.310  0.1460 -0.0103  0.1411
 8173SOL    HW136155   2.508   0.748   2.274  2.0846 -0.4456  1.4142
 8173SOL    HW236156   2.515   0.807   2.401 -0.5557  1.8661  0.8292
 8174SOL     OW36157   3.367   0.473  15.794  0.2782  0.7439 -0.2562
 8174SOL    HW136158   3.448   0.522  15.806  1.7056 -1.0430 -2.8129
 8174SOL    HW236159   3.308   0.528  15.846  1.2873 -1.4058  3.1852
 8175SOL     OW36160   3.135   4.289  11.611 -0.0977  0.0216 -0.0210
 8175SOL    HW136161   3.162   4.200  11.590  0.0928  0.6849 -2.4697
 8175SOL    HW236162   3.184   4.341  11.548  0.3966  1.2732  1.3968
 8176SOL     OW36163   1.144   3.798   5.202 -0.3667 -0.0133  0.0244
 8176SOL    HW136164   1.049   3.806   5.191  0.0679  0.1738 -3.5628
 8176SOL    HW236165   1.141   3.774   5.295  3.0406 -0.5301 -0.0211
 8177SOL     OW36166   3.152   1.750   8.867 -0.2407  0.3454 -0.0752
 8177SOL    HW136167   3.217   1.777   8.932 -0.4787 -2.1369  1.1822
 8177SOL    HW236168   3.087   1.817   8.889 -0.0619  0.0744  1.2626
 8178SOL     OW36169   1.409   2.929   6.864  0.5057 -0.1352  0.3101
 8178SOL    HW136170   1.482   2.878   6.828  1.9974  2.4041 -0.2277
 8178SOL    HW236171   1.342   2.895   6.805 -1.6986  2.2666  1.4710
 8179SOL     OW36172   4.373   0.010   7.749 -0.0445  0.2448 -0.1303
 8179SOL    HW136173   4.350   4.666   7.782  1.1480  0.0759  0.2828
 8179SOL    HW236174   4.425   0.002   7.669  0.7684  1.2019  0.2977
 8180SOL     OW36175   0.317   3.176  17.749 -0.0827  0.2638  0.3761
 8180SOL    HW136176   0.301   3.232   0.057 -2.0060 -0.7853  0.7611
 8180SOL    HW236177   0.308   3.238  17.676  1.4436  1.9222  1.6070
 8181SOL     OW36178   1.876   1.219  15.831  0.0345 -0.2234  0.0050
 8181SOL    HW136179   1.861   1.303  15.788  0.8727 -0.6022 -1.0190
 8181SOL    HW236180   1.950   1.244  15.886 -0.1880 -0.2728  0.3290
 8182SOL     OW36181   1.903   2.747   6.086 -0.2330 -0.4040  0.2579
 8182SOL    HW136182   1.836   2.808   6.055  1.7021  1.5231 -0.0808
 8182SOL    HW236183   1.903   2.685   6.014 -0.5959 -2.6222  2.1446
 8183SOL     OW36184   2.107   1.354   9.854  0.1127  0.0615 -0.0634
 8183SOL    HW136185   2.145   1.275   9.891 -0.9802 -0.6622 -0.4860
 8183SOL    HW236186   2.106   1.327   9.762 -0.4859 -0.3739  0.0743
 8184SOL     OW36187   1.909   3.522  14.687 -0.1235  0.0735 -0.3041
 8184SOL    HW136188   1.928   3.601  14.637 -2.8318 -0.1191 -1.6753
 8184SOL    HW236189   1.875   3.464  14.619  0.1124  0.1241 -0.4638
 8185SOL     OW36190   3.180   4.693   8.986 -0.0355 -0.7586 -0.5322
 8185SOL    HW136191   3.144   4.677   8.899  0.1191 -2.9928 -0.1821
 8185SOL    HW236192   3.274   4.677   8.988 -0.0096 -0.7199 -2.0475
 8186SOL     OW36193   2.252   3.140   1.238 -0.3475 -0.2769  0.2386
 8186SOL    HW136194   2.212   3.166   1.155 -0.2767  0.4670  0.4327
 8186SOL    HW236195   2.280   3.227   1.266  1.2888  0.1692 -2.8563
 8187SOL     OW36196   0.650   3.013   4.045 -0.1741 -0.3012 -0.0094
 8187SOL    HW136197   0.555   3.002   4.040 -0.0309 -0.3775 -2.3834
 8187SOL    HW236198   0.674   2.960   4.121 -3.2062 -1.1465  0.3298
 8188SOL     OW36199   3.632   2.147   2.268 -0.4663 -0.1933 -0.1942
 8188SOL    HW136200   3.673   2.074   2.221  1.5822  1.1577 -0.5024
 8188SOL    HW236201   3.586   2.094   2.333 -1.8484  2.1770  0.7661
 8189SOL     OW36202   1.599   3.278   7.887 -0.0381  0.0171 -0.3957
 8189SOL    HW136203   1.553   3.356   7.917  1.3357  1.3938 -1.8986
 8189SOL    HW236204   1.563   3.204   7.936 -0.0760 -0.8444 -1.7257
 8190SOL     OW36205   4.576   4.314   8.860 -0.2831  0.0514 -0.1995
 8190SOL    HW136206   4.514   4.375   8.820 -0.8698  0.6177  1.5931
 8190SOL    HW236207   4.603   4.258   8.787  0.4900 -0.0825  0.1818
 8191SOL     OW36208   4.558   2.332   5.190 -0.1895 -0.4357 -0.0998
 8191SOL    HW136209   4.480   2.368   5.233 -1.6082 -2.0405 -1.3757
 8191SOL    HW236210   4.549   2.237   5.184  0.5327 -0.5304  0.2840
 8192SOL     OW36211   0.078   3.274   8.001  0.2296  0.1330 -0.5618
 8192SOL    HW136212   0.165   3.312   8.010 -0.3451  1.5661 -1.1807
 8192SOL    HW236213   0.102   3.189   8.039 -1.4663 -0.7225 -1.4089
 8193SOL     OW36214   4.533   2.469   5.931 -0.1513 -0.2102  0.0398
 8193SOL    HW136215   4.551   2.493   5.840  0.0562 -1.8489 -0.3582
 8193SOL    HW236216   4.583   2.528   5.988 -1.4363 -0.5188  1.4678
 8194SOL     OW36217   0.214   1.334   3.473  0.3285 -0.0817  0.1903
 8194SOL    HW136218   0.209   1.407   3.534  0.0965  0.6627 -0.7356
 8194SOL    HW236219   0.173   1.375   3.398 -2.7637 -0.6786  1.5487
 8195SOL     OW36220   3.839   1.567   5.164 -0.2786 -0.2865 -0.4277
 8195SOL    HW136221   3.815   1.566   5.071 -0.0806  1.1420 -0.4999
 8195SOL    HW236222   3.754   1.555   5.206  0.3074  2.0028  1.4302
 8196SOL     OW36223   0.417   4.307   4.094 -0.3404  0.0524  0.3278
 8196SOL    HW136224   0.501   4.286   4.135 -0.8741  0.5125  1.6676
 8196SOL    HW236225   0.363   4.308   4.173 -0.6040 -1.7751  0.1737
 8197SOL     OW36226   0.982   3.317   7.406  1.0458 -0.1714  0.4433
 8197SOL    HW136227   1.050   3.383   7.393  1.9744 -1.3370 -0.5656
 8197SOL    HW236228   0.995   3.291   7.497 -1.6486  1.9242  1.4554
 8198SOL     OW36229   0.716   0.292   5.219 -0.2186 -0.3265 -0.0343
 8198SOL    HW136230   0.658   0.235   5.270 -0.0693 -1.1366 -0.7570
 8198SOL    HW236231   0.701   0.275   5.126 -1.3899  0.9394 -0.0603
 8199SOL     OW36232   4.040   0.300   6.393 -0.3552 -0.0496  0.2617
 8199SOL    HW136233   3.970   0.238   6.416 -0.3236 -0.1107  0.1932
 8199SOL    HW236234   4.106   0.237   6.364  2.3837  2.2642  1.5773
 8200SOL     OW36235   1.812   2.684   3.846 -0.6886  0.3114  0.1167
 8200SOL    HW136236   1.827   2.760   3.789 -3.8993  0.6099 -0.3339
 8200SOL    HW236237   1.841   2.614   3.787 -0.0129  1.1709 -0.5710
 8201SOL     OW36238   0.982   1.368   7.164  0.2626  0.2321  0.4508
 8201SOL    HW136239   0.999   1.426   7.089 -0.8710  1.1706  0.9393
 8201SOL    HW236240   0.976   1.283   7.120  0.4394  0.2857  0.3186
 8202SOL     OW36241   4.613   3.960  17.243  0.4754  0.1379  0.6746
 8202SOL    HW136242   4.594   3.869  17.218 -0.2153  0.6039 -0.4790
 8202SOL    HW236243   4.691   3.979  17.191 -0.0438 -0.7767 -0.4231
 8203SOL     OW36244   3.785   2.317   7.484  0.2495 -0.4084  0.0815
 8203SOL    HW136245   3.714   2.336   7.423  1.6503 -0.2551 -1.4852
 8203SOL    HW236246   3.865   2.337   7.435  1.2322  0.4684  2.0494
 8204SOL     OW36247   2.065   2.241  12.845  0.1628 -0.0841  0.8178
 8204SOL    HW136248   1.992   2.244  12.906 -0.8760 -1.0431 -0.4014
 8204SOL    HW236249   2.118   2.291  12.908  1.4422 -0.1622 -0.1830
 8205SOL     OW36250   2.435   2.847  11.957  0.5838  0.0687  0.3114
 8205SOL    HW136251   2.458   2.790  11.884  1.5336 -1.5283  1.8600
 8205SOL    HW236252   2.473   2.800  12.031  1.6762  2.3279  1.1919
 8206SOL     OW36253   4.196   1.092  11.441 -0.0230 -0.2737 -0.0329
 8206SOL    HW136254   4.241   1.133  11.515  1.7356  0.2782 -1.4330
 8206SOL    HW236255   4.261   1.025  11.420  0.6785  0.3296  0.2397
 8207SOL     OW36256   3.671   1.236   9.604  0.1619 -0.6205  0.0956
 8207SOL    HW136257   3.679   1.288   9.684 -0.0527  0.2594 -0.4478
 8207SOL    HW236258   3.643   1.309   9.549  0.8642  0.7070  1.5044
 8208SOL     OW36259   3.737   3.741   9.042 -0.0749 -0.1702 -0.8292
 8208SOL    HW136260   3.776   3.654   9.044 -2.0487 -1.0693 -0.9130
 8208SOL    HW236261   3.811   3.790   9.007  0.9695 -1.9302 -1.1116
 8209SOL     OW36262   3.806   4.352   3.686  0.2237  0.2344  0.4759
 8209SOL    HW136263   3.794   4.295   3.610 -2.0450  1.3793 -0.0532
 8209SOL    HW236264   3.760   4.432   3.660  0.8989  1.2885  2.5261
 8210SOL     OW36265   0.055   0.089   5.855 -0.4137 -0.2930  0.8356
 8210SOL    HW136266   4.740   0.164   5.837 -0.8753 -0.9334 -0.3299
 8210SOL    HW236267   4.729   0.030   5.886 -2.2797  0.3802 -2.0294
 8211SOL     OW36268   0.324   2.372   3.305 -0.6122  0.2998  0.1405
 8211SOL    HW136269   0.304   2.464   3.288  0.2503  0.5850  0.6831
 8211SOL    HW236270   0.236   2.336   3.318 -0.8325 -0.0388 -2.2182
 8212SOL     OW36271   1.327   1.889   1.886 -0.3658 -0.0243 -0.1241
 8212SOL    HW136272   1.279   1.809   1.866  0.5777 -0.6037 -0.0248
 8212SOL    HW236273   1.247   1.935   1.914 -0.5660  0.5257 -1.6338
 8213SOL     OW36274   4.450   4.307  16.957  0.7961  0.2422 -0.6514
 8213SOL    HW136275   4.429   4.393  16.995 -0.3784  0.6758 -2.2825
 8213SOL    HW236276   4.398   4.313  16.877  0.4745  0.7646 -0.3994
 8214SOL     OW36277   0.234   1.922   6.869  0.0370 -0.3687  0.4071
 8214SOL    HW136278   0.226   1.885   6.781 -0.0753  0.2008  0.1729
 8214SOL    HW236279   0.325   1.903   6.890  0.0991  0.0038  0.4806
 8215SOL     OW36280   4.130   3.418  13.227 -0.4746  1.0064 -0.3713
 8215SOL    HW136281   4.133   3.386  13.318 -4.5197 -0.0988 -0.5944
 8215SOL    HW236282   4.168   3.505  13.226 -1.2325  1.3118 -2.8446
 8216SOL     OW36283   1.270   0.471   6.004  0.2540  0.0300  0.3660
 8216SOL    HW136284   1.250   0.465   6.097  0.7051 -1.5586  0.3591
 8216SOL    HW236285   1.340   0.407   5.992 -0.8338 -0.8465 -1.2599
 8217SOL     OW36286   4.245   1.907  16.445  0.1440  0.1201  0.3878
 8217SOL    HW136287   4.197   1.844  16.498 -0.2944 -1.3990 -1.7976
 8217SOL    HW236288   4.191   1.918  16.367  1.0607  0.2540 -0.2301
 8218SOL     OW36289   2.526   1.288   0.805  0.0681 -0.3534  0.0014
 8218SOL    HW136290   2.532   1.382   0.819  0.8654 -0.7251  2.1724
 8218SOL    HW236291   2.457   1.250   0.859 -1.2129  1.0360 -0.6689
 8219SOL     OW36292   2.126   3.040   4.509 -0.2662 -0.4092  0.1437
 8219SOL    HW136293   2.071   2.962   4.515 -0.2368 -0.4456 -0.0644
 8219SOL    HW236294   2.151   3.031   4.417  1.9654  0.5092  0.6647
 8220SOL     OW36295   4.169   1.191   5.907 -0.7018 -0.3167  0.0694
 8220SOL    HW136296   4.090   1.242   5.885 -1.1018 -0.3384  1.4509
 8220SOL    HW236297   4.138   1.108   5.871 -0.6920 -1.2022  2.1262
 8221SOL     OW36298   2.339   4.043   6.426  0.4172 -0.2371 -0.2864
 8221SOL    HW136299   2.310   4.085   6.507 -0.4072 -1.3458 -0.0051
 8221SOL    HW236300   2.257   3.996   6.410  0.1318 -0.5871  2.2068
 8222SOL     OW36301   1.900   2.496   1.808  0.3044  0.9142 -0.1696
 8222SOL    HW136302   1.971   2.473   1.868  0.7861  1.6767 -0.4444
 8222SOL    HW236303   1.836   2.529   1.871  0.7268  0.2034  0.6496
 8223SOL     OW36304   2.741   3.710  14.043 -0.5042  0.1518 -0.3392
 8223SOL    HW136305   2.704   3.787  14.086  0.9510  0.7801 -0.2081
 8223SOL    HW236306   2.724   3.639  14.105  1.0344 -1.9294 -2.3252
 8224SOL     OW36307   2.553   0.193   1.764  0.1227  0.0808  0.1828
 8224SOL    HW136308   2.621   0.236   1.713  0.4321  1.4437  1.7317
 8224SOL    HW236309   2.611   0.145   1.823 -0.0432  2.7002  2.4625
 8225SOL     OW36310   3.202   2.658   2.940 -0.5487 -0.0852 -0.0667
 8225SOL    HW136311   3.182   2.574   2.980 -1.3674 -0.0485 -0.3942
 8225SOL    HW236312   3.286   2.638   2.898 -0.9016  0.8817 -1.2468
 8226SOL     OW36313   2.289   1.924  13.500 -0.0263 -0.1593  0.0457
 8226SOL    HW136314   2.375   1.885  13.480  0.0918 -0.4649  1.1710
 8226SOL    HW236315   2.316   1.995  13.558  0.6584 -0.4415  0.0737
 8227SOL     OW36316   0.725   3.718   2.388 -0.0195  0.8411 -0.5417
 8227SOL    HW136317   0.749   3.710   2.296 -0.4635  1.0177 -0.6721
 8227SOL    HW236318   0.630   3.711   2.386 -0.0828  0.7167  2.7605
 8228SOL     OW36319   4.492   2.802   8.079  0.5951  0.8462  0.4857
 8228SOL    HW136320   4.567   2.748   8.052 -0.0726 -0.2025  0.7314
 8228SOL    HW236321   4.480   2.777   8.171  0.0713  0.2400  0.2558
 8229SOL     OW36322   1.345   4.400   5.253 -0.1980  0.3854  0.0517
 8229SOL    HW136323   1.253   4.384   5.235  0.0220  0.2362 -0.9131
 8229SOL    HW236324   1.376   4.386   5.164 -0.8503  1.0655 -0.2772
 8230SOL     OW36325   1.641   4.386   7.224  0.0964 -0.4963  0.1463
 8230SOL    HW136326   1.650   4.389   7.129  0.4124  0.6688  0.2152
 8230SOL    HW236327   1.547   4.368   7.232  0.1430  0.0285  1.8751
 8231SOL     OW36328   1.139   0.739  13.173 -0.4076  0.3184  0.6567
 8231SOL    HW136329   1.133   0.649  13.141 -1.2722  0.4736  0.3993
 8231SOL    HW236330   1.221   0.749  13.223  0.8197  2.0272 -1.6788
 8232SOL     OW36331   4.119   1.354  16.539 -0.4390 -0.0677 -0.1016
 8232SOL    HW136332   4.030   1.319  16.527 -0.2159 -0.7703  0.2892
 8232SOL    HW236333   4.150   1.321  16.623  0.3671  1.7322  0.2934
 8233SOL     OW36334   4.692   1.331   5.845 -0.3893  0.3137 -0.2767
 8233SOL    HW136335   4.615   1.302   5.796 -0.7594  2.8278 -1.2080
 8233SOL    HW236336   0.007   1.343   5.769  1.5174  0.7148  1.2099
 8234SOL     OW36337   4.032   2.428  12.477 -0.0792  0.1775  0.1148
 8234SOL    HW136338   4.123   2.433  12.449 -0.3473 -0.0593 -0.8081
 8234SOL    HW236339   4.030   2.433  12.572  0.9088  1.2322  0.0740
 8235SOL     OW36340   4.108   0.991   0.536  0.3379  1.1383 -0.5034
 8235SOL    HW136341   4.178   1.056   0.544  2.4915 -1.3957  1.4301
 8235SOL    HW236342   4.140   0.945   0.614 -2.2576 -0.8339 -0.6008
 8236SOL     OW36343   2.564   2.967   5.710  0.2906 -0.3570 -0.3026
 8236SOL    HW136344   2.608   3.035   5.659 -0.9263  0.4619 -0.2663
 8236SOL    HW236345   2.622   2.942   5.782  0.0394 -0.8397 -0.2676
 8237SOL     OW36346   1.444   0.297  14.298 -0.2728 -0.1144 -0.1718
 8237SOL    HW136347   1.519   0.316  14.354  0.4833  1.3080 -1.6850
 8237SOL    HW236348   1.390   0.376  14.301 -1.5079 -0.9858  0.6378
 8238SOL     OW36349   2.182   3.623  11.792 -0.1852  0.1695  0.2519
 8238SOL    HW136350   2.209   3.707  11.829  0.6435  0.7741 -1.7227
 8238SOL    HW236351   2.249   3.568  11.833 -0.5710 -1.3436 -1.1612
 8239SOL     OW36352   1.011   0.955  17.678  0.5595 -0.2613 -0.6220
 8239SOL    HW136353   0.949   0.949  17.751  3.1707  0.9388  1.6792
 8239SOL    HW236354   1.001   1.049  17.658  0.0287 -0.1420  0.1971
 8240SOL     OW36355   4.005   0.660   7.295  0.2777 -0.0551 -0.0145
 8240SOL    HW136356   4.024   0.637   7.204  1.4202 -2.2101  0.7745
 8240SOL    HW236357   4.062   0.595   7.335 -0.2901 -1.7491 -1.9286
 8241SOL     OW36358   0.830   3.269   8.412  1.1677  0.2152  0.0028
 8241SOL    HW136359   0.841   3.191   8.466  2.4343  1.3921  1.4302
 8241SOL    HW236360   0.737   3.290   8.427  1.4000  2.1665 -1.3552
 8242SOL     OW36361   2.946   0.706  15.575 -0.7004 -0.3026  0.1929
 8242SOL    HW136362   3.000   0.746  15.507 -0.5944 -1.3629 -0.3424
 8242SOL    HW236363   2.885   0.647  15.531 -0.4994 -0.6994  0.4444
 8243SOL     OW36364   0.721   0.216   5.716 -0.0486  0.0824  0.7043
 8243SOL    HW136365   0.646   0.197   5.773 -0.9444 -0.3478 -0.6134
 8243SOL    HW236366   0.762   0.130   5.702 -1.8909 -0.6916 -0.0776
 8244SOL     OW36367   4.327   4.023   0.350 -0.8646  0.0220  0.3598
 8244SOL    HW136368   4.306   3.981   0.266 -0.2357  1.3351 -0.4589
 8244SOL    HW236369   4.415   4.058   0.337 -1.0180  0.1812 -0.2659
 8245SOL     OW36370   3.894   1.849   0.939  0.1987 -0.4571  0.0896
 8245SOL    HW136371   3.846   1.773   0.971  1.8887 -2.0115 -1.0752
 8245SOL    HW236372   3.837   1.914   0.980  1.8938  0.0143  1.7302
 8246SOL     OW36373   1.991   3.569   4.294  0.3482  0.4751  0.1422
 8246SOL    HW136374   1.950   3.635   4.350 -0.3474  0.2592 -0.1160
 8246SOL    HW236375   2.009   3.614   4.212  0.0904 -0.9875 -0.7087
 8247SOL     OW36376   4.216   1.921   2.763  0.2127 -0.4034  0.3354
 8247SOL    HW136377   4.208   1.902   2.856  0.0172 -1.6332  0.0564
 8247SOL    HW236378   4.305   1.955   2.757  0.0518  0.0343  0.3597
 8248SOL     OW36379   2.825   2.218   5.559 -0.0159 -0.0870  0.0798
 8248SOL    HW136380   2.734   2.199   5.537  0.5863 -1.0250 -1.6231
 8248SOL    HW236381   2.838   2.183   5.648 -0.8618  1.4693  0.8061
 8249SOL     OW36382   2.883   3.956   6.357  0.4765 -0.5304 -0.0230
 8249SOL    HW136383   2.788   3.944   6.350  0.3572  0.8598 -0.9754
 8249SOL    HW236384   2.901   4.019   6.427  1.8501 -3.6119  2.3921
 8250SOL     OW36385   0.793   1.578   2.539 -0.1508  0.2601  0.3027
 8250SOL    HW136386   0.704   1.612   2.545 -0.9065 -2.2808  3.3338
 8250SOL    HW236387   0.790   1.522   2.461  1.6160  1.3232 -0.5461
 8251SOL     OW36388   0.051   0.949   6.368 -0.2991 -0.3812 -0.2629
 8251SOL    HW136389   0.016   1.036   6.351 -1.6974 -0.5917  1.5426
 8251SOL    HW236390   0.125   0.944   6.308 -2.1817 -0.1027 -2.6041
 8252SOL     OW36391   2.479   3.564  11.868 -0.1073 -0.1171  0.0727
 8252SOL    HW136392   2.566   3.535  11.896  1.1421  0.8769 -2.8024
 8252SOL    HW236393   2.439   3.479  11.850 -0.6836 -0.2013  1.7065
 8253SOL     OW36394   3.115   0.194   2.580 -0.4205  0.1895 -0.3603
 8253SOL    HW136395   3.106   0.284   2.611 -0.7741  0.1474 -0.3418
 8253SOL    HW236396   3.184   0.162   2.638  1.0992  5.4923  0.7209
 8254SOL     OW36397   3.752   0.003   7.064 -0.5846 -0.3587  0.5050
 8254SOL    HW136398   3.804   0.028   6.988  0.5517  0.2640  1.4765
 8254SOL    HW236399   3.789   0.069   7.123  1.7712 -0.2129 -1.1054
 8255SOL     OW36400   3.776   0.573   3.359 -0.0215  0.1761 -0.5033
 8255SOL    HW136401   3.724   0.496   3.337  0.3069  0.1134 -1.0520
 8255SOL    HW236402   3.811   0.544   3.443  0.7302 -0.2000 -0.9504
 8256SOL     OW36403   3.324   2.105   1.620 -0.1559 -0.4093 -0.0067
 8256SOL    HW136404   3.273   2.058   1.685 -0.8444  1.4998  0.8343
 8256SOL    HW236405   3.340   2.191   1.659 -0.1247  0.5339 -2.1071
 8257SOL     OW36406   1.880   1.385   7.827 -0.1816  0.5381  0.4559
 8257SOL    HW136407   1.929   1.440   7.888  0.4431  0.3610  0.1184
 8257SOL    HW236408   1.949   1.365   7.763 -1.3344 -2.9350  0.3032
 8258SOL     OW36409   4.272   4.257   0.550  0.6370  0.9265 -0.2232
 8258SOL    HW136410   4.354   4.246   0.598 -0.5343  1.7797  1.9648
 8258SOL    HW236411   4.256   4.171   0.511  1.7363  0.8817 -0.5962
 8259SOL     OW36412   1.966   4.595   0.281 -0.0971 -0.3890 -0.2860
 8259SOL    HW136413   1.936   4.510   0.248 -0.3861 -1.5114  2.7995
 8259SOL    HW236414   1.907   4.594   0.357  1.8367 -1.8683  1.1895
 8260SOL     OW36415   1.654   3.355  14.014  0.2792 -0.2878  0.4489
 8260SOL    HW136416   1.716   3.347  13.941  1.0604  1.8386  0.8615
 8260SOL    HW236417   1.608   3.275  13.990 -0.6285  0.1548  0.7381
 8261SOL     OW36418   3.727   2.920   2.865  1.0149  0.1008 -0.2998
 8261SOL    HW136419   3.631   2.928   2.867  1.0247 -0.2448  1.4212
 8261SOL    HW236420   3.759   3.010   2.855  1.4086  0.1594  1.4779
 8262SOL     OW36421   1.283   3.981   5.741  1.1453  0.3929 -0.1707
 8262SOL    HW136422   1.243   3.906   5.785 -0.8660  1.1945 -0.6392
 8262SOL    HW236423   1.332   4.022   5.812  0.6837  1.1475 -0.2877
 8263SOL     OW36424   3.103   1.601   5.886  0.0952  0.3917  0.1964
 8263SOL    HW136425   3.153   1.555   5.817 -1.7054 -1.3470  0.0355
 8263SOL    HW236426   3.174   1.624   5.946  0.3588  0.1471 -0.0161
 8264SOL     OW36427   2.014   1.504   2.593  1.1645 -0.1912  0.3661
 8264SOL    HW136428   1.930   1.493   2.637 -0.7186  3.2123 -2.3528
 8264SOL    HW236429   2.063   1.430   2.628 -0.7289 -1.0199  1.2894
 8265SOL     OW36430   1.639   1.881   6.039 -0.1775  0.4664  0.5013
 8265SOL    HW136431   1.633   1.859   5.946 -2.3810  1.4545  0.3910
 8265SOL    HW236432   1.553   1.845   6.060 -0.0943 -0.3666 -0.5518
 8266SOL     OW36433   1.019   4.720  17.521  0.2569  0.2827 -0.0669
 8266SOL    HW136434   0.931   4.696  17.551 -0.0271  0.7443 -0.5405
 8266SOL    HW236435   1.043   4.641  17.474  0.8272  0.3426  0.1223
 8267SOL     OW36436   3.648   0.073   7.525 -0.3514  0.1776 -0.0161
 8267SOL    HW136437   3.628   0.153   7.572  0.8025  1.1793 -1.2255
 8267SOL    HW236438   3.566   0.057   7.477  1.1004  1.4225 -2.9183
 8268SOL     OW36439   0.871   3.071  14.753  0.2363  0.3322  0.8191
 8268SOL    HW136440   0.785   3.106  14.730  0.4683  0.1804 -0.2379
 8268SOL    HW236441   0.846   2.980  14.769 -0.3730  0.2005 -0.9041
 8269SOL     OW36442   4.290   2.362   3.137 -0.0019 -0.0374  0.0150
 8269SOL    HW136443   4.325   2.406   3.215 -0.4968  0.6479 -0.1500
 8269SOL    HW236444   4.374   2.361   3.093  0.4858  0.8830  0.9248
 8270SOL     OW36445   2.731   1.529  13.712 -0.0063  0.2170  0.0939
 8270SOL    HW136446   2.726   1.435  13.731  0.6395  0.2964  0.6957
 8270SOL    HW236447   2.825   1.548  13.716  0.0048  0.5059 -1.6101
 8271SOL     OW36448   3.963   0.929   7.787  0.1952  0.9821 -0.1022
 8271SOL    HW136449   4.000   0.982   7.857 -1.8399  2.9017 -0.4768
 8271SOL    HW236450   4.028   0.943   7.719 -0.8421  0.8619 -1.1262
 8272SOL     OW36451   3.388   0.195  13.065 -0.1848 -0.1257  0.3335
 8272SOL    HW136452   3.362   0.126  13.004 -1.3056  0.3279  0.2994
 8272SOL    HW236453   3.304   0.222  13.104 -0.4978 -0.7274  0.0687
 8273SOL     OW36454   4.666   1.761   9.358 -0.5361  0.1537  0.5116
 8273SOL    HW136455   4.673   1.850   9.323  1.2597  0.0634  0.6257
 8273SOL    HW236456   0.006   1.720   9.331 -0.6789  0.4670 -0.3960
 8274SOL     OW36457   0.641   4.733  15.575 -0.4345 -0.6217  0.4291
 8274SOL    HW136458   0.667   0.048  15.647  1.4011 -0.1429 -0.6271
 8274SOL    HW236459   0.595   4.669  15.630  0.8932 -2.2661 -0.3606
 8275SOL     OW36460   1.159   0.982  11.155  0.1818 -0.0415 -0.0907
 8275SOL    HW136461   1.252   0.972  11.171  0.6172  1.2818 -1.7788
 8275SOL    HW236462   1.163   1.002  11.062 -0.0816 -2.4616 -0.6028
 8276SOL     OW36463   3.228   1.199   2.178  0.4336 -0.3975  0.0593
 8276SOL    HW136464   3.217   1.294   2.187  0.8744 -0.1087 -2.5292
 8276SOL    HW236465   3.135   1.182   2.158  0.0655 -0.5204  1.8363
 8277SOL     OW36466   1.075   0.712   6.172 -0.1981 -0.2907 -0.1434
 8277SOL    HW136467   1.007   0.694   6.238 -0.3507  2.8327  0.5634
 8277SOL    HW236468   1.130   0.779   6.214 -2.1955  1.9138 -1.0584
 8278SOL     OW36469   4.577   3.750  14.380 -0.2328  0.2749  0.1287
 8278SOL    HW136470   4.630   3.672  14.394  0.2988  0.9642  1.9024
 8278SOL    HW236471   4.498   3.721  14.425  0.2343 -0.7813  0.2621
 8279SOL     OW36472   2.201   4.239   8.449 -0.4843 -0.0641 -0.0127
 8279SOL    HW136473   2.147   4.289   8.387  0.4428  1.4021  0.3493
 8279SOL    HW236474   2.271   4.305   8.450 -0.1911 -0.3617 -0.8569
 8280SOL     OW36475   0.701   4.377  13.884  0.1144 -0.2523  0.8068
 8280SOL    HW136476   0.639   4.442  13.917  2.1998  1.8585  0.6231
 8280SOL    HW236477   0.785   4.401  13.924 -0.1728  1.3256  0.4491
 8281SOL     OW36478   2.545   4.031  16.296 -0.3969 -0.2488  0.1142
 8281SOL    HW136479   2.603   4.008  16.223 -0.6920  1.4116 -0.6223
 8281SOL    HW236480   2.594   3.998  16.372 -0.1137  0.0492  0.0590
 8282SOL     OW36481   4.323   3.978  12.922  0.1211  0.0058 -0.6887
 8282SOL    HW136482   4.414   3.949  12.920  0.2604  0.5147 -1.8557
 8282SOL    HW236483   4.267   3.913  12.878  0.3162 -0.6823  0.0841
 8283SOL     OW36484   2.603   3.737   1.551  0.2691  0.3505 -0.2410
 8283SOL    HW136485   2.638   3.807   1.495  2.1470 -0.6287 -0.2881
 8283SOL    HW236486   2.527   3.717   1.495 -0.1971  3.5395 -0.7819
 8284SOL     OW36487   0.941   3.706   9.618  0.6132  0.2574  0.4184
 8284SOL    HW136488   0.876   3.641   9.592  1.2938  0.6757 -2.3540
 8284SOL    HW236489   0.950   3.691   9.712 -0.8591 -1.2124  0.3306
 8285SOL     OW36490   4.154   4.593   8.168  0.1948 -0.2843 -0.2311
 8285SOL    HW136491   4.232   4.617   8.117  0.0272  1.3325  0.2652
 8285SOL    HW236492   4.088   4.654   8.135 -0.1255  0.3123  1.5040
 8286SOL     OW36493   2.221   1.942   0.505 -0.0769  0.4307 -0.2146
 8286SOL    HW136494   2.295   1.939   0.565  0.0808 -1.1038 -0.4745
 8286SOL    HW236495   2.148   1.937   0.566 -1.2446 -1.5837 -1.7710
 8287SOL     OW36496   2.244   0.713   8.381 -0.2007  0.1058 -0.0037
 8287SOL    HW136497   2.234   0.778   8.451  1.6608 -0.4624  0.7913
 8287SOL    HW236498   2.220   0.633   8.428 -0.7068 -0.1391 -0.6820
 8288SOL     OW36499   3.221   0.892   9.704  0.0767  0.0336  0.5870
 8288SOL    HW136500   3.140   0.914   9.750 -0.1539 -2.1545  1.1919
 8288SOL    HW236501   3.281   0.966   9.720  0.0575 -0.0469  1.0408
 8289SOL     OW36502   1.815   2.368   8.475  0.1108 -0.1197  0.1339
 8289SOL    HW136503   1.763   2.400   8.548 -1.6716 -3.1790  0.2214
 8289SOL    HW236504   1.904   2.364   8.509 -0.2287  0.9292  1.1078
 8290SOL     OW36505   0.181   1.790   3.214 -0.0149  0.1505 -0.0142
 8290SOL    HW136506   0.254   1.729   3.225  0.0533  0.2527  0.1070
 8290SOL    HW236507   0.233   1.869   3.198  1.4106 -0.5672  1.0803
 8291SOL     OW36508   1.451   0.729   4.929 -0.0698 -0.0038  0.8341
 8291SOL    HW136509   1.535   0.750   4.971 -0.3568  0.4829  1.1602
 8291SOL    HW236510   1.470   0.747   4.837 -3.7272 -1.1748 -0.1563
 8292SOL     OW36511   1.089   0.084   1.194  0.5158 -0.2032  0.1223
 8292SOL    HW136512   1.127   0.034   1.121  2.3066  0.9634  0.2545
 8292SOL    HW236513   1.156   0.144   1.227 -0.2949  0.0754  1.2345
 8293SOL     OW36514   0.483   3.213  11.050 -0.4149  0.2776 -0.2318
 8293SOL    HW136515   0.570   3.186  11.019 -0.1004  0.9591  0.0557
 8293SOL    HW236516   0.487   3.190  11.143 -0.8290  1.0529 -0.0244
 8294SOL     OW36517   2.504   1.000   4.244  0.3012 -0.4340 -0.2707
 8294SOL    HW136518   2.521   0.935   4.312  1.7765  0.8459  0.5874
 8294SOL    HW236519   2.568   1.067   4.267  0.5917 -1.4430  1.8348
 8295SOL     OW36520   1.997   0.817  16.863 -0.1995  0.4573  0.3836
 8295SOL    HW136521   2.058   0.819  16.790  0.1903  0.3889  0.7043
 8295SOL    HW236522   1.993   0.911  16.880 -1.0374  0.6225 -0.7130
 8296SOL     OW36523   3.047   0.504  13.165 -0.3000  0.1476 -0.3729
 8296SOL    HW136524   3.051   0.424  13.113 -1.4413  0.7500 -1.3915
 8296SOL    HW236525   3.138   0.533  13.157  0.1931 -1.2553  0.1809
 8297SOL     OW36526   1.785   4.583   7.702  0.8013  0.0416 -0.6427
 8297SOL    HW136527   1.863   4.612   7.750  0.8646 -1.4352  0.1500
 8297SOL    HW236528   1.715   4.632   7.746 -0.1812 -0.9123 -1.1795
 8298SOL     OW36529   3.758   0.287   2.444  0.3849  1.0065 -0.4897
 8298SOL    HW136530   3.829   0.269   2.507  1.2574  0.6517 -1.5775
 8298SOL    HW236531   3.767   0.202   2.401 -1.5058  0.6632 -0.2124
 8299SOL     OW36532   1.696   1.128   5.523  0.2733 -0.2107  0.4036
 8299SOL    HW136533   1.728   1.169   5.603 -1.1740  4.5348 -1.4323
 8299SOL    HW236534   1.632   1.070   5.565 -0.9109  0.4591 -0.4815
 8300SOL     OW36535   3.966   4.078   6.361 -0.1247  0.2451  0.3692
 8300SOL    HW136536   4.035   4.013   6.349 -0.9722 -0.7036  0.7312
 8300SOL    HW236537   3.948   4.067   6.454  1.3078  1.3011  0.7797
 8301SOL     OW36538   0.285   1.929  13.880 -0.2700  0.3232 -0.6930
 8301SOL    HW136539   0.227   1.891  13.946 -0.2778 -0.6140 -1.2388
 8301SOL    HW236540   0.336   1.854  13.850  1.0849 -0.2042  2.9947
 8302SOL     OW36541   1.761   3.738   6.849  0.4788  0.1144 -0.3143
 8302SOL    HW136542   1.675   3.703   6.824  0.7991 -0.1183 -1.0807
 8302SOL    HW236543   1.786   3.783   6.769 -1.4463  0.6377 -0.6303
 8303SOL     OW36544   0.560   1.976  11.560 -0.6170  0.0327  0.6380
 8303SOL    HW136545   0.520   1.992  11.475  0.3673  0.6599  0.2923
 8303SOL    HW236546   0.501   1.910  11.597 -1.4875  2.1212  3.0421
 8304SOL     OW36547   1.218   4.485   8.809 -0.0502 -0.8249  0.2010
 8304SOL    HW136548   1.221   4.544   8.884  0.3172  2.1538 -2.1146
 8304SOL    HW236549   1.258   4.404   8.840 -1.5567 -2.5687 -2.4039
 8305SOL     OW36550   1.254   1.338   5.403 -0.6224 -0.2076  0.0457
 8305SOL    HW136551   1.217   1.266   5.454 -1.2120 -2.1403 -3.0912
 8305SOL    HW236552   1.167   1.355   5.366 -0.2246  1.1229 -0.2863
 8306SOL     OW36553   1.157   0.486  12.572  0.0636 -0.0508  0.8197
 8306SOL    HW136554   1.063   0.475  12.558  0.3061  1.7830 -2.3566
 8306SOL    HW236555   1.187   0.475  12.481  1.4760  4.0089  0.8030
 8307SOL     OW36556   0.359   2.999   2.037  0.0477  0.1296  0.1266
 8307SOL    HW136557   0.327   2.940   1.969  0.7713  0.4370 -0.4843
 8307SOL    HW236558   0.409   2.941   2.095 -0.6226 -3.3642 -2.8170
 8308SOL     OW36559   1.086   0.314   2.119 -0.1424 -0.5068  0.1548
 8308SOL    HW136560   1.063   0.308   2.027 -0.3955  0.3312  0.1599
 8308SOL    HW236561   1.127   0.229   2.134  2.4820  0.5985 -0.6675
 8309SOL     OW36562   1.487   4.310  12.514 -0.1940 -0.0133 -0.0687
 8309SOL    HW136563   1.459   4.221  12.534 -0.4194  0.3722  1.3112
 8309SOL    HW236564   1.462   4.313  12.421  1.0024 -0.9690 -0.4179
 8310SOL     OW36565   0.234   4.521   7.584 -0.3222 -0.1198  0.4159
 8310SOL    HW136566   0.313   4.558   7.622 -0.1170 -0.5806  0.4361
 8310SOL    HW236567   0.171   4.556   7.647  0.0257 -0.1230  0.7621
 8311SOL     OW36568   4.562   4.010   5.617 -0.6006 -0.9149 -0.3407
 8311SOL    HW136569   4.528   4.077   5.676 -0.2664 -1.0722  0.0342
 8311SOL    HW236570   4.633   4.058   5.576  0.6874 -1.7950  0.8586
 8312SOL     OW36571   2.159   4.238  15.924 -0.5843 -0.2010  0.2707
 8312SOL    HW136572   2.139   4.153  15.963  2.1944 -0.5146  1.0183
 8312SOL    HW236573   2.241   4.265  15.965 -0.5180 -1.8503  1.2401
 8313SOL     OW36574   0.427   4.235   1.129 -0.0931 -0.3702 -0.0056
 8313SOL    HW136575   0.497   4.284   1.171  1.7113 -1.2620 -2.0034
 8313SOL    HW236576   0.386   4.190   1.202  0.8304 -3.0572 -1.1514
 8314SOL     OW36577   2.184   1.949  16.790  0.3006  0.1269  0.5652
 8314SOL    HW136578   2.235   1.989  16.719  0.7893 -0.5496  0.5299
 8314SOL    HW236579   2.148   2.029  16.828  0.8774  0.5215  0.2829
 8315SOL     OW36580   1.153   3.224  14.384 -0.0517 -0.2088 -0.4807
 8315SOL    HW136581   1.070   3.269  14.395  0.9840  1.9878 -1.5482
 8315SOL    HW236582   1.184   3.288  14.320  0.1335 -1.1272 -1.2993
 8316SOL     OW36583   1.280   1.429   3.757 -0.1559  0.1312  0.0207
 8316SOL    HW136584   1.215   1.370   3.719  1.7929  0.0631 -3.1699
 8316SOL    HW236585   1.223   1.485   3.810 -1.1702  0.9807 -1.9576
 8317SOL     OW36586   0.710   0.835   2.135 -0.5635 -0.2185  0.4101
 8317SOL    HW136587   0.661   0.768   2.182 -0.4472 -1.3294 -1.0656
 8317SOL    HW236588   0.753   0.781   2.068  1.8021  1.2523  0.7342
 8318SOL     OW36589   3.121   0.849   8.870  0.2727 -0.1214  0.2582
 8318SOL    HW136590   3.145   0.769   8.918  0.4715 -1.0951 -1.4340
 8318SOL    HW236591   3.027   0.858   8.885  0.5730  2.8002  0.3932
 8319SOL     OW36592   1.120   4.503   7.293 -0.3843  0.0537 -0.0992
 8319SOL    HW136593   1.129   4.587   7.339 -1.0913  1.5343 -2.7071
 8319SOL    HW236594   1.090   4.442   7.361  0.2606  1.2702  1.2702
 8320SOL     OW36595   4.135   4.531   6.788 -0.2426  0.3461 -0.0795
 8320SOL    HW136596   4.144   4.600   6.723  0.1290 -0.9742 -1.4254
 8320SOL    HW236597   4.131   4.581   6.870 -0.2300 -0.5207  0.4547
 8321SOL     OW36598   1.062   0.012  16.762 -0.1483 -0.4082 -0.0749
 8321SOL    HW136599   1.036   0.059  16.841  0.4198 -1.1247  0.5410
 8321SOL    HW236600   0.982   0.033  16.715 -0.8676 -1.4002  0.6791
 8322SOL     OW36601   2.912   4.552   5.016 -0.1997  0.0259  0.3827
 8322SOL    HW136602   2.997   4.533   4.976  0.9751  0.4742  2.6974
 8322SOL    HW236603   2.911   4.646   5.037  1.9164 -0.0471  0.8096
 8323SOL     OW36604   1.952   3.155   6.129  0.0737 -0.4329  0.0303
 8323SOL    HW136605   2.042   3.184   6.146  0.0781 -1.1936  1.3389
 8323SOL    HW236606   1.950   3.148   6.034  2.6469 -0.1286 -0.0546
 8324SOL     OW36607   2.801   0.391  13.562 -0.0756  0.0270 -0.2601
 8324SOL    HW136608   2.821   0.475  13.603 -0.0793 -0.6537  1.1526
 8324SOL    HW236609   2.813   0.426  13.474 -0.0408  1.2899  0.2426
 8325SOL     OW36610   2.837   2.388   2.550 -0.1622  0.0280  0.1051
 8325SOL    HW136611   2.921   2.343   2.547 -0.5553 -0.5074 -2.8001
 8325SOL    HW236612   2.773   2.317   2.543 -1.8978  1.6440 -0.4882
 8326SOL     OW36613   2.794   1.844   2.831  0.0567  0.0823 -0.8791
 8326SOL    HW136614   2.798   1.760   2.786 -0.8550  1.0357 -2.7471
 8326SOL    HW236615   2.730   1.827   2.900  3.9767 -0.1757  2.7176
 8327SOL     OW36616   1.299   1.130   2.249  0.0534  0.0673  0.3535
 8327SOL    HW136617   1.325   1.053   2.300 -0.8177 -2.3073 -2.8074
 8327SOL    HW236618   1.385   1.167   2.227  0.4700 -0.4255  1.1453
 8328SOL     OW36619   1.754   1.016   2.070  0.2098  0.1936  0.3015
 8328SOL    HW136620   1.836   1.017   2.020  0.6291 -0.9360  0.9574
 8328SOL    HW236621   1.735   1.109   2.066 -0.2868  0.1200  1.0280
 8329SOL     OW36622   3.518   0.347   7.633  0.5133 -0.3313 -0.8448
 8329SOL    HW136623   3.438   0.322   7.680  0.3931 -0.6890 -1.2392
 8329SOL    HW236624   3.533   0.439   7.655 -1.4908  0.0710 -1.1412
 8330SOL     OW36625   0.060   4.599   7.784 -0.4722  0.0582 -0.2566
 8330SOL    HW136626   0.046   4.666   7.851  1.3542  0.5600 -0.3902
 8330SOL    HW236627   0.034   4.528   7.842 -2.3566  0.7977 -0.1936
 8331SOL     OW36628   2.031   2.907   5.843  0.3287  0.1204  0.4977
 8331SOL    HW136629   1.983   2.990   5.835  0.7215  0.2397 -0.6051
 8331SOL    HW236630   2.108   2.931   5.792  1.5181 -2.2613  1.1969
 8332SOL     OW36631   0.963   0.295   2.651 -0.4587 -0.3024  0.6136
 8332SOL    HW136632   0.938   0.307   2.559  1.3368 -1.6686 -0.0379
 8332SOL    HW236633   0.965   0.200   2.661 -2.4164 -0.3887  0.3332
 8333SOL     OW36634   0.179   2.977   3.054 -0.1051  0.1740 -0.2733
 8333SOL    HW136635   0.212   3.039   2.988  1.2001 -1.9964 -1.6580
 8333SOL    HW236636   0.168   2.901   2.998 -0.7155 -0.7457  1.1065
 8334SOL     OW36637   3.834   3.802  17.664  0.0648  0.0211 -0.5202
 8334SOL    HW136638   3.889   3.727  17.644  0.2080  0.1295 -0.5353
 8334SOL    HW236639   3.867   3.834  17.748  2.1125 -0.2193 -1.2184
 8335SOL     OW36640   4.364   3.561  16.776 -0.4955 -0.3307 -0.0105
 8335SOL    HW136641   4.331   3.488  16.723 -1.6317 -0.9700  1.5715
 8335SOL    HW236642   4.281   3.606  16.791 -0.6768 -0.9983  1.0090
 8336SOL     OW36643   1.837   1.008  12.405  0.3899 -0.5097  0.3173
 8336SOL    HW136644   1.804   0.919  12.398 -1.4718  0.0044  2.3004
 8336SOL    HW236645   1.861   1.008  12.498  1.3524 -1.5629  0.0596
 8337SOL     OW36646   1.638   1.874   2.451 -0.3596 -0.6705  0.4347
 8337SOL    HW136647   1.607   1.949   2.501 -1.7821 -1.6727  1.0423
 8337SOL    HW236648   1.715   1.902   2.402 -0.3035 -0.4834  0.6305
 8338SOL     OW36649   2.431   2.038   6.145  0.1298  0.7311  0.1419
 8338SOL    HW136650   2.510   2.034   6.091 -0.2812 -0.9790 -0.3114
 8338SOL    HW236651   2.368   2.058   6.077  0.2767  2.4108  0.4940
 8339SOL     OW36652   2.867   3.147  15.800  0.1606  0.2958 -0.0849
 8339SOL    HW136653   2.930   3.162  15.729  0.2795 -1.1453 -0.2724
 8339SOL    HW236654   2.901   3.069  15.842  0.3046 -0.0125 -0.7650
 8340SOL     OW36655   2.491   4.707   7.524  0.5322 -0.0408  0.1664
 8340SOL    HW136656   2.468   4.678   7.435  0.2090 -0.5439  0.4141
 8340SOL    HW236657   2.586   4.716   7.526  0.6609 -1.4057  0.2067
 8341SOL     OW36658   2.506   3.214   3.739 -0.6096  0.2391  0.1829
 8341SOL    HW136659   2.594   3.195   3.709 -0.6705 -1.9565  1.4110
 8341SOL    HW236660   2.487   3.300   3.701 -1.5037 -0.9116 -1.9150
 8342SOL     OW36661   3.252   3.697   5.568  0.4857  0.3104  0.1100
 8342SOL    HW136662   3.343   3.701   5.596 -0.0526  1.0140  1.7314
 8342SOL    HW236663   3.202   3.741   5.637  1.8418  2.8455 -0.5270
 8343SOL     OW36664   0.011   4.114   2.687  0.1254  0.3700  0.1423
 8343SOL    HW136665   0.062   4.124   2.607  2.0149  1.1608  1.4439
 8343SOL    HW236666   0.089   4.094   2.739  1.0681  1.2730 -0.9331
 8344SOL     OW36667   0.150   2.245   5.651  0.0168  0.0390  0.2840
 8344SOL    HW136668   0.135   2.216   5.561 -1.2396  1.7319 -0.0318
 8344SOL    HW236669   0.122   2.163   5.692 -2.2681  1.5052  1.6966
 8345SOL     OW36670   4.549   0.320  11.356  0.9841 -0.4158  0.4301
 8345SOL    HW136671   4.577   0.351  11.442  0.2806 -2.2457  1.3301
 8345SOL    HW236672   4.603   0.378  11.302  0.5974 -0.7240 -0.2926
 8346SOL     OW36673   0.951   0.824  15.561  0.2995 -0.1962 -0.4890
 8346SOL    HW136674   1.004   0.830  15.641 -1.0390 -1.7971  0.5016
 8346SOL    HW236675   0.861   0.809  15.589  1.4126 -2.1459  2.0308
 8347SOL     OW36676   0.983   4.155   4.992  0.7328 -0.2952  0.4166
 8347SOL    HW136677   1.063   4.105   5.009  2.1711  1.8335 -0.1606
 8347SOL    HW236678   0.956   4.132   4.903  0.4410 -2.8914  1.1731
 8348SOL     OW36679   2.432   4.354   0.443 -0.1939 -0.1843 -0.1767
 8348SOL    HW136680   2.375   4.421   0.481  0.0423  0.3890 -0.8334
 8348SOL    HW236681   2.493   4.408   0.393  0.2931 -1.2462 -0.7299
 8349SOL     OW36682   0.663   3.201   7.862  0.3546 -0.9917  0.0885
 8349SOL    HW136683   0.730   3.269   7.859  0.2812 -0.9463 -0.5298
 8349SOL    HW236684   0.624   3.211   7.775  0.7598  2.8549  0.3320
 8350SOL     OW36685   3.858   4.693   0.981  0.3134 -0.1076 -0.9111
 8350SOL    HW136686   3.873   4.686   0.887 -0.1183  2.6615 -1.1908
 8350SOL    HW236687   3.859   0.046   0.991  2.0102 -0.1610 -0.6118
 8351SOL     OW36688   0.531   3.553   7.322 -0.1663  0.0024  0.4479
 8351SOL    HW136689   0.485   3.487   7.374  0.2498 -0.1576  0.6133
 8351SOL    HW236690   0.590   3.507   7.262 -1.2609 -0.7741 -0.0442
 8352SOL     OW36691   1.654   4.660   8.091 -0.2294  0.3500  0.6045
 8352SOL    HW136692   1.632   4.742   8.135  0.8909 -0.0749  1.9477
 8352SOL    HW236693   1.570   4.615   8.087 -1.0385  2.0318 -1.4955
 8353SOL     OW36694   3.270   4.281   8.602 -0.5773  0.2555 -0.1616
 8353SOL    HW136695   3.299   4.268   8.512  1.1439 -1.7409  0.6784
 8353SOL    HW236696   3.175   4.293   8.603 -0.6971 -0.7078 -0.8138
 8354SOL     OW36697   2.336   0.106  10.794  0.5579  0.1306  0.3660
 8354SOL    HW136698   2.313   0.014  10.809 -1.9802  0.9396  1.3297
 8354SOL    HW236699   2.427   0.110  10.824  0.8682 -0.9285 -0.4289
 8355SOL     OW36700   4.475   1.474  10.548  0.6395 -0.2591  0.3850
 8355SOL    HW136701   4.381   1.485  10.534  0.6506  1.0575  1.3333
 8355SOL    HW236702   4.507   1.472  10.458 -1.2953 -0.8134 -0.2932
 8356SOL     OW36703   4.423   2.266   9.823  0.2203 -0.1923  0.2908
 8356SOL    HW136704   4.478   2.247   9.747  3.2021 -3.3467  3.2131
 8356SOL    HW236705   4.333   2.244   9.801  1.2969 -1.6737 -2.6367
 8357SOL     OW36706   2.401   2.610   5.843 -0.1817  0.6216 -0.4674
 8357SOL    HW136707   2.479   2.661   5.863  2.9577 -4.2184 -0.5831
 8357SOL    HW236708   2.384   2.645   5.756 -1.2982 -1.3769 -1.0539
 8358SOL     OW36709   0.784   0.261   0.795 -0.4427  0.4174 -0.3098
 8358SOL    HW136710   0.820   0.211   0.721 -1.9988 -0.3654 -0.5316
 8358SOL    HW236711   0.862   0.252   0.851 -0.8523  1.6648  0.4758
 8359SOL     OW36712   4.357   3.060   0.368 -0.0839 -0.1216  0.8099
 8359SOL    HW136713   4.301   3.016   0.304 -0.8980  0.0641  1.3988
 8359SOL    HW236714   4.434   3.083   0.315  0.6192 -1.3016  1.3385
 8360SOL     OW36715   4.291   0.737   5.102  0.2398 -0.4858  0.0684
 8360SOL    HW136716   4.358   0.772   5.043  0.6239 -1.2648  0.0441
 8360SOL    HW236717   4.311   0.646   5.077  2.0649  0.2350 -1.0915
 8361SOL     OW36718   3.828   0.425   4.228  0.5740  0.2880  0.5374
 8361SOL    HW136719   3.883   0.386   4.296 -0.4852 -0.9126  0.7216
 8361SOL    HW236720   3.783   0.503   4.260  2.0878  1.3341  0.0972
 8362SOL     OW36721   4.078   4.442   2.023  0.6158 -0.7072 -0.2701
 8362SOL    HW136722   4.172   4.426   2.018  0.5975 -0.4066 -1.5355
 8362SOL    HW236723   4.037   4.373   1.971  1.6746 -0.8104 -0.9595
 8363SOL     OW36724   1.967   4.177   4.504 -0.7956 -0.2069 -0.7069
 8363SOL    HW136725   1.977   4.196   4.411  1.6053  1.4701 -0.1114
 8363SOL    HW236726   2.056   4.204   4.530 -1.8024  1.6345  0.8678
 8364SOL     OW36727   0.742   0.451   5.607  0.3915  0.0273  0.7472
 8364SOL    HW136728   0.754   0.369   5.655  0.2616 -0.3617  0.1116
 8364SOL    HW236729   0.757   0.517   5.675 -1.3288  1.2900 -0.1046
 8365SOL     OW36730   1.968   3.291   8.202 -0.1152  0.6148  0.1170
 8365SOL    HW136731   2.038   3.355   8.188  0.1259 -0.4575 -3.6245
 8365SOL    HW236732   1.897   3.354   8.205 -1.3341 -0.6580 -2.5853
 8366SOL     OW36733   1.420   0.933  11.218 -0.2303 -0.4915  0.4095
 8366SOL    HW136734   1.468   0.988  11.156 -1.6924 -0.9505 -1.1575
 8366SOL    HW236735   1.461   0.955  11.301 -1.8105  1.2241  0.7342
 8367SOL     OW36736   0.878   2.413   5.292  0.5038  1.2521 -0.2305
 8367SOL    HW136737   0.870   2.318   5.287 -1.7022  1.3879  0.6716
 8367SOL    HW236738   0.806   2.430   5.353 -2.0441 -1.0934 -2.5773
 8368SOL     OW36739   2.520   1.503  15.630  0.2860 -0.2209  0.0063
 8368SOL    HW136740   2.466   1.566  15.678 -1.7969 -1.6230 -0.5288
 8368SOL    HW236741   2.461   1.429  15.621 -1.3365  1.1479 -0.7153
 8369SOL     OW36742   1.875   3.088  16.335 -0.0995  0.3311 -0.0938
 8369SOL    HW136743   1.925   3.059  16.411 -1.5592  0.4229  0.9102
 8369SOL    HW236744   1.791   3.113  16.375 -0.2821  0.9076 -0.8563
 8370SOL     OW36745   4.078   0.025  10.398 -0.7430  0.2953 -0.0172
 8370SOL    HW136746   4.054   0.112  10.367 -1.3247  1.1001  2.6603
 8370SOL    HW236747   4.007   0.005  10.460 -0.5214 -1.4956 -0.3250
 8371SOL     OW36748   2.917   1.152   9.096  0.1230  0.0042 -0.2370
 8371SOL    HW136749   2.834   1.181   9.135 -0.4912 -1.9073 -0.1348
 8371SOL    HW236750   2.890   1.091   9.027  2.3739 -0.7429 -0.4644
 8372SOL     OW36751   3.942   4.449   5.227  0.3549  0.2783 -0.4503
 8372SOL    HW136752   4.030   4.487   5.227  0.0724  0.9358 -0.9353
 8372SOL    HW236753   3.921   4.467   5.319 -1.5605  2.1391 -1.2369
 8373SOL     OW36754   2.844   1.883   9.468  0.0585 -0.3158 -0.0849
 8373SOL    HW136755   2.797   1.913   9.546  1.5826  0.7399  0.4402
 8373SOL    HW236756   2.914   1.826   9.501  1.0810  0.8518 -0.2606
 8374SOL     OW36757   0.490   1.156   1.540  0.2800  0.1484 -0.6931
 8374SOL    HW136758   0.523   1.211   1.610 -0.5890  0.0627 -0.2069
 8374SOL    HW236759   0.573   1.141   1.496 -0.7858 -1.8598 -2.0292
 8375SOL     OW36760   0.593   1.858   9.603 -0.2672  0.4808 -0.4932
 8375SOL    HW136761   0.585   1.765   9.622  0.8604  0.5402  0.2934
 8375SOL    HW236762   0.584   1.856   9.508 -0.4159  2.0738 -0.5206
 8376SOL     OW36763   1.888   3.827  16.623 -0.0829 -0.3127  0.1842
 8376SOL    HW136764   1.820   3.872  16.672 -0.7953 -0.4444 -0.6841
 8376SOL    HW236765   1.963   3.881  16.647 -0.6762  0.5803  0.0005
 8377SOL     OW36766   0.068   4.014  12.920  0.6504  0.2520  0.2915
 8377SOL    HW136767   0.056   3.966  13.001 -0.0162  1.2913  0.8110
 8377SOL    HW236768   4.742   4.081  12.923  0.1379 -0.3890  2.2187
 8378SOL     OW36769   0.529   0.045   3.394  0.3857 -0.4379  0.1431
 8378SOL    HW136770   0.443   0.051   3.434 -0.0743 -1.2120 -0.7238
 8378SOL    HW236771   0.566   4.709   3.434 -0.4258 -0.8531  0.0829
 8379SOL     OW36772   4.353   2.128   6.766 -0.0479  0.2210  0.1862
 8379SOL    HW136773   4.404   2.168   6.696 -0.4253  1.9992  0.9379
 8379SOL    HW236774   4.268   2.170   6.754 -0.9456 -0.7980  3.0482
 8380SOL     OW36775   2.190   4.175  15.051 -0.0475 -0.5841  0.2535
 8380SOL    HW136776   2.159   4.264  15.060  2.6723  0.6532 -2.3487
 8380SOL    HW236777   2.113   4.130  15.015 -1.0135  2.0092 -0.9459
 8381SOL     OW36778   0.378   3.773   7.263  0.0086 -0.0247  0.5851
 8381SOL    HW136779   0.446   3.706   7.263  2.1712  2.1819 -0.0289
 8381SOL    HW236780   0.358   3.768   7.357 -0.3163  1.0218  0.5740
 8382SOL     OW36781   4.138   0.422   5.617  0.5184 -0.2981  0.9311
 8382SOL    HW136782   4.114   0.329   5.615  1.6609 -0.6179  2.2922
 8382SOL    HW236783   4.156   0.433   5.711  0.7856  0.1263  0.8267
 8383SOL     OW36784   3.879   1.710   2.661 -0.0927 -0.3336  0.1370
 8383SOL    HW136785   3.929   1.791   2.672  0.7788 -0.8315 -0.2201
 8383SOL    HW236786   3.883   1.699   2.566  0.2081 -0.2838  0.1454
 8384SOL     OW36787   3.669   2.818   8.612 -0.5644  0.2227 -0.4793
 8384SOL    HW136788   3.688   2.771   8.693 -1.3498  1.4035  0.3880
 8384SOL    HW236789   3.703   2.907   8.625  0.1636 -0.1752  0.3020
 8385SOL     OW36790   0.524   3.348  15.133 -0.0411  0.5636  0.3134
 8385SOL    HW136791   0.491   3.438  15.133  0.5400  0.8164 -4.7348
 8385SOL    HW236792   0.567   3.344  15.047  0.8148 -0.6953  0.8070
 8386SOL     OW36793   1.284   3.826   4.351 -0.1869  0.4304  0.0717
 8386SOL    HW136794   1.262   3.739   4.384  0.4211 -0.4802 -1.9461
 8386SOL    HW236795   1.196   3.864   4.353 -0.9553 -1.3961  0.7393
 8387SOL     OW36796   3.524   1.933   3.606  0.0982  0.4371 -0.4169
 8387SOL    HW136797   3.574   1.865   3.650  3.1898  1.8255 -1.7904
 8387SOL    HW236798   3.532   1.910   3.513  0.3643 -2.0009  0.2170
 8388SOL     OW36799   0.025   1.345   9.154  0.3181 -0.2801  0.4279
 8388SOL    HW136800   0.105   1.298   9.180 -0.4278 -1.9726 -0.3576
 8388SOL    HW236801   4.725   1.276   9.104  0.9217  0.3539 -0.9420
 8389SOL     OW36802   1.360   1.954   8.095 -0.0437 -0.2846 -0.1988
 8389SOL    HW136803   1.337   1.861   8.095  2.6490 -0.9315 -2.2124
 8389SOL    HW236804   1.416   1.962   8.172 -0.4795 -0.4865  0.1428
 8390SOL     OW36805   0.197   2.927   8.787 -0.0781 -0.4821  0.4019
 8390SOL    HW136806   0.246   2.990   8.734  0.7693 -0.2179  1.5177
 8390SOL    HW236807   0.173   2.986   8.858 -0.9224 -0.6570  0.2622
 8391SOL     OW36808   2.113   1.380  15.726  0.3097  0.8445  0.1366
 8391SOL    HW136809   2.068   1.351  15.647 -2.3413  0.7744  1.6795
 8391SOL    HW236810   2.052   1.449  15.750 -0.3014  0.0628  0.8472
 8392SOL     OW36811   2.980   1.855  14.852 -0.2040  0.3839 -0.2672
 8392SOL    HW136812   2.925   1.849  14.774  0.6249  2.1041 -0.9638
 8392SOL    HW236813   2.964   1.943  14.886 -1.3051  0.4313 -0.9127
 8393SOL     OW36814   2.726   1.818  10.360 -0.2404  0.4687 -0.4391
 8393SOL    HW136815   2.706   1.823  10.454  1.6546  1.3378 -0.0830
 8393SOL    HW236816   2.652   1.773  10.319 -0.5140 -1.1968  1.8628
 8394SOL     OW36817   2.491   4.182   8.605 -0.3097  0.4416 -0.1766
 8394SOL    HW136818   2.539   4.265   8.600  0.7477 -0.0460  2.1805
 8394SOL    HW236819   2.408   4.214   8.642 -0.6842  0.2749 -0.8655
 8395SOL     OW36820   0.862   0.493   2.874  0.0330 -0.5760  0.3732
 8395SOL    HW136821   0.837   0.523   2.787 -0.4134 -0.8389  0.4146
 8395SOL    HW236822   0.953   0.471   2.852 -0.1590 -0.7403 -0.2634
 8396SOL     OW36823   3.766   3.014   5.361 -0.3271 -0.5877  0.1526
 8396SOL    HW136824   3.823   2.990   5.287  1.7196  0.3295  1.4404
 8396SOL    HW236825   3.821   2.978   5.431 -0.7954  0.0625  0.8546
 8397SOL     OW36826   4.049   4.321   7.094 -0.1189  0.5143 -0.0686
 8397SOL    HW136827   4.118   4.357   7.150  0.2156 -0.0110 -0.1457
 8397SOL    HW236828   3.978   4.385   7.094 -0.5447  0.0428  0.3934
 8398SOL     OW36829   0.866   4.637   2.128  0.1944  0.7256 -0.3492
 8398SOL    HW136830   0.951   4.594   2.131  0.1065  0.5276 -0.8191
 8398SOL    HW236831   0.836   4.611   2.215 -0.1977 -1.3736 -1.1144
 8399SOL     OW36832   4.367   0.282   1.428  0.0414  0.6336  0.0030
 8399SOL    HW136833   4.362   0.216   1.497  1.3630  0.3296 -0.1915
 8399SOL    HW236834   4.315   0.242   1.359  0.1613 -1.7160  1.2908
 8400SOL     OW36835   3.752   0.114   5.177 -0.3848 -0.5884  0.3190
 8400SOL    HW136836   3.764   0.117   5.083 -2.5836  2.7913  0.1561
 8400SOL    HW236837   3.834   0.081   5.212  0.0877 -0.6727 -0.9043
 8401SOL     OW36838   2.603   1.614   7.719  0.2824 -0.0067 -0.1953
 8401SOL    HW136839   2.609   1.551   7.791  2.4379  2.2044  1.5598
 8401SOL    HW236840   2.557   1.567   7.649 -2.2976  0.5093  1.1735
 8402SOL     OW36841   4.650   0.513   9.671  0.3881  1.1904 -0.2886
 8402SOL    HW136842   4.580   0.448   9.660  1.2382  0.0857  0.9414
 8402SOL    HW236843   4.599   0.571   9.727  0.2372 -0.7035  1.5291
 8403SOL     OW36844   1.709   1.084   3.070  0.3629 -0.6466  0.1563
 8403SOL    HW136845   1.784   1.111   3.017  0.4688 -0.5176  0.3707
 8403SOL    HW236846   1.698   0.991   3.049 -0.4240 -0.3817 -0.5836
 8404SOL     OW36847   3.151   2.178   7.687  0.1665 -0.0225  0.3676
 8404SOL    HW136848   3.161   2.256   7.632  1.5139  0.3620  1.1514
 8404SOL    HW236849   3.075   2.136   7.648 -1.3457  2.2411  0.8829
 8405SOL     OW36850   3.597   4.000  14.799  0.0532 -0.1093  0.0923
 8405SOL    HW136851   3.562   4.071  14.854 -2.1682 -0.5073 -0.8319
 8405SOL    HW236852   3.561   4.014  14.712 -0.1011  0.0305  0.1767
 8406SOL     OW36853   4.643   4.064   6.982  0.0099 -0.1407  0.1640
 8406SOL    HW136854   4.732   4.039   6.959 -1.1521 -0.8862 -3.5720
 8406SOL    HW236855   4.611   3.979   7.014 -2.5428  0.4066 -0.9049
 8407SOL     OW36856   0.637   0.820   4.737 -0.4216  0.1901 -0.1480
 8407SOL    HW136857   0.724   0.813   4.776 -1.1264 -3.2706  0.8413
 8407SOL    HW236858   0.604   0.906   4.759 -2.3036 -0.6610  0.3600
 8408SOL     OW36859   0.154   3.129  15.663 -0.3081  0.4507 -0.7515
 8408SOL    HW136860   0.130   3.101  15.574  0.2096  1.5679 -1.2389
 8408SOL    HW236861   0.216   3.062  15.690  0.6655  0.9691 -1.7376
 8409SOL     OW36862   4.674   0.577  16.787  0.7911 -0.7489 -0.0515
 8409SOL    HW136863   4.682   0.664  16.748  3.1704 -0.1614  1.6900
 8409SOL    HW236864   4.664   0.520  16.711 -1.2238  1.6963 -1.5795
 8410SOL     OW36865   1.461   1.666   5.235 -0.0266 -0.1636 -0.2949
 8410SOL    HW136866   1.499   1.750   5.263 -1.2023 -0.8098  3.2856
 8410SOL    HW236867   1.535   1.612   5.261 -1.3046 -1.5723  0.4182
 8411SOL     OW36868   0.579   3.782  13.899 -0.1548 -0.5220 -0.2477
 8411SOL    HW136869   0.559   3.871  13.930 -1.4258 -0.2063 -1.9886
 8411SOL    HW236870   0.664   3.800  13.861 -0.9060  2.2778 -0.6013
 8412SOL     OW36871   4.660   0.135  17.748 -0.0121  0.0789 -0.4124
 8412SOL    HW136872   4.566   0.154  17.738 -0.3723 -1.0851  0.8532
 8412SOL    HW236873   4.664   0.083   0.061  2.2166 -1.0774 -1.3112
 8413SOL     OW36874   0.876   1.390   8.958 -0.6879  0.0849  0.3281
 8413SOL    HW136875   0.820   1.398   8.881  1.2827  1.5127 -0.9772
 8413SOL    HW236876   0.900   1.481   8.976 -2.4330  0.7802 -0.8951
 8414SOL     OW36877   1.112   2.522   4.886  0.7092 -0.4261  0.5277
 8414SOL    HW136878   1.050   2.574   4.834 -0.0723  0.5791  2.4771
 8414SOL    HW236879   1.195   2.568   4.887  0.1481  0.5845  0.2425
 8415SOL     OW36880   0.205   3.225   0.692  0.4287 -0.2114  0.3211
 8415SOL    HW136881   0.291   3.234   0.652  0.4200 -1.1871  0.0756
 8415SOL    HW236882   0.231   3.240   0.783  1.7482  1.0260 -0.2726
 8416SOL     OW36883   0.316   1.876  12.575  0.1044 -0.2744  0.2807
 8416SOL    HW136884   0.382   1.861  12.641  1.6558  2.5080 -0.6210
 8416SOL    HW236885   0.371   1.859  12.499 -1.1067  1.4500 -1.0094
 8417SOL     OW36886   4.656   2.425  11.368 -0.1276  0.0849 -0.4636
 8417SOL    HW136887   4.590   2.418  11.437  0.6766  1.0114  0.4049
 8417SOL    HW236888   4.726   2.477  11.409 -0.7664 -2.0750  3.4222
 8418SOL     OW36889   3.530   0.632   7.611 -0.0914  0.0529 -0.3515
 8418SOL    HW136890   3.564   0.718   7.635  0.2245 -0.0352 -0.4819
 8418SOL    HW236891   3.552   0.627   7.518  1.4747  2.3590 -0.1047
 8419SOL     OW36892   3.538   1.030   0.601  0.3755  0.1155 -0.1006
 8419SOL    HW136893   3.478   0.957   0.613  0.3789 -0.2408 -2.2857
 8419SOL    HW236894   3.501   1.073   0.524 -0.8856  0.1829  0.5425
 8420SOL     OW36895   1.840   0.754   6.040 -0.3355  0.6661  0.5007
 8420SOL    HW136896   1.820   0.813   5.968  0.4056  0.1345 -0.1348
 8420SOL    HW236897   1.910   0.795   6.091  2.0553 -1.9256 -0.6774
 8421SOL     OW36898   1.748   1.386   8.262 -0.0619  1.0639  0.1716
 8421SOL    HW136899   1.813   1.320   8.236  0.6662  1.1916  1.6311
 8421SOL    HW236900   1.671   1.357   8.214 -1.5855  1.9272  2.1141
 8422SOL     OW36901   4.171   1.722   1.953 -0.2120 -0.0029  0.3666
 8422SOL    HW136902   4.157   1.808   1.914 -0.0652  0.1891  0.7392
 8422SOL    HW236903   4.137   1.738   2.041  0.1235 -0.9908  0.6707
 8423SOL     OW36904   3.759   4.562  12.607  0.3752 -0.1050  0.3113
 8423SOL    HW136905   3.811   4.490  12.644 -3.8195 -3.3204  0.0528
 8423SOL    HW236906   3.789   4.547  12.517 -0.1704 -1.1979  0.3114
 8424SOL     OW36907   3.926   3.753  10.169 -0.0631 -0.3741 -0.3849
 8424SOL    HW136908   3.874   3.829  10.142  1.2261  0.5609 -0.2700
 8424SOL    HW236909   3.997   3.750  10.105  0.4511  0.0025  0.1604
 8425SOL     OW36910   1.628   4.066   1.895  0.0255  0.1073  0.2804
 8425SOL    HW136911   1.714   4.025   1.885  0.1472  0.6035 -0.6997
 8425SOL    HW236912   1.647   4.132   1.962 -2.6206 -0.0959  1.2112
 8426SOL     OW36913   3.229   4.642  13.005  0.4115 -0.1849  0.2936
 8426SOL    HW136914   3.176   4.567  13.031  1.3544 -0.6556  0.8523
 8426SOL    HW236915   3.157   4.705  13.006  0.3769 -0.1777 -1.7737
 8427SOL     OW36916   4.605   1.122   6.963  0.0144  0.2158 -0.0908
 8427SOL    HW136917   4.660   1.115   7.041 -0.5178 -0.6753  0.2025
 8427SOL    HW236918   4.516   1.116   6.998  0.9806 -1.3236  2.0271
 8428SOL     OW36919   3.663   1.070  13.984 -0.7674 -0.0191 -0.1880
 8428SOL    HW136920   3.732   1.016  13.945  1.8386  2.1639  1.4370
 8428SOL    HW236921   3.691   1.157  13.953  1.0278 -0.2670  0.7793
 8429SOL     OW36922   1.269   4.194   8.623 -0.3268 -0.0760  0.1058
 8429SOL    HW136923   1.205   4.132   8.658 -0.2130 -1.0749 -1.4632
 8429SOL    HW236924   1.323   4.225   8.696 -0.8643 -1.6015  1.1430
 8430SOL     OW36925   2.513   3.628   8.776 -0.2025  0.5144  0.0804
 8430SOL    HW136926   2.537   3.582   8.696  0.9469 -0.4827  0.9849
 8430SOL    HW236927   2.536   3.717   8.750 -1.0635  0.6174 -0.3237
 8431SOL     OW36928   0.558   1.314   2.595 -0.4235  0.6056  0.2432
 8431SOL    HW136929   0.525   1.229   2.566  1.2000  0.4616 -1.1874
 8431SOL    HW236930   0.603   1.327   2.512 -2.4548 -2.0165 -1.2635
 8432SOL     OW36931   3.635   1.629   0.894  0.4395  0.2116  0.2015
 8432SOL    HW136932   3.552   1.606   0.853  0.3071  0.8915  0.0870
 8432SOL    HW236933   3.627   1.603   0.986  0.5977  2.4243  0.8280
 8433SOL     OW36934   2.890   3.329   5.642 -0.6074  0.5954  0.4216
 8433SOL    HW136935   2.940   3.398   5.685  2.0826 -0.4092 -1.0463
 8433SOL    HW236936   2.833   3.306   5.715 -0.0153  0.5643  0.8718
 8434SOL     OW36937   1.490   2.357   4.573 -0.2737  0.4342 -0.4066
 8434SOL    HW136938   1.428   2.306   4.521 -0.6196 -2.6715  3.0930
 8434SOL    HW236939   1.570   2.326   4.531  0.1617  1.6712 -0.5109
 8435SOL     OW36940   0.339   4.281   6.600  0.6742 -0.6582  0.4068
 8435SOL    HW136941   0.294   4.197   6.599  2.1410 -1.4399  0.2333
 8435SOL    HW236942   0.372   4.284   6.510 -2.9223 -1.2712 -0.9100
 8436SOL     OW36943   2.703   2.341   5.959 -0.4605 -0.0540  1.0821
 8436SOL    HW136944   2.756   2.417   5.983  1.3240 -0.2297 -2.2299
 8436SOL    HW236945   2.613   2.370   5.974 -0.2863  0.9691  0.1620
 8437SOL     OW36946   4.041   0.315  15.021  0.0486  0.9041 -0.0686
 8437SOL    HW136947   4.083   0.391  15.063 -2.6672  1.6215  1.3404
 8437SOL    HW236948   4.064   0.256  15.094 -0.3941 -1.6064 -1.9642
 8438SOL     OW36949   0.908   2.714  14.606  0.1309  0.6087  0.2036
 8438SOL    HW136950   0.817   2.697  14.632 -0.0635  0.5441 -0.5222
 8438SOL    HW236951   0.957   2.744  14.682  0.3133  1.6166 -0.3183
 8439SOL     OW36952   4.087   3.616   8.635 -0.4436  0.1051 -0.2819
 8439SOL    HW136953   4.021   3.559   8.596 -0.5828  0.2145 -0.2072
 8439SOL    HW236954   4.040   3.691   8.672 -3.4554 -1.3804 -1.0617
 8440SOL     OW36955   3.178   2.327   3.613  0.0207 -0.2671  0.2180
 8440SOL    HW136956   3.125   2.330   3.693  0.2444 -1.8966  0.4061
 8440SOL    HW236957   3.258   2.295   3.653 -0.3504 -0.4453  0.8218
 8441SOL     OW36958   2.601   3.320   6.725 -0.3511  0.4707  0.2904
 8441SOL    HW136959   2.619   3.248   6.786 -0.2108  2.3759  2.4849
 8441SOL    HW236960   2.523   3.292   6.677  0.0672 -2.6753  1.4402
 8442SOL     OW36961   1.021   1.804   0.435 -0.0363  0.2614  0.0717
 8442SOL    HW136962   1.108   1.823   0.401  0.5301  1.0232  1.9384
 8442SOL    HW236963   1.026   1.864   0.509 -1.2094 -1.0466  1.2196
 8443SOL     OW36964   0.083   3.822   7.253 -0.3322  0.3213 -1.3305
 8443SOL    HW136965   0.038   3.845   7.334 -0.4403  2.8106 -2.0772
 8443SOL    HW236966   0.075   3.727   7.264  1.0623  0.1101 -2.1453
 8444SOL     OW36967   3.726   1.571   2.088 -0.3121  0.1244  0.1451
 8444SOL    HW136968   3.670   1.585   2.164  0.0733 -0.6383  0.5659
 8444SOL    HW236969   3.712   1.645   2.029 -2.3244 -0.3065  0.0814
 8445SOL     OW36970   4.484   1.984   2.773 -0.1700 -0.2065 -0.2211
 8445SOL    HW136971   4.536   1.986   2.853  0.1860  0.1599 -0.4655
 8445SOL    HW236972   4.530   1.913   2.728  0.7791 -0.3974  1.0316
 8446SOL     OW36973   1.693   0.441   0.460 -0.7179  0.1764 -0.0148
 8446SOL    HW136974   1.785   0.448   0.437 -0.5529 -0.9389  0.3004
 8446SOL    HW236975   1.679   0.510   0.525 -2.2277  0.6047 -0.7996
 8447SOL     OW36976   3.265   1.753   7.037  0.8380  0.6523 -0.9668
 8447SOL    HW136977   3.175   1.720   7.039  0.7720  0.8738 -0.1808
 8447SOL    HW236978   3.309   1.679   6.997  0.0433  0.1964 -1.0064
 8448SOL     OW36979   2.562   0.859   5.845 -0.1782 -0.3287 -0.1888
 8448SOL    HW136980   2.639   0.903   5.809  1.0496 -1.1420  1.4358
 8448SOL    HW236981   2.521   0.934   5.887 -0.9796 -0.6711 -0.3581
 8449SOL     OW36982   2.517   2.668  12.154  0.4053 -0.3686  0.2472
 8449SOL    HW136983   2.437   2.678  12.206  1.2136 -0.0664  1.4227
 8449SOL    HW236984   2.578   2.636  12.221  1.1164 -0.1846 -0.3186
 8450SOL     OW36985   2.459   4.183   4.475 -0.1246 -0.2089 -0.1176
 8450SOL    HW136986   2.470   4.151   4.565 -2.0554 -1.6393 -0.3937
 8450SOL    HW236987   2.394   4.116   4.455  0.1864 -1.1368  1.8951
 8451SOL     OW36988   4.371   4.529   5.039 -0.2742  0.0408 -0.1868
 8451SOL    HW136989   4.383   4.451   4.986 -1.1926 -1.0791  1.2387
 8451SOL    HW236990   4.452   4.533   5.091 -1.0294 -1.2483  1.0809
 8452SOL     OW36991   1.232   1.376  11.185  0.4570 -0.3393 -0.2254
 8452SOL    HW136992   1.302   1.401  11.245  0.9377  0.4086 -1.1009
 8452SOL    HW236993   1.182   1.319  11.244  1.6491  0.1169  1.2169
 8453SOL     OW36994   0.359   3.150   8.990  0.1062  0.5039  0.1249
 8453SOL    HW136995   0.435   3.156   9.048 -0.1200  1.5063  0.3047
 8453SOL    HW236996   0.328   3.066   9.025  0.0614  0.8492  0.9114
 8454SOL     OW36997   3.831   4.269   2.884 -0.0833 -0.6692  0.2957
 8454SOL    HW136998   3.856   4.187   2.841 -0.6958  0.0885 -1.5110
 8454SOL    HW236999   3.739   4.263   2.906 -0.2969 -0.4505 -0.5433
 8455SOL     OW37000   3.663   1.320   2.445  0.0970  0.2742  0.3011
 8455SOL    HW137001   3.617   1.269   2.378 -0.5415  1.5200 -0.2229
 8455SOL    HW237002   3.731   1.258   2.467 -0.5989 -0.0092  1.6714
 8456SOL     OW37003   2.224   0.435   5.094  0.2455  0.5228  0.1317
 8456SOL    HW137004   2.195   0.361   5.147 -0.7888  0.3475 -0.6656
 8456SOL    HW237005   2.253   0.486   5.169  1.8606 -1.1745  0.6508
 8457SOL     OW37006   2.292   2.211  10.703  0.3428 -0.0320 -0.0363
 8457SOL    HW137007   2.237   2.198  10.780 -1.5865 -0.6186 -1.5356
 8457SOL    HW237008   2.373   2.239  10.747  0.1240  0.4508  0.0685
 8458SOL     OW37009   4.646   0.372   1.478 -0.0228  0.0785  0.1272
 8458SOL    HW137010   4.553   0.353   1.471 -0.5601  1.2274  4.2804
 8458SOL    HW237011   4.675   0.310   1.545 -1.6706 -2.1204 -1.1681
 8459SOL     OW37012   2.095   3.190  10.215  0.5927 -0.1342  0.0810
 8459SOL    HW137013   2.075   3.137  10.293  0.5131 -2.6867 -1.6966
 8459SOL    HW237014   2.086   3.129  10.142  0.8635 -1.7242  1.3842
 8460SOL     OW37015   3.916   2.438   4.323 -0.1436 -0.3106 -0.3574
 8460SOL    HW137016   3.894   2.411   4.234 -2.2605 -2.0461  0.7020
 8460SOL    HW237017   3.914   2.533   4.312  0.5127 -0.3140 -0.5236
 8461SOL     OW37018   4.285   4.030  15.332 -0.3287 -0.1598  0.1320
 8461SOL    HW137019   4.326   4.073  15.257 -0.9065  1.9420  1.0206
 8461SOL    HW237020   4.359   4.008  15.389  0.2693 -0.1032 -0.6140
 8462SOL     OW37021   0.511   3.811   1.490 -0.0378  0.2663 -0.2656
 8462SOL    HW137022   0.456   3.733   1.501 -0.1901  0.7215  2.2398
 8462SOL    HW237023   0.555   3.821   1.574 -0.7212 -0.5656  0.2020
 8463SOL     OW37024   2.107   2.852   7.717  0.3655 -0.8116 -0.1244
 8463SOL    HW137025   2.141   2.849   7.628 -0.2131 -0.1208 -0.3734
 8463SOL    HW237026   2.060   2.936   7.718  1.4057 -0.2367  1.3392
 8464SOL     OW37027   0.472   3.798   6.831 -0.1163 -1.0188  0.2528
 8464SOL    HW137028   0.526   3.826   6.905 -0.6208 -2.9840  1.3642
 8464SOL    HW237029   0.417   3.733   6.874  1.0148 -2.0351  0.1545
 8465SOL     OW37030   0.487   2.002   0.893 -0.6415  0.1022  0.3284
 8465SOL    HW137031   0.416   1.983   0.832 -0.3899  0.7910 -0.1844
 8465SOL    HW237032   0.450   2.016   0.980 -2.3992  0.3847 -0.4600
 8466SOL     OW37033   0.108   0.181   8.287 -0.1256  0.3886 -0.3856
 8466SOL    HW137034   0.044   0.232   8.237  0.2780  3.1199  1.8755
 8466SOL    HW237035   0.107   0.094   8.247 -2.7414  0.5607 -0.6820
 8467SOL     OW37036   3.068   2.480   2.364  0.4390  0.1643  0.0880
 8467SOL    HW137037   3.145   2.497   2.310 -0.0144 -0.9949 -0.9113
 8467SOL    HW237038   3.083   2.387   2.380 -0.8630 -0.0287  0.1462
 8468SOL     OW37039   0.444   2.743  15.138 -0.1871 -0.5537  0.1828
 8468SOL    HW137040   0.444   2.690  15.218  1.0988 -0.2926  0.3508
 8468SOL    HW237041   0.448   2.669  15.077  0.5766  0.5670 -1.1246
 8469SOL     OW37042   1.806   2.554   4.673  0.4118 -0.3639  0.1644
 8469SOL    HW137043   1.767   2.546   4.586 -0.9453 -0.0224  0.7377
 8469SOL    HW237044   1.843   2.467   4.684  0.3706 -0.3819  0.1577
 8470SOL     OW37045   0.669   0.483   3.853 -0.1665 -0.1310  0.1424
 8470SOL    HW137046   0.587   0.438   3.833  1.0431 -1.5331 -1.6447
 8470SOL    HW237047   0.637   0.573   3.852  0.0401 -0.0144  2.6102
 8471SOL     OW37048   2.322   3.479   6.934  0.2829 -0.1533  0.1439
 8471SOL    HW137049   2.302   3.531   6.856 -0.3402  1.4985  1.4128
 8471SOL    HW237050   2.405   3.436   6.915  0.5599  0.2704  0.3964
 8472SOL     OW37051   2.473   2.429   3.806 -0.1256  0.2962  0.1431
 8472SOL    HW137052   2.566   2.428   3.828 -0.0779  0.0637 -0.0754
 8472SOL    HW237053   2.443   2.367   3.873  1.1262  0.6036  0.9955
 8473SOL     OW37054   4.166   1.808   8.359 -0.1477 -0.4554  0.5404
 8473SOL    HW137055   4.103   1.879   8.350 -0.7638 -0.6891  3.0749
 8473SOL    HW237056   4.226   1.846   8.423  0.6474  3.4685 -2.5327
 8474SOL     OW37057   3.556   1.262   0.972 -0.2482 -0.0646  0.5773
 8474SOL    HW137058   3.507   1.339   0.943  1.3288  0.5297 -0.4641
 8474SOL    HW237059   3.638   1.271   0.924 -0.4538 -2.2913 -0.1508
 8475SOL     OW37060   2.359   0.101   6.088 -0.1187  0.2186 -0.3974
 8475SOL    HW137061   2.293   0.086   6.156 -0.3107 -0.9106 -0.8341
 8475SOL    HW237062   2.334   0.190   6.062 -1.7562 -0.5079 -1.2812
 8476SOL     OW37063   2.353   2.636   2.666  0.7631  0.1271 -0.5838
 8476SOL    HW137064   2.427   2.621   2.725 -0.5513 -0.8486  0.8056
 8476SOL    HW237065   2.339   2.544   2.642 -0.0017 -0.5002  2.2700
 8477SOL     OW37066   3.500   3.905   2.933  0.1182 -0.4428  0.2824
 8477SOL    HW137067   3.474   3.938   2.847  1.1493 -0.0992  0.1004
 8477SOL    HW237068   3.424   3.856   2.962 -1.5685  1.6461 -0.6322
 8478SOL     OW37069   2.297   0.215   1.838  0.3420 -0.0800  0.1097
 8478SOL    HW137070   2.246   0.202   1.758 -1.6306  0.9700  1.1676
 8478SOL    HW237071   2.383   0.184   1.812  1.3910  0.8887  2.4499
 8479SOL     OW37072   0.327   3.942  17.635 -0.3225 -0.1400 -0.1166
 8479SOL    HW137073   0.374   3.961  17.716  0.3060 -0.2762 -0.4490
 8479SOL    HW237074   0.321   4.031  17.598  1.5251 -0.0411 -0.1816
 8480SOL     OW37075   3.764   0.989  17.270  0.1481 -0.1641 -0.4202
 8480SOL    HW137076   3.836   1.047  17.245  1.3417 -0.5227  2.1558
 8480SOL    HW237077   3.718   1.054  17.323 -0.4764 -0.8289 -0.1481
 8481SOL     OW37078   3.854   2.680   4.913  0.0026 -0.1054  0.5980
 8481SOL    HW137079   3.792   2.614   4.943  2.0744 -1.8781  0.9703
 8481SOL    HW237080   3.890   2.634   4.837 -3.0943 -0.9722 -0.3066
 8482SOL     OW37081   1.738   1.125  11.435  0.4405 -0.1966 -0.1663
 8482SOL    HW137082   1.745   1.216  11.466  0.5058 -0.0549 -0.5889
 8482SOL    HW237083   1.777   1.076  11.508 -0.1850  1.7316  1.4709
 8483SOL     OW37084   3.730   4.280  15.957 -0.2040 -0.3072 -0.0453
 8483SOL    HW137085   3.656   4.321  15.912 -0.7107 -1.6759 -0.4321
 8483SOL    HW237086   3.748   4.209  15.896 -0.4129 -0.6132  0.2496
 8484SOL     OW37087   1.802   1.795   1.381  0.5677  0.0806  0.3962
 8484SOL    HW137088   1.741   1.721   1.382  0.5930  0.0557 -0.2236
 8484SOL    HW237089   1.778   1.839   1.463 -1.1225 -0.8389  0.3911
 8485SOL     OW37090   1.193   3.729   7.828 -0.5748  0.1170  0.5339
 8485SOL    HW137091   1.129   3.677   7.778 -0.6047 -0.3088  1.0132
 8485SOL    HW237092   1.214   3.663   7.894  2.2126  3.1131  2.6203
 8486SOL     OW37093   2.846   0.650   5.076  0.0703 -0.1511  0.1953
 8486SOL    HW137094   2.757   0.634   5.046  0.2838  1.0290 -1.0661
 8486SOL    HW237095   2.881   0.684   4.993  1.0369 -1.0222  0.2444
 8487SOL     OW37096   0.413   1.286   5.957 -0.7882 -0.0855 -0.0349
 8487SOL    HW137097   0.502   1.254   5.969 -1.0664 -0.4113  1.2237
 8487SOL    HW237098   0.384   1.234   5.882 -2.5705 -0.4604  0.9087
 8488SOL     OW37099   2.707   3.891   9.446  0.2967  0.3329  0.4201
 8488SOL    HW137100   2.758   3.968   9.421 -1.3427  1.1283 -0.4991
 8488SOL    HW237101   2.774   3.823   9.450 -0.8505 -1.0744 -3.7028
 8489SOL     OW37102   3.688   2.522  16.989  0.2570  0.2656  0.0159
 8489SOL    HW137103   3.675   2.614  17.014 -0.7098 -0.5872  2.6365
 8489SOL    HW237104   3.783   2.531  16.997  0.1794  1.8531 -0.7330
 8490SOL     OW37105   1.873   2.545  14.257  0.2329 -0.1292 -0.0241
 8490SOL    HW137106   1.829   2.617  14.302  3.2463  0.2434  2.3446
 8490SOL    HW237107   1.924   2.513  14.332  0.5159 -2.2631 -1.1330
 8491SOL     OW37108   3.978   2.490   2.695 -0.1864 -0.5402  0.0197
 8491SOL    HW137109   3.996   2.584   2.690  0.3866 -0.4836  2.8125
 8491SOL    HW237110   3.915   2.488   2.767 -0.2571 -1.0511 -0.0575
 8492SOL     OW37111   4.665   0.084  11.277  0.0663  0.4459  0.6520
 8492SOL    HW137112   4.605   0.153  11.308  0.7218  0.8036  1.1111
 8492SOL    HW237113   4.636   0.011  11.332  2.2043 -0.3460  0.7102
 8493SOL     OW37114   3.026   2.442   1.787  0.2599 -0.1372  0.3853
 8493SOL    HW137115   2.978   2.363   1.759 -0.8729  0.9480 -0.7268
 8493SOL    HW237116   2.980   2.461   1.869 -1.0227 -2.1142  0.1376
 8494SOL     OW37117   2.537   0.248   5.179  0.0727  0.0951 -0.1402
 8494SOL    HW137118   2.527   0.159   5.213  1.3233 -0.3197 -0.8748
 8494SOL    HW237119   2.537   0.236   5.084  2.0042  0.3796 -0.1686
 8495SOL     OW37120   2.847   2.104   6.270 -0.2715 -0.2052  0.2157
 8495SOL    HW137121   2.765   2.101   6.321 -0.3491  2.5886  0.2881
 8495SOL    HW237122   2.872   2.016   6.297  0.7554 -0.0757 -0.3501
 8496SOL     OW37123   0.127   4.685   8.149 -0.4225  0.5001  0.3779
 8496SOL    HW137124   0.090   4.729   8.073  0.9685 -1.0793 -1.2003
 8496SOL    HW237125   0.073   4.606   8.155 -0.5344  0.5417 -0.1253
 8497SOL     OW37126   0.135   4.730   3.978  0.6091 -0.3501  0.2833
 8497SOL    HW137127   0.144   4.642   4.013  0.4166 -0.7499 -0.6814
 8497SOL    HW237128   0.040   4.741   3.982  0.4840 -1.7825  1.1817
 8498SOL     OW37129   1.946   4.083   6.600 -0.1440 -0.5907  0.3430
 8498SOL    HW137130   1.965   4.150   6.666  0.0380  1.2377 -1.5620
 8498SOL    HW237131   1.955   3.999   6.646  2.5967 -0.2560  0.4538
 8499SOL     OW37132   2.812   1.645  14.951  0.3080  0.3934  0.2923
 8499SOL    HW137133   2.841   1.652  15.042 -1.5744  1.4579  0.8177
 8499SOL    HW237134   2.827   1.732  14.916 -0.1110 -0.1029 -1.1237
 8500SOL     OW37135   1.111   0.048   8.589  0.8885 -0.4349  0.5644
 8500SOL    HW137136   1.172   4.734   8.543  1.8248 -0.5200  1.9074
 8500SOL    HW237137   1.028   0.006   8.564  0.0277 -0.7186  3.8913
 8501SOL     OW37138   1.104   1.390   6.911  0.0274 -0.6636  0.2107
 8501SOL    HW137139   1.174   1.400   6.977 -1.3108  1.1681  1.3652
 8501SOL    HW237140   1.090   1.296   6.920  0.3287 -1.1220 -4.0876
 8502SOL     OW37141   1.296   0.183  14.081  0.6038 -0.6575  0.0075
 8502SOL    HW137142   1.349   0.104  14.080  0.2663 -0.8890  0.2178
 8502SOL    HW237143   1.350   0.231  14.144 -0.4988 -0.3157  0.7102
 8503SOL     OW37144   4.430   0.811   7.945  0.4253  0.4485 -0.1406
 8503SOL    HW137145   4.454   0.884   8.001  1.9434 -0.2606  0.1523
 8503SOL    HW237146   4.355   0.774   7.992  0.1244  0.0838 -0.8945
 8504SOL     OW37147   2.296   1.107   9.190  0.0210 -0.6635  0.0579
 8504SOL    HW137148   2.263   1.143   9.108 -0.8988  2.0366  1.6377
 8504SOL    HW237149   2.390   1.121   9.176 -0.6033  2.0461 -1.4828
 8505SOL     OW37150   2.896   3.960  13.540 -0.2823  0.1068  0.0619
 8505SOL    HW137151   2.870   4.049  13.516  0.0337 -0.5069 -2.6395
 8505SOL    HW237152   2.832   3.940  13.609  0.0265  0.1055  0.3445
 8506SOL     OW37153   1.260   2.013   2.282  0.0120  0.4188 -0.2870
 8506SOL    HW137154   1.258   1.921   2.308 -0.3653 -0.1906 -2.5041
 8506SOL    HW237155   1.302   2.052   2.359 -2.3934  4.3874 -0.9716
 8507SOL     OW37156   0.588   2.656  11.961 -0.0111 -0.7519  0.2974
 8507SOL    HW137157   0.601   2.563  11.978 -1.3104 -1.4165 -2.3821
 8507SOL    HW237158   0.579   2.695  12.048  3.1403  0.8476 -0.1132
 8508SOL     OW37159   0.083   1.946   4.440 -0.1737  0.9533 -0.4410
 8508SOL    HW137160   0.049   2.033   4.461 -1.3285  0.5063 -0.4482
 8508SOL    HW237161   0.083   1.951   4.345 -2.3131  0.0708 -0.4804
 8509SOL     OW37162   2.457   3.265   8.686  0.6485 -0.0569 -0.4520
 8509SOL    HW137163   2.544   3.241   8.718 -0.5650 -2.1510  1.2667
 8509SOL    HW237164   2.399   3.243   8.758 -0.9310  2.8287 -0.8281
 8510SOL     OW37165   2.695   3.030   8.174  0.3117  0.1331  0.0216
 8510SOL    HW137166   2.629   3.002   8.238  0.2839 -2.5312 -1.1586
 8510SOL    HW237167   2.749   2.951   8.181 -0.7832 -0.4755  1.7006
 8511SOL     OW37168   0.442   1.219   6.864  0.0086 -0.0806  0.3123
 8511SOL    HW137169   0.399   1.140   6.831  0.9119  0.0120 -1.1098
 8511SOL    HW237170   0.404   1.231   6.951  0.4846  0.5071  0.4439
 8512SOL     OW37171   0.782   0.613   2.640  0.0789 -0.4661  0.0808
 8512SOL    HW137172   0.808   0.569   2.559  0.6216  1.1278 -0.6014
 8512SOL    HW237173   0.745   0.692   2.601  0.5507 -1.1431 -1.7284
 8513SOL     OW37174   0.250   3.754  15.223  0.4140  0.6144 -1.4375
 8513SOL    HW137175   0.273   3.789  15.309 -0.0504 -1.1553 -0.5822
 8513SOL    HW237176   0.320   3.699  15.189  0.4193  1.6750 -3.1287
 8514SOL     OW37177   2.996   4.261   8.529  0.3924 -0.2707  0.3901
 8514SOL    HW137178   2.955   4.347   8.516  1.2274  0.2721  1.3183
 8514SOL    HW237179   2.961   4.202   8.463  1.3373 -0.1034 -0.2558
 8515SOL     OW37180   0.306   4.097   1.351 -0.4970  0.6432  0.9920
 8515SOL    HW137181   0.274   4.024   1.403 -1.2747  0.3645  0.1126
 8515SOL    HW237182   0.290   4.165   1.417  2.5686  1.2644  1.1279
 8516SOL     OW37183   2.276   1.253  10.786 -0.0917 -0.3795 -0.4345
 8516SOL    HW137184   2.295   1.159  10.783 -2.0970 -0.7691 -1.0344
 8516SOL    HW237185   2.181   1.245  10.799 -0.0376  0.8107  0.6670
 8517SOL     OW37186   0.245   0.330  17.567  0.0652  0.1555  0.5030
 8517SOL    HW137187   0.230   0.355  17.475 -1.3212  4.0765  1.7843
 8517SOL    HW237188   0.175   0.266  17.572  1.1577 -1.1446 -0.8192
 8518SOL     OW37189   2.731   3.463   2.506 -0.4404 -0.4927 -0.1186
 8518SOL    HW137190   2.651   3.501   2.543  0.4769  0.8146  0.5399
 8518SOL    HW237191   2.691   3.393   2.455  0.0990 -2.3947  2.1045
 8519SOL     OW37192   4.416   4.229  10.519 -0.5636 -0.1180 -0.1778
 8519SOL    HW137193   4.390   4.236  10.611  0.3196 -0.4094  0.0904
 8519SOL    HW237194   4.488   4.167  10.527 -1.5036 -1.2481 -0.4388
 8520SOL     OW37195   4.522   3.982   6.319  0.0079  0.1844 -0.3254
 8520SOL    HW137196   4.580   3.947   6.387  0.4857  0.1402 -0.7539
 8520SOL    HW237197   4.575   4.048   6.275 -0.0054 -1.2290 -2.5201
 8521SOL     OW37198   3.364   4.130   8.797 -0.0112  0.0106 -0.1394
 8521SOL    HW137199   3.340   4.186   8.723 -0.2149 -2.3025 -1.8525
 8521SOL    HW237200   3.342   4.043   8.763  1.8871 -0.1397 -1.0092
 8522SOL     OW37201   0.142   1.660   9.237 -0.1863 -0.1655 -0.0683
 8522SOL    HW137202   0.213   1.689   9.180 -0.2983  0.8902  0.3297
 8522SOL    HW237203   0.185   1.577   9.256  0.4185  0.5985  1.9498
 8523SOL     OW37204   3.465   2.420  17.112 -0.0525 -0.5063  0.4860
 8523SOL    HW137205   3.556   2.430  17.084  0.4809  0.3906  2.5313
 8523SOL    HW237206   3.465   2.472  17.192  2.0004  1.3745 -0.7343
 8524SOL     OW37207   3.591   3.426   4.348 -0.1649 -0.0701  0.3052
 8524SOL    HW137208   3.522   3.448   4.411  0.7070  0.2331  1.1502
 8524SOL    HW237209   3.543   3.414   4.266 -2.7030 -1.7826  2.0509
 8525SOL     OW37210   3.542   3.804   6.173 -0.1136 -0.2527  0.5107
 8525SOL    HW137211   3.612   3.756   6.218 -0.7961  0.0001  1.8270
 8525SOL    HW237212   3.581   3.813   6.086 -1.0066  0.2957  0.1724
 8526SOL     OW37213   0.648   0.284   4.689 -0.1356 -0.4009 -0.5132
 8526SOL    HW137214   0.701   0.250   4.617  1.8015 -0.1373  0.7782
 8526SOL    HW237215   0.562   0.281   4.648 -0.1361 -0.5572 -0.4985
 8527SOL     OW37216   4.233   0.185   9.590 -0.4149 -0.4998 -0.0896
 8527SOL    HW137217   4.194   0.213   9.507 -0.2109  1.7310  0.5746
 8527SOL    HW237218   4.228   0.093   9.562  0.3724 -0.7658  0.6734
 8528SOL     OW37219   0.561   2.786   6.646 -0.8519 -1.0970 -0.3778
 8528SOL    HW137220   0.624   2.804   6.576  0.1489 -1.0031  0.5372
 8528SOL    HW237221   0.599   2.825   6.726 -0.1085 -1.6578 -0.4590
 8529SOL     OW37222   1.389   0.869   3.948  0.3693 -0.3613 -0.0602
 8529SOL    HW137223   1.364   0.793   3.896 -0.3079 -0.2508  0.1036
 8529SOL    HW237224   1.304   0.903   3.973  0.9174  1.0176 -0.0704
 8530SOL     OW37225   4.620   3.995  11.713  1.2002  0.1617 -0.2507
 8530SOL    HW137226   4.596   4.046  11.635  0.1419  0.6497  0.3903
 8530SOL    HW237227   4.713   4.015  11.721  0.8889  1.9447 -1.0909
 8531SOL     OW37228   3.485   4.095  13.994  0.0936  0.0516  0.2941
 8531SOL    HW137229   3.469   4.181  13.955  0.5320 -0.5896 -1.2974
 8531SOL    HW237230   3.566   4.062  13.956 -0.5632 -1.3443  0.1227
 8532SOL     OW37231   3.418   4.498  13.683  0.0426  0.7258  0.1729
 8532SOL    HW137232   3.447   4.566  13.622 -1.1237  1.7126  0.7356
 8532SOL    HW237233   3.329   4.478  13.656  0.2872 -2.9132  1.9638
 8533SOL     OW37234   1.765   0.085   7.345 -0.1905  0.7879 -0.1239
 8533SOL    HW137235   1.737   0.168   7.385  0.6243  0.6376  0.7784
 8533SOL    HW237236   1.705   0.020   7.382  1.2950  0.6208  1.9926
 8534SOL     OW37237   3.355   0.141  10.465  0.2802  0.0271 -0.4869
 8534SOL    HW137238   3.407   0.161  10.542  0.9402  2.4092 -1.5315
 8534SOL    HW237239   3.390   0.058  10.432 -0.2069 -0.5257  0.4012
 8535SOL     OW37240   0.300   1.892   6.344 -0.0172  0.3345 -0.1648
 8535SOL    HW137241   0.264   1.931   6.423 -0.5459  0.4088 -0.4373
 8535SOL    HW237242   0.393   1.905   6.356  0.3977 -1.6676 -1.1569
 8536SOL     OW37243   2.875   2.867   8.819 -0.5304  0.4801 -0.4434
 8536SOL    HW137244   2.926   2.948   8.824 -0.0606  0.1201  0.5804
 8536SOL    HW237245   2.831   2.878   8.735 -1.3699  1.1153  0.0852
 8537SOL     OW37246   1.559   0.078   6.177  0.5080  0.2086 -0.0823
 8537SOL    HW137247   1.598   4.735   6.156 -0.6540  0.4399 -3.1597
 8537SOL    HW237248   1.585   0.120   6.095  0.3264 -1.7951 -1.1742
 8538SOL     OW37249   3.089   3.728   2.317 -0.0751  0.0547 -0.2198
 8538SOL    HW137250   3.029   3.676   2.263  1.8783 -1.5678 -0.8223
 8538SOL    HW237251   3.124   3.796   2.260  0.4178 -0.1591 -0.1676
 8539SOL     OW37252   2.073   0.180   5.963  0.0306 -0.2475 -0.2229
 8539SOL    HW137253   2.050   0.108   6.022  4.1050 -0.8575  0.5652
 8539SOL    HW237254   2.098   0.241   6.033  0.0273 -1.4731  0.8408
 8540SOL     OW37255   3.041   3.468   7.195 -0.6926 -0.2521  0.2270
 8540SOL    HW137256   3.016   3.549   7.151 -0.2415  0.2005  0.8076
 8540SOL    HW237257   2.958   3.422   7.185 -0.1557 -1.4421  1.3188
 8541SOL     OW37258   3.241   2.898  15.988 -0.1803 -0.2597 -0.3868
 8541SOL    HW137259   3.299   2.856  15.925  1.4132 -1.0837  1.6460
 8541SOL    HW237260   3.233   2.984  15.947 -0.0941 -0.0905 -0.0533
 8542SOL     OW37261   4.345   2.993   6.560 -0.0949 -0.9420  0.0655
 8542SOL    HW137262   4.345   2.948   6.476  2.7419 -1.7860  0.5221
 8542SOL    HW237263   4.264   3.045   6.563  0.5430 -0.0096  1.0958
 8543SOL     OW37264   3.129   2.036   4.671 -0.2352 -0.0181 -0.2129
 8543SOL    HW137265   3.047   2.085   4.671  0.7663  1.6310  0.9358
 8543SOL    HW237266   3.189   2.077   4.733 -0.7064  1.7297 -0.9189
 8544SOL     OW37267   1.540   3.499   4.576  0.2409 -0.2195 -0.2585
 8544SOL    HW137268   1.621   3.448   4.575  1.0664  0.9794  3.4331
 8544SOL    HW237269   1.543   3.531   4.667 -1.4882 -0.9839  0.0687
 8545SOL     OW37270   1.022   2.230  15.398 -0.1675 -0.0645 -0.6281
 8545SOL    HW137271   1.105   2.204  15.438 -0.2939  2.3065  1.1793
 8545SOL    HW237272   0.968   2.239  15.477 -0.5557  3.9772 -1.3529
 8546SOL     OW37273   0.338   0.150   3.840 -0.5842  0.2934 -0.3102
 8546SOL    HW137274   0.291   0.092   3.900 -2.2267  1.3182 -0.6167
 8546SOL    HW237275   0.424   0.146   3.881 -0.4544 -0.4871 -0.6574
 8547SOL     OW37276   0.480   4.423  16.013  0.0509  0.3557 -0.4384
 8547SOL    HW137277   0.476   4.403  16.106  2.0815 -1.6018 -0.7754
 8547SOL    HW237278   0.462   4.338  15.973 -0.5972  0.8342 -1.1678
 8548SOL     OW37279   1.947   1.615   8.941  0.5035  0.2553  0.1671
 8548SOL    HW137280   1.854   1.619   8.965  0.4189 -0.4506 -0.0356
 8548SOL    HW237281   1.941   1.575   8.854  1.1011  0.4904  0.0204
 8549SOL     OW37282   3.977   2.101  12.404 -0.3060  0.1398 -0.5328
 8549SOL    HW137283   3.974   2.182  12.455  3.0820  0.6753 -1.2218
 8549SOL    HW237284   3.940   2.038  12.467 -0.7226 -3.1263 -4.0749
 8550SOL     OW37285   0.531   0.688   1.622 -0.1306  0.7980 -0.4526
 8550SOL    HW137286   0.553   0.714   1.712 -0.3828 -0.0724 -0.1399
 8550SOL    HW237287   0.437   0.677   1.633  0.3604 -1.7458  1.1355
 8551SOL     OW37288   1.818   0.818   8.794 -0.0767 -0.0442 -0.1201
 8551SOL    HW137289   1.878   0.854   8.728  1.1706  3.4905  2.8750
 8551SOL    HW237290   1.788   0.743   8.744 -0.7733  0.8576 -1.0453
 8552SOL     OW37291   3.609   3.112  16.645 -0.3417  0.1240 -0.0669
 8552SOL    HW137292   3.644   3.195  16.676  1.2773 -0.1634 -1.1050
 8552SOL    HW237293   3.518   3.138  16.638 -0.3308  0.1302 -0.1900
 8553SOL     OW37294   1.743   0.641   1.827 -0.2220  0.4349  0.3214
 8553SOL    HW137295   1.713   0.709   1.888 -1.8189 -0.0134  0.0307
 8553SOL    HW237296   1.789   0.588   1.892 -0.1900 -1.8711 -1.6228
 8554SOL     OW37297   1.767   0.620  15.539 -0.3994 -0.4053 -0.2905
 8554SOL    HW137298   1.858   0.594  15.549 -1.2447 -2.8843  0.8374
 8554SOL    HW237299   1.725   0.549  15.491  1.1830 -0.8118 -1.0792
 8555SOL     OW37300   2.016   3.992  17.109  0.3709  0.0856 -0.2590
 8555SOL    HW137301   2.021   4.066  17.169 -0.7425 -2.1180  2.5881
 8555SOL    HW237302   1.971   4.037  17.038 -0.3197 -3.7066 -2.2212
 8556SOL     OW37303   1.284   3.747  15.090 -0.1297  0.1221  0.3242
 8556SOL    HW137304   1.347   3.814  15.116 -1.5251  1.1146  1.1224
 8556SOL    HW237305   1.205   3.801  15.100  1.0372  2.0522 -0.9186
 8557SOL     OW37306   3.279   1.228   4.119 -0.0917 -0.3886 -0.1580
 8557SOL    HW137307   3.310   1.317   4.104  0.5715 -0.5422  0.3118
 8557SOL    HW237308   3.303   1.181   4.039 -0.4373 -1.9383  0.6577
 8558SOL     OW37309   4.722   1.300   7.366 -0.4627 -0.1874  0.2104
 8558SOL    HW137310   4.692   1.382   7.327  0.5393 -0.4027 -1.0333
 8558SOL    HW237311   4.720   1.321   7.459 -0.0624  0.6378  0.0370
 8559SOL     OW37312   3.709   4.469   0.956  0.0108 -0.0963 -0.3373
 8559SOL    HW137313   3.773   4.536   0.981 -2.5276  1.1652  2.7220
 8559SOL    HW237314   3.641   4.490   1.019  0.9620 -2.5563  1.4765
 8560SOL     OW37315   4.161   3.737   3.150  0.1438  0.4837  0.3621
 8560SOL    HW137316   4.100   3.759   3.080  1.0478 -0.0532 -0.5991
 8560SOL    HW237317   4.227   3.804   3.131  0.9870 -1.0614 -2.1911
 8561SOL     OW37318   0.243   0.473   8.101 -0.1813  0.2217  0.0834
 8561SOL    HW137319   0.285   0.555   8.123  0.2985  0.6139 -2.2772
 8561SOL    HW237320   0.153   0.505   8.098 -1.4117 -3.3782 -3.0418
 8562SOL     OW37321   2.333   1.572   1.895  0.0309  0.3071  0.0443
 8562SOL    HW137322   2.275   1.584   1.819 -0.5734 -0.2603  0.4130
 8562SOL    HW237323   2.359   1.657   1.928 -0.7814 -0.0430  1.5876
 8563SOL     OW37324   2.418   1.099   5.876  0.3275  0.3869  0.0456
 8563SOL    HW137325   2.464   1.183   5.877 -1.1778  1.2060 -0.6203
 8563SOL    HW237326   2.358   1.104   5.802 -0.8371  1.5494  1.0511
 8564SOL     OW37327   0.605   0.748   3.907  0.3382  0.2340  0.4682
 8564SOL    HW137328   0.535   0.812   3.897  0.5201  0.5826  1.4262
 8564SOL    HW237329   0.681   0.799   3.936 -0.5939  1.2195  1.1903
 8565SOL     OW37330   0.345   2.881  16.271 -0.2511  0.3676  0.3663
 8565SOL    HW137331   0.332   2.825  16.347 -0.4249  0.4312  0.3825
 8565SOL    HW237332   0.361   2.965  16.313 -0.5950 -0.3500  1.9406
 8566SOL     OW37333   3.405   1.998   9.472 -0.2595  0.1103  0.0749
 8566SOL    HW137334   3.358   2.082   9.469  0.5088  0.5225 -0.3523
 8566SOL    HW237335   3.413   2.000   9.567  1.8441 -0.4790 -0.0962
 8567SOL     OW37336   3.076   0.910  16.910  0.4987 -0.2588  0.0227
 8567SOL    HW137337   2.981   0.901  16.906  0.7354 -2.7776 -0.3324
 8567SOL    HW237338   3.099   0.921  16.817  1.2778  0.3325  0.2824
 8568SOL     OW37339   1.143   2.946   2.781 -0.5706  0.1098  0.1260
 8568SOL    HW137340   1.122   3.006   2.710 -0.8009  0.0977  0.1846
 8568SOL    HW237341   1.206   2.886   2.739 -1.0776  0.0124 -0.4983
 8569SOL     OW37342   2.365   2.206   7.792  0.3659  0.1912 -0.0516
 8569SOL    HW137343   2.362   2.128   7.736  1.6044 -1.0811  1.6498
 8569SOL    HW237344   2.295   2.261   7.757 -0.7179 -0.6457  0.7780
 8570SOL     OW37345   0.586   1.795   2.092  0.4270 -0.3381 -0.6715
 8570SOL    HW137346   0.645   1.791   2.167  0.7940 -2.8977 -1.0995
 8570SOL    HW237347   0.515   1.824   2.149 -0.5439  0.8016 -2.5002
 8571SOL     OW37348   3.580   1.106   8.171  0.0957  0.2362 -0.3734
 8571SOL    HW137349   3.600   1.148   8.087  0.9970 -1.0436 -0.7960
 8571SOL    HW237350   3.516   1.169   8.206  0.1977 -0.4123  0.9582
 8572SOL     OW37351   2.406   4.440  12.181  0.0291  0.0098 -0.0146
 8572SOL    HW137352   2.479   4.400  12.228  2.6412  1.7972 -2.4779
 8572SOL    HW237353   2.442   4.524  12.150 -0.2560  0.8413  1.8514
 8573SOL     OW37354   4.376   1.419   2.608 -0.1389  0.1358 -0.3759
 8573SOL    HW137355   4.359   1.426   2.702 -0.6667  1.2642 -0.5534
 8573SOL    HW237356   4.447   1.355   2.616  1.1835  1.7123  0.2003
 8574SOL     OW37357   1.798   3.308   7.660 -0.0859  0.3071 -0.3936
 8574SOL    HW137358   1.767   3.335   7.573 -0.7564  0.1617 -0.1978
 8574SOL    HW237359   1.723   3.289   7.716  0.6273  1.2836  0.9040
 8575SOL     OW37360   0.034   0.725  11.316 -0.0304  0.1461  0.0787
 8575SOL    HW137361   0.090   0.683  11.251  1.4431  3.6503 -0.9433
 8575SOL    HW237362   4.712   0.655  11.320  0.2133 -0.1244 -0.6445
 8576SOL     OW37363   4.015   0.668   9.076 -0.0636  0.0749 -0.3397
 8576SOL    HW137364   3.962   0.747   9.067  1.2109  1.2798  2.8286
 8576SOL    HW237365   4.096   0.692   9.031 -0.1974 -0.3816 -0.8301
 8577SOL     OW37366   1.999   0.864  16.159 -0.0925  0.0357 -0.1577
 8577SOL    HW137367   2.040   0.803  16.098 -0.6578 -0.0330 -0.4691
 8577SOL    HW237368   1.998   0.943  16.105 -0.2265 -0.0709 -0.3106
 8578SOL     OW37369   3.674   4.091   3.690  0.2768 -0.1441  0.8855
 8578SOL    HW137370   3.624   4.124   3.764  0.8932 -0.8961  1.6436
 8578SOL    HW237371   3.638   4.138   3.614 -1.3524 -1.4861  0.8273
 8579SOL     OW37372   2.031   1.097  14.548 -0.9865 -0.1100  0.0875
 8579SOL    HW137373   2.044   1.186  14.582  0.3649 -0.4853  0.5467
 8579SOL    HW237374   2.032   1.110  14.453  1.1910  0.6157  0.2170
 8580SOL     OW37375   0.210   3.536   5.318 -0.2797 -0.1588  0.1635
 8580SOL    HW137376   0.273   3.536   5.246  0.7515  3.3173  1.0538
 8580SOL    HW237377   0.259   3.573   5.391 -0.7274  1.4015 -0.3318
 8581SOL     OW37378   2.845   0.489   3.714  0.5289 -0.4033 -0.4671
 8581SOL    HW137379   2.861   0.566   3.659 -0.4442  0.5711  0.6079
 8581SOL    HW237380   2.772   0.450   3.667 -0.5975  1.3987 -0.2473
 8582SOL     OW37381   2.261   3.565  16.128 -0.2301  0.8702  0.4773
 8582SOL    HW137382   2.324   3.566  16.056 -0.0450  0.0969  0.6368
 8582SOL    HW237383   2.309   3.614  16.195 -1.5142  1.2255  1.1427
 8583SOL     OW37384   1.446   3.716   2.874  0.1237 -0.2852 -0.5711
 8583SOL    HW137385   1.420   3.808   2.867 -2.1311 -0.6576  2.5322
 8583SOL    HW237386   1.389   3.702   2.950  0.0639 -0.0052 -0.5655
 8584SOL     OW37387   0.100   1.543   4.004  0.1893  0.0866  0.3995
 8584SOL    HW137388   0.107   1.469   4.066  1.0323  1.2253  1.6612
 8584SOL    HW237389   0.058   1.502   3.929 -0.8809 -1.4050  1.7964
 8585SOL     OW37390   2.196   1.000   8.259 -0.4490 -0.4051 -0.0890
 8585SOL    HW137391   2.279   0.997   8.306 -0.6469  0.5045  0.3269
 8585SOL    HW237392   2.220   1.069   8.196 -0.6793 -0.6836 -0.4830
 8586SOL     OW37393   1.585   1.628  11.674 -0.3123  0.0851  0.2577
 8586SOL    HW137394   1.604   1.711  11.717 -2.0170 -0.1983  1.5619
 8586SOL    HW237395   1.646   1.563  11.708  0.1225  1.0500  1.3154
 8587SOL     OW37396   3.373   0.805   2.443  0.6241 -0.8136 -0.3126
 8587SOL    HW137397   3.414   0.728   2.403  3.5344  1.3316 -1.4838
 8587SOL    HW237398   3.379   0.866   2.369 -0.6197 -0.0352  0.2367
 8588SOL     OW37399   4.321   1.149   8.002  0.6279  0.4261  0.1721
 8588SOL    HW137400   4.414   1.125   8.005  0.3931 -0.5697 -0.6550
 8588SOL    HW237401   4.322   1.220   7.938  1.1661 -1.0983 -1.5067
 8589SOL     OW37402   0.167   3.748   6.310 -0.3174 -0.0306 -0.0559
 8589SOL    HW137403   0.093   3.696   6.280 -0.9620  1.1183 -0.4500
 8589SOL    HW237404   0.137   3.759   6.400 -1.0968 -1.4023 -0.1422
 8590SOL     OW37405   1.288   3.806   3.578 -0.4333 -0.5701 -0.1713
 8590SOL    HW137406   1.337   3.742   3.525  3.8217  0.5537  2.4713
 8590SOL    HW237407   1.340   3.886   3.586 -1.0342 -0.1918 -0.0737
 8591SOL     OW37408   3.002   0.292   5.469 -0.0058  0.4273  0.0899
 8591SOL    HW137409   2.922   0.239   5.473 -1.0694  2.1855  2.2135
 8591SOL    HW237410   3.052   0.271   5.390 -0.2374  3.4461 -0.8427
 8592SOL     OW37411   2.684   0.641  16.773 -0.0161 -0.4244 -0.5123
 8592SOL    HW137412   2.675   0.677  16.861  3.8489 -1.6113  0.3724
 8592SOL    HW237413   2.648   0.711  16.719 -0.7271 -0.9894 -0.7699
 8593SOL     OW37414   2.686   2.145  14.111 -0.1682 -0.4163  0.3718
 8593SOL    HW137415   2.677   2.151  14.016 -0.2797  0.3226  0.4255
 8593SOL    HW237416   2.758   2.086  14.132 -0.6770 -0.2664  2.5510
 8594SOL     OW37417   0.155   1.830  14.883  0.1048  0.3340 -0.4334
 8594SOL    HW137418   0.138   1.778  14.961 -1.1179 -0.3764 -1.1595
 8594SOL    HW237419   0.251   1.836  14.881  0.1314  0.7433  3.5077
 8595SOL     OW37420   3.705   2.391   2.316  0.0329  0.1124  0.2412
 8595SOL    HW137421   3.657   2.407   2.396 -0.0685  0.7519  0.0521
 8595SOL    HW237422   3.677   2.300   2.314 -0.0961  0.1495  0.4242
 8596SOL     OW37423   2.142   1.830   2.366  1.0205 -0.4811  0.3736
 8596SOL    HW137424   2.154   1.823   2.461 -1.1614 -0.5574  0.6512
 8596SOL    HW237425   2.230   1.803   2.342  0.8541 -0.6565 -0.0433
 8597SOL     OW37426   0.338   0.692   4.879 -0.1401 -0.0577  0.1262
 8597SOL    HW137427   0.392   0.616   4.900 -0.2886  0.2650  1.6060
 8597SOL    HW237428   0.252   0.663   4.911  0.3323 -0.8160  0.6845
 8598SOL     OW37429   4.298   1.827   5.735  0.3603 -0.1612  0.5996
 8598SOL    HW137430   4.348   1.770   5.794 -0.6100  0.3271  1.8891
 8598SOL    HW237431   4.264   1.890   5.798  1.0890  0.5008  0.3407
 8599SOL     OW37432   4.117   2.493   0.963 -0.1767 -0.3943  1.1751
 8599SOL    HW137433   4.085   2.557   1.027  1.6302  2.3993 -0.6710
 8599SOL    HW237434   4.054   2.423   0.976  0.1193 -1.0228 -0.8011
 8600SOL     OW37435   1.950   1.462   8.699  0.3983  0.1906 -0.0042
 8600SOL    HW137436   1.943   1.388   8.759 -0.2995 -0.6573 -1.1238
 8600SOL    HW237437   1.902   1.424   8.626 -0.4613 -0.3067  0.8177
 8601SOL     OW37438   1.718   4.373   3.359  0.3216  0.2585  0.3903
 8601SOL    HW137439   1.673   4.423   3.428 -1.0427 -1.9319  1.0686
 8601SOL    HW237440   1.788   4.339   3.415  0.1502  1.0314  1.0895
 8602SOL     OW37441   1.529   4.488   8.362  0.0387 -0.3868  0.4931
 8602SOL    HW137442   1.469   4.445   8.423  0.0571 -0.5468  0.3994
 8602SOL    HW237443   1.471   4.516   8.291  0.0487 -0.2815  0.5272
 8603SOL     OW37444   4.331   3.854   6.610 -0.1375  0.4652 -0.3076
 8603SOL    HW137445   4.290   3.795   6.672  0.1159  0.1165 -0.4710
 8603SOL    HW237446   4.352   3.924   6.672  0.4450  0.3691 -0.3953
 8604SOL     OW37447   0.212   1.088   1.839  0.1533  0.7379  0.4803
 8604SOL    HW137448   0.134   1.141   1.853 -0.9817 -0.6666 -0.5569
 8604SOL    HW237449   0.201   1.050   1.752  1.1867  0.3323  0.5254
 8605SOL     OW37450   4.677   2.173   3.677 -0.0093 -0.1526  0.1727
 8605SOL    HW137451   0.012   2.117   3.672  0.1805  0.2366 -1.4434
 8605SOL    HW237452   4.637   2.170   3.590 -0.8424  0.0616  0.5453
 8606SOL     OW37453   0.094   0.887  14.020 -0.1699  0.4272 -0.0263
 8606SOL    HW137454   0.163   0.874  13.955  1.0725  1.6932  1.0352
 8606SOL    HW237455   0.038   0.957  13.988  1.0761  0.8168 -1.3513
 8607SOL     OW37456   0.643   2.383   9.634  0.9638 -0.4158 -0.0846
 8607SOL    HW137457   0.686   2.309   9.677 -1.5033 -0.6825  1.8731
 8607SOL    HW237458   0.605   2.427   9.709 -0.5481 -1.8975  0.0231
 8608SOL     OW37459   2.980   0.812  10.667  0.4979 -0.0249  0.1761
 8608SOL    HW137460   2.888   0.817  10.644  0.8485  0.7918 -1.0251
 8608SOL    HW237461   3.003   0.745  10.602  1.1320  1.9076 -1.5890
 8609SOL     OW37462   1.383   0.475   4.114 -0.2203 -0.0788  0.6429
 8609SOL    HW137463   1.320   0.460   4.185 -1.0981 -2.5766 -0.6554
 8609SOL    HW237464   1.321   0.485   4.042 -1.0478  0.8531  1.4962
 8610SOL     OW37465   0.729   0.802   3.547 -0.5324  0.3522  0.2175
 8610SOL    HW137466   0.646   0.828   3.586 -0.2541 -1.2708  1.8793
 8610SOL    HW237467   0.786   0.790   3.623  0.3049 -1.5602 -0.7236
 8611SOL     OW37468   3.120   2.494   6.832  0.1070 -0.1521  0.6065
 8611SOL    HW137469   3.025   2.498   6.819  0.0638 -1.4924  0.5338
 8611SOL    HW237470   3.124   2.402   6.858  0.6465  0.9580  4.3610
 8612SOL     OW37471   3.679   2.959   5.803 -0.2651  0.1726  0.5515
 8612SOL    HW137472   3.757   3.014   5.789 -0.3007 -0.2001 -1.1584
 8612SOL    HW237473   3.714   2.872   5.783 -1.5756 -0.2881  0.3122
 8613SOL     OW37474   1.865   4.511   8.031  0.2343  0.1923 -0.0798
 8613SOL    HW137475   1.806   4.439   8.051 -2.1966  2.7795  1.9521
 8613SOL    HW237476   1.798   4.579   8.036  0.9998  0.9405 -0.0184
 8614SOL     OW37477   1.515   2.688   8.684  0.7437  0.0195  0.5890
 8614SOL    HW137478   1.564   2.608   8.703  0.1057 -0.5236 -0.0555
 8614SOL    HW237479   1.432   2.671   8.729 -0.2203  1.3301 -0.7118
 8615SOL     OW37480   1.871   3.130  17.414 -0.4475 -0.2387  0.6056
 8615SOL    HW137481   1.854   3.194  17.484  0.4044  0.2420  0.3695
 8615SOL    HW237482   1.781   3.103  17.397  0.0038 -0.9122 -0.6456
 8616SOL     OW37483   2.526   1.741   1.225 -0.2774 -0.7836 -1.0057
 8616SOL    HW137484   2.514   1.661   1.174 -1.9245  0.9964 -3.3938
 8616SOL    HW237485   2.574   1.713   1.304 -0.6167 -1.0545 -0.8963
 8617SOL     OW37486   1.159   3.056   7.579  0.1297  0.2849 -0.0768
 8617SOL    HW137487   1.192   3.066   7.490  0.1361 -1.9542 -0.3414
 8617SOL    HW237488   1.117   2.970   7.576  0.8870 -0.1753  2.0881
 8618SOL     OW37489   4.686   1.769   6.819  0.0477 -0.0959 -0.3510
 8618SOL    HW137490   4.619   1.709   6.786  0.1886 -0.0840 -0.6592
 8618SOL    HW237491   4.666   1.848   6.769  1.1492 -0.8569 -2.0071
 8619SOL     OW37492   2.014   1.232  10.741 -0.0555 -0.0188 -0.2381
 8619SOL    HW137493   2.023   1.226  10.646  1.3052 -0.0957 -0.1109
 8619SOL    HW237494   1.964   1.313  10.750 -0.5932 -0.3615 -0.0974
 8620SOL     OW37495   3.392   1.616   3.413 -0.4927 -0.0505  0.4757
 8620SOL    HW137496   3.331   1.689   3.404  1.5561  1.3087 -2.3858
 8620SOL    HW237497   3.355   1.541   3.367  0.7201 -1.5824  1.9711
 8621SOL     OW37498   4.014   3.194   2.124  0.6120 -0.0740 -0.3432
 8621SOL    HW137499   4.098   3.185   2.081  1.2198  0.9363  0.6190
 8621SOL    HW237500   3.977   3.278   2.097  2.8725  1.1814  0.5044
 8622SOL     OW37501   2.764   3.409  13.943  0.0766 -0.2572  0.0928
 8622SOL    HW137502   2.687   3.443  13.988 -0.2782 -1.8182  0.6824
 8622SOL    HW237503   2.719   3.378  13.864 -2.1583 -0.2944  1.3784
 8623SOL     OW37504   3.236   0.016  13.524  0.0378 -0.0217 -0.4349
 8623SOL    HW137505   3.205   4.689  13.465  0.6296 -1.1055  0.5175
 8623SOL    HW237506   3.332   0.016  13.521  0.0609 -2.3838 -0.2590
 8624SOL     OW37507   0.568   0.510  15.050 -0.2791  0.6067  0.3206
 8624SOL    HW137508   0.644   0.478  15.003 -0.3356 -2.7578  2.5151
 8624SOL    HW237509   0.512   0.520  14.973 -0.0446  1.5225  0.2698
 8625SOL     OW37510   1.892   4.544   5.989 -0.4000 -0.5160  0.5237
 8625SOL    HW137511   1.904   4.460   6.034  0.2321 -0.6660  0.0875
 8625SOL    HW237512   1.965   4.546   5.926 -0.6694 -0.4226  0.2152
 8626SOL     OW37513   4.077   0.243  15.280 -0.1748 -0.3045  0.3294
 8626SOL    HW137514   4.024   0.317  15.310  1.1428  0.2338  1.3711
 8626SOL    HW237515   4.125   0.228  15.361 -1.3428 -0.6572  0.9513
 8627SOL     OW37516   2.929   2.150  14.845 -0.4646  0.4074 -0.1326
 8627SOL    HW137517   2.969   2.208  14.780 -1.1885 -1.2269 -2.0398
 8627SOL    HW237518   2.941   2.203  14.924 -1.1871  0.1375  0.1585
 8628SOL     OW37519   2.793   2.396  15.430 -0.0082  0.4194  0.8488
 8628SOL    HW137520   2.760   2.485  15.416 -2.4923 -0.4656  0.9175
 8628SOL    HW237521   2.864   2.418  15.490  1.8282 -0.3455 -1.0523
 8629SOL     OW37522   2.694   3.547   1.715 -0.0626 -0.0030 -0.5444
 8629SOL    HW137523   2.627   3.610   1.689 -1.0082 -0.0826  1.7524
 8629SOL    HW237524   2.669   3.540   1.807  1.7079 -0.6560 -0.1110
 8630SOL     OW37525   0.165   1.257   5.354 -0.5141  0.4670  0.6598
 8630SOL    HW137526   0.220   1.330   5.324 -1.1613  0.2475 -1.0509
 8630SOL    HW237527   0.199   1.182   5.305  0.7487  1.9962 -0.8322
 8631SOL     OW37528   4.570   0.127   1.316 -0.4308 -0.1310  0.1038
 8631SOL    HW137529   4.611   0.209   1.343 -0.8590 -0.2229  1.0002
 8631SOL    HW237530   4.476   0.146   1.317 -0.5954 -0.9399 -0.2978
 8632SOL     OW37531   1.048   4.216   0.613 -0.6290  0.5664  0.6633
 8632SOL    HW137532   1.068   4.154   0.543 -0.3792 -0.6953  1.8601
 8632SOL    HW237533   0.959   4.248   0.596 -0.5284  0.1500 -0.6749
 8633SOL     OW37534   0.678   3.526   9.573 -0.1056  0.0004  0.1893
 8633SOL    HW137535   0.604   3.483   9.616 -0.0335 -1.2283 -0.9247
 8633SOL    HW237536   0.665   3.482   9.489  0.4427 -1.5926  0.9356
 8634SOL     OW37537   0.951   2.124   4.888 -1.0526  0.2566  0.2668
 8634SOL    HW137538   0.958   2.203   4.942 -1.1727  0.6022 -0.2159
 8634SOL    HW237539   0.973   2.053   4.948 -0.3142 -0.6348 -1.0590
 8635SOL     OW37540   3.085   3.945   5.362  0.1973 -0.3797 -0.0101
 8635SOL    HW137541   2.991   3.958   5.377 -0.1377  0.9297 -3.1521
 8635SOL    HW237542   3.089   3.928   5.268  0.3345  0.2997 -0.1257
 8636SOL     OW37543   0.395   0.858   4.321 -0.7786  0.2930  0.1596
 8636SOL    HW137544   0.337   0.878   4.247 -1.9281 -1.8780  0.4683
 8636SOL    HW237545   0.340   0.834   4.396 -1.5774 -0.2921 -0.6101
 8637SOL     OW37546   3.663   1.873   2.434  0.0076 -0.2978  0.4608
 8637SOL    HW137547   3.654   1.796   2.490 -2.0178 -0.0657  0.4766
 8637SOL    HW237548   3.668   1.844   2.342 -0.6637 -0.8792  0.6079
 8638SOL     OW37549   0.911   0.605   8.341  0.1686 -0.0211 -1.0067
 8638SOL    HW137550   0.832   0.660   8.335  0.5467  0.4738 -1.4200
 8638SOL    HW237551   0.925   0.616   8.435 -2.4290  1.1400 -0.7601
 8639SOL     OW37552   4.684   3.471  12.699 -0.3453 -0.2137 -0.1821
 8639SOL    HW137553   4.601   3.492  12.742 -1.0534  1.0360 -2.1774
 8639SOL    HW237554   4.674   3.525  12.621  1.3106 -1.5080 -1.3059
 8640SOL     OW37555   1.837   1.930   5.174  0.0624 -0.4449  0.1212
 8640SOL    HW137556   1.922   1.917   5.131  0.6245  1.2198  0.7206
 8640SOL    HW237557   1.801   2.010   5.136  3.0116  0.5750 -0.4939
 8641SOL     OW37558   1.898   2.696   1.034  0.1590 -0.7326  0.2712
 8641SOL    HW137559   1.832   2.659   0.975 -2.0113  4.4091 -0.5031
 8641SOL    HW237560   1.890   2.639   1.111  0.5766 -0.8585  0.2190
 8642SOL     OW37561   0.616   0.006   6.695  0.3152 -0.4056 -0.0651
 8642SOL    HW137562   0.561   0.024   6.619 -2.0021  0.0951  1.7113
 8642SOL    HW237563   0.561   4.679   6.732 -0.1383  0.2159  0.4294
 8643SOL     OW37564   4.515   0.630  11.399 -0.4369 -0.3838 -0.0328
 8643SOL    HW137565   4.466   0.628  11.481  1.1136  0.6106  0.9012
 8643SOL    HW237566   4.443   0.588  11.351  0.3322 -3.0008  1.1422
 8644SOL     OW37567   3.393   4.060   4.071 -0.1543  0.3502  0.3101
 8644SOL    HW137568   3.310   4.024   4.040 -0.7358  1.8287  0.1580
 8644SOL    HW237569   3.429   3.983   4.114 -0.7397 -1.6661 -2.8140
 8645SOL     OW37570   4.229   0.383   8.661 -0.2139  0.4400 -0.3420
 8645SOL    HW137571   4.150   0.329   8.659  1.2577 -1.7687  1.1464
 8645SOL    HW237572   4.182   0.466   8.653 -0.7225  0.1085 -0.8389
 8646SOL     OW37573   0.812   2.710  12.450 -0.2212 -0.4857  0.2697
 8646SOL    HW137574   0.799   2.748  12.537 -1.4962  1.4628 -0.7606
 8646SOL    HW237575   0.890   2.755  12.419 -0.4439 -0.2508  0.0435
 8647SOL     OW37576   4.079   1.655   3.916  0.2668 -0.0290  0.1176
 8647SOL    HW137577   4.069   1.626   3.826 -0.4628 -1.1328  0.5476
 8647SOL    HW237578   4.156   1.603   3.940  0.0443  0.1105  1.1431
 8648SOL     OW37579   0.410   1.417  15.496 -0.3923 -0.0025 -0.7318
 8648SOL    HW137580   0.378   1.496  15.539  1.3613 -0.2500  1.0228
 8648SOL    HW237581   0.486   1.450  15.449  1.0305  0.6904  2.0750
 8649SOL     OW37582   2.637   3.821   6.986  0.6562 -0.4496 -0.3421
 8649SOL    HW137583   2.635   3.896   7.045  3.4591 -0.5755 -0.0800
 8649SOL    HW237584   2.573   3.768   7.033  1.4536 -0.9455  0.1935
 8650SOL     OW37585   0.939   3.431   5.257 -0.0625  0.1614  0.3939
 8650SOL    HW137586   0.867   3.405   5.314 -0.2739  1.8269  0.8614
 8650SOL    HW237587   1.006   3.376   5.298 -0.6772 -0.1776  0.9480
 8651SOL     OW37588   0.245   4.614  10.977 -0.3875  0.0697 -0.1507
 8651SOL    HW137589   0.341   4.610  10.971 -0.1781  1.3865  2.5007
 8651SOL    HW237590   0.226   4.540  11.035 -2.6909  0.4667 -0.4311
 8652SOL     OW37591   3.314   2.650   5.673 -0.4220 -0.1768  0.2515
 8652SOL    HW137592   3.256   2.603   5.613 -1.3834  0.7431  0.4499
 8652SOL    HW237593   3.256   2.695   5.735 -0.3706  1.0856 -0.6128
 8653SOL     OW37594   0.471   2.170   2.124 -0.2983 -0.3296  0.1259
 8653SOL    HW137595   0.463   2.262   2.147  0.3439 -0.1332 -0.4226
 8653SOL    HW237596   0.561   2.146   2.145 -1.1039 -2.9109  0.6301
 8654SOL     OW37597   2.929   4.533   6.997  0.2220  0.8165 -0.5142
 8654SOL    HW137598   2.959   4.620   6.972 -0.4028  1.4877  1.0801
 8654SOL    HW237599   2.892   4.554   7.083  1.0501  0.9103 -0.1798
 8655SOL     OW37600   0.015   1.317  10.173  0.1081 -0.0699 -0.1315
 8655SOL    HW137601   4.733   1.389  10.231  1.4177 -0.0658  0.4183
 8655SOL    HW237602   0.035   1.373  10.098  0.1403  1.1228  0.7481
 8656SOL     OW37603   1.051   2.135   2.937 -0.8107 -0.1297  0.5716
 8656SOL    HW137604   1.003   2.131   3.020 -1.6527  0.6721  0.1176
 8656SOL    HW237605   0.979   2.148   2.875 -0.3687  2.4915  0.6122
 8657SOL     OW37606   4.154   4.705   6.998 -0.0736 -0.8147  0.3859
 8657SOL    HW137607   4.108   0.009   7.068  4.1034  0.7119  2.1362
 8657SOL    HW237608   4.239   4.681   7.035  0.1720 -2.1426 -1.0765
 8658SOL     OW37609   4.581   3.238   8.755 -0.4327 -0.2100 -0.4117
 8658SOL    HW137610   4.492   3.222   8.785  0.0853  0.3253  1.3706
 8658SOL    HW237611   4.585   3.219   8.661  2.1160 -1.4141 -0.0462
 8659SOL     OW37612   0.347   4.411   5.680 -0.4150  0.0591 -0.1108
 8659SOL    HW137613   0.437   4.441   5.694 -0.3347 -0.0665 -0.3541
 8659SOL    HW237614   0.304   4.496   5.691 -0.5329  0.2976 -2.4050
 8660SOL     OW37615   3.840   1.961   9.149 -0.1557  0.5025  0.0048
 8660SOL    HW137616   3.864   1.874   9.116 -0.9843 -0.1933  1.2494
 8660SOL    HW237617   3.921   2.010   9.137  1.0047 -0.8286  2.3193
 8661SOL     OW37618   0.366   3.584   6.965 -0.1196  0.3840  0.7822
 8661SOL    HW137619   0.327   3.522   7.027  1.3460  1.2628  2.5682
 8661SOL    HW237620   0.370   3.528   6.887 -0.6745  3.5764 -1.5333
 8662SOL     OW37621   4.298   2.787   2.965 -0.5464 -0.1652  0.3492
 8662SOL    HW137622   4.246   2.726   3.018  2.2879  0.3352  3.6607
 8662SOL    HW237623   4.271   2.866   3.012  0.5924 -0.6475  1.7932
 8663SOL     OW37624   1.691   2.568  16.137  0.2663 -0.7976 -0.3953
 8663SOL    HW137625   1.668   2.558  16.045 -0.6928 -1.6093 -0.0595
 8663SOL    HW237626   1.680   2.480  16.172 -0.5562 -0.0133  1.3172
 8664SOL     OW37627   2.177   0.731   3.803  0.0451  0.2399  0.1409
 8664SOL    HW137628   2.246   0.797   3.804  0.2668 -0.0101  1.2328
 8664SOL    HW237629   2.229   0.652   3.817 -0.1622 -0.0555 -0.7485
 8665SOL     OW37630   4.224   0.853   5.502 -0.5160  0.1640  0.4772
 8665SOL    HW137631   4.269   0.771   5.516 -0.2008  0.3616  0.6167
 8665SOL    HW237632   4.135   0.828   5.526 -0.4599  0.8242  1.3530
 8666SOL     OW37633   4.200   2.193  12.903 -0.2799  0.2681 -0.5298
 8666SOL    HW137634   4.194   2.107  12.862  0.9271  0.8322 -1.8668
 8666SOL    HW237635   4.254   2.182  12.981 -1.0127  1.3130  0.1211
 8667SOL     OW37636   0.512   2.266   7.460  0.6464  0.7391 -0.5944
 8667SOL    HW137637   0.597   2.248   7.420  1.0549  0.9297  0.1744
 8667SOL    HW237638   0.541   2.326   7.529  0.6178 -0.2455  0.2777
 8668SOL     OW37639   2.553   0.421   7.483  0.0515 -0.0776 -0.3576
 8668SOL    HW137640   2.493   0.423   7.557 -0.1635  1.5783 -0.5767
 8668SOL    HW237641   2.556   0.515   7.469  4.0504 -0.0544  0.7238
 8669SOL     OW37642   0.416   0.111   3.143  0.2324  0.3815 -0.1387
 8669SOL    HW137643   0.330   0.068   3.144 -0.0779  0.9256 -2.8155
 8669SOL    HW237644   0.448   0.089   3.231 -0.6726  0.5419  0.2395
 8670SOL     OW37645   1.485   0.118   2.232 -0.0645 -0.2674 -0.0974
 8670SOL    HW137646   1.482   0.124   2.327  2.5256  1.2484 -0.1250
 8670SOL    HW237647   1.390   0.125   2.218 -0.0184 -1.7007 -1.1476
 8671SOL     OW37648   3.751   1.109   3.349  0.0268  0.2667  0.3639
 8671SOL    HW137649   3.739   1.014   3.340 -0.6257  0.3599  0.1971
 8671SOL    HW237650   3.728   1.123   3.441 -3.1958 -0.5660 -0.2980
 8672SOL     OW37651   3.038   3.919   8.613  0.4423 -0.3067 -0.6987
 8672SOL    HW137652   2.984   3.937   8.690  1.7887  0.0435  0.1535
 8672SOL    HW237653   2.973   3.930   8.544  0.9258 -1.1831 -1.3022
 8673SOL     OW37654   2.269   4.448   4.076 -0.0636 -0.3241  0.5124
 8673SOL    HW137655   2.331   4.421   4.143 -0.1956 -0.3043  0.6406
 8673SOL    HW237656   2.198   4.493   4.122 -1.0389  0.1998 -1.5028
 8674SOL     OW37657   1.269   4.149   7.705 -0.2971 -0.4264 -0.2238
 8674SOL    HW137658   1.320   4.101   7.640 -3.3647 -4.2178  0.2062
 8674SOL    HW237659   1.241   4.226   7.656  1.4502  0.5230  0.2696
 8675SOL     OW37660   3.636   4.081   8.875 -0.1666  0.4147  0.1103
 8675SOL    HW137661   3.629   4.039   8.961 -0.2412 -1.4691 -0.8239
 8675SOL    HW237662   3.545   4.109   8.862  0.4137  0.7038 -3.2310
 8676SOL     OW37663   0.534   1.566   6.590 -0.7325 -0.1053 -0.1189
 8676SOL    HW137664   0.623   1.593   6.611 -0.6598  1.0740 -1.9732
 8676SOL    HW237665   0.554   1.547   6.498 -0.5936 -0.8549  0.0591
 8677SOL     OW37666   4.082   2.689  17.131 -0.2619 -0.1309 -0.1223
 8677SOL    HW137667   4.043   2.760  17.181 -0.4636  0.0846 -0.5918
 8677SOL    HW237668   4.108   2.633  17.205 -0.0599 -0.9774 -0.8365
 8678SOL     OW37669   2.928   2.563  10.493 -0.3375 -0.0547  0.8286
 8678SOL    HW137670   3.021   2.562  10.519 -0.0811 -0.2219 -0.1192
 8678SOL    HW237671   2.917   2.486  10.438 -0.1383  1.3625 -1.1851
 8679SOL     OW37672   1.774   2.820  16.467 -0.0454  0.0753 -0.1053
 8679SOL    HW137673   1.844   2.874  16.431 -0.9232  0.9470 -0.5251
 8679SOL    HW237674   1.700   2.857  16.418 -0.6472 -3.7129 -2.0601
 8680SOL     OW37675   1.237   1.821   5.206 -0.5411 -0.4776  0.0017
 8680SOL    HW137676   1.242   1.879   5.282 -2.0143  1.0534 -1.0933
 8680SOL    HW237677   1.317   1.767   5.212 -0.0662  0.0593 -1.6960
 8681SOL     OW37678   4.013   1.239   6.903  0.8157  0.0564  0.0445
 8681SOL    HW137679   4.058   1.237   6.819 -0.1882  1.8273 -0.5570
 8681SOL    HW237680   3.996   1.334   6.900  1.7234  0.1852 -1.0666
 8682SOL     OW37681   2.554   0.200   6.674  0.1326 -0.1858  0.0301
 8682SOL    HW137682   2.555   0.112   6.636 -0.7109 -0.6686  1.1194
 8682SOL    HW237683   2.618   0.192   6.745  0.4573 -0.5055 -0.2999
 8683SOL     OW37684   0.980   0.270   5.494  0.2505  0.4406 -0.0140
 8683SOL    HW137685   0.988   0.272   5.399  0.5605  0.4446  0.0095
 8683SOL    HW237686   0.928   0.348   5.516 -2.5763 -1.6131  0.5389
 8684SOL     OW37687   3.419   1.315   8.278 -0.0065 -0.6104  0.0927
 8684SOL    HW137688   3.458   1.398   8.251 -1.2569  0.6014  1.9980
 8684SOL    HW237689   3.325   1.335   8.281  0.2988  0.9886 -1.1627
 8685SOL     OW37690   2.366   1.683   3.110 -0.3924 -0.0507  0.5110
 8685SOL    HW137691   2.372   1.744   3.184  0.3631  0.6401 -0.1179
 8685SOL    HW237692   2.347   1.604   3.161  0.7377  0.4307  1.6811
 8686SOL     OW37693   2.814   3.666   6.805  0.0911  0.4482  0.4823
 8686SOL    HW137694   2.849   3.656   6.893 -0.9138  1.7638  1.0371
 8686SOL    HW237695   2.741   3.714   6.845 -0.5765  0.2582 -0.4936
 8687SOL     OW37696   1.870   2.068   6.077 -0.5447 -0.0388  0.3788
 8687SOL    HW137697   1.887   2.056   5.984  1.0434  0.6780  0.5667
 8687SOL    HW237698   1.800   2.005   6.094  0.5499 -1.7728 -1.6455
 8688SOL     OW37699   2.076   1.416  10.290 -0.5018 -0.3270 -0.0607
 8688SOL    HW137700   2.050   1.475  10.220  0.1604 -1.2589 -1.0890
 8688SOL    HW237701   2.172   1.416  10.292 -0.5104 -1.4968  0.6912
 8689SOL     OW37702   2.992   2.397  15.226  0.5074 -0.1620 -0.1456
 8689SOL    HW137703   3.063   2.334  15.238  1.4668  1.2576  1.6268
 8689SOL    HW237704   2.931   2.377  15.297  0.8929  1.9623  0.7982
 8690SOL     OW37705   2.535   0.966   5.367 -0.4158 -0.2339 -0.3508
 8690SOL    HW137706   2.629   0.954   5.377 -0.3070  1.9644  1.2267
 8690SOL    HW237707   2.497   0.879   5.356  0.3477 -0.6050 -0.0002
 8691SOL     OW37708   0.599   2.213   5.064  0.1164 -0.2840  0.2507
 8691SOL    HW137709   0.586   2.129   5.020 -2.1390 -0.7805  1.8382
 8691SOL    HW237710   0.674   2.194   5.121 -0.1158 -2.9899 -0.3279
 8692SOL     OW37711   3.046   1.722  14.339 -0.1092  0.0290 -0.1182
 8692SOL    HW137712   2.972   1.670  14.311  0.2157 -1.4947  1.8697
 8692SOL    HW237713   3.001   1.799  14.374  1.8288  1.1813 -0.1190
 8693SOL     OW37714   0.140   4.049   8.624 -0.1778 -0.2626  0.0903
 8693SOL    HW137715   0.116   3.964   8.588 -1.2057  0.8857 -1.9352
 8693SOL    HW237716   0.236   4.042   8.626  0.1476  3.8817 -2.2056
 8694SOL     OW37717   1.134   3.148   3.006 -0.2658  0.2353  0.1223
 8694SOL    HW137718   1.129   3.081   2.938  1.4287  1.0107 -0.7738
 8694SOL    HW237719   1.137   3.230   2.955  0.1830 -0.7761 -1.4658
 8695SOL     OW37720   1.600   2.838   5.397  0.3529  0.0345 -0.1173
 8695SOL    HW137721   1.557   2.766   5.351  2.2197 -1.3365  0.2796
 8695SOL    HW237722   1.529   2.843   5.461  0.6106 -1.5964  0.2794
 8696SOL     OW37723   0.403   0.325   6.438 -0.1241 -0.2061  0.2309
 8696SOL    HW137724   0.497   0.314   6.429 -0.6273 -2.1484 -2.5004
 8696SOL    HW237725   0.402   0.416   6.469 -2.7416 -0.0772 -0.2239
 8697SOL     OW37726   2.144   0.003   0.441 -0.0257  0.2655 -0.4401
 8697SOL    HW137727   2.232   4.714   0.462  0.0955  0.0180 -1.3432
 8697SOL    HW237728   2.105   4.678   0.386  0.0099 -1.1243  1.2282
 8698SOL     OW37729   3.529   1.960   2.696  0.2315  0.2722  0.4423
 8698SOL    HW137730   3.616   1.995   2.717  0.6144 -0.8893  0.7982
 8698SOL    HW237731   3.558   1.871   2.680 -1.5327  0.1996 -2.3616
 8699SOL     OW37732   0.114   4.635   9.744 -0.0351  0.1064  0.5222
 8699SOL    HW137733   0.023   4.640   9.715  0.2087  2.0414  0.0961
 8699SOL    HW237734   0.116   4.687   9.824 -1.3145  0.2125  0.4751
 8700SOL     OW37735   4.696   1.129   9.022 -0.2652 -0.7952 -0.0299
 8700SOL    HW137736   0.001   1.056   8.982 -0.2998 -1.0939  0.4707
 8700SOL    HW237737   4.612   1.127   8.976  0.3714 -0.4951 -1.2106
 8701SOL     OW37738   0.481   1.333  16.097  0.1436  0.1562  0.3436
 8701SOL    HW137739   0.456   1.335  16.004  0.2015 -0.5368  0.3186
 8701SOL    HW237740   0.515   1.244  16.103 -0.4828 -0.0717  0.5114
 8702SOL     OW37741   0.775   2.035  11.724  0.4934  0.2848 -0.0577
 8702SOL    HW137742   0.793   1.950  11.765  1.6731 -0.3465 -1.8808
 8702SOL    HW237743   0.713   2.009  11.657 -0.3656 -1.0698  1.2683
 8703SOL     OW37744   0.817   3.416   2.785 -0.0746 -0.5825 -0.0260
 8703SOL    HW137745   0.806   3.337   2.733 -0.6061 -0.7483  0.3383
 8703SOL    HW237746   0.725   3.427   2.810 -0.7568 -0.4075 -2.6159
 8704SOL     OW37747   3.985   0.701  15.790 -0.0179  0.1183  0.3456
 8704SOL    HW137748   3.930   0.667  15.861  2.9612 -1.7252  1.8314
 8704SOL    HW237749   4.001   0.790  15.820  0.0255 -0.1617  1.1654
 8705SOL     OW37750   2.048   1.349   6.542 -0.2109 -0.4907  0.1691
 8705SOL    HW137751   1.956   1.341   6.517 -1.0485  1.4399  2.5709
 8705SOL    HW237752   2.059   1.440   6.515 -1.0329  0.1443  1.9550
 8706SOL     OW37753   2.474   2.783  15.776  0.3888 -0.1052  0.6751
 8706SOL    HW137754   2.428   2.843  15.834  0.0101 -2.1885  2.5638
 8706SOL    HW237755   2.555   2.831  15.759 -1.3877  1.4380 -3.3960
 8707SOL     OW37756   0.233   3.791   2.636  0.0667  0.0039  0.2161
 8707SOL    HW137757   0.309   3.743   2.603 -0.0070  0.1329 -0.1377
 8707SOL    HW237758   0.161   3.753   2.586 -0.2855  1.3967 -0.3230
 8708SOL     OW37759   4.288   1.948   7.477 -0.3199 -0.1057 -0.1600
 8708SOL    HW137760   4.280   2.017   7.411  1.6373  1.3365  1.0974
 8708SOL    HW237761   4.286   1.871   7.421 -0.1795  0.1342 -0.4935
 8709SOL     OW37762   3.639   3.745  11.612  0.1472  0.2040 -0.1001
 8709SOL    HW137763   3.706   3.679  11.624  0.8770  0.7631 -1.1038
 8709SOL    HW237764   3.568   3.683  11.631  2.0626 -1.3035  2.0838
 8710SOL     OW37765   3.556   0.463   8.034  0.0377  0.1067  0.2429
 8710SOL    HW137766   3.580   0.554   8.020 -0.1758  0.3105  1.2079
 8710SOL    HW237767   3.624   0.413   7.990 -1.5110 -1.0147 -0.8911
 8711SOL     OW37768   0.268   1.938  14.362  0.4423  0.3450  0.0825
 8711SOL    HW137769   0.335   1.953  14.428 -0.5471  3.2769  0.3964
 8711SOL    HW237770   0.253   2.025  14.326 -0.9793  0.4483  0.9435
 8712SOL     OW37771   3.263   1.494   3.197 -0.1014 -0.3426 -0.2068
 8712SOL    HW137772   3.211   1.471   3.120  0.8678 -2.2961 -0.2702
 8712SOL    HW237773   3.339   1.526   3.149 -0.7807  1.1521 -0.2974
 8713SOL     OW37774   4.040   2.057   8.333 -0.2086 -0.2611 -0.4837
 8713SOL    HW137775   4.029   2.110   8.253 -0.8242  1.4819  0.7686
 8713SOL    HW237776   3.991   2.103   8.401  0.6083 -1.2991  0.7992
 8714SOL     OW37777   4.036   1.757   5.965  0.1771 -0.0549 -0.0767
 8714SOL    HW137778   3.986   1.681   5.997 -0.8240 -0.1569 -1.8489
 8714SOL    HW237779   4.050   1.724   5.876 -0.4506  1.0559 -0.5851
 8715SOL     OW37780   0.925   2.601   6.431 -0.3027  0.4122  0.3736
 8715SOL    HW137781   0.876   2.601   6.349 -1.0493  0.3965  0.8173
 8715SOL    HW237782   1.014   2.589   6.399 -0.3406 -1.2772  0.9170
 8716SOL     OW37783   3.146   0.748   6.681  0.4587  0.0985 -0.4134
 8716SOL    HW137784   3.137   0.657   6.651 -1.3857  0.7766 -1.8872
 8716SOL    HW237785   3.158   0.810   6.609 -1.2183  0.0597 -0.7353
 8717SOL     OW37786   3.259   1.565   1.932 -0.7220  0.1361 -0.4859
 8717SOL    HW137787   3.342   1.524   1.959 -2.4140 -1.1392  2.8313
 8717SOL    HW237788   3.214   1.486   1.901 -0.1353 -1.1056  1.7571
 8718SOL     OW37789   3.921   2.938   1.851  0.3370  1.0839  0.5833
 8718SOL    HW137790   3.889   2.848   1.840  0.0570  1.1317  1.0417
 8718SOL    HW237791   3.991   2.935   1.785  0.7562  0.0147  1.0780
 8719SOL     OW37792   1.942   0.476   0.336  0.7818  0.1826 -0.0042
 8719SOL    HW137793   2.026   0.432   0.349  0.5875 -0.0774  0.3906
 8719SOL    HW237794   1.959   0.527   0.257 -0.6663  0.4222 -0.1739
 8720SOL     OW37795   4.078   2.724   6.596  0.7709 -0.0593 -0.4120
 8720SOL    HW137796   4.065   2.818   6.610  1.3514 -0.0823  0.2351
 8720SOL    HW237797   4.077   2.735   6.501  0.3637 -2.3037 -0.6700
 8721SOL     OW37798   3.859   1.968   6.558  0.2816 -0.8549  0.5787
 8721SOL    HW137799   3.894   1.932   6.640  0.9994 -0.7354  0.3197
 8721SOL    HW237800   3.942   1.949   6.516  0.2329 -0.0832  0.1324
 8722SOL     OW37801   3.242   3.109  14.218 -0.1468 -0.0281 -0.7412
 8722SOL    HW137802   3.273   3.039  14.275  0.9145  1.1358  0.1223
 8722SOL    HW237803   3.313   3.110  14.154 -1.1137 -2.0227 -1.8338
 8723SOL     OW37804   4.219   3.256  17.397 -0.0124 -0.1498  0.1732
 8723SOL    HW137805   4.234   3.300  17.481  0.1182 -1.2567  0.7225
 8723SOL    HW237806   4.144   3.306  17.364  1.0153  0.6016 -1.0458
 8724SOL     OW37807   3.774   3.880   4.365 -0.0858 -0.8993  0.4869
 8724SOL    HW137808   3.865   3.851   4.356  0.5636  1.4197 -0.4566
 8724SOL    HW237809   3.734   3.799   4.394  0.7786 -1.2921  0.5570
 8725SOL     OW37810   0.125   1.283   6.049  0.3495  0.6989  0.2957
 8725SOL    HW137811   0.060   1.284   5.979 -0.0942  1.3891  0.7141
 8725SOL    HW237812   0.211   1.288   6.009 -0.1046 -0.7062 -0.8456
 8726SOL     OW37813   1.746   1.416   6.127 -0.1033 -0.1152  0.4224
 8726SOL    HW137814   1.762   1.323   6.114 -1.7689 -0.5349  1.3655
 8726SOL    HW237815   1.803   1.460   6.064  0.4883 -1.1326  0.2551
 8727SOL     OW37816   0.130   2.955   5.625 -0.4144 -0.3381 -0.2938
 8727SOL    HW137817   0.204   2.901   5.595 -1.5654 -2.3523  0.5121
 8727SOL    HW237818   0.058   2.916   5.575 -0.2519  0.7856 -1.3956
 8728SOL     OW37819   3.096   1.404  17.319  0.5261 -0.0050 -0.0183
 8728SOL    HW137820   3.116   1.416  17.226  2.0863  0.1317  0.3302
 8728SOL    HW237821   3.084   1.310  17.333  0.4692 -0.2964 -1.9618
 8729SOL     OW37822   4.128   0.341  10.057  0.1904 -0.6086 -0.0123
 8729SOL    HW137823   4.122   0.290   9.976  0.5225 -0.9394  0.1722
 8729SOL    HW237824   4.205   0.394  10.038 -0.4214 -0.7134 -2.6759
 8730SOL     OW37825   3.095   0.510  16.860 -0.6322 -0.2895 -0.2099
 8730SOL    HW137826   3.061   0.427  16.895  3.1550 -1.3843  1.0181
 8730SOL    HW237827   3.093   0.568  16.936 -1.8303 -0.8297  0.1643
 8731SOL     OW37828   3.498   4.370  17.531 -0.3344  0.5616 -0.1341
 8731SOL    HW137829   3.403   4.375  17.523 -0.3944  1.2937  0.9578
 8731SOL    HW237830   3.518   4.453  17.575 -3.3041 -0.3566  3.0165
 8732SOL     OW37831   3.239   2.500   8.996 -0.4286  0.4298  0.0644
 8732SOL    HW137832   3.161   2.556   8.990 -0.6754  0.1196  0.4276
 8732SOL    HW237833   3.260   2.490   8.903  1.1936  0.0072  0.4813
 8733SOL     OW37834   2.074   4.347   8.943  0.2063  0.0067  0.0980
 8733SOL    HW137835   2.162   4.320   8.971 -0.6522  1.4729  4.1779
 8733SOL    HW237836   2.023   4.269   8.965  1.2638 -1.6681 -3.3545
 8734SOL     OW37837   4.698   2.033   2.015  0.1777  0.5510 -0.2682
 8734SOL    HW137838   4.603   2.017   2.020  0.5340 -1.2814  0.6385
 8734SOL    HW237839   4.694   2.127   2.000 -1.3029  0.4035 -0.8441
 8735SOL     OW37840   1.398   2.572   6.552 -0.2828 -0.4195  0.1392
 8735SOL    HW137841   1.469   2.584   6.616  0.9166 -2.3146 -0.8239
 8735SOL    HW237842   1.436   2.587   6.466 -1.7393  2.0491 -0.0551
 8736SOL     OW37843   2.681   0.171  16.186  0.2455 -0.4889  0.1909
 8736SOL    HW137844   2.676   0.191  16.092 -1.0002  1.3156  0.6324
 8736SOL    HW237845   2.738   0.094  16.181  1.4144  0.4754 -1.6108
 8737SOL     OW37846   0.345   4.591   6.450 -0.0854  0.2577  0.4090
 8737SOL    HW137847   0.418   4.636   6.406 -1.1768  2.3084  0.7191
 8737SOL    HW237848   0.379   4.577   6.538 -2.4155  1.1392  1.4497
 8738SOL     OW37849   0.305   1.691   4.524 -0.5036  0.0396  0.3304
 8738SOL    HW137850   0.337   1.780   4.511 -1.5678  0.1276 -1.6754
 8738SOL    HW237851   0.324   1.682   4.618  0.5173  0.2344  0.1415
 8739SOL     OW37852   0.061   0.170  13.745  0.0517 -0.0556 -0.3200
 8739SOL    HW137853   4.719   0.155  13.701 -0.8172 -1.3038  1.7881
 8739SOL    HW237854   0.019   0.190  13.829  0.9122  1.8277 -0.3285
 8740SOL     OW37855   4.013   2.982  13.692  0.7981 -0.4541 -0.3672
 8740SOL    HW137856   4.069   3.049  13.731  0.7711 -0.4181 -0.3904
 8740SOL    HW237857   3.927   3.017  13.717  2.0563  1.3570  1.4143
 8741SOL     OW37858   3.967   3.109   0.907 -0.4194 -0.4083 -0.1766
 8741SOL    HW137859   3.916   3.033   0.938  3.4009 -2.6111  0.6552
 8741SOL    HW237860   3.900   3.169   0.875 -1.1066 -2.2927 -2.3094
 8742SOL     OW37861   3.385   2.526   6.049 -0.1578  0.2807 -0.6388
 8742SOL    HW137862   3.354   2.442   6.017  0.3634 -0.1848  0.0781
 8742SOL    HW237863   3.305   2.565   6.085  1.1783 -0.1490  2.7720
 8743SOL     OW37864   2.255   1.715   3.471  0.2157  0.4839 -0.2274
 8743SOL    HW137865   2.248   1.776   3.544 -1.6201  0.3036 -0.2493
 8743SOL    HW237866   2.281   1.767   3.395 -1.6518  1.3940 -0.2338
 8744SOL     OW37867   4.118   0.164   7.662  0.2513 -0.6204  0.5069
 8744SOL    HW137868   4.213   0.169   7.668  0.3870  2.3978 -3.9720
 8744SOL    HW237869   4.092   0.256   7.668  1.0810 -0.3548 -0.0967
 8745SOL     OW37870   4.622   0.353   9.064  0.2563 -0.4493  0.2797
 8745SOL    HW137871   4.538   0.339   9.020 -0.0855 -0.8971  1.0757
 8745SOL    HW237872   4.646   0.261   9.074  2.2393 -0.0249 -0.7384
 8746SOL     OW37873   3.599   1.210   5.322  0.3318  0.7967 -0.1723
 8746SOL    HW137874   3.562   1.162   5.248 -0.7774 -2.8906  2.7969
 8746SOL    HW237875   3.672   1.150   5.337 -1.5482 -1.2384  0.8130
 8747SOL     OW37876   4.091   0.741   3.546 -0.0627 -0.2391  0.3902
 8747SOL    HW137877   4.144   0.665   3.572 -0.0977 -0.3287  0.1984
 8747SOL    HW237878   4.145   0.813   3.578 -0.3084 -0.1954  0.7045
 8748SOL     OW37879   3.252   3.994   8.237  0.1769 -0.7473  0.3878
 8748SOL    HW137880   3.245   4.021   8.145 -1.8850 -0.0771  0.7502
 8748SOL    HW237881   3.248   3.898   8.234  2.5795 -0.8970  1.8349
 8749SOL     OW37882   2.501   2.730  16.095  0.7797  0.0213  0.0623
 8749SOL    HW137883   2.569   2.747  16.030 -0.0540  0.3143 -0.7246
 8749SOL    HW237884   2.429   2.774  16.051 -1.0734 -1.9881  1.0905
 8750SOL     OW37885   0.718   3.708  15.279 -0.0734 -0.3052  0.3737
 8750SOL    HW137886   0.766   3.737  15.357 -0.2573 -0.8175  0.6779
 8750SOL    HW237887   0.779   3.645  15.240 -2.7276 -3.2152  0.8836
 8751SOL     OW37888   4.332   2.227   7.115 -0.5755  0.2984  0.5000
 8751SOL    HW137889   4.389   2.198   7.186  1.1291  1.5826 -0.3547
 8751SOL    HW237890   4.270   2.154   7.120  0.0996 -0.4056 -1.5485
 8752SOL     OW37891   2.279   0.454   1.168  0.0078  0.4541  0.1426
 8752SOL    HW137892   2.188   0.482   1.157  0.4714  1.5637 -0.8711
 8752SOL    HW237893   2.304   0.541   1.199  1.1979 -0.0382  0.5738
 8753SOL     OW37894   3.226   3.616  11.251 -0.2159  0.2433 -0.1495
 8753SOL    HW137895   3.232   3.572  11.336  2.5075  2.0465  0.6092
 8753SOL    HW237896   3.319   3.617  11.229 -0.4355 -1.0543 -1.1591
 8754SOL     OW37897   4.134   0.260  15.614 -0.6707  0.2511 -0.2240
 8754SOL    HW137898   4.078   0.191  15.649 -0.4843 -0.0031 -0.4301
 8754SOL    HW237899   4.202   0.274  15.679  0.3277  0.7713 -1.3830
 8755SOL     OW37900   1.595   4.036  11.543 -0.3138 -0.0962  0.0338
 8755SOL    HW137901   1.650   3.960  11.525  1.4293  0.8376  1.4460
 8755SOL    HW237902   1.664   4.102  11.541  0.8668 -1.3248  0.5932
 8756SOL     OW37903   4.343   2.252   1.534  0.1946 -0.2256 -0.1143
 8756SOL    HW137904   4.396   2.331   1.530 -1.1200  0.7047  0.8035
 8756SOL    HW237905   4.417   2.198   1.564  1.7755  1.0344 -1.7811
 8757SOL     OW37906   3.783   2.107  16.835  0.1027 -0.0103  0.4709
 8757SOL    HW137907   3.838   2.042  16.879  1.0402  1.1194  0.9759
 8757SOL    HW237908   3.698   2.085  16.873 -0.3123 -0.5704 -0.7994
 8758SOL     OW37909   3.553   4.363   2.724  0.8356 -0.3741 -0.4683
 8758SOL    HW137910   3.578   4.444   2.679 -1.2766  0.3008 -0.4374
 8758SOL    HW237911   3.528   4.313   2.645 -0.5934  1.4054 -1.1410
 8759SOL     OW37912   0.549   3.685   4.067 -0.0763  0.6799 -0.5486
 8759SOL    HW137913   0.613   3.710   4.134  0.7682 -1.0913 -0.7145
 8759SOL    HW237914   0.592   3.614   4.019  0.3983  1.2034 -0.9073
 8760SOL     OW37915   4.351   2.542   7.893 -0.0582  0.2039  0.2270
 8760SOL    HW137916   4.324   2.464   7.844 -2.7084  0.8895  0.6095
 8760SOL    HW237917   4.378   2.505   7.977  0.2942 -1.6603 -0.6857
 8761SOL     OW37918   4.645   1.414   0.692  0.1887  0.1527  0.1931
 8761SOL    HW137919   4.629   1.330   0.649 -0.0947 -0.0613  0.7131
 8761SOL    HW237920   4.633   1.470   0.616 -3.2332  0.7493  1.1721
 8762SOL     OW37921   3.908   2.021  11.910 -0.8292  0.3369 -0.1346
 8762SOL    HW137922   3.873   1.932  11.911 -0.3085  0.1204 -1.1133
 8762SOL    HW237923   3.973   2.004  11.978 -0.9233 -0.3358 -0.2128
 8763SOL     OW37924   0.287   4.190   0.104 -0.7128 -0.2193  0.3039
 8763SOL    HW137925   0.323   4.249   0.038  0.4642 -0.4201  0.7622
 8763SOL    HW237926   0.351   4.204   0.174 -2.2375  0.0775  1.6292
 8764SOL     OW37927   3.531   0.057   3.372  0.4903  0.3681  0.4265
 8764SOL    HW137928   3.591   0.109   3.319  1.5814 -2.3425 -0.9739
 8764SOL    HW237929   3.524   4.714   3.329  2.0899  0.0171  0.8604
 8765SOL     OW37930   2.517   0.835   7.884  0.4296  0.2929  0.3089
 8765SOL    HW137931   2.587   0.775   7.907 -1.0415 -1.5544 -0.0725
 8765SOL    HW237932   2.451   0.814   7.951  2.2460  1.0500  2.3600
 8766SOL     OW37933   3.178   2.955   6.842 -0.4397 -0.1611  0.2869
 8766SOL    HW137934   3.190   2.958   6.747  2.3269  0.2270  0.6407
 8766SOL    HW237935   3.266   2.967   6.878 -0.3617 -1.8312  0.6177
 8767SOL     OW37936   0.541   0.693   6.842 -0.3083  0.1768 -0.7654
 8767SOL    HW137937   0.516   0.679   6.933  0.3497 -0.1447 -0.6335
 8767SOL    HW237938   0.467   0.653   6.798 -2.0285  2.2152  0.2737
 8768SOL     OW37939   0.377   1.955   3.124  0.5977 -0.2935  0.8202
 8768SOL    HW137940   0.428   1.918   3.052 -0.0957  1.7354 -0.7266
 8768SOL    HW237941   0.438   2.017   3.164 -0.2796 -0.7288  2.8068
 8769SOL     OW37942   3.847   4.597   5.474 -0.2233 -0.4767  0.1432
 8769SOL    HW137943   3.923   4.639   5.512  0.0442 -0.2217 -0.6758
 8769SOL    HW237944   3.789   4.672   5.463 -1.4251 -1.1234  2.1677
 8770SOL     OW37945   4.633   2.207   2.258 -0.5598  0.3659  0.2290
 8770SOL    HW137946   4.634   2.245   2.170  2.9155  2.8885  1.3683
 8770SOL    HW237947   4.713   2.154   2.251 -1.0487 -0.2104 -1.0328
 8771SOL     OW37948   0.730   1.027   4.420  0.1092  0.1783  0.3692
 8771SOL    HW137949   0.719   0.943   4.376  1.2320 -0.1080  0.6447
 8771SOL    HW237950   0.764   1.001   4.505  1.9706 -0.5832 -0.6228
 8772SOL     OW37951   0.476   3.718   5.746 -0.3022 -0.4190  0.8159
 8772SOL    HW137952   0.397   3.698   5.797 -0.1750 -2.1097  0.3688
 8772SOL    HW237953   0.541   3.736   5.813 -0.5345  2.2087  0.3267
 8773SOL     OW37954   4.163   4.227  16.253  0.5418  0.1592  0.7976
 8773SOL    HW137955   4.072   4.253  16.241  0.4641 -0.6475 -0.3531
 8773SOL    HW237956   4.173   4.153  16.193  0.8376  0.8273  0.0145
 8774SOL     OW37957   1.959   4.717  16.407  0.4025  0.2315 -0.2621
 8774SOL    HW137958   2.001   0.051  16.367  0.4682  1.0440  1.3572
 8774SOL    HW237959   1.983   4.654  16.340 -1.1103 -1.2406  0.5709
 8775SOL     OW37960   2.775   3.513  14.998 -0.1184 -0.4377 -0.6556
 8775SOL    HW137961   2.763   3.583  14.934  0.4894 -1.8790 -2.3732
 8775SOL    HW237962   2.861   3.483  14.967 -0.1992 -0.2926 -1.0247
 8776SOL     OW37963   4.337   4.727   5.917  0.1449 -0.3957  0.0165
 8776SOL    HW137964   4.285   4.666   5.970  0.7415 -0.9071  0.0191
 8776SOL    HW237965   4.365   0.056   5.973 -2.8898 -0.6042  1.7667
 8777SOL     OW37966   2.013   1.147   4.049  0.3934 -0.0580 -0.2054
 8777SOL    HW137967   2.097   1.101   4.041  1.4122  1.6406  0.7440
 8777SOL    HW237968   1.951   1.089   4.005  0.2869 -0.0957 -0.0018
 8778SOL     OW37969   0.570   0.685  12.514 -0.5194 -0.2723 -0.4175
 8778SOL    HW137970   0.570   0.624  12.588 -1.0582  0.0755 -0.1299
 8778SOL    HW237971   0.479   0.687  12.483 -1.1647  1.8971  1.6330
 8779SOL     OW37972   2.067   1.961   0.239  0.5072 -0.4354  0.0428
 8779SOL    HW137973   2.136   1.980   0.175  0.4469 -1.1933 -0.2523
 8779SOL    HW237974   2.118   1.973   0.319  1.8319 -0.1922 -0.8310
 8780SOL     OW37975   4.717   3.845   4.610  0.3547  0.1821 -0.5492
 8780SOL    HW137976   4.723   3.769   4.668  0.0942 -0.1006 -0.8979
 8780SOL    HW237977   4.636   3.831   4.561 -0.6010  1.7458  0.5800
 8781SOL     OW37978   3.439   0.339   6.717  0.0201  0.4826  0.8076
 8781SOL    HW137979   3.528   0.305   6.729 -0.2173 -0.1711  0.7163
 8781SOL    HW237980   3.465   0.428   6.695  0.3405 -0.0134 -0.8214
 8782SOL     OW37981   4.621   2.755  17.046  0.0953 -0.2718 -0.0725
 8782SOL    HW137982   4.540   2.805  17.058 -0.9520 -2.3898  1.6248
 8782SOL    HW237983   4.665   2.835  17.016 -2.6814  1.6227  0.9335
 8783SOL     OW37984   3.721   0.822  12.871 -0.2175  0.0964  0.2003
 8783SOL    HW137985   3.807   0.834  12.912 -0.0806 -0.9205  0.2048
 8783SOL    HW237986   3.754   0.829  12.782 -1.8589  0.3654 -0.3742
 8784SOL     OW37987   1.784   3.764   8.380  0.4084 -0.0351  0.9438
 8784SOL    HW137988   1.709   3.748   8.322  0.7830  2.5485 -0.2505
 8784SOL    HW237989   1.804   3.858   8.376  0.3195  0.0366  2.1388
 8785SOL     OW37990   2.851   3.254   8.952  0.0016  0.0274  0.8923
 8785SOL    HW137991   2.792   3.244   9.026 -1.1498  0.3337  0.0158
 8785SOL    HW237992   2.797   3.318   8.906  0.2190 -0.3646  0.0930
 8786SOL     OW37993   1.601   4.375   5.355  0.2548  0.7604 -0.6254
 8786SOL    HW137994   1.655   4.454   5.362  0.5208  0.4710  0.4818
 8786SOL    HW237995   1.509   4.396   5.368  0.2111  1.8128 -2.6323
 8787SOL     OW37996   1.261   1.910   6.504 -0.3799  0.1490  0.2136
 8787SOL    HW137997   1.338   1.955   6.539 -1.0363  2.0728 -0.8479
 8787SOL    HW237998   1.276   1.932   6.413 -1.5528 -0.4762 -0.1310
 8788SOL     OW37999   0.924   3.951   2.839 -0.5243 -0.3268  0.1980
 8788SOL    HW138000   0.879   3.883   2.789  1.3428 -1.4624  0.0562
 8788SOL    HW238001   0.913   3.937   2.933 -0.2294  0.8548  0.4053
 8789SOL     OW38002   1.890   2.411   5.013 -0.1413  0.3794  0.2837
 8789SOL    HW138003   1.897   2.326   4.968 -0.2669 -0.0765  1.1422
 8789SOL    HW238004   1.822   2.394   5.078 -1.4531  3.5580 -0.2744
 8790SOL     OW38005   3.023   2.478  15.855 -0.8498 -0.4068 -0.3830
 8790SOL    HW138006   3.106   2.439  15.884 -1.7814 -2.4751 -0.5226
 8790SOL    HW238007   2.997   2.538  15.925 -0.3307 -0.5091 -0.1003
 8791SOL     OW38008   2.665   3.038   3.523  0.4448  0.4698 -0.3243
 8791SOL    HW138009   2.744   3.070   3.479 -0.3827 -0.8327 -2.7533
 8791SOL    HW238010   2.714   2.982   3.583  0.4294 -1.4850 -2.1485
 8792SOL     OW38011   3.559   2.511   8.759 -0.2272  0.6743  0.3615
 8792SOL    HW138012   3.625   2.561   8.807 -1.6937  0.3090  2.7836
 8792SOL    HW238013   3.586   2.516   8.667 -2.4328  0.3148 -0.3043
 8793SOL     OW38014   2.401   2.256   4.283  0.0430  0.3228  0.2964
 8793SOL    HW138015   2.456   2.328   4.314  0.9226 -0.2234  0.0183
 8793SOL    HW238016   2.334   2.251   4.350  1.6083 -1.8440  1.7165
 8794SOL     OW38017   4.198   1.019   5.149  0.4214  0.4140  0.0885
 8794SOL    HW138018   4.227   1.006   5.239 -1.7890  0.2134  0.7621
 8794SOL    HW238019   4.235   0.943   5.103 -1.0466 -0.7126  0.7663
 8795SOL     OW38020   0.091   1.995   2.789 -0.9427 -0.6590 -0.5772
 8795SOL    HW138021   0.147   1.934   2.740  0.1395  0.1314 -0.3119
 8795SOL    HW238022   0.079   1.938   2.865  0.5951 -2.1258 -1.4200
 8796SOL     OW38023   1.497   4.540   3.223  0.1063  0.7984  0.3713
 8796SOL    HW138024   1.484   4.570   3.313 -1.0384 -1.6848  1.0387
 8796SOL    HW238025   1.467   4.616   3.172 -1.8424  0.8065  1.4947
 8797SOL     OW38026   0.713   1.672   1.415 -0.1267  0.3391  0.0796
 8797SOL    HW138027   0.620   1.672   1.437 -0.0621  1.0514  0.3351
 8797SOL    HW238028   0.742   1.581   1.404 -1.4637  0.1832 -2.1557
 8798SOL     OW38029   2.007   3.483   6.325  0.6157 -0.4079 -0.5924
 8798SOL    HW138030   2.057   3.487   6.244  0.5123  2.2028 -0.5219
 8798SOL    HW238031   1.919   3.486   6.286  0.6584  1.4821 -0.5548
 8799SOL     OW38032   3.241   2.514  13.508  0.3162  0.1444  0.5048
 8799SOL    HW138033   3.265   2.425  13.532  0.7833  0.1429  0.0330
 8799SOL    HW238034   3.245   2.506  13.412  0.1752  0.0387  0.5061
 8800SOL     OW38035   1.700   1.959   9.365  0.2011  0.0718 -0.3082
 8800SOL    HW138036   1.610   1.961   9.330  0.3732 -0.0039 -0.7618
 8800SOL    HW238037   1.689   1.924   9.453  2.5726  0.8061  0.2726
 8801SOL     OW38038   2.531   3.091  15.525  0.2018 -0.1948 -0.3126
 8801SOL    HW138039   2.542   3.080  15.620  1.2002  2.0730 -0.1606
 8801SOL    HW238040   2.437   3.109  15.534  0.1776 -0.2622 -0.4367
 8802SOL     OW38041   4.690   1.831   4.755  0.0665 -0.1496 -0.2048
 8802SOL    HW138042   4.609   1.882   4.747  0.3533  0.1536 -1.2562
 8802SOL    HW238043   4.716   1.829   4.663 -1.7427 -0.3744 -0.7299
 8803SOL     OW38044   2.793   0.032   1.503 -1.0881 -0.2652 -0.1272
 8803SOL    HW138045   2.852   4.714   1.458 -1.7702 -1.6307  0.8138
 8803SOL    HW238046   2.833   0.053   1.587 -0.6396 -2.9373  0.3180
 8804SOL     OW38047   3.716   3.992  10.118  0.0081  0.6804  0.7931
 8804SOL    HW138048   3.732   4.065  10.057  1.1116 -0.4759 -0.3132
 8804SOL    HW238049   3.722   3.922  10.053 -1.1031  2.1757 -0.8984
 8805SOL     OW38050   1.994   0.074   7.596 -0.0925  0.0284 -0.3355
 8805SOL    HW138051   1.899   0.081   7.599 -0.2521 -1.4833 -1.7392
 8805SOL    HW238052   2.009   4.736   7.645  0.1578 -0.4963 -1.2654
 8806SOL     OW38053   1.071   2.605  13.573  0.2470  0.6121  0.0833
 8806SOL    HW138054   1.059   2.585  13.480  1.1159  0.2215  0.0606
 8806SOL    HW238055   0.982   2.591  13.606 -0.7715  1.0262 -2.5050
 8807SOL     OW38056   1.244   3.994   5.003  0.5405 -0.5272  0.1997
 8807SOL    HW138057   1.316   3.933   5.020 -0.8299 -1.5988  2.1846
 8807SOL    HW238058   1.176   3.963   5.063 -0.7243 -1.3048 -1.6311
 8808SOL     OW38059   0.491   4.155   4.949  0.3759  0.1589 -0.1183
 8808SOL    HW138060   0.561   4.154   4.883 -0.1570  1.8975 -0.7226
 8808SOL    HW238061   0.446   4.236   4.926  0.6696 -0.3845 -2.6187
 8809SOL     OW38062   3.646   1.327   6.052 -0.3360  0.5331 -0.7327
 8809SOL    HW138063   3.704   1.250   6.056 -1.0937  0.0928  1.6867
 8809SOL    HW238064   3.561   1.297   6.019 -0.0575  0.7330 -1.6352
 8810SOL     OW38065   4.713   1.702   7.627  0.0363 -0.0651 -0.6056
 8810SOL    HW138066   4.653   1.776   7.629 -1.1737 -0.9949 -2.7907
 8810SOL    HW238067   0.012   1.705   7.713 -1.4330  0.9958  0.0682
 8811SOL     OW38068   3.493   3.582  11.232  0.4322  0.5906 -0.1104
 8811SOL    HW138069   3.575   3.534  11.241 -1.2421 -2.2060  0.1541
 8811SOL    HW238070   3.486   3.572  11.137 -2.6414  2.4248 -0.0838
 8812SOL     OW38071   2.889   1.183   6.016 -0.4871 -0.0207 -0.4792
 8812SOL    HW138072   2.971   1.229   6.034 -0.9563  0.2436  0.9644
 8812SOL    HW238073   2.868   1.131   6.094 -0.3731  1.1441  0.3235
 8813SOL     OW38074   4.600   0.526   6.476  0.3792 -0.2527  0.3276
 8813SOL    HW138075   4.636   0.510   6.563  2.8083 -1.6079 -0.9435
 8813SOL    HW238076   4.588   0.621   6.474 -1.0639 -0.4439 -0.3229
 8814SOL     OW38077   1.182   0.615   7.020  0.3208 -0.4075  0.1552
 8814SOL    HW138078   1.276   0.598   7.029 -0.0572 -1.7655  1.5158
 8814SOL    HW238079   1.149   0.535   6.978 -0.5376 -0.6975  1.4043
 8815SOL     OW38080   0.893   3.741   4.862  0.2536  0.9216 -0.3460
 8815SOL    HW138081   0.956   3.813   4.854  1.1656  0.2904  1.1680
 8815SOL    HW238082   0.838   3.758   4.938 -1.0791 -1.0940 -0.8674
 8816SOL     OW38083   1.043   3.347   1.849 -0.1888 -0.2980 -0.2746
 8816SOL    HW138084   1.078   3.435   1.837 -0.1657 -0.4536 -1.3144
 8816SOL    HW238085   0.951   3.371   1.848 -0.1623 -0.1307  1.0108
 8817SOL     OW38086   1.273   2.063   5.973  0.3125  0.4662  0.5497
 8817SOL    HW138087   1.359   2.095   5.999  1.7866 -4.0686  1.1840
 8817SOL    HW238088   1.283   1.970   5.954 -1.9909  0.3777 -0.2384
 8818SOL     OW38089   2.515   4.338   6.786  0.6777 -0.1473  0.4342
 8818SOL    HW138090   2.583   4.312   6.723  0.3145 -1.2625  0.5001
 8818SOL    HW238091   2.571   4.367   6.859 -0.0593 -0.3314  1.0731
 8819SOL     OW38092   1.998   0.223  12.472  0.0407  0.0568  0.1635
 8819SOL    HW138093   2.023   0.149  12.527 -2.1062  0.0992  1.2190
 8819SOL    HW238094   2.076   0.227  12.417  0.3650 -0.7584  0.5740
 8820SOL     OW38095   2.254   4.423  10.678 -0.1456 -0.0336  0.6681
 8820SOL    HW138096   2.222   4.483  10.746 -0.1885 -0.6714  1.2151
 8820SOL    HW238097   2.178   4.364  10.672  1.2227 -1.7270  0.0915
 8821SOL     OW38098   3.607   3.206   3.585 -0.0932 -0.0946 -0.4941
 8821SOL    HW138099   3.640   3.273   3.525  1.1084  0.6324  0.9642
 8821SOL    HW238100   3.613   3.128   3.530  0.9397  0.2241 -0.8352
 8822SOL     OW38101   4.642   4.622  11.477  0.6726  0.1044  0.2088
 8822SOL    HW138102   4.608   4.534  11.494 -0.4476  0.6366  0.7325
 8822SOL    HW238103   4.687   4.638  11.560  2.2873 -2.7118 -0.1280
 8823SOL     OW38104   1.348   1.419   0.134 -0.4077  0.6779 -0.1886
 8823SOL    HW138105   1.348   1.364   0.212  1.4364  0.0109 -0.6714
 8823SOL    HW238106   1.259   1.455   0.140 -0.9921 -0.9033  0.7658
 8824SOL     OW38107   2.158   2.751   2.161 -0.3740  0.1773 -0.4993
 8824SOL    HW138108   2.159   2.842   2.191 -0.6931 -0.0689  0.2645
 8824SOL    HW238109   2.118   2.764   2.075 -1.9133  1.3707  0.4015
 8825SOL     OW38110   3.034   0.762   8.547  0.1200  0.1034  0.4151
 8825SOL    HW138111   3.045   0.857   8.547 -3.2633  0.5129 -2.0173
 8825SOL    HW238112   2.951   0.757   8.593  0.4309 -1.8733  0.7947
 8826SOL     OW38113   0.611   0.471  14.667  0.2266  0.1498  0.3218
 8826SOL    HW138114   0.610   0.540  14.602  1.9153  0.1177  0.2544
 8826SOL    HW238115   0.533   0.491  14.719  0.4660  2.2910 -0.1529
 8827SOL     OW38116   1.178   4.486  17.652  0.4769 -0.1036 -0.1224
 8827SOL    HW138117   1.125   4.494  17.572  0.5176  0.5656 -0.0784
 8827SOL    HW238118   1.188   4.578  17.675  0.9532  0.3420 -2.0608
 8828SOL     OW38119   3.488   3.542   6.385 -0.0959  0.1670  0.0709
 8828SOL    HW138120   3.490   3.638   6.385 -0.4565  0.1693  1.3268
 8828SOL    HW238121   3.451   3.524   6.471  0.4826 -0.4753  0.1801
 8829SOL     OW38122   1.590   1.379   7.693  0.6120 -0.7784 -0.1005
 8829SOL    HW138123   1.674   1.404   7.731 -0.0624  1.3438 -0.0075
 8829SOL    HW238124   1.536   1.430   7.753  1.5511 -0.1446  0.1997
 8830SOL     OW38125   0.167   1.810  17.272 -0.5438  0.2341 -0.0724
 8830SOL    HW138126   0.172   1.791  17.365 -0.7699 -0.6651 -0.2415
 8830SOL    HW238127   0.192   1.902  17.271  0.4393 -0.0379 -4.9304
 8831SOL     OW38128   4.705   3.782   6.029  0.8255 -0.0425 -0.2033
 8831SOL    HW138129   0.051   3.748   6.016  1.0123  1.0227 -1.7466
 8831SOL    HW238130   4.671   3.731   6.102 -0.5205  2.2472  0.7707
 8832SOL     OW38131   1.156   1.116   1.625  0.2739  0.2315 -0.1583
 8832SOL    HW138132   1.078   1.114   1.570 -0.1870  0.3483  0.4870
 8832SOL    HW238133   1.157   1.210   1.643 -0.8780  0.4739 -1.4294
 8833SOL     OW38134   2.938   4.253   4.267 -0.2172  0.2675  0.1367
 8833SOL    HW138135   2.951   4.302   4.349  1.8639  0.4973 -0.3503
 8833SOL    HW238136   2.856   4.293   4.240 -0.1971  0.6597  0.6505
 8834SOL     OW38137   4.591   3.864   7.440 -0.2936 -0.0644 -0.2778
 8834SOL    HW138138   4.548   3.949   7.450  0.7009  0.3502  0.4414
 8834SOL    HW238139   4.583   3.841   7.533 -0.7327 -0.9636 -0.5451
 8835SOL     OW38140   2.283   1.137   9.919  0.5541  0.0360 -0.4297
 8835SOL    HW138141   2.274   1.069   9.985  0.6931  1.8078  1.4141
 8835SOL    HW238142   2.291   1.088   9.837 -0.2790  0.0890 -0.5413
 8836SOL     OW38143   0.711   3.255  12.287 -0.2301  0.3002  0.7396
 8836SOL    HW138144   0.634   3.215  12.326 -0.4239  1.1432  1.2136
 8836SOL    HW238145   0.704   3.347  12.312  2.6624  0.4374  1.0850
 8837SOL     OW38146   0.327   3.702   0.039  0.0116  0.0951 -0.2143
 8837SOL    HW138147   0.360   3.741  17.724  0.2877 -1.9636 -1.0809
 8837SOL    HW238148   0.295   3.768   0.100 -2.4437 -0.5570 -0.8335
 8838SOL     OW38149   1.653   1.740   7.725 -0.1644  0.1348 -0.1044
 8838SOL    HW138150   1.565   1.708   7.705 -1.5046  2.5882  1.8590
 8838SOL    HW238151   1.655   1.737   7.821 -2.7088  1.0157 -0.0201
 8839SOL     OW38152   2.789   0.990   2.231  0.5663  0.3475  0.3103
 8839SOL    HW138153   2.714   0.941   2.195  1.9418 -0.6953 -1.1600
 8839SOL    HW238154   2.797   0.952   2.318  2.0546  2.8108  1.2629
 8840SOL     OW38155   3.419   4.667   6.694 -0.2883  0.1078  0.3646
 8840SOL    HW138156   3.359   4.617   6.749  0.8372  0.8391  2.2723
 8840SOL    HW238157   3.403   4.622   6.611  1.6056  2.0853 -1.0649
 8841SOL     OW38158   4.255   2.685  11.643  0.2912  0.0936 -0.2117
 8841SOL    HW138159   4.167   2.651  11.662 -0.3488  0.5916 -2.3236
 8841SOL    HW238160   4.275   2.732  11.724  1.9838  0.4955 -0.8668
 8842SOL     OW38161   3.355   2.826   7.406  0.0025  0.5887 -0.4112
 8842SOL    HW138162   3.278   2.838   7.351 -0.4830  1.2571  0.4140
 8842SOL    HW238163   3.355   2.912   7.448 -0.0438  0.7519 -0.7462
 8843SOL     OW38164   0.036   3.980   3.739 -0.0692  0.5397 -0.1551
 8843SOL    HW138165   0.011   3.891   3.714  0.7843  0.6227 -1.2987
 8843SOL    HW238166   0.128   3.983   3.711 -0.4202  0.0293 -1.3551
 8844SOL     OW38167   4.380   4.626   3.790  0.1628 -0.0713  0.0823
 8844SOL    HW138168   4.291   4.597   3.771 -0.7724  0.8011  3.1982
 8844SOL    HW238169   4.416   4.541   3.817  3.1542  1.1980  0.0407
 8845SOL     OW38170   2.472   3.849   6.669 -0.0118 -0.6923  0.3627
 8845SOL    HW138171   2.564   3.860   6.692  0.3441 -0.2579 -1.2985
 8845SOL    HW238172   2.437   3.938   6.671  2.5110  0.2937 -0.4829
 8846SOL     OW38173   4.119   3.698  10.015 -0.5443 -0.3528  0.1152
 8846SOL    HW138174   4.166   3.621   9.984 -0.3904  0.5397 -1.8551
 8846SOL    HW238175   4.187   3.752  10.055 -0.3882  1.1297 -2.1544
 8847SOL     OW38176   2.157   2.941  12.097  0.2103  0.3366  0.3570
 8847SOL    HW138177   2.239   2.988  12.096  0.4716 -0.1273 -0.2967
 8847SOL    HW238178   2.192   2.857  12.068  0.2447  0.7497 -0.8095
 8848SOL     OW38179   1.198   0.920   8.020 -0.4835 -0.2805  0.5741
 8848SOL    HW138180   1.137   0.965   8.079 -0.2510  1.0580 -0.1911
 8848SOL    HW238181   1.166   0.955   7.937 -1.1621  0.9018  1.3252
 8849SOL     OW38182   2.494   4.198   7.066  0.0222 -0.2461  0.0379
 8849SOL    HW138183   2.426   4.241   7.118  1.5972  2.6131 -0.2968
 8849SOL    HW238184   2.439   4.140   7.014  1.9162  0.0853 -2.3323
 8850SOL     OW38185   1.101   4.475   9.155 -0.1498  0.5228 -0.0966
 8850SOL    HW138186   1.158   4.441   9.086 -2.4243 -0.8268 -1.3034
 8850SOL    HW238187   1.148   4.551   9.189  1.9007 -0.5188 -0.5983
 8851SOL     OW38188   0.655   3.023   8.054  0.1982  0.0865  0.1261
 8851SOL    HW138189   0.647   3.083   7.980 -1.9862  0.9276  1.0296
 8851SOL    HW238190   0.750   3.014   8.064  0.0637  0.1114  1.4730
 8852SOL     OW38191   3.198   0.219   2.156 -0.3445  0.6314  0.3268
 8852SOL    HW138192   3.160   0.131   2.145  0.3467  0.0146  2.7552
 8852SOL    HW238193   3.123   0.270   2.126 -1.0514 -1.4362 -1.4643
 8853SOL     OW38194   0.059   4.130   8.365  0.3567  0.2571 -0.0283
 8853SOL    HW138195   0.118   4.106   8.437  0.2676  1.6578  0.5064
 8853SOL    HW238196   0.105   4.208   8.336  1.2625 -0.6992 -1.1790
 8854SOL     OW38197   3.072   1.007   3.790 -0.1884 -0.1303  0.1807
 8854SOL    HW138198   3.052   1.088   3.743  0.4136 -1.8852 -3.0863
 8854SOL    HW238199   3.165   1.014   3.810 -0.9480  0.2595  3.5181
 8855SOL     OW38200   1.509   2.140  14.084 -0.2957  0.1129  0.1241
 8855SOL    HW138201   1.540   2.217  14.132  1.4813 -0.9541  0.7208
 8855SOL    HW238202   1.466   2.179  14.008  0.7384  1.0068  0.0099
 8856SOL     OW38203   0.203   2.008   8.999  0.3808 -0.7676 -0.2072
 8856SOL    HW138204   0.286   2.055   9.011  1.8616 -2.6382 -3.0800
 8856SOL    HW238205   0.177   2.024   8.909  0.1639 -0.2088 -0.0472
 8857SOL     OW38206   2.981   0.043  12.484 -0.3204  0.8028  0.4052
 8857SOL    HW138207   2.972   0.124  12.434  2.6168  0.0265 -1.3973
 8857SOL    HW238208   3.027   4.726  12.425 -0.2805  0.0309  1.2233
 8858SOL     OW38209   3.113   1.808   0.270 -0.1975  0.1940  0.2465
 8858SOL    HW138210   3.179   1.870   0.302 -0.5904 -0.0647  1.5248
 8858SOL    HW238211   3.103   1.824   0.176  1.9466  0.1568  0.0133
 8859SOL     OW38212   0.054   2.387   9.479  0.2047  0.0852  0.2323
 8859SOL    HW138213   0.119   2.411   9.545  0.1144 -2.5579  1.2484
 8859SOL    HW238214   4.717   2.439   9.495  0.4424  0.1330  1.2655
 8860SOL     OW38215   1.231   1.422  17.392  0.2416 -0.9147  0.4625
 8860SOL    HW138216   1.313   1.392  17.352  0.1140  0.0981 -0.5782
 8860SOL    HW238217   1.232   1.375  17.475 -1.2590 -0.8826  0.4925
 8861SOL     OW38218   2.462   1.741  11.780 -0.0671  0.3978 -0.0708
 8861SOL    HW138219   2.430   1.765  11.866 -2.4809 -1.3649 -0.4737
 8861SOL    HW238220   2.382   1.765  11.733  1.0172  0.1732 -2.0554
 8862SOL     OW38221   3.614   0.066   5.469 -0.5925 -0.7446  0.6538
 8862SOL    HW138222   3.545   0.005   5.446 -1.3848  1.0462 -1.6734
 8862SOL    HW238223   3.617   0.106   5.383 -1.2350 -1.2242  0.4080
 8863SOL     OW38224   2.025   4.612   7.824 -0.5643  0.8708 -0.2093
 8863SOL    HW138225   1.984   4.577   7.903  0.9154 -0.3674 -0.0063
 8863SOL    HW238226   2.102   4.654   7.862  0.3658 -1.6527  0.6773
 8864SOL     OW38227   0.641   0.082   0.516 -0.0004  0.3643  0.3216
 8864SOL    HW138228   0.622   0.040   0.432  1.4948 -2.5088  1.4287
 8864SOL    HW238229   0.734   0.065   0.530 -0.0769 -0.5530 -0.2297
 8865SOL     OW38230   1.954   2.552   6.366 -0.0473  0.8349 -0.1547
 8865SOL    HW138231   1.920   2.529   6.280 -1.7681  0.4428  0.6136
 8865SOL    HW238232   1.968   2.647   6.360  0.9912  0.8691  2.5749
 8866SOL     OW38233   1.306   2.610   8.069 -0.2318  0.2407  0.0177
 8866SOL    HW138234   1.382   2.562   8.039 -2.0290 -1.5606 -1.6549
 8866SOL    HW238235   1.332   2.686   8.120 -0.4927  0.7555 -0.6196
 8867SOL     OW38236   1.443   3.541   7.581  0.5109 -0.1858 -0.8187
 8867SOL    HW138237   1.460   3.572   7.670 -1.3058 -1.0410 -0.1623
 8867SOL    HW238238   1.425   3.447   7.584 -2.0406  0.3711  0.8416
 8868SOL     OW38239   1.634   1.100  12.893 -0.3539 -0.7561  0.5208
 8868SOL    HW138240   1.553   1.103  12.841  0.0790  2.4039  0.0181
 8868SOL    HW238241   1.663   1.190  12.881 -0.4235 -0.9713 -1.2244
 8869SOL     OW38242   0.255   2.563  10.821 -0.0836  0.5440 -0.3181
 8869SOL    HW138243   0.304   2.619  10.881  1.0188  1.0561 -1.6999
 8869SOL    HW238244   0.265   2.479  10.867  1.8055 -0.2048 -2.0704
 8870SOL     OW38245   2.683   2.087   8.741  0.3891 -0.5452 -0.2901
 8870SOL    HW138246   2.712   1.995   8.737  1.8994 -0.0125 -1.7367
 8870SOL    HW238247   2.698   2.099   8.835  2.7298  1.0940 -0.8643
 8871SOL     OW38248   3.707   2.364   9.026 -0.1828 -0.1070 -0.2749
 8871SOL    HW138249   3.630   2.413   9.054  0.1351  1.1415 -1.5979
 8871SOL    HW238250   3.786   2.406   9.059  0.5445 -1.3578 -0.4097
 8872SOL     OW38251   0.566   2.780   5.039 -0.0241 -0.4805 -0.4888
 8872SOL    HW138252   0.564   2.684   5.038  1.6779 -0.5301  2.7100
 8872SOL    HW238253   0.658   2.788   5.016  0.4623 -2.8818  0.6760
 8873SOL     OW38254   3.763   1.950  15.863 -0.1171  0.2627  0.7154
 8873SOL    HW138255   3.680   1.991  15.838  0.9618  1.4638 -0.8985
 8873SOL    HW238256   3.736   1.860  15.846 -0.9795  0.5905  0.3664
 8874SOL     OW38257   3.941   4.652   2.676 -0.0227  0.5398  0.7789
 8874SOL    HW138258   3.858   4.627   2.636  0.5023  4.0113 -2.4849
 8874SOL    HW238259   3.945   4.611   2.763  0.8314  1.5332  1.2069
 8875SOL     OW38260   4.518   3.183   4.889 -0.0514 -0.2663 -0.2686
 8875SOL    HW138261   4.509   3.188   4.984  1.3173 -0.9276 -0.1072
 8875SOL    HW238262   4.497   3.274   4.868 -1.1089 -0.1528  1.3070
 8876SOL     OW38263   0.677   4.240  17.446 -0.2554  0.2178 -0.2643
 8876SOL    HW138264   0.738   4.201  17.383 -0.0809 -1.3663  0.8947
 8876SOL    HW238265   0.734   4.294  17.501  0.8769 -0.0008 -1.2192
 8877SOL     OW38266   1.920   0.765   2.874 -0.4999 -0.0326  0.4601
 8877SOL    HW138267   1.996   0.798   2.922 -1.5308  1.1313  1.2670
 8877SOL    HW238268   1.962   0.739   2.792  1.5736 -1.4643  1.9480
 8878SOL     OW38269   4.717   4.306   3.210  0.1289  0.0271 -0.2444
 8878SOL    HW138270   4.722   4.212   3.190  1.7398  0.0056  0.2905
 8878SOL    HW238271   0.052   4.340   3.166 -0.6311  1.0801 -0.7593
 8879SOL     OW38272   3.114   3.826   5.754  0.1516 -0.4474 -0.0054
 8879SOL    HW138273   3.112   3.797   5.845  0.0343  2.3072  0.8657
 8879SOL    HW238274   3.041   3.887   5.746 -1.0691 -1.8375  0.5506
 8880SOL     OW38275   0.866   4.089   3.907 -0.6957 -0.0579  0.2090
 8880SOL    HW138276   0.825   4.143   3.975  0.6684  2.8937 -1.3292
 8880SOL    HW238277   0.805   4.113   3.838  1.7173  0.7223 -1.6476
 8881SOL     OW38278   4.382   0.186  17.716  0.0891  0.1960  0.1939
 8881SOL    HW138279   4.384   0.193  17.620 -3.9732  2.1248  0.2773
 8881SOL    HW238280   4.367   0.094  17.738 -1.0398  0.4698  0.5410
 8882SOL     OW38281   1.518   1.335   8.150  0.5811 -0.2168 -0.4264
 8882SOL    HW138282   1.423   1.340   8.160  0.4276  1.9907 -3.1392
 8882SOL    HW238283   1.529   1.295   8.063 -1.4853  0.0041 -0.7839
 8883SOL     OW38284   0.770   3.878   6.445  0.4750 -0.3961 -0.3931
 8883SOL    HW138285   0.731   3.923   6.370  0.2145 -0.0831 -0.0647
 8883SOL    HW238286   0.692   3.833   6.476  1.3758 -0.9399  1.1139
 8884SOL     OW38287   0.989   3.315  14.971 -0.0817  0.4076 -0.1456
 8884SOL    HW138288   1.048   3.389  14.964 -1.0541  1.2049  0.0043
 8884SOL    HW238289   1.043   3.243  14.938 -2.5895 -0.7459 -1.7665
 8885SOL     OW38290   2.704   1.262  13.733  0.0056  0.2442 -0.4272
 8885SOL    HW138291   2.625   1.210  13.745  0.1393  0.3171  0.7380
 8885SOL    HW238292   2.744   1.240  13.817 -0.2234  2.3394  0.2309
 8886SOL     OW38293   3.137   0.609   3.345  0.2107 -0.1138 -0.4751
 8886SOL    HW138294   3.073   0.589   3.276 -0.0991  1.0267 -0.5095
 8886SOL    HW238295   3.110   0.548   3.414 -1.7138  1.6890  0.3737
 8887SOL     OW38296   0.267   4.396   8.966  0.4722 -0.3143  0.0816
 8887SOL    HW138297   0.302   4.332   9.027  0.9031  1.1065  1.3222
 8887SOL    HW238298   0.175   4.396   8.991 -0.3788 -0.9575 -2.9533
 8888SOL     OW38299   3.886   1.153   0.942 -0.2764 -0.0504  0.6424
 8888SOL    HW138300   3.849   1.168   0.855  1.6362 -0.6615 -0.2897
 8888SOL    HW238301   3.895   1.244   0.970  0.6345  0.0633 -0.0088
 8889SOL     OW38302   2.630   1.274   2.463  0.2603 -0.0651  0.3224
 8889SOL    HW138303   2.586   1.197   2.427 -1.5129  1.1960 -0.2092
 8889SOL    HW238304   2.720   1.259   2.434 -0.2469  1.5072 -2.1191
 8890SOL     OW38305   1.093   3.569  14.463  0.4413  0.3699  0.1128
 8890SOL    HW138306   1.052   3.648  14.429 -1.9538 -0.8098  0.3039
 8890SOL    HW238307   1.146   3.548  14.386 -1.2312 -3.6815  0.0974
 8891SOL     OW38308   3.111   2.195  15.584  0.1175  0.7365  0.1443
 8891SOL    HW138309   3.205   2.211  15.577  0.6121 -1.0407  2.6753
 8891SOL    HW238310   3.074   2.283  15.573  0.7171  0.8738 -0.7187
 8892SOL     OW38311   2.504   1.963   8.330  0.1838  0.6349  0.2875
 8892SOL    HW138312   2.510   1.972   8.426  3.0542 -2.1306  0.3895
 8892SOL    HW238313   2.452   2.041   8.314  0.6394  0.8944  0.0808
 8893SOL     OW38314   0.840   0.520   6.532 -0.1576 -0.0226 -0.1494
 8893SOL    HW138315   0.890   0.441   6.515  3.2991  1.7081  1.9730
 8893SOL    HW238316   0.896   0.589   6.497 -0.8024  1.0993  0.9980
 8894SOL     OW38317   4.191   0.168   9.864 -0.2041 -0.1012  0.3374
 8894SOL    HW138318   4.249   0.094   9.880 -1.7065 -0.9692  1.7740
 8894SOL    HW238319   4.197   0.177   9.769  2.1861 -1.2333  0.3927
 8895SOL     OW38320   0.910   3.779   8.668 -0.5130 -0.3645 -0.3489
 8895SOL    HW138321   0.953   3.707   8.714 -0.6862 -1.7141 -2.2693
 8895SOL    HW238322   0.951   3.769   8.582 -3.7833 -1.4021 -1.7644
 8896SOL     OW38323   2.119   0.717   2.063  0.5792 -0.0826 -0.1425
 8896SOL    HW138324   2.101   0.798   2.111  1.1685  0.1489 -0.3167
 8896SOL    HW238325   2.140   0.738   1.972  0.9059  2.0558  0.4339
 8897SOL     OW38326   2.271   3.132   7.531 -0.0348 -0.0548 -0.3005
 8897SOL    HW138327   2.186   3.149   7.574 -0.2622 -0.4549 -0.5925
 8897SOL    HW238328   2.275   3.037   7.543  0.4830  0.0646  0.4646
 8898SOL     OW38329   0.871   1.996   3.459  0.3534  0.3338 -0.0823
 8898SOL    HW138330   0.806   1.992   3.389 -0.2934 -0.4370  0.5512
 8898SOL    HW238331   0.925   2.068   3.428  1.4791 -0.5035 -0.0671
 8899SOL     OW38332   2.018   3.825   6.683  0.0473  0.3152  0.4733
 8899SOL    HW138333   2.023   3.764   6.609 -0.8085 -0.6260  1.1810
 8899SOL    HW238334   2.104   3.827   6.725 -0.5477  1.3722  1.6263
 8900SOL     OW38335   2.090   2.464   4.097 -0.8969 -0.0498  0.1663
 8900SOL    HW138336   2.027   2.535   4.110 -0.3382  0.5009 -0.1796
 8900SOL    HW238337   2.072   2.430   4.009  1.2070 -0.8786  0.0446
 8901SOL     OW38338   3.765   2.908  16.722  0.0339 -0.3560 -0.3894
 8901SOL    HW138339   3.687   2.858  16.699 -0.5289 -0.8542  2.5741
 8901SOL    HW238340   3.735   2.996  16.702  2.8526  0.9168  1.0120
 8902SOL     OW38341   3.490   1.985   5.707 -0.3207 -0.2474 -0.2043
 8902SOL    HW138342   3.428   1.915   5.687  0.6495 -1.6346  1.6566
 8902SOL    HW238343   3.485   1.954   5.798 -0.8317 -0.0460 -0.1651
 8903SOL     OW38344   4.570   2.787  11.361  0.6270 -0.2615 -0.3430
 8903SOL    HW138345   4.574   2.824  11.449  0.6590  1.8844 -1.2374
 8903SOL    HW238346   4.636   2.843  11.319  0.5566 -0.5188 -0.7951
 8904SOL     OW38347   0.084   3.075   5.108 -0.0566 -0.0798  0.2574
 8904SOL    HW138348   0.136   3.068   5.187 -0.3751  1.1593  0.5805
 8904SOL    HW238349   0.120   3.156   5.071  0.2555  0.6589  2.1815
 8905SOL     OW38350   3.608   0.375   6.101 -0.6136 -0.2778  0.2307
 8905SOL    HW138351   3.665   0.301   6.122 -0.9995 -0.8098 -0.6316
 8905SOL    HW238352   3.641   0.435   6.168 -0.5859  1.2032 -1.0994
 8906SOL     OW38353   0.589   4.519  15.754  0.0593 -0.1182 -0.4925
 8906SOL    HW138354   0.558   4.512  15.844  0.3495 -0.4986 -0.4204
 8906SOL    HW238355   0.546   4.451  15.703  1.5559 -1.6370  0.2921
 8907SOL     OW38356   4.173   2.763  16.500 -0.3438 -0.2603 -0.6885
 8907SOL    HW138357   4.121   2.787  16.576  0.5686  1.3926 -0.5837
 8907SOL    HW238358   4.262   2.762  16.536 -0.6463  0.5884  0.0911
 8908SOL     OW38359   3.945   1.402   1.059  0.3945  0.5135 -0.7464
 8908SOL    HW138360   3.900   1.486   1.064  1.2539  0.8253  1.5355
 8908SOL    HW238361   4.002   1.409   1.135 -0.6218 -1.4501  0.1936
 8909SOL     OW38362   3.826   1.655   1.117  0.7785 -0.5364 -0.0354
 8909SOL    HW138363   3.736   1.624   1.133 -0.3983  2.2999 -1.1150
 8909SOL    HW238364   3.862   1.647   1.205  0.1910  1.1392  0.3658
 8910SOL     OW38365   3.738   1.029   5.879 -0.4641  0.4165  0.2036
 8910SOL    HW138366   3.754   1.019   5.973  0.0283  0.9390  0.1743
 8910SOL    HW238367   3.644   1.039   5.868 -0.8059 -4.0653 -0.7589
 8911SOL     OW38368   1.912   1.815  11.667  0.5840  0.2179 -0.2805
 8911SOL    HW138369   1.823   1.831  11.697 -0.0496 -0.8462 -1.6125
 8911SOL    HW238370   1.916   1.885  11.602  0.4029  0.6454  0.1612
 8912SOL     OW38371   4.730   3.679   8.799  0.3738  0.7428  0.1502
 8912SOL    HW138372   0.062   3.673   8.739  1.1234 -0.4694  1.1863
 8912SOL    HW238373   0.005   3.602   8.853  0.4839  0.2621 -0.5686
 8913SOL     OW38374   4.261   2.584  16.822 -0.4602  0.6416 -0.0450
 8913SOL    HW138375   4.262   2.514  16.887  1.3165  1.5247  0.8862
 8913SOL    HW238376   4.251   2.535  16.741 -1.4616  0.9000 -0.0779
 8914SOL     OW38377   0.083   0.090   7.934  0.0190 -0.0392 -0.3172
 8914SOL    HW138378   0.119   0.154   7.872  2.0475 -0.5581  0.3199
 8914SOL    HW238379   4.731   0.104   7.930  0.0624  0.8130  1.3874
 8915SOL     OW38380   0.912   2.851   5.653 -0.2645  0.0194  0.2504
 8915SOL    HW138381   0.916   2.767   5.699  1.7471 -0.2370 -0.4098
 8915SOL    HW238382   0.892   2.915   5.722 -2.9213  2.8464 -3.1300
 8916SOL     OW38383   4.581   0.421   4.549 -0.0410  0.4335 -0.1928
 8916SOL    HW138384   4.559   0.329   4.560  0.8353  0.1839 -0.5340
 8916SOL    HW238385   4.556   0.426   4.456 -1.0295  1.4559  0.1379
 8917SOL     OW38386   0.411   0.678   3.193 -0.4024  0.3830 -0.0427
 8917SOL    HW138387   0.398   0.600   3.247 -3.1128 -1.3287 -3.1950
 8917SOL    HW238388   0.502   0.696   3.218 -0.2915 -0.0238 -0.1534
 8918SOL     OW38389   2.933   1.420   3.187  0.0592  0.3531  0.6705
 8918SOL    HW138390   2.955   1.333   3.221 -1.0391 -1.2506 -2.7413
 8918SOL    HW238391   2.840   1.407   3.170 -0.2722  0.5682  2.2642
 8919SOL     OW38392   2.552   1.479   9.379 -0.1009 -0.2990  0.1160
 8919SOL    HW138393   2.461   1.505   9.368 -0.9588 -2.5636  1.7676
 8919SOL    HW238394   2.540   1.428   9.459  0.3706  0.9369  0.9767
 8920SOL     OW38395   2.814   2.729   4.116  0.2677  0.8215  0.1468
 8920SOL    HW138396   2.896   2.738   4.067 -0.2841 -1.8666 -1.2195
 8920SOL    HW238397   2.826   2.794   4.186  0.1796 -1.5841  2.4192
 8921SOL     OW38398   1.681   3.544  15.575 -0.4835 -0.9298 -0.6062
 8921SOL    HW138399   1.664   3.489  15.651 -0.7593  0.8016  0.5878
 8921SOL    HW238400   1.742   3.484  15.532  0.1712  1.3439 -2.8861
 8922SOL     OW38401   2.791   1.179   6.556 -0.2420 -0.0746 -0.5951
 8922SOL    HW138402   2.857   1.182   6.486  0.5054  1.3802  0.1533
 8922SOL    HW238403   2.710   1.211   6.515 -1.1209  0.9355  1.9519
 8923SOL     OW38404   3.091   3.806  17.115 -0.5758  0.2289  0.6453
 8923SOL    HW138405   3.039   3.886  17.106  0.5762  0.8031 -0.8093
 8923SOL    HW238406   3.035   3.738  17.154 -2.0007  0.3769 -1.1035
 8924SOL     OW38407   0.240   0.577   6.951 -0.7748 -0.0141  0.8057
 8924SOL    HW138408   0.231   0.487   6.922 -2.4855  0.6474 -0.6816
 8924SOL    HW238409   0.258   0.622   6.869 -1.4132 -2.0201 -0.4297
 8925SOL     OW38410   4.566   1.510   3.201 -0.3145  0.2396 -0.1667
 8925SOL    HW138411   4.600   1.474   3.119 -1.0258 -1.9189  0.4738
 8925SOL    HW238412   4.495   1.557   3.157 -1.4306 -1.8671 -0.6107
 8926SOL     OW38413   4.266   1.742   1.198 -0.4394  0.1338  0.6172
 8926SOL    HW138414   4.241   1.731   1.106  2.0035  0.0924 -0.0308
 8926SOL    HW238415   4.273   1.652   1.230 -1.1574  0.0952  0.6858
 8927SOL     OW38416   3.820   0.235  13.345 -0.2447 -0.2107 -0.5915
 8927SOL    HW138417   3.789   0.219  13.256 -1.5045 -1.4390  0.0654
 8927SOL    HW238418   3.860   0.319  13.322  0.2272 -0.6541 -1.3958
 8928SOL     OW38419   0.017   1.918   6.140  0.2535 -0.4867  0.5544
 8928SOL    HW138420   0.097   1.865   6.133  0.7221  0.3686 -0.6310
 8928SOL    HW238421   0.027   1.971   6.219 -0.2343 -0.3493  0.5255
 8929SOL     OW38422   1.823   3.926   7.466  0.0156  0.1487  0.2729
 8929SOL    HW138423   1.839   3.858   7.400 -0.5854  0.5597 -0.2995
 8929SOL    HW238424   1.794   4.004   7.418 -2.9445 -1.0376  0.1492
 8930SOL     OW38425   1.062   0.711   1.402 -0.0329  0.6122 -0.0839
 8930SOL    HW138426   0.980   0.665   1.422  0.1281  0.6087  0.5611
 8930SOL    HW238427   1.121   0.666   1.462  1.2705  0.2984 -1.6285
 8931SOL     OW38428   2.977   2.767   5.725 -0.7017 -0.1162 -0.4078
 8931SOL    HW138429   2.919   2.831   5.683  0.0874 -1.3955 -3.3859
 8931SOL    HW238430   2.969   2.692   5.667 -0.8265  0.0346 -0.5836
 8932SOL     OW38431   3.475   0.643  16.394 -0.3021 -0.6709  0.2797
 8932SOL    HW138432   3.523   0.571  16.435 -0.4033 -1.4612 -0.9911
 8932SOL    HW238433   3.487   0.713  16.459  0.5129  0.3814 -1.0044
 8933SOL     OW38434   1.539   1.108   9.052 -0.5685  0.1588  0.6315
 8933SOL    HW138435   1.447   1.128   9.070 -0.3081  0.7153  1.3055
 8933SOL    HW238436   1.549   1.017   9.023 -3.1373 -0.9677  3.2141
 8934SOL     OW38437   3.084   3.762   3.335 -0.6859  0.0543 -0.0677
 8934SOL    HW138438   3.053   3.718   3.256 -1.7215 -0.8230  0.8231
 8934SOL    HW238439   3.124   3.841   3.300 -0.1532 -0.8557 -1.5337
 8935SOL     OW38440   2.670   1.872   7.759 -0.1222  0.4170  0.2191
 8935SOL    HW138441   2.648   1.785   7.726 -0.0581  0.1294  0.9353
 8935SOL    HW238442   2.669   1.927   7.681 -3.5730 -0.2710 -0.2176
 8936SOL     OW38443   2.945   0.904  13.363 -0.0032 -0.9035  0.3253
 8936SOL    HW138444   3.029   0.889  13.319  0.5478  4.0047 -0.2776
 8936SOL    HW238445   2.900   0.932  13.283  0.1461 -0.0353  0.5421
 8937SOL     OW38446   3.370   0.270   8.795  0.4114 -0.0855 -0.6730
 8937SOL    HW138447   3.293   0.312   8.834  2.3716  2.1866  0.7199
 8937SOL    HW238448   3.432   0.262   8.867  0.9756 -0.8573 -1.2606
 8938SOL     OW38449   0.763   3.356   0.706 -0.0733 -0.2626  0.2609
 8938SOL    HW138450   0.688   3.413   0.724  0.0635 -0.5998  1.9480
 8938SOL    HW238451   0.812   3.401   0.637  1.0713  1.4441  2.2031
 8939SOL     OW38452   1.823   0.905   5.399 -0.2522  1.1133  0.6211
 8939SOL    HW138453   1.897   0.964   5.387 -0.2265  0.7484 -1.0181
 8939SOL    HW238454   1.774   0.945   5.471  1.1207  2.1942  0.9628
 8940SOL     OW38455   0.043   3.647   9.552 -0.1518 -0.8391 -0.5024
 8940SOL    HW138456   0.008   3.736   9.560  1.1806 -0.4480  1.2491
 8940SOL    HW238457   0.041   3.637   9.457 -0.2908 -2.6623 -0.3004
 8941SOL     OW38458   0.326   0.725   8.126 -0.1033 -0.4014  0.4578
 8941SOL    HW138459   0.396   0.776   8.085 -3.4975  2.8603 -1.1767
 8941SOL    HW238460   0.250   0.783   8.123 -0.7063 -1.2247 -0.0242
 8942SOL     OW38461   1.652   3.514   1.091  0.0634 -0.1060  0.0363
 8942SOL    HW138462   1.613   3.599   1.110 -1.5566 -0.5086 -1.3967
 8942SOL    HW238463   1.568   3.468   1.088  0.4109 -0.6655 -1.1663
 8943SOL     OW38464   4.103   0.096  12.356 -0.4670 -0.2403  0.4613
 8943SOL    HW138465   4.072   0.065  12.441 -1.0500 -0.5945  0.1226
 8943SOL    HW238466   4.025   0.141  12.326 -0.0448 -0.7333 -1.3602
 8944SOL     OW38467   0.089   2.978   0.839 -0.0972 -0.2338  0.4378
 8944SOL    HW138468   0.047   2.999   0.923 -1.7573 -1.2234 -0.1435
 8944SOL    HW238469   0.122   3.064   0.812 -2.0581 -0.4054 -2.5538
 8945SOL     OW38470   1.125   1.602   3.882  0.3520  0.5282  0.4023
 8945SOL    HW138471   1.121   1.681   3.828  1.2766  0.3299  0.0490
 8945SOL    HW238472   1.175   1.636   3.956  0.2780  0.0729  0.6637
 8946SOL     OW38473   2.289   0.781  10.298 -0.8231  0.3990  0.4858
 8946SOL    HW138474   2.310   0.688  10.302  0.5566  0.7328  1.0648
 8946SOL    HW238475   2.194   0.770  10.309 -0.7643 -0.3705  0.2553
 8947SOL     OW38476   4.650   0.313   8.162 -0.3294 -0.1388  0.1745
 8947SOL    HW138477   4.692   0.398   8.152 -0.7052  0.3329  2.5195
 8947SOL    HW238478   4.561   0.347   8.171 -0.7269 -1.1999  0.2859
 8948SOL     OW38479   3.245   0.783   5.366  0.1774  0.0605  0.4950
 8948SOL    HW138480   3.239   0.767   5.272  0.4070  2.1770  0.1194
 8948SOL    HW238481   3.173   0.731   5.401  0.0232  0.3816  0.6528
 8949SOL     OW38482   0.243   0.071   9.575 -0.1184  0.0390  0.3176
 8949SOL    HW138483   0.243   0.103   9.665 -1.4034 -0.0977  0.3769
 8949SOL    HW238484   0.174   0.005   9.584  0.8793 -1.1807 -0.9973
 8950SOL     OW38485   1.557   4.653  10.039 -0.0590 -0.0326  0.4705
 8950SOL    HW138486   1.526   4.607  10.117  0.4670  1.6606  1.6749
 8950SOL    HW238487   1.603   4.581   9.995 -2.1786 -1.8370  1.2377
 8951SOL     OW38488   2.286   3.703   5.806 -0.6777 -0.2977  0.2677
 8951SOL    HW138489   2.292   3.792   5.770 -0.3266 -0.6259 -0.4902
 8951SOL    HW238490   2.298   3.718   5.899 -1.6303  0.1830  0.3123
 8952SOL     OW38491   2.794   1.496   0.429 -0.2489 -0.0296  0.0455
 8952SOL    HW138492   2.841   1.536   0.355 -0.6398 -1.2468 -0.8610
 8952SOL    HW238493   2.809   1.403   0.411  0.8437 -0.0396  0.9775
 8953SOL     OW38494   0.241   3.164   1.438  0.3913  0.2386 -0.0458
 8953SOL    HW138495   0.287   3.100   1.493  1.2108  1.9969  1.3233
 8953SOL    HW238496   0.190   3.203   1.509  1.1115 -3.0078  2.2616
 8954SOL     OW38497   3.824   4.400  11.409 -0.2687  0.1907 -0.2803
 8954SOL    HW138498   3.777   4.322  11.438 -0.5105  1.1637  1.9286
 8954SOL    HW238499   3.813   4.450  11.490 -2.0292 -0.3875 -0.1750
 8955SOL     OW38500   4.141   4.226  17.000  0.6576 -0.0698  0.1305
 8955SOL    HW138501   4.057   4.235  16.955 -0.7502 -2.8374  2.1781
 8955SOL    HW238502   4.195   4.267  16.933 -1.3786  0.4986 -1.1428
 8956SOL     OW38503   0.102   0.309   7.788  0.1465  0.2716  0.5668
 8956SOL    HW138504   0.105   0.403   7.772 -0.8844  0.0897 -0.7063
 8956SOL    HW238505   0.058   0.275   7.709 -1.7367 -2.0983  2.6384
 8957SOL     OW38506   4.115   4.155   4.834 -0.5893 -0.1218  0.0871
 8957SOL    HW138507   4.030   4.122   4.862 -0.3844 -0.4149  0.3720
 8957SOL    HW238508   4.109   4.137   4.740  0.9447  0.9396 -0.2037
 8958SOL     OW38509   2.286   3.408   5.825  0.2355 -0.1712  0.1168
 8958SOL    HW138510   2.369   3.381   5.864 -0.5660 -2.1276  0.4423
 8958SOL    HW238511   2.310   3.474   5.759  0.7813 -0.0139  0.4764
 8959SOL     OW38512   0.028   2.254   7.738  0.2108 -0.0736  0.0553
 8959SOL    HW138513   4.680   2.221   7.737  0.2197 -0.1274  2.4417
 8959SOL    HW238514   0.071   2.184   7.689 -1.0355  0.5919 -2.0118
 8960SOL     OW38515   3.921   1.188   5.436 -0.6808 -0.2710  0.2151
 8960SOL    HW138516   3.952   1.265   5.387 -0.7991 -0.0472  0.4879
 8960SOL    HW238517   3.914   1.125   5.365  2.9561 -0.4450  0.0313
 8961SOL     OW38518   4.554   4.046  12.765  0.2085 -0.8092  0.1248
 8961SOL    HW138519   4.563   3.967  12.818  2.5281 -2.6651 -3.0750
 8961SOL    HW238520   4.607   4.109  12.812 -1.4001  1.0805 -0.5921
 8962SOL     OW38521   3.737   1.856   3.411 -0.2555  0.1327 -1.0080
 8962SOL    HW138522   3.766   1.929   3.358 -0.2371  0.5372 -0.4419
 8962SOL    HW238523   3.818   1.808   3.429  0.1934  1.6043  0.9258
 8963SOL     OW38524   2.624   3.932  13.432 -0.1736 -0.2298  0.2401
 8963SOL    HW138525   2.653   3.841  13.439  1.5512  0.3022  0.0345
 8963SOL    HW238526   2.546   3.916  13.379 -1.1422  0.4953  1.4518
 8964SOL     OW38527   2.013   1.381   9.421 -0.2573 -0.2300 -0.0726
 8964SOL    HW138528   2.006   1.369   9.326  2.8725 -0.3923 -0.2898
 8964SOL    HW238529   1.990   1.296   9.459  0.3062  0.7528  2.4793
 8965SOL     OW38530   1.105   1.872   9.830  0.2204  0.5273 -0.1793
 8965SOL    HW138531   1.012   1.860   9.846  0.0965  1.9302  0.1174
 8965SOL    HW238532   1.119   1.956   9.875  1.5480  0.1967  0.0302
 8966SOL     OW38533   1.064   4.202   9.195  0.2930  0.0383  0.0242
 8966SOL    HW138534   0.994   4.143   9.223 -1.6510  2.2999 -0.0777
 8966SOL    HW238535   1.025   4.288   9.211  1.7972  0.6391  0.4458
 8967SOL     OW38536   2.619   0.212   2.108 -0.0669 -0.1577 -0.2855
 8967SOL    HW138537   2.531   0.192   2.139 -0.3680 -0.6362 -1.4765
 8967SOL    HW238538   2.633   0.135   2.053 -2.8018  0.1456 -1.3603
 8968SOL     OW38539   0.579   3.303   1.717  0.0889  0.3181 -0.2605
 8968SOL    HW138540   0.586   3.234   1.782  3.0397  0.4567 -0.4397
 8968SOL    HW238541   0.484   3.301   1.710  0.1510 -0.1238 -0.9655
 8969SOL     OW38542   1.390   0.833   7.036  0.2407  0.1504 -0.1363
 8969SOL    HW138543   1.439   0.871   7.110 -0.5131 -0.8119  0.8560
 8969SOL    HW238544   1.411   0.741   7.054  3.8812  1.2692  1.3209
 8970SOL     OW38545   0.251   2.724  15.847 -0.2315  0.4063  0.5110
 8970SOL    HW138546   0.237   2.818  15.832  0.3120  0.4622  0.3348
 8970SOL    HW238547   0.192   2.709  15.921 -2.7554  1.4212 -1.3070
 8971SOL     OW38548   3.810   0.097   1.971 -0.4175  0.1467  0.0305
 8971SOL    HW138549   3.884   0.114   2.029 -0.6001  2.1365 -0.3251
 8971SOL    HW238550   3.835   0.007   1.949  1.4827  1.0848 -1.6086
 8972SOL     OW38551   0.748   4.221   1.244  0.4399  0.7578  0.2194
 8972SOL    HW138552   0.708   4.306   1.263 -0.2693  0.4035  0.2946
 8972SOL    HW238553   0.696   4.163   1.299 -2.5056 -0.1541 -3.5335
 8973SOL     OW38554   1.620   0.336  14.506  0.4855 -0.1706 -0.5856
 8973SOL    HW138555   1.679   0.383  14.564  0.6075  0.6867 -1.3999
 8973SOL    HW238556   1.598   0.255  14.552  0.3923  1.1051  1.5875
 8974SOL     OW38557   4.412   0.678   4.792 -0.0219  0.4351 -0.3479
 8974SOL    HW138558   4.317   0.673   4.803  0.0895  0.6997  0.6890
 8974SOL    HW238559   4.434   0.742   4.860 -1.4090 -0.4172  0.8982
 8975SOL     OW38560   0.273   3.974   7.556 -0.1180 -0.4007  0.3377
 8975SOL    HW138561   0.345   3.911   7.555 -0.9183 -1.3135 -0.5910
 8975SOL    HW238562   0.303   4.046   7.611 -0.4209 -0.6266  0.8041
 8976SOL     OW38563   2.180   0.922  10.907  0.4022  0.0167 -0.5415
 8976SOL    HW138564   2.143   0.851  10.959  0.4732  1.4479  1.4605
 8976SOL    HW238565   2.247   0.943  10.973 -0.3176 -0.0373  0.2086
 8977SOL     OW38566   0.437   1.728  13.795 -0.0442  0.0363  0.0433
 8977SOL    HW138567   0.530   1.706  13.792  0.0851  0.8367 -2.1076
 8977SOL    HW238568   0.383   1.656  13.826  0.3597 -0.1705  0.2578
 8978SOL     OW38569   1.209   1.698  15.476 -0.4203 -0.3345  0.5743
 8978SOL    HW138570   1.157   1.651  15.541 -0.0386 -1.5232  0.0293
 8978SOL    HW238571   1.254   1.627  15.429  0.0456 -0.4737  1.2253
 8979SOL     OW38572   0.424   2.104   2.752 -0.2042  0.5860  0.2465
 8979SOL    HW138573   0.468   2.019   2.741 -0.1910  0.3541  2.2047
 8979SOL    HW238574   0.346   2.086   2.700  0.3949  0.2056 -0.5306
 8980SOL     OW38575   3.555   4.695   3.672  0.6829  0.5563  0.0752
 8980SOL    HW138576   3.544   0.012   3.597  0.7830 -1.2900 -1.3939
 8980SOL    HW238577   3.565   4.612   3.627 -1.3272 -0.0797  0.7960
 8981SOL     OW38578   0.991   1.187   2.056  0.2950 -0.1413  0.2112
 8981SOL    HW138579   0.912   1.237   2.037  0.7191  0.8953  1.2036
 8981SOL    HW238580   1.048   1.227   1.991 -0.4220 -0.2442 -0.4774
 8982SOL     OW38581   2.907   1.942   3.093  0.1443 -0.0504  0.4886
 8982SOL    HW138582   2.980   1.882   3.077  1.3011  1.4666  0.0172
 8982SOL    HW238583   2.832   1.883   3.091  0.5907 -0.5333 -1.8246
 8983SOL     OW38584   1.044   2.292  17.044 -0.7209 -0.4868 -0.4840
 8983SOL    HW138585   1.117   2.254  16.995  1.0993  0.3455  1.5887
 8983SOL    HW238586   0.992   2.341  16.979  1.0561  1.2648 -0.5604
 8984SOL     OW38587   0.937   1.029   4.921 -0.0509  0.3787 -0.2618
 8984SOL    HW138588   0.891   1.113   4.919 -1.8498 -0.5332  2.1533
 8984SOL    HW238589   1.002   1.042   4.853  0.4228 -1.4829 -0.1699
 8985SOL     OW38590   4.615   0.206   2.874 -0.1048 -0.3605  0.1964
 8985SOL    HW138591   4.540   0.210   2.933  0.3469 -1.3306  0.8316
 8985SOL    HW238592   4.585   0.164   2.794 -0.1485  0.5744 -0.2814
 8986SOL     OW38593   2.086   3.082   2.075 -0.2958 -0.1813  0.1979
 8986SOL    HW138594   2.045   3.068   1.990 -1.1721  2.0274  0.2623
 8986SOL    HW238595   2.073   3.175   2.091  1.3965 -0.0925  1.0246
 8987SOL     OW38596   3.944   3.456  13.020  0.3344 -0.2938 -0.0401
 8987SOL    HW138597   3.943   3.383  12.957 -2.8455 -0.6000  0.3871
 8987SOL    HW238598   4.010   3.422  13.080 -0.4187  0.2577  1.0914
 8988SOL     OW38599   1.994   1.932   1.829  0.1394 -0.5900  0.1518
 8988SOL    HW138600   2.004   1.925   1.924  0.1090 -2.4958  0.0064
 8988SOL    HW238601   1.958   2.021   1.820  2.5638  0.4861  1.0627
 8989SOL     OW38602   2.036   2.209   1.590 -0.2962  0.2572 -0.2409
 8989SOL    HW138603   1.999   2.290   1.556 -0.3250 -0.8771 -2.9093
 8989SOL    HW238604   2.006   2.218   1.681 -3.3163 -2.2116 -0.9902
 8990SOL     OW38605   4.017   0.041   5.246 -0.4683 -0.6223 -0.0062
 8990SOL    HW138606   4.080   4.725   5.289  1.3457  2.3260  1.3583
 8990SOL    HW238607   4.044   0.020   5.157 -0.1334  0.4632 -0.1642
 8991SOL     OW38608   4.487   1.377   1.312  0.9545 -0.2052 -0.3997
 8991SOL    HW138609   4.510   1.428   1.389 -4.2892  0.5018  0.7069
 8991SOL    HW238610   4.502   1.449   1.251  3.2590 -1.1878 -0.9779
 8992SOL     OW38611   3.257   4.671   1.303  0.1494  0.7712 -0.1406
 8992SOL    HW138612   3.329   4.725   1.335  1.3351 -0.5085 -0.6728
 8992SOL    HW238613   3.239   4.629   1.387 -1.3031 -0.4835 -1.0846
 8993SOL     OW38614   2.191   0.732   5.881 -0.1554 -0.3893 -0.2787
 8993SOL    HW138615   2.204   0.817   5.923 -1.3498 -0.1910 -0.3083
 8993SOL    HW238616   2.114   0.743   5.825 -0.9670 -2.3999  0.4592
 8994SOL     OW38617   2.794   0.552  15.415 -0.0045 -0.1191 -0.5614
 8994SOL    HW138618   2.867   0.497  15.387  0.3867 -0.5942  1.4236
 8994SOL    HW238619   2.735   0.524  15.345 -1.5301 -0.3193  0.7935
 8995SOL     OW38620   2.508   1.021   1.840 -0.4288  0.2658  0.0983
 8995SOL    HW138621   2.497   1.113   1.815 -1.2630  0.3756  0.8660
 8995SOL    HW238622   2.476   0.980   1.759  0.2024 -0.1496  0.0570
 8996SOL     OW38623   3.412   1.077   9.730 -0.4121 -0.5746 -0.3025
 8996SOL    HW138624   3.485   1.019   9.748 -1.2451 -1.5348 -0.0498
 8996SOL    HW238625   3.444   1.134   9.659 -0.5156 -0.5885 -0.3612
 8997SOL     OW38626   4.534   2.145   5.434  0.6630  0.3002  0.5635
 8997SOL    HW138627   4.579   2.100   5.363  0.3468  2.4927 -1.0265
 8997SOL    HW238628   4.467   2.080   5.454 -0.5212  1.1763 -0.5907
 8998SOL     OW38629   1.224   3.114   2.298  0.2860  0.2004  0.2462
 8998SOL    HW138630   1.291   3.103   2.365  1.1287 -1.6132 -0.9102
 8998SOL    HW238631   1.252   3.060   2.224  0.8622 -0.7045  1.1204
 8999SOL     OW38632   0.918   4.455  14.025 -0.5492 -0.6116 -0.4234
 8999SOL    HW138633   0.979   4.504  13.970 -1.4451  3.3265  2.0714
 8999SOL    HW238634   0.960   4.465  14.110 -0.8292 -3.3197  0.0325
 9000SOL     OW38635   2.402   3.425   0.774 -0.0970  0.4968 -0.2774
 9000SOL    HW138636   2.437   3.370   0.704  0.8808 -2.7907  2.8103
 9000SOL    HW238637   2.478   3.470   0.810 -0.5906  0.0572  1.2771
 9001SOL     OW38638   2.220   2.251   0.546 -0.5652  0.2090 -0.2014
 9001SOL    HW138639   2.216   2.157   0.564  0.2237  0.5125  1.5717
 9001SOL    HW238640   2.232   2.275   0.638  1.1740  0.6579 -0.5414
 9002SOL     OW38641   4.731   2.998   9.024  0.4604  0.0916  0.1728
 9002SOL    HW138642   4.738   3.092   9.007 -0.8521  0.0602 -0.5221
 9002SOL    HW238643   4.691   3.010   9.110  1.2820 -1.9711  0.8620
 9003SOL     OW38644   4.587   0.438   5.289 -0.4633  0.4900  0.1218
 9003SOL    HW138645   4.617   0.520   5.329 -0.8321 -0.1036  1.5957
 9003SOL    HW238646   4.666   0.387   5.306 -1.2615 -0.6725  0.2822
 9004SOL     OW38647   0.826   3.680   7.028  0.3699 -0.7386  0.0715
 9004SOL    HW138648   0.856   3.672   6.938  1.5382  2.3191  0.2170
 9004SOL    HW238649   0.760   3.748   7.028  1.0805 -0.0583 -0.4564
 9005SOL     OW38650   3.033   0.216   0.262  0.0062 -0.0148 -0.0241
 9005SOL    HW138651   2.986   0.155   0.319  0.6601  0.6960  1.2580
 9005SOL    HW238652   3.108   0.257   0.306  0.9037  0.4057 -1.9283
 9006SOL     OW38653   1.436   1.326  15.549  0.7049 -0.6804  0.2704
 9006SOL    HW138654   1.373   1.254  15.553  1.3300 -1.1860  1.0502
 9006SOL    HW238655   1.459   1.343  15.641 -1.6871  1.7701  0.4082
 9007SOL     OW38656   3.296   2.625   6.644  0.4559  0.0233 -0.0810
 9007SOL    HW138657   3.222   2.611   6.703 -0.5874  1.1926 -1.0915
 9007SOL    HW238658   3.283   2.718   6.625 -2.6819 -0.6750 -1.3289
 9008SOL     OW38659   0.482   1.030  15.805 -0.4338 -0.0977 -0.0429
 9008SOL    HW138660   0.452   1.062  15.720  1.6173 -0.5669 -0.9654
 9008SOL    HW238661   0.576   1.010  15.795 -0.7162 -1.3384 -0.2188
 9009SOL     OW38662   3.935   1.715  16.553  0.0579  0.2442 -0.2224
 9009SOL    HW138663   3.943   1.805  16.520 -2.0929  0.9788  1.2718
 9009SOL    HW238664   4.017   1.679  16.519 -0.0546 -1.6169  1.5521
 9010SOL     OW38665   2.633   2.070  11.729  0.3109 -0.8781  0.6946
 9010SOL    HW138666   2.626   2.044  11.637  1.7624 -0.3498  0.4437
 9010SOL    HW238667   2.609   2.162  11.721  1.2452 -0.6080  0.9909
 9011SOL     OW38668   3.223   2.998   8.233  0.0023 -0.3080  0.1810
 9011SOL    HW138669   3.180   3.006   8.318 -0.4250  1.3051 -0.1822
 9011SOL    HW238670   3.183   2.922   8.191 -0.3097 -1.9071  3.4093
 9012SOL     OW38671   2.503   1.594   8.077 -0.1669  0.1304 -0.9391
 9012SOL    HW138672   2.435   1.569   8.014 -1.6318 -1.2823  1.2091
 9012SOL    HW238673   2.508   1.690   8.070  1.0348  0.1804  0.7476
 9013SOL     OW38674   1.581   0.553  15.788  0.6487  0.3920  0.0004
 9013SOL    HW138675   1.667   0.583  15.757 -0.4264  4.0192  0.5391
 9013SOL    HW238676   1.520   0.622  15.761 -0.0426 -1.3103 -2.8015
 9014SOL     OW38677   0.814   2.525   8.649  0.0333 -0.6970  0.0687
 9014SOL    HW138678   0.865   2.559   8.575 -1.1655  2.3278  0.6259
 9014SOL    HW238679   0.832   2.432   8.632  2.0629 -0.2679 -0.0377
 9015SOL     OW38680   3.547   3.810   2.318 -0.1469 -0.2739 -0.1402
 9015SOL    HW138681   3.622   3.846   2.271 -0.3327  0.0855 -0.1623
 9015SOL    HW238682   3.482   3.877   2.294  0.2400 -1.0967 -3.4251
 9016SOL     OW38683   1.172   0.426   3.950 -0.5641  0.4025  0.2287
 9016SOL    HW138684   1.128   0.346   3.920 -2.4522  1.9282 -1.1403
 9016SOL    HW238685   1.098   0.487   3.956 -0.8054  0.2052 -0.7971
 9017SOL     OW38686   1.971   1.120   5.314 -0.1979 -0.3636 -0.1174
 9017SOL    HW138687   1.880   1.139   5.293  0.4092  0.1410 -2.2680
 9017SOL    HW238688   1.991   1.207   5.347  2.0872 -0.6738 -0.6402
 9018SOL     OW38689   2.536   1.593   6.734  0.5479 -0.1278  0.7871
 9018SOL    HW138690   2.585   1.511   6.742  2.9069  1.2597  0.5717
 9018SOL    HW238691   2.535   1.618   6.826  1.7366  2.6078  0.0403
 9019SOL     OW38692   3.462   3.784   5.305 -0.3411  0.1457 -0.1021
 9019SOL    HW138693   3.408   3.795   5.383  0.8349 -0.7072  0.8115
 9019SOL    HW238694   3.541   3.834   5.323  1.1789 -1.8787 -1.1094
 9020SOL     OW38695   0.463   1.653  12.739  0.6069  0.2749 -0.1327
 9020SOL    HW138696   0.435   1.562  12.739  4.3613 -0.8671  0.7462
 9020SOL    HW238697   0.558   1.649  12.752  0.6231 -0.6897 -0.5559
 9021SOL     OW38698   3.787   1.490   7.539  0.3898  0.0858  0.2464
 9021SOL    HW138699   3.825   1.561   7.590  1.9746 -0.2114 -0.5468
 9021SOL    HW238700   3.781   1.420   7.605 -0.9877 -1.3915 -1.4326
 9022SOL     OW38701   0.267   3.693   5.520  0.3648  0.6867 -0.1444
 9022SOL    HW138702   0.177   3.718   5.539  0.4822  0.7329  0.3512
 9022SOL    HW238703   0.280   3.615   5.573 -0.9303 -0.4324 -1.4358
 9023SOL     OW38704   3.696   0.465   9.067 -0.2458  0.0777 -0.3926
 9023SOL    HW138705   3.712   0.465   9.161  0.6102 -0.3596 -0.5386
 9023SOL    HW238706   3.680   0.560   9.061 -0.7816  0.0712  1.0130
 9024SOL     OW38707   3.968   3.850   0.119  0.4320 -0.1136 -0.1740
 9024SOL    HW138708   3.980   3.791   0.193  1.4186 -0.7600 -0.8596
 9024SOL    HW238709   4.047   3.901   0.138  0.6665 -0.5614  0.0459
 9025SOL     OW38710   4.270   0.971   9.884 -0.2076 -0.0802 -0.0409
 9025SOL    HW138711   4.211   1.041   9.854  2.4977  3.2129  2.3882
 9025SOL    HW238712   4.308   0.937   9.803  1.2129  3.0180 -0.6547
 9026SOL     OW38713   2.691   1.970  16.261 -0.2517  0.2689  0.3630
 9026SOL    HW138714   2.767   2.012  16.221  0.0750 -1.6858 -1.0768
 9026SOL    HW238715   2.674   1.894  16.205 -0.6879  0.5513  0.1139
 9027SOL     OW38716   1.322   0.812   8.852 -0.1112  0.3287 -0.1069
 9027SOL    HW138717   1.375   0.859   8.916 -1.8678  0.1342  1.4901
 9027SOL    HW238718   1.338   0.853   8.766 -0.3613  0.1471 -0.2388
 9028SOL     OW38719   4.590   4.649   6.291 -0.2665 -0.5157 -0.0041
 9028SOL    HW138720   4.667   4.691   6.329 -1.0889  1.0203 -0.0287
 9028SOL    HW238721   4.582   4.683   6.201 -1.7557  1.3108  0.8097
 9029SOL     OW38722   3.939   1.173  16.284 -0.0731  0.2559 -0.0288
 9029SOL    HW138723   3.905   1.152  16.371 -0.6401 -3.5457 -1.1903
 9029SOL    HW238724   3.879   1.239  16.250  2.8740  4.0320  2.0903
 9030SOL     OW38725   0.252   3.634   9.728  0.7827 -0.0084  0.2253
 9030SOL    HW138726   0.177   3.644   9.669  1.3285 -1.1423 -0.6573
 9030SOL    HW238727   0.258   3.726   9.754 -2.7073  0.3585 -0.3037
 9031SOL     OW38728   0.147   4.488   5.371  0.2523  0.1199  0.0114
 9031SOL    HW138729   0.080   4.422   5.388 -0.3585  0.4828 -1.0466
 9031SOL    HW238730   0.114   4.571   5.405 -1.6977 -1.4847  2.0519
 9032SOL     OW38731   2.797   4.588   6.764  0.4675 -0.2021  0.1731
 9032SOL    HW138732   2.861   4.553   6.826 -0.1670  0.3949  1.1759
 9032SOL    HW238733   2.755   4.662   6.809 -0.3771  0.4580 -1.6980
 9033SOL     OW38734   0.164   3.747  17.260  0.4490  0.2976 -0.2710
 9033SOL    HW138735   0.183   3.835  17.228 -0.2942  0.1194 -1.2046
 9033SOL    HW238736   0.122   3.701  17.187  0.2268  0.6194 -0.3487
 9034SOL     OW38737   2.604   1.544   5.686 -0.0823  1.0275 -0.2158
 9034SOL    HW138738   2.694   1.516   5.670 -0.1859  1.4934 -1.5711
 9034SOL    HW238739   2.612   1.636   5.661 -1.1270  0.6265 -1.9286
 9035SOL     OW38740   3.397   3.627   4.007 -0.1734 -0.4668 -0.0318
 9035SOL    HW138741   3.314   3.675   4.004 -1.0761 -2.1183 -1.2751
 9035SOL    HW238742   3.465   3.692   3.989  0.9733 -1.1162  2.0120
 9036SOL     OW38743   1.640   1.112  11.186 -0.1224  0.9068 -0.0558
 9036SOL    HW138744   1.687   1.107  11.269  0.2982  0.2724 -0.3299
 9036SOL    HW238745   1.704   1.070  11.129  0.2775 -1.2397  1.9441
 9037SOL     OW38746   0.328   3.343  10.035 -0.1108  0.2252  0.6715
 9037SOL    HW138747   0.257   3.292   9.995 -0.2147 -1.0589  2.4983
 9037SOL    HW238748   0.353   3.297  10.115  1.7281 -1.1964 -0.7375
 9038SOL     OW38749   2.519   1.115   6.787 -0.1001 -0.0315 -0.2460
 9038SOL    HW138750   2.456   1.137   6.856  3.3558  1.8127  2.3718
 9038SOL    HW238751   2.475   1.043   6.742  1.9112 -2.1604  1.1745
 9039SOL     OW38752   2.951   3.343   4.215  0.2557  0.2809  0.0321
 9039SOL    HW138753   3.019   3.302   4.268 -0.2013  1.6274  1.6522
 9039SOL    HW238754   2.910   3.260   4.191 -1.5381  1.9224 -2.6015
 9040SOL     OW38755   3.242   3.883   6.264  0.0404 -0.3147 -0.7503
 9040SOL    HW138756   3.329   3.869   6.227  0.3769 -0.6442  0.1642
 9040SOL    HW238757   3.251   3.837   6.347 -0.5391 -1.9561 -1.6036
 9041SOL     OW38758   0.527   4.408   7.423  0.4529 -0.4240 -0.5800
 9041SOL    HW138759   0.619   4.406   7.450  0.4341 -2.0804 -0.6195
 9041SOL    HW238760   0.486   4.340   7.477  0.2121 -2.2118 -3.0249
 9042SOL     OW38761   2.482   3.537   2.588 -0.2168  0.1899 -0.2665
 9042SOL    HW138762   2.424   3.515   2.515  0.2560 -0.5253 -0.4315
 9042SOL    HW238763   2.460   3.628   2.603 -2.8024 -0.5904  0.5788
 9043SOL     OW38764   3.565   0.451  13.613  0.0127 -0.4734 -0.0444
 9043SOL    HW138765   3.499   0.383  13.626 -0.7405  0.1592 -0.4790
 9043SOL    HW238766   3.590   0.436  13.521  1.1069 -0.4543  0.2494
 9044SOL     OW38767   4.272   2.001   5.181 -0.0966 -0.1127 -0.1103
 9044SOL    HW138768   4.364   2.022   5.196 -0.6268  1.8438  0.4029
 9044SOL    HW238769   4.232   2.071   5.232 -1.1065 -0.4487 -0.4339
 9045SOL     OW38770   0.649   4.439   6.089  0.0870  0.1291 -0.1143
 9045SOL    HW138771   0.596   4.418   6.012 -1.9147 -0.4968  1.4480
 9045SOL    HW238772   0.632   4.358   6.137 -0.6878  0.4635  0.1688
 9046SOL     OW38773   1.551   4.704   4.879 -0.1709 -0.0852  0.4577
 9046SOL    HW138774   1.613   0.028   4.909 -0.3504  1.0161 -1.6737
 9046SOL    HW238775   1.611   4.629   4.868  3.0502  2.3459  1.3280
 9047SOL     OW38776   0.250   1.572   5.790  0.1149 -0.2784 -0.1329
 9047SOL    HW138777   0.291   1.529   5.865 -1.1468 -0.0726  0.6752
 9047SOL    HW238778   0.163   1.577   5.829  0.7515  1.1843  1.0856
 9048SOL     OW38779   3.702   4.073   8.596  0.2456 -0.4416  0.5825
 9048SOL    HW138780   3.615   4.070   8.555  0.7670 -0.6155 -0.5123
 9048SOL    HW238781   3.683   4.044   8.685 -1.9189  0.6220  0.4862
 9049SOL     OW38782   4.159   2.020   2.282  0.2731  0.3677  0.1658
 9049SOL    HW138783   4.096   2.062   2.340 -0.1857  0.9607 -0.7710
 9049SOL    HW238784   4.235   2.012   2.340  0.1063 -0.3974  0.2831
 9050SOL     OW38785   0.452   1.597   2.914  0.0043  0.0170  0.1464
 9050SOL    HW138786   0.484   1.650   2.840 -0.6181 -0.9131 -0.7900
 9050SOL    HW238787   0.468   1.509   2.882  0.2720 -0.2733  1.1056
 9051SOL     OW38788   2.343   2.749   4.223  0.3159 -0.4160 -0.4678
 9051SOL    HW138789   2.368   2.733   4.131  2.2081  0.0265 -0.0429
 9051SOL    HW238790   2.265   2.694   4.222 -0.9931  1.4420 -0.3911
 9052SOL     OW38791   2.980   0.103   1.738  0.0507  0.0068 -0.5449
 9052SOL    HW138792   3.016   0.030   1.789  2.1034  1.4429  0.0771
 9052SOL    HW238793   3.055   0.151   1.704  0.0234  1.0194  0.8395
 9053SOL     OW38794   3.980   4.701   6.181  0.4631  0.0416 -0.5931
 9053SOL    HW138795   3.937   4.642   6.119 -0.8812  0.3554  0.0488
 9053SOL    HW238796   3.952   4.668   6.266  0.7077 -1.4218 -1.0807
 9054SOL     OW38797   0.971   2.347   7.287  0.2033 -0.1124 -0.8919
 9054SOL    HW138798   0.968   2.309   7.200  1.9303 -0.9699 -0.5870
 9054SOL    HW238799   1.018   2.280   7.336  0.9032  1.1580  0.2000
 9055SOL     OW38800   3.556   4.549   1.149 -0.0929 -0.3010  0.5332
 9055SOL    HW138801   3.503   4.518   1.222 -0.4993  0.4346  0.5438
 9055SOL    HW238802   3.639   4.559   1.197  0.3272  0.1612 -0.2909
 9056SOL     OW38803   3.443   2.670   5.055  0.0902  0.6693 -0.2276
 9056SOL    HW138804   3.439   2.733   5.127 -1.1690  0.6171 -0.2468
 9056SOL    HW238805   3.357   2.681   5.015  0.1996  0.2626 -0.5728
 9057SOL     OW38806   0.398   2.667   4.172 -0.1596  0.1384  0.4709
 9057SOL    HW138807   0.405   2.745   4.118  0.6892  1.7097  2.8756
 9057SOL    HW238808   0.304   2.663   4.188 -0.8353  2.4194 -2.9522
 9058SOL     OW38809   3.390   2.797  15.756 -0.0927  0.0801  0.4164
 9058SOL    HW138810   3.432   2.854  15.692  0.2114 -1.1163 -0.4584
 9058SOL    HW238811   3.462   2.745  15.792  0.3030 -1.2647 -2.3198
 9059SOL     OW38812   1.341   2.436   0.737 -0.5477 -0.0885  0.1141
 9059SOL    HW138813   1.417   2.495   0.742 -0.5484 -0.1034  0.3109
 9059SOL    HW238814   1.269   2.497   0.723 -1.2838 -1.4683 -2.1302
 9060SOL     OW38815   4.031   0.292   5.137 -0.3704 -0.7958 -0.0972
 9060SOL    HW138816   4.013   0.201   5.162 -0.4986 -0.3757  1.3210
 9060SOL    HW238817   4.004   0.287   5.045 -1.2364 -1.6944  0.2042
 9061SOL     OW38818   0.723   1.126   1.444 -0.1663 -0.5619 -0.5024
 9061SOL    HW138819   0.761   1.061   1.502  2.1738 -0.5110 -1.9956
 9061SOL    HW238820   0.794   1.125   1.380  0.1536 -0.4049 -0.1476
 9062SOL     OW38821   3.543   2.382   6.806  0.6255 -0.3069  0.1271
 9062SOL    HW138822   3.525   2.476   6.799 -2.2269 -0.8309  0.5296
 9062SOL    HW238823   3.591   2.366   6.724  0.1218  2.1831 -0.6651
 9063SOL     OW38824   1.776   1.142  15.286 -0.1658  1.1835  0.5063
 9063SOL    HW138825   1.794   1.106  15.373  0.2883 -0.2547 -0.1779
 9063SOL    HW238826   1.801   1.071  15.227 -0.9935  0.5421  0.9266
 9064SOL     OW38827   0.634   1.623   8.846  0.0551  0.1667  0.5308
 9064SOL    HW138828   0.695   1.696   8.835 -0.9890  0.8742 -0.5536
 9064SOL    HW238829   0.689   1.551   8.816 -0.0937 -0.2382  1.2304
 9065SOL     OW38830   3.856   3.885   7.779  0.1696  0.3617 -0.8623
 9065SOL    HW138831   3.768   3.907   7.750 -0.0765 -0.3871 -0.6772
 9065SOL    HW238832   3.899   3.969   7.791 -0.3698  0.5702 -0.4207
 9066SOL     OW38833   1.820   4.022   4.049  0.1062 -0.0450 -0.1196
 9066SOL    HW138834   1.779   3.938   4.067 -1.2523  0.8907  1.0980
 9066SOL    HW238835   1.748   4.082   4.067  1.0027  1.1024 -0.3080
 9067SOL     OW38836   1.268   4.320   0.468  0.5146  0.2324  0.4660
 9067SOL    HW138837   1.359   4.294   0.485  0.5661  2.0934  3.0933
 9067SOL    HW238838   1.210   4.282   0.533  0.3987 -0.5122 -0.0724
 9068SOL     OW38839   2.520   1.257   6.526 -0.5250 -0.4987 -0.4009
 9068SOL    HW138840   2.464   1.247   6.449 -1.3793 -0.5711  0.2215
 9068SOL    HW238841   2.458   1.226   6.592 -0.8214  0.7616 -0.0855
 9069SOL     OW38842   2.239   3.743   0.022  0.0057 -0.4292 -0.3500
 9069SOL    HW138843   2.215   3.650   0.023 -0.8992 -0.1927  1.0232
 9069SOL    HW238844   2.186   3.771   0.097  1.2992  0.1701  0.3345
 9070SOL     OW38845   3.511   1.459  14.779  0.6976  0.8172 -0.1248
 9070SOL    HW138846   3.588   1.418  14.818 -0.5757  0.2338  1.7439
 9070SOL    HW238847   3.531   1.484  14.689  2.2168 -0.0494 -0.0253
 9071SOL     OW38848   3.309   1.474   5.176 -0.5080 -0.3676 -0.3697
 9071SOL    HW138849   3.296   1.417   5.252 -0.2636 -0.2263 -0.2203
 9071SOL    HW238850   3.400   1.504   5.177 -0.0115 -1.8981  0.6360
 9072SOL     OW38851   1.369   3.369  15.724 -0.5947 -0.5145 -0.0821
 9072SOL    HW138852   1.298   3.412  15.677  0.0398  1.1888  0.5109
 9072SOL    HW238853   1.355   3.410  15.810 -0.9078 -0.9030  0.0489
 9073SOL     OW38854   0.903   2.115  10.364 -0.1109 -0.3485 -0.5383
 9073SOL    HW138855   0.837   2.068  10.416  1.7632 -0.5373  1.6839
 9073SOL    HW238856   0.884   2.076  10.279  0.7012 -3.0584  0.5120
 9074SOL     OW38857   0.823   2.458   9.457  0.1399 -0.8058 -0.1471
 9074SOL    HW138858   0.844   2.551   9.463  1.1046 -1.0052 -0.3558
 9074SOL    HW238859   0.760   2.439   9.526 -0.7497  1.9857 -0.1980
 9075SOL     OW38860   4.701   1.384   6.506  0.0859  0.0082  0.4314
 9075SOL    HW138861   4.619   1.423   6.477  0.2064 -0.1908 -0.1663
 9075SOL    HW238862   4.715   1.313   6.444 -2.5570  1.0727 -1.3647
 9076SOL     OW38863   2.620   0.640   2.139  0.4230  0.2994 -0.6666
 9076SOL    HW138864   2.645   0.691   2.062 -2.0902 -0.7222 -2.1719
 9076SOL    HW238865   2.700   0.658   2.188 -0.0629 -0.4370  0.3839
 9077SOL     OW38866   2.653   4.091   5.173 -0.2714  0.5313  0.7385
 9077SOL    HW138867   2.669   4.148   5.248 -0.4972  1.5329  0.0241
 9077SOL    HW238868   2.678   4.146   5.099 -1.9881 -0.1353 -0.3485
 9078SOL     OW38869   1.626   3.226  12.541 -0.5034  0.2447  0.1022
 9078SOL    HW138870   1.652   3.296  12.601 -1.5240  0.9746 -0.2993
 9078SOL    HW238871   1.568   3.282  12.490 -0.6812  0.6267  0.7277
 9079SOL     OW38872   0.083   1.798   1.357 -0.1686 -0.0127 -0.9995
 9079SOL    HW138873   0.024   1.745   1.411 -0.3139 -0.2747 -1.4146
 9079SOL    HW238874   0.147   1.734   1.326 -1.1799 -1.3738 -0.2843
 9080SOL     OW38875   1.825   1.103   9.173 -0.0033  0.3696 -0.5915
 9080SOL    HW138876   1.747   1.105   9.117 -0.5897  0.8446  0.2450
 9080SOL    HW238877   1.790   1.106   9.262 -2.1043 -0.9662 -1.3496
 9081SOL     OW38878   4.115   1.073   2.041  0.2671 -0.2054 -0.0865
 9081SOL    HW138879   4.056   1.037   1.974  0.6630 -1.0169 -0.0055
 9081SOL    HW238880   4.164   0.991   2.053  0.4956 -0.2223 -1.1328
 9082SOL     OW38881   3.393   1.490   4.061 -0.0262  0.3996 -0.1283
 9082SOL    HW138882   3.466   1.531   4.107  0.4743  1.3824 -1.8277
 9082SOL    HW238883   3.428   1.435   3.991 -0.5544 -1.1978  0.8510
 9083SOL     OW38884   3.962   0.458   4.507 -0.4068  0.0459  0.2602
 9083SOL    HW138885   4.010   0.474   4.588 -0.6593 -1.5654  0.7321
 9083SOL    HW238886   3.916   0.377   4.527  0.6707  0.0119  2.5972
 9084SOL     OW38887   2.842   2.001   9.986  0.1886  0.3973 -0.2403
 9084SOL    HW138888   2.862   2.012  10.079 -0.8232  3.2697 -0.3583
 9084SOL    HW238889   2.818   2.090   9.960  0.1438 -0.1516 -2.0926
 9085SOL     OW38890   1.287   1.031  16.349 -0.1974 -0.1909 -0.3070
 9085SOL    HW138891   1.358   0.972  16.377 -0.2262 -0.0010  0.1738
 9085SOL    HW238892   1.227   1.029  16.424  2.7334 -0.2424  2.0803
 9086SOL     OW38893   0.345   3.111   5.659 -0.1440 -0.6100  0.3529
 9086SOL    HW138894   0.270   3.056   5.636  0.0929 -0.3742 -1.0096
 9086SOL    HW238895   0.317   3.199   5.634  0.5682 -0.5302 -0.1561
 9087SOL     OW38896   1.522   2.225   6.053 -0.1163  0.2322  0.2997
 9087SOL    HW138897   1.530   2.282   5.976 -1.5570  0.5286  0.3859
 9087SOL    HW238898   1.596   2.250   6.108 -0.9730  3.0397  0.1379
 9088SOL     OW38899   0.183   3.335   6.192 -0.3806  0.2944  0.0697
 9088SOL    HW138900   0.094   3.362   6.167 -0.2691  1.3560  0.8269
 9088SOL    HW238901   0.186   3.337   6.288  0.5186 -0.0172  0.0463
 9089SOL     OW38902   1.308   1.810   9.118 -0.5675  0.2975 -0.0976
 9089SOL    HW138903   1.307   1.862   9.199 -0.9627 -0.4625  0.3781
 9089SOL    HW238904   1.282   1.725   9.154  0.0963 -0.5857 -1.7281
 9090SOL     OW38905   2.285   1.851   6.417  0.3659  0.0579  0.3329
 9090SOL    HW138906   2.292   1.795   6.339 -0.8159  0.4612 -0.0658
 9090SOL    HW238907   2.311   1.936   6.382  2.0388 -0.5501  0.0915
 9091SOL     OW38908   4.082   0.141   2.120 -0.4599  0.4767  0.2116
 9091SOL    HW138909   4.034   0.065   2.151  0.4383 -1.2605 -2.6409
 9091SOL    HW238910   4.140   0.158   2.195 -1.2105  1.5308  0.5625
 9092SOL     OW38911   2.055   3.936   5.845  0.1133 -0.4909  0.7498
 9092SOL    HW138912   2.149   3.940   5.830  0.1250 -1.0839  0.6691
 9092SOL    HW238913   2.049   3.939   5.940  0.6069 -0.3151  0.7745
 9093SOL     OW38914   0.678   0.539   5.344  0.7126 -0.0433 -0.1872
 9093SOL    HW138915   0.686   0.500   5.431 -2.3315  0.9549  0.5396
 9093SOL    HW238916   0.712   0.470   5.287 -1.1102 -1.8640  0.9324
 9094SOL     OW38917   1.629   1.351   1.775  0.3874  0.1331 -0.0057
 9094SOL    HW138918   1.665   1.440   1.779 -2.5981  1.2801  1.8146
 9094SOL    HW238919   1.602   1.351   1.683  2.3734  0.4844 -0.5977
 9095SOL     OW38920   4.538   4.447  14.071 -0.1777  0.5564  0.4860
 9095SOL    HW138921   4.492   4.526  14.099  0.4217  1.0729 -0.0154
 9095SOL    HW238922   4.629   4.453  14.098  0.6573 -1.4411 -1.8631
 9096SOL     OW38923   4.275   3.969   7.659 -0.7099 -0.5179 -0.6652
 9096SOL    HW138924   4.218   4.044   7.644  0.0382  0.5965  2.0857
 9096SOL    HW238925   4.361   3.998   7.629  0.3711 -1.8687  1.1102
 9097SOL     OW38926   3.871   3.136   5.790  0.2301  0.3197  0.0103
 9097SOL    HW138927   3.894   3.176   5.706 -2.9608  0.1445 -0.9339
 9097SOL    HW238928   3.884   3.215   5.841 -0.9607  0.4745  0.0620
 9098SOL     OW38929   1.514   3.093  10.292  1.0425  0.0777  0.3189
 9098SOL    HW138930   1.595   3.106  10.241  2.3076 -3.0416  1.5138
 9098SOL    HW238931   1.559   3.103  10.376 -1.6505  0.4270  1.6980
 9099SOL     OW38932   4.184   1.227   2.265  0.3059 -0.0533 -0.5836
 9099SOL    HW138933   4.276   1.200   2.264 -0.1321 -1.5072 -2.4137
 9099SOL    HW238934   4.151   1.184   2.186  0.8881  3.7618 -2.8675
 9100SOL     OW38935   3.428   3.964   7.175 -0.6379  0.2545  0.5561
 9100SOL    HW138936   3.379   3.882   7.169 -0.3998  0.1555 -0.1046
 9100SOL    HW238937   3.494   3.932   7.236  1.3994 -0.0660 -1.8231
 9101SOL     OW38938   3.033   0.418   2.060 -0.1569  0.1470 -0.0113
 9101SOL    HW138939   3.073   0.504   2.060 -0.3622  0.2573  2.3673
 9101SOL    HW238940   2.939   0.430   2.046 -0.7065 -4.6047 -0.3489
 9102SOL     OW38941   2.174   2.411  11.563 -0.0565  0.1658  0.1389
 9102SOL    HW138942   2.167   2.386  11.471 -0.8908  2.9497 -0.5403
 9102SOL    HW238943   2.135   2.337  11.610  0.9201 -0.6992 -0.4222
 9103SOL     OW38944   2.925   0.505   2.808 -0.2661  0.4067 -0.4133
 9103SOL    HW138945   2.926   0.434   2.873 -2.3829 -1.2185 -2.1398
 9103SOL    HW238946   2.997   0.495   2.746  1.5530 -2.3181  2.1306
 9104SOL     OW38947   1.332   4.431   8.535 -0.3142  0.7766 -0.4911
 9104SOL    HW138948   1.293   4.343   8.533  1.4541  0.0274 -1.4946
 9104SOL    HW238949   1.308   4.470   8.619  1.0112 -0.1617  0.3131
 9105SOL     OW38950   2.658   2.736   7.126  0.0512 -0.0128 -0.5701
 9105SOL    HW138951   2.694   2.676   7.192  1.5447  0.6438 -0.7897
 9105SOL    HW238952   2.739   2.770   7.088  0.7007 -1.0580 -0.1369
 9106SOL     OW38953   4.360   4.550  15.151  0.5336  0.2247  0.0983
 9106SOL    HW138954   4.368   4.623  15.213  1.9221  2.0492 -2.2367
 9106SOL    HW238955   4.308   4.492  15.207 -0.9892  0.8361 -0.6673
 9107SOL     OW38956   3.135   3.871  10.449  0.8049 -0.5416  0.1297
 9107SOL    HW138957   3.058   3.816  10.435  0.4913  0.1835 -0.9737
 9107SOL    HW238958   3.204   3.806  10.457  0.0028 -1.5571 -1.2662
 9108SOL     OW38959   3.742   0.069   2.299 -0.2282 -0.0978  0.6910
 9108SOL    HW138960   3.830   0.033   2.311  0.3272  1.0101 -0.0078
 9108SOL    HW238961   3.677   0.013   2.342  0.4101 -1.4823 -0.1533
 9109SOL     OW38962   1.680   4.155   4.506 -0.1289  0.2483  0.2163
 9109SOL    HW138963   1.773   4.146   4.485  0.0540 -1.0872  1.6386
 9109SOL    HW238964   1.647   4.066   4.491  1.0375 -0.2032  0.3314
 9110SOL     OW38965   4.544   4.684   8.182 -0.3793 -0.3418 -0.3717
 9110SOL    HW138966   4.542   0.015   8.120 -1.7101  1.8491  2.2530
 9110SOL    HW238967   4.465   4.701   8.233  0.8665 -0.3709  1.5447
 9111SOL     OW38968   0.750   4.029   4.273  0.3190 -0.2274 -0.2963
 9111SOL    HW138969   0.655   4.017   4.268 -0.0113  1.1158  3.1774
 9111SOL    HW238970   0.778   3.938   4.260 -0.4102 -0.4978  0.0238
 9112SOL     OW38971   4.342   4.435   2.074 -0.3762  0.3037  0.2522
 9112SOL    HW138972   4.379   4.403   2.155  0.8756  0.2231 -0.3515
 9112SOL    HW238973   4.424   4.477   2.051  0.8982 -1.8135  0.9629
 9113SOL     OW38974   1.631   4.561   6.195  0.2651  0.1517 -0.4713
 9113SOL    HW138975   1.678   4.535   6.116  0.5301  0.3278 -0.3729
 9113SOL    HW238976   1.542   4.530   6.179  1.0085 -1.4576 -1.4204
 9114SOL     OW38977   0.355   3.521   9.386  0.3218  0.0920 -0.3044
 9114SOL    HW138978   0.414   3.505   9.313  0.2212 -1.4001 -0.0578
 9114SOL    HW238979   0.280   3.474   9.351 -1.9178  2.6969  1.0348
 9115SOL     OW38980   3.258   1.592  17.748 -0.0439  0.3169 -0.3421
 9115SOL    HW138981   3.262   1.687  17.756 -0.5642  0.4381 -1.4875
 9115SOL    HW238982   3.299   1.595  17.661 -1.1236 -0.4634 -0.8697
 9116SOL     OW38983   0.205   1.553   2.103  0.4106  0.0586 -0.1904
 9116SOL    HW138984   0.152   1.493   2.052  0.2972  0.2431 -0.2863
 9116SOL    HW238985   0.162   1.636   2.087 -0.4635 -0.2478  0.5263
 9117SOL     OW38986   0.155   2.521   9.221 -0.3683 -0.0993  0.1584
 9117SOL    HW138987   0.097   2.478   9.284  2.8796 -2.4373  1.5123
 9117SOL    HW238988   0.087   2.573   9.177 -2.3573 -0.7311  2.4789
 9118SOL     OW38989   4.012   2.046   5.809  0.1494  0.0118 -0.1267
 9118SOL    HW138990   3.939   2.031   5.869  0.3394 -4.1503 -0.9393
 9118SOL    HW238991   3.993   1.987   5.736  0.4891 -0.8197  0.4606
 9119SOL     OW38992   0.994   1.765  12.327  0.4843 -0.6869 -0.6226
 9119SOL    HW138993   0.989   1.679  12.285  0.5027 -1.3469  0.7096
 9119SOL    HW238994   1.077   1.751  12.372  0.2727  1.5780  0.4528
 9120SOL     OW38995   3.837   3.497   4.862  0.2144  0.1518 -0.4339
 9120SOL    HW138996   3.765   3.434   4.868  1.1250 -0.8394 -0.1151
 9120SOL    HW238997   3.785   3.578   4.866 -2.5708 -1.5082 -3.1098
 9121SOL     OW38998   4.165   2.557   1.506 -0.1947  0.1522 -0.1165
 9121SOL    HW138999   4.213   2.484   1.466 -1.7303 -0.4382 -0.8997
 9121SOL    HW239000   4.116   2.500   1.565  1.2802 -0.2404  0.7233
 9122SOL     OW39001   1.813   3.919   5.521  0.2527  0.2594 -0.0066
 9122SOL    HW139002   1.770   3.998   5.486  0.2756 -0.3121 -1.3241
 9122SOL    HW239003   1.740   3.884   5.572 -2.0443  4.3321 -0.5270
 9123SOL     OW39004   0.521   2.613   1.608  0.2055 -0.3043  0.1626
 9123SOL    HW139005   0.446   2.558   1.584  0.3818 -0.6068  0.3113
 9123SOL    HW239006   0.592   2.594   1.546 -1.2144 -0.2023 -1.5181
 9124SOL     OW39007   4.431   4.361   3.564 -0.3638 -0.0328  0.0244
 9124SOL    HW139008   4.463   4.366   3.654 -5.3855  1.0167  1.7825
 9124SOL    HW239009   4.428   4.267   3.547  0.3192 -0.2251  1.0070
 9125SOL     OW39010   3.111   3.382   8.978  0.1637  0.2448  0.1887
 9125SOL    HW139011   3.170   3.358   9.050 -0.9939 -0.8926  0.7435
 9125SOL    HW239012   3.031   3.334   9.000  1.3442 -2.0275 -0.3770
 9126SOL     OW39013   2.222   1.500   1.240 -0.5119 -0.0981  0.6231
 9126SOL    HW139014   2.169   1.580   1.242  2.2383  1.6829  1.1146
 9126SOL    HW239015   2.300   1.531   1.195 -0.4193 -1.0690  0.1161
 9127SOL     OW39016   3.268   1.096  17.707 -0.2302  0.5128  0.6126
 9127SOL    HW139017   3.290   1.149  17.630 -0.4626 -2.5050 -1.5224
 9127SOL    HW239018   3.273   1.161   0.010  0.9496  2.4604 -1.2980
 9128SOL     OW39019   2.827   2.267   8.142 -0.0985  0.1108 -0.1101
 9128SOL    HW139020   2.745   2.266   8.092 -0.5108 -1.0690  0.5877
 9128SOL    HW239021   2.861   2.181   8.118  1.8290  0.3510  1.7572
 9129SOL     OW39022   2.713   3.715   8.983 -0.6025 -0.1778  0.2983
 9129SOL    HW139023   2.619   3.732   8.993 -0.9485 -1.5969 -0.5512
 9129SOL    HW239024   2.735   3.786   8.923 -0.8834 -2.7155 -2.8104
 9130SOL     OW39025   0.061   3.307   3.404  0.4716 -0.2088 -0.2722
 9130SOL    HW139026   0.131   3.352   3.357  1.3796 -0.1701  1.1245
 9130SOL    HW239027   0.098   3.235   3.454 -1.0701 -0.8786 -0.0956
 9131SOL     OW39028   1.238   0.808  16.881 -0.0126  0.0377  1.2521
 9131SOL    HW139029   1.318   0.794  16.931 -0.1284 -0.2150  1.3634
 9131SOL    HW239030   1.204   0.887  16.923 -3.6022 -0.4385 -0.8021
 9132SOL     OW39031   1.689   3.063   5.222 -0.2202 -0.2661 -0.2003
 9132SOL    HW139032   1.651   3.056   5.134 -2.0737 -0.0430  0.5938
 9132SOL    HW239033   1.657   2.987   5.271  2.0128 -1.7856 -1.1096
 9133SOL     OW39034   2.935   4.048  17.119 -0.3843  0.1975  0.3516
 9133SOL    HW139035   2.863   4.019  17.176 -0.7347 -0.7509 -0.5539
 9133SOL    HW239036   2.886   4.046  17.036  0.9518 -1.5989 -0.4138
 9134SOL     OW39037   1.383   2.074   6.238  0.0640 -0.0167 -0.6914
 9134SOL    HW139038   1.379   1.982   6.211 -1.4440  0.4467 -1.9975
 9134SOL    HW239039   1.442   2.113   6.174 -0.6124  0.9870 -0.6976
 9135SOL     OW39040   4.501   0.933   0.637  0.3459 -0.0504 -0.1105
 9135SOL    HW139041   4.445   0.857   0.619  0.9784 -0.7127  0.6987
 9135SOL    HW239042   4.555   0.931   0.557  1.9362 -0.0075  0.9680
 9136SOL     OW39043   4.039   0.376   3.608  0.4777 -0.2681  0.2376
 9136SOL    HW139044   4.036   0.452   3.667  1.1370  0.6693 -0.9484
 9136SOL    HW239045   4.115   0.331   3.644 -1.5171 -4.1156 -0.4202
 9137SOL     OW39046   1.075   2.824  12.361 -0.8606  0.3119  0.1310
 9137SOL    HW139047   1.130   2.899  12.380 -1.0924  0.3219  0.7986
 9137SOL    HW239048   1.125   2.771  12.299 -0.2292  2.0519 -0.8399
 9138SOL     OW39049   1.983   3.461   5.196 -0.4398  0.4842  0.2986
 9138SOL    HW139050   1.919   3.480   5.128 -1.1170  0.6738  0.9806
 9138SOL    HW239051   1.930   3.473   5.275  1.2914  1.4839  1.3366
 9139SOL     OW39052   2.147   1.726   7.675  0.2832 -0.2356 -0.1392
 9139SOL    HW139053   2.213   1.771   7.728  0.0450 -0.5542  0.4295
 9139SOL    HW239054   2.137   1.643   7.723  0.6967  0.4335  1.1019
 9140SOL     OW39055   2.398   0.894   6.332 -0.0440 -0.1733  0.3136
 9140SOL    HW139056   2.483   0.895   6.377  0.1547 -1.1898 -0.0296
 9140SOL    HW239057   2.339   0.881   6.406 -2.8423  0.0073 -1.9210
 9141SOL     OW39058   1.281   1.190   4.451 -0.1775 -0.0651 -0.1729
 9141SOL    HW139059   1.229   1.266   4.426 -0.1794  0.2445  0.7709
 9141SOL    HW239060   1.255   1.189   4.543  2.1704 -1.5141  0.4874
 9142SOL     OW39061   0.789   2.490   1.504 -0.0239 -0.3543 -0.7737
 9142SOL    HW139062   0.763   2.399   1.490 -1.8472  0.1494 -0.6601
 9142SOL    HW239063   0.812   2.485   1.597 -2.3819 -1.2465 -0.2458
 9143SOL     OW39064   2.580   1.863   1.735 -0.1293 -0.5495 -0.2403
 9143SOL    HW139065   2.512   1.892   1.796 -1.1690 -1.6636 -0.8573
 9143SOL    HW239066   2.641   1.936   1.745 -2.6217  1.5041 -0.0231
 9144SOL     OW39067   2.928   3.053   7.912 -0.1204  0.5186  0.1870
 9144SOL    HW139068   2.921   2.957   7.918  0.0145  0.3494 -2.4276
 9144SOL    HW239069   3.017   3.069   7.944 -0.5114 -1.7708  2.4670
 9145SOL     OW39070   2.178   2.599   6.515  0.0360 -0.0383  0.1370
 9145SOL    HW139071   2.253   2.617   6.458  0.3898 -2.2084 -0.0641
 9145SOL    HW239072   2.108   2.564   6.460 -0.3922 -0.1347  0.7395
 9146SOL     OW39073   4.390   2.743  13.546  0.1125 -0.2386 -0.9447
 9146SOL    HW139074   4.425   2.656  13.565 -4.2688 -2.2100 -1.9812
 9146SOL    HW239075   4.469   2.794  13.527  1.7951 -2.0841  1.2379
 9147SOL     OW39076   3.921   0.651   9.360  0.7736  0.4411  0.5383
 9147SOL    HW139077   3.976   0.651   9.282  1.3141  0.9917  0.9191
 9147SOL    HW239078   3.877   0.734   9.346 -2.3733 -1.4569 -0.8135
 9148SOL     OW39079   3.714   1.539   8.819  0.1845 -0.4491 -0.7421
 9148SOL    HW139080   3.748   1.531   8.908  1.9432 -1.2732 -1.4974
 9148SOL    HW239081   3.687   1.631   8.809  2.5031  0.2034 -0.8634
 9149SOL     OW39082   4.414   1.723   3.035  0.5558  0.1397  0.0134
 9149SOL    HW139083   4.476   1.795   3.041 -0.0778  0.8793 -2.2865
 9149SOL    HW239084   4.328   1.763   3.042  0.0281 -1.2513  1.5454
 9150SOL     OW39085   1.275   0.090   5.088  0.3011  0.1587 -0.6612
 9150SOL    HW139086   1.212   0.022   5.066  1.1903 -0.9353  0.2193
 9150SOL    HW239087   1.337   0.042   5.143 -0.7754 -1.3611 -0.7806
 9151SOL     OW39088   4.562   3.875   8.911 -0.0255  0.4234  0.1071
 9151SOL    HW139089   4.637   3.825   8.880 -1.8866 -1.3334 -1.5588
 9151SOL    HW239090   4.526   3.900   8.825  0.7024  0.2094 -0.2586
 9152SOL     OW39091   2.275   1.012  12.993  0.0356  0.0186  0.5254
 9152SOL    HW139092   2.309   0.958  12.921 -1.4886  0.6639 -0.6727
 9152SOL    HW239093   2.335   1.086  12.990 -0.8956  0.7297 -0.6410
 9153SOL     OW39094   0.122   2.393   3.642  0.5879 -0.3682  0.6354
 9153SOL    HW139095   0.061   2.319   3.639 -0.2942  0.4234 -1.5074
 9153SOL    HW239096   0.143   2.402   3.735 -1.2207 -0.1742  1.0317
 9154SOL     OW39097   0.231   3.011  13.898  0.5459  0.4805  0.5882
 9154SOL    HW139098   0.170   2.975  13.834  0.6830  1.3286 -0.0189
 9154SOL    HW239099   0.268   3.084  13.848  0.9432  0.3766  0.7255
 9155SOL     OW39100   3.621   0.270   6.484  0.8554  0.1816 -0.2841
 9155SOL    HW139101   3.562   0.263   6.409 -1.1456 -2.7430  1.5848
 9155SOL    HW239102   3.629   0.175   6.492  1.2553  0.3506  1.4195
 9156SOL     OW39103   1.138   0.697  11.185  0.1786 -0.0348  0.4160
 9156SOL    HW139104   1.130   0.789  11.161 -0.4149 -0.6345 -1.6357
 9156SOL    HW239105   1.095   0.695  11.271  2.0361 -0.8740  1.3222
 9157SOL     OW39106   0.012   0.827  16.658 -0.1281 -0.4977 -0.5986
 9157SOL    HW139107   0.057   0.759  16.607 -0.1241 -0.8851 -0.0882
 9157SOL    HW239108   0.079   0.875  16.708 -0.2420 -1.1818  0.2184
 9158SOL     OW39109   2.626   1.990   3.442 -0.0133  0.3401 -0.1506
 9158SOL    HW139110   2.606   2.032   3.526 -2.1988  0.6918 -0.8493
 9158SOL    HW239111   2.683   2.044   3.388 -0.6410  0.5364 -0.6180
 9159SOL     OW39112   3.672   1.990   1.737 -0.2623  0.0706 -0.1856
 9159SOL    HW139113   3.739   1.936   1.778 -1.6763 -1.8081 -0.3656
 9159SOL    HW239114   3.725   2.042   1.676  1.3433 -1.2261  0.1114
 9160SOL     OW39115   0.262   1.728   7.709 -0.5588  0.1991 -0.7006
 9160SOL    HW139116   0.335   1.679   7.671 -0.7620 -0.7439  0.1245
 9160SOL    HW239117   0.189   1.667   7.703  0.2515 -0.6459 -1.9944
 9161SOL     OW39118   3.442   3.442   7.661 -0.1633  0.6022  0.2765
 9161SOL    HW139119   3.518   3.406   7.615 -0.2348 -0.4378  0.9497
 9161SOL    HW239120   3.474   3.429   7.751 -0.3761  2.2784  0.5863
 9162SOL     OW39121   0.403   4.410   5.415 -0.2680  0.1992  0.6320
 9162SOL    HW139122   0.378   4.413   5.507 -3.0171 -0.1437 -0.0961
 9162SOL    HW239123   0.322   4.448   5.380 -1.4360 -1.3955  1.6422
 9163SOL     OW39124   3.689   0.560  10.493  0.2032  0.0659  0.3145
 9163SOL    HW139125   3.742   0.616  10.436 -0.8185  1.5633  0.8252
 9163SOL    HW239126   3.619   0.521  10.440  0.7723 -2.0116  1.0996
 9164SOL     OW39127   2.575   3.893   3.847  0.7238 -1.0754  0.1696
 9164SOL    HW139128   2.500   3.952   3.843  1.7046  0.0388 -1.6919
 9164SOL    HW239129   2.579   3.866   3.939  0.7292  0.3224  0.5797
 9165SOL     OW39130   4.593   0.601   7.530 -0.1893 -0.7212  0.4812
 9165SOL    HW139131   4.628   0.684   7.498 -0.7327  0.1075  2.0886
 9165SOL    HW239132   4.643   0.546   7.469  0.2089  0.1196  0.0516
 9166SOL     OW39133   3.323   2.179   4.877  0.2012 -0.6082  0.1104
 9166SOL    HW139134   3.386   2.184   4.948  1.8146  1.2045 -1.4374
 9166SOL    HW239135   3.285   2.266   4.867 -2.1906 -1.5937  0.5146
 9167SOL     OW39136   4.617   3.167   8.438 -0.2259  0.0857  0.5138
 9167SOL    HW139137   4.686   3.231   8.419 -0.9674 -0.1137 -2.9575
 9167SOL    HW239138   4.575   3.169   8.352  3.5033  2.9166 -1.2141
 9168SOL     OW39139   3.601   3.989  10.365  0.8900 -0.3394 -0.1989
 9168SOL    HW139140   3.644   4.014  10.283 -2.0044 -0.0060 -1.6172
 9168SOL    HW239141   3.652   3.912  10.389 -1.4336 -1.4399  1.3078
 9169SOL     OW39142   2.921   2.699   4.865  0.0980 -0.2511  0.0085
 9169SOL    HW139143   2.901   2.678   4.774 -2.2492  2.4185 -0.0937
 9169SOL    HW239144   2.884   2.626   4.915  2.0351 -0.6186  0.9058
 9170SOL     OW39145   2.682   1.759   2.035 -0.0341  0.6098 -0.3702
 9170SOL    HW139146   2.691   1.711   1.953  1.4295  2.3388 -1.2170
 9170SOL    HW239147   2.744   1.830   2.019  0.6676  0.0634 -0.0556
 9171SOL     OW39148   3.580   1.446   3.460 -0.4056  0.1995 -0.0380
 9171SOL    HW139149   3.533   1.375   3.416  2.5827 -0.9826 -1.3210
 9171SOL    HW239150   3.512   1.514   3.466  0.6265  1.0068  2.5546
 9172SOL     OW39151   3.881   1.647   2.391  0.2339  0.3358  0.3464
 9172SOL    HW139152   3.939   1.573   2.369 -0.6123 -0.5380  1.0352
 9172SOL    HW239153   3.789   1.621   2.386  0.0826  0.3431  3.0008
 9173SOL     OW39154   3.999   2.401   1.688 -0.2592  0.6778 -0.0138
 9173SOL    HW139155   3.993   2.306   1.699 -0.2537  0.8223  1.1717
 9173SOL    HW239156   3.984   2.437   1.775 -2.1462 -1.8031  0.6923
 9174SOL     OW39157   2.947   0.598   4.076 -0.4992 -0.0926 -0.2788
 9174SOL    HW139158   2.884   0.659   4.036 -1.1401 -0.4443  0.1886
 9174SOL    HW239159   2.915   0.513   4.045 -0.2518 -1.1589  2.3369
 9175SOL     OW39160   4.052   1.148   9.845 -0.4348 -0.5184 -0.2365
 9175SOL    HW139161   3.978   1.198   9.811 -0.4441  1.4085  2.6585
 9175SOL    HW239162   4.014   1.062   9.864 -1.9681 -0.2584 -2.1121
 9176SOL     OW39163   3.102   1.524   8.735  0.5215 -0.1328  0.0155
 9176SOL    HW139164   3.116   1.607   8.782  2.3851 -0.2285 -0.3696
 9176SOL    HW239165   3.126   1.552   8.647 -0.6679  2.4208  0.4971
 9177SOL     OW39166   1.078   3.239   3.828 -0.0256  0.1011  0.0064
 9177SOL    HW139167   1.117   3.153   3.817  0.6959 -0.0232  3.4235
 9177SOL    HW239168   1.018   3.229   3.902  0.8627  3.4021  1.1770
 9178SOL     OW39169   0.146   3.995   3.415  0.2345 -0.4798  0.8261
 9178SOL    HW139170   0.226   4.005   3.467 -0.0456 -2.3412  1.6021
 9178SOL    HW239171   0.187   3.973   3.332  1.8727 -0.2862  1.5920
 9179SOL     OW39172   1.525   1.082  12.162 -0.4888 -0.0920  0.2462
 9179SOL    HW139173   1.460   1.027  12.206 -0.7582 -2.5256 -3.2713
 9179SOL    HW239174   1.488   1.086  12.074  2.2229  1.1839 -0.8451
 9180SOL     OW39175   1.539   0.889   5.212 -0.4288 -0.3404  0.0058
 9180SOL    HW139176   1.616   0.917   5.162  0.4244  0.2151  1.6320
 9180SOL    HW239177   1.576   0.835   5.282  0.8504 -0.9547 -1.1249
 9181SOL     OW39178   0.930   0.263  16.230  0.3137  0.5554  0.0703
 9181SOL    HW139179   0.886   0.257  16.314  0.9895 -1.1842  0.3139
 9181SOL    HW239180   1.008   0.308  16.264  0.4077 -0.0465  0.6454
 9182SOL     OW39181   4.244   4.695  11.905 -0.6964 -0.0026  0.2110
 9182SOL    HW139182   4.196   4.707  11.823 -1.8723 -2.4818  0.5446
 9182SOL    HW239183   4.175   4.647  11.952  1.1913 -0.7356  2.2234
 9183SOL     OW39184   2.899   1.169   2.496 -0.1375 -0.1005  0.5681
 9183SOL    HW139185   2.918   1.144   2.586 -1.2613 -1.7878  0.3452
 9183SOL    HW239186   2.975   1.225   2.481 -0.6703  0.0902 -1.3847
 9184SOL     OW39187   2.665   0.264   7.749 -0.0885 -0.3082  0.2709
 9184SOL    HW139188   2.640   0.330   7.814  1.2832 -1.2626  1.7752
 9184SOL    HW239189   2.620   0.279   7.666 -0.6775 -0.8523  0.4954
 9185SOL     OW39190   1.273   3.033   5.324  0.1606  0.4385 -0.3353
 9185SOL    HW139191   1.348   3.069   5.371  0.1323 -1.4667  1.1392
 9185SOL    HW239192   1.299   3.062   5.236  0.1194 -1.1889 -0.8795
 9186SOL     OW39193   0.152   3.750  11.539  1.6430 -0.0074  0.8318
 9186SOL    HW139194   0.169   3.656  11.545  0.9959 -0.4020 -3.6692
 9186SOL    HW239195   0.208   3.785  11.469 -0.5375  1.1435 -0.3436
 9187SOL     OW39196   2.556   0.650   1.784 -0.0352 -0.3130  0.4269
 9187SOL    HW139197   2.573   0.601   1.704  0.6304  2.4468 -1.1082
 9187SOL    HW239198   2.479   0.605   1.818  0.5742  0.1462  2.4617
 9188SOL     OW39199   2.006   4.243   7.562  0.0068 -0.2280 -0.0548
 9188SOL    HW139200   2.028   4.246   7.468 -2.6306 -0.4491 -0.6593
 9188SOL    HW239201   2.035   4.159   7.595 -0.0525 -1.4351 -3.0214
 9189SOL     OW39202   2.705   2.347   1.093 -0.2297  0.2384 -0.0428
 9189SOL    HW139203   2.713   2.277   1.028  3.0143  1.8699 -1.3986
 9189SOL    HW239204   2.611   2.343   1.109 -0.1512  3.3498  1.2505
 9190SOL     OW39205   4.174   2.387   8.524  0.0124 -0.5340 -0.0792
 9190SOL    HW139206   4.165   2.461   8.464  2.4225 -0.9155 -0.9102
 9190SOL    HW239207   4.087   2.382   8.564 -0.8000 -2.4979 -2.1041
 9191SOL     OW39208   4.098   4.739   6.617  0.1019  0.3007  0.6550
 9191SOL    HW139209   4.169   0.060   6.622 -0.9640  1.5243  0.2460
 9191SOL    HW239210   4.132   4.676   6.554  1.2542  0.6641  0.9109
 9192SOL     OW39211   0.698   2.488   5.493  0.1591 -0.4273  0.0946
 9192SOL    HW139212   0.698   2.410   5.549  1.5300 -0.2159  0.3827
 9192SOL    HW239213   0.766   2.545   5.526  2.2667 -1.1975 -2.9101
 9193SOL     OW39214   2.932   0.063   4.668 -0.2746  0.1896 -0.0194
 9193SOL    HW139215   2.844   0.029   4.684  0.2974 -1.5795 -0.6214
 9193SOL    HW239216   2.919   0.154   4.642  1.5914  1.6133  3.9717
 9194SOL     OW39217   0.581   1.319   7.091  0.4987  0.4815  0.4075
 9194SOL    HW139218   0.578   1.347   7.000 -1.3350 -1.1414 -0.0331
 9194SOL    HW239219   0.609   1.227   7.088 -3.3082 -0.6449 -0.1059
 9195SOL     OW39220   1.239   0.471   8.222  0.1677 -0.0314 -0.3974
 9195SOL    HW139221   1.216   0.532   8.293 -1.2070 -0.0170 -0.8581
 9195SOL    HW239222   1.158   0.423   8.210  0.7626 -0.0571 -4.3826
 9196SOL     OW39223   1.748   1.414  11.092 -0.3235 -0.1177  0.9986
 9196SOL    HW139224   1.704   1.340  11.050  2.8035 -0.6578 -1.3085
 9196SOL    HW239225   1.838   1.399  11.061 -0.4744 -1.5622  1.2661
 9197SOL     OW39226   4.321   1.347  12.076  0.3229  0.6419  0.0402
 9197SOL    HW139227   4.285   1.331  12.163  1.6675 -1.5431  0.2030
 9197SOL    HW239228   4.250   1.326  12.015  0.2136  0.5073  0.2164
 9198SOL     OW39229   3.889   1.692   9.154 -0.0202  0.4264  0.7294
 9198SOL    HW139230   3.979   1.681   9.124 -0.2933 -1.1130  0.5002
 9198SOL    HW239231   3.872   1.600   9.174 -2.9471  0.7573 -0.1042
 9199SOL     OW39232   3.917   1.507   6.042  0.1914 -0.0200  0.1921
 9199SOL    HW139233   3.906   1.456   5.962 -0.1009  1.4174 -0.6999
 9199SOL    HW239234   3.907   1.438   6.106  1.6392  0.0585  0.5117
 9200SOL     OW39235   1.013   3.955  12.300 -0.0957 -0.0260  0.0285
 9200SOL    HW139236   1.007   3.917  12.388  0.6248  0.4099  0.2690
 9200SOL    HW239237   0.999   3.869  12.261 -1.5271  0.0417  0.3793
 9201SOL     OW39238   1.578   4.265   2.779 -0.2917 -0.0594 -0.1752
 9201SOL    HW139239   1.540   4.300   2.699  2.3776 -3.4562 -2.8803
 9201SOL    HW239240   1.563   4.334   2.844  0.9193  1.0312 -1.0544
 9202SOL     OW39241   1.854   1.654   8.290 -0.3310  0.4207  0.1159
 9202SOL    HW139242   1.935   1.613   8.259  0.6452  1.7680  0.8905
 9202SOL    HW239243   1.798   1.576   8.285 -0.3879  0.4200  0.8486
 9203SOL     OW39244   1.368   0.793  13.327 -0.7215 -0.3732 -0.3735
 9203SOL    HW139245   1.338   0.783  13.417 -1.8414 -1.8686 -0.9127
 9203SOL    HW239246   1.462   0.807  13.345 -0.5577 -0.3098 -1.2831
 9204SOL     OW39247   3.434   0.481   5.060 -0.1548  0.4045  0.1147
 9204SOL    HW139248   3.370   0.477   4.989 -0.2793 -2.4910  0.3917
 9204SOL    HW239249   3.379   0.465   5.137 -0.7132  0.0941 -0.3476
 9205SOL     OW39250   3.091   2.136   3.110 -0.2176  0.3716 -0.0865
 9205SOL    HW139251   3.063   2.184   3.033 -0.0714 -0.9400 -0.9562
 9205SOL    HW239252   3.023   2.069   3.119 -0.8227  1.1484  1.1362
 9206SOL     OW39253   3.951   1.781  12.867 -0.2607 -0.5699  0.6741
 9206SOL    HW139254   3.857   1.798  12.880  0.1730  1.6475  1.0204
 9206SOL    HW239255   3.951   1.692  12.902  0.6273  0.0777  2.3268
 9207SOL     OW39256   3.034   2.047  15.166 -0.2390 -0.2510  0.1504
 9207SOL    HW139257   3.103   2.111  15.185 -1.7694  1.5073 -0.1686
 9207SOL    HW239258   3.091   1.978  15.133  0.9107  0.4012  0.7717
 9208SOL     OW39259   1.789   2.683  13.495 -0.1542 -0.2770  0.0471
 9208SOL    HW139260   1.722   2.705  13.430 -0.7642 -2.2398  0.0057
 9208SOL    HW239261   1.797   2.589  13.479  2.8523  0.3940 -2.3534
 9209SOL     OW39262   0.014   4.499  15.135  0.0718  0.2874 -0.1311
 9209SOL    HW139263   4.684   4.487  15.073  0.1465 -3.1072  0.4691
 9209SOL    HW239264   0.037   4.414  15.172  0.2620  1.4137  2.3486
 9210SOL     OW39265   4.082   4.251   8.384  0.4815 -0.1585  0.0590
 9210SOL    HW139266   4.034   4.168   8.388 -1.1798  0.8538  0.9703
 9210SOL    HW239267   4.165   4.215   8.352  0.0255 -0.9097 -0.2929
 9211SOL     OW39268   4.580   4.502  15.359  0.5001 -0.2068  0.6103
 9211SOL    HW139269   4.621   4.583  15.391 -0.7477  1.4724 -2.0150
 9211SOL    HW239270   4.614   4.505  15.270 -0.0154  1.1998  0.4542
 9212SOL     OW39271   2.423   0.842   6.709 -0.3381  0.2518  0.4324
 9212SOL    HW139272   2.495   0.862   6.649 -0.9882 -1.6508 -0.9767
 9212SOL    HW239273   2.396   0.754   6.686 -0.1196  0.6789 -1.4874
 9213SOL     OW39274   1.730   0.644   7.012  1.2474  0.4551 -0.2907
 9213SOL    HW139275   1.777   0.561   7.012 -0.4069 -0.4754 -1.6924
 9213SOL    HW239276   1.736   0.668   7.105  1.3623  0.3081 -0.2612
 9214SOL     OW39277   3.576   4.630  15.888 -0.1377  0.1141  0.2243
 9214SOL    HW139278   3.618   4.691  15.827  0.2120 -0.4290 -0.0708
 9214SOL    HW239279   3.564   4.554  15.831  3.5821 -1.8172  2.0355
 9215SOL     OW39280   1.835   2.440   5.821  0.6794 -0.3184 -0.3856
 9215SOL    HW139281   1.844   2.534   5.806  0.2410 -0.1576  0.3630
 9215SOL    HW239282   1.839   2.404   5.733 -0.4156  0.5842 -0.8063
 9216SOL     OW39283   2.111   0.244  15.360 -0.3724  0.6136  0.2887
 9216SOL    HW139284   2.139   0.271  15.448 -1.7353  0.5491  0.7340
 9216SOL    HW239285   2.128   0.150  15.365  2.1232  1.1723  2.2495
 9217SOL     OW39286   2.371   0.141   8.472  0.6350  0.5520  0.0554
 9217SOL    HW139287   2.343   0.080   8.540  1.1406 -1.6523 -1.6926
 9217SOL    HW239288   2.390   0.078   8.402  0.0664  0.6157 -0.1579
 9218SOL     OW39289   1.502   1.646   4.975 -0.4507 -0.3575 -0.2735
 9218SOL    HW139290   1.477   1.659   5.066 -0.5106 -2.5920  0.0236
 9218SOL    HW239291   1.531   1.556   4.962  2.2034  0.3991  0.4060
 9219SOL     OW39292   3.743   2.119   5.376  0.1325  0.1301  0.1208
 9219SOL    HW139293   3.762   2.163   5.459  1.9766  1.2585 -0.9051
 9219SOL    HW239294   3.757   2.184   5.307 -3.1076 -0.2081 -0.8706
 9220SOL     OW39295   1.205   3.186   4.349  0.2349 -0.3288  0.3115
 9220SOL    HW139296   1.272   3.254   4.346 -1.1057  0.9929  0.0214
 9220SOL    HW239297   1.143   3.243   4.395 -0.4657  0.5111 -1.6765
 9221SOL     OW39298   3.557   0.456  12.805 -0.0775 -0.8589  0.2840
 9221SOL    HW139299   3.615   0.470  12.730 -0.4620  0.4199  0.2340
 9221SOL    HW239300   3.532   0.365  12.788 -1.6188 -0.6716  1.5559
 9222SOL     OW39301   1.066   3.836  14.291  0.1068 -0.3020  0.1943
 9222SOL    HW139302   1.065   3.868  14.201 -2.9485  0.3995  0.4966
 9222SOL    HW239303   0.982   3.791  14.283  0.7450 -1.7615  1.5834
 9223SOL     OW39304   4.308   3.900   2.269 -0.0103 -0.1221 -0.0964
 9223SOL    HW139305   4.256   3.929   2.344  0.8225 -4.0263  1.9711
 9223SOL    HW239306   4.381   3.856   2.312 -1.0525 -0.2179  1.5602
 9224SOL     OW39307   0.154   4.461   4.483  0.4289  0.5395 -0.1659
 9224SOL    HW139308   0.115   4.521   4.421 -0.3546  1.5702  1.3229
 9224SOL    HW239309   0.153   4.509   4.566  2.6361 -0.2790  0.3423
 9225SOL     OW39310   0.399   4.375   3.309  0.1176  0.1324  0.5135
 9225SOL    HW139311   0.362   4.385   3.221  1.1058 -2.6736 -0.2315
 9225SOL    HW239312   0.492   4.361   3.290  0.1428  0.0064  0.7220
 9226SOL     OW39313   3.395   1.820  11.415 -0.7312  0.6041  0.3319
 9226SOL    HW139314   3.450   1.754  11.373 -0.1552  0.9174  0.6053
 9226SOL    HW239315   3.458   1.875  11.461  0.8514 -1.0489  0.1326
 9227SOL     OW39316   4.133   0.394  14.778  0.5007 -0.3392  0.0906
 9227SOL    HW139317   4.082   0.359  14.851 -3.5778 -0.8121 -2.9993
 9227SOL    HW239318   4.112   0.488  14.786 -0.9107 -0.6190 -0.2965
 9228SOL     OW39319   1.848   4.633  12.429 -0.4892  0.8168 -0.1201
 9228SOL    HW139320   1.926   4.664  12.475  0.4440 -2.6017  0.6023
 9228SOL    HW239321   1.828   4.545  12.461 -2.3441  1.6944  1.1319
 9229SOL     OW39322   1.724   3.578   2.233 -0.2862 -0.1631 -0.4256
 9229SOL    HW139323   1.713   3.484   2.221  2.4237 -0.5618  0.2141
 9229SOL    HW239324   1.820   3.584   2.229 -0.3217  0.0999 -0.9123
 9230SOL     OW39325   2.362   1.635  10.362  0.6784  0.8171 -0.2765
 9230SOL    HW139326   2.342   1.561  10.420  0.6964  0.7086 -0.4087
 9230SOL    HW239327   2.450   1.604  10.339  0.8723 -0.5873  2.3617
 9231SOL     OW39328   2.707   4.120   5.642  0.1334 -0.0847  0.2256
 9231SOL    HW139329   2.650   4.165   5.704  0.8700 -0.1360  0.9417
 9231SOL    HW239330   2.760   4.192   5.606  2.5190 -1.9658 -0.0753
 9232SOL     OW39331   1.327   3.495   1.552 -0.1007  0.0622  0.5030
 9232SOL    HW139332   1.380   3.563   1.595  1.2563 -0.7461  0.0835
 9232SOL    HW239333   1.246   3.496   1.603 -0.1226 -0.0302  0.4693
 9233SOL     OW39334   2.577   1.580   2.500 -0.3551  0.4630  0.3697
 9233SOL    HW139335   2.663   1.610   2.530  0.5035 -0.7649 -0.8728
 9233SOL    HW239336   2.585   1.485   2.505 -0.3855  0.5801  2.6809
 9234SOL     OW39337   4.439   1.545   3.455 -0.5318 -0.3342 -0.6795
 9234SOL    HW139338   4.388   1.625   3.443  2.2346  1.3573 -1.0648
 9234SOL    HW239339   4.477   1.533   3.368 -2.3814 -1.9529 -1.2576
 9235SOL     OW39340   0.568   2.045  15.777  0.1300  0.6182  0.0229
 9235SOL    HW139341   0.532   2.117  15.829  2.1258  2.1460 -0.7031
 9235SOL    HW239342   0.511   2.052  15.700  0.1341 -0.9966 -0.1295
 9236SOL     OW39343   3.063   2.894   6.122  0.0463  0.1592  0.0753
 9236SOL    HW139344   2.973   2.912   6.095  0.0304 -0.1431 -0.0720
 9236SOL    HW239345   3.079   2.988   6.127 -0.3799  0.3129 -1.6575
 9237SOL     OW39346   1.823   3.011   6.306 -0.2272  1.0771 -0.1418
 9237SOL    HW139347   1.862   3.062   6.235 -0.1239 -1.0960 -1.6478
 9237SOL    HW239348   1.733   2.997   6.275 -1.6496  2.5902  3.3296
 9238SOL     OW39349   0.349   0.995   7.621 -0.2818  0.2911 -0.3362
 9238SOL    HW139350   0.361   0.980   7.715 -0.5793  0.2628 -0.3040
 9238SOL    HW239351   0.286   1.067   7.626 -0.4545 -0.0432  2.3793
 9239SOL     OW39352   4.286   1.274   6.136 -0.7169  0.4291  0.1426
 9239SOL    HW139353   4.232   1.215   6.083 -1.1665 -0.5079  1.6234
 9239SOL    HW239354   4.275   1.352   6.082  2.9638 -0.2198 -1.5157
 9240SOL     OW39355   0.676   0.421   3.486 -0.1302 -0.7512  0.2700
 9240SOL    HW139356   0.625   0.461   3.557  0.5669  1.5008 -0.5088
 9240SOL    HW239357   0.679   0.330   3.518  3.1085 -0.4124  0.9740
 9241SOL     OW39358   2.236   4.590   6.256 -0.3249  0.0338 -0.0484
 9241SOL    HW139359   2.325   4.625   6.258 -0.8817  1.5836 -2.6045
 9241SOL    HW239360   2.247   4.496   6.271 -2.5064 -0.0171  1.3728
 9242SOL     OW39361   2.237   4.505  17.087  0.1518 -0.2922 -0.2030
 9242SOL    HW139362   2.153   4.551  17.086  0.2374 -0.1331  0.3134
 9242SOL    HW239363   2.272   4.565  17.152  0.5422 -2.3734  1.4993
 9243SOL     OW39364   2.851   4.343   5.508 -0.1136 -0.0659 -0.1452
 9243SOL    HW139365   2.946   4.333   5.517  0.2263  2.2993 -1.0798
 9243SOL    HW239366   2.841   4.426   5.555  1.6017 -0.0394  0.1895
 9244SOL     OW39367   2.079   0.593   4.595  0.5005  0.0968 -0.2295
 9244SOL    HW139368   2.085   0.688   4.604  2.7815 -0.1458  0.6425
 9244SOL    HW239369   2.034   0.576   4.512 -0.7891 -0.8363  0.6724
 9245SOL     OW39370   0.897   4.639   3.577 -0.3548  0.3300 -0.0387
 9245SOL    HW139371   0.898   4.565   3.516 -0.0595 -0.0424  0.4131
 9245SOL    HW239372   0.816   4.631   3.628 -0.4943  1.5412 -0.0736
 9246SOL     OW39373   4.328   2.905   5.741  0.1909  0.1803 -0.0771
 9246SOL    HW139374   4.403   2.865   5.785  0.5438  0.4238 -0.4532
 9246SOL    HW239375   4.330   2.999   5.757 -2.4633 -0.1124  1.9393
 9247SOL     OW39376   1.817   2.945   7.667 -0.1221  0.0090 -0.3470
 9247SOL    HW139377   1.889   2.993   7.627  0.0928 -0.9326 -1.0942
 9247SOL    HW239378   1.831   2.853   7.644  0.2814  0.3713 -1.5245
 9248SOL     OW39379   2.039   1.193   3.370 -0.8654  0.2256  0.0717
 9248SOL    HW139380   1.959   1.201   3.422 -0.9305 -1.8550  0.3150
 9248SOL    HW239381   2.033   1.100   3.349 -0.3134  0.1397  0.2840
 9249SOL     OW39382   2.746   0.852   7.365  0.4861 -0.2258  0.0815
 9249SOL    HW139383   2.685   0.789   7.403 -0.8750  2.3566  2.1868
 9249SOL    HW239384   2.757   0.823   7.274 -2.1284  1.0694 -0.6533
 9250SOL     OW39385   3.921   1.304   1.559  0.3072  0.2307  0.0532
 9250SOL    HW139386   3.951   1.388   1.596  0.1461 -0.1027  0.9494
 9250SOL    HW239387   3.978   1.234   1.591  1.6851  0.4261 -1.9984
 9251SOL     OW39388   4.731   0.102  10.558  0.0940 -0.6494 -0.1331
 9251SOL    HW139389   4.706   0.194  10.553  1.6087 -0.1805  1.0034
 9251SOL    HW239390   0.054   0.104  10.628  2.7410 -1.1433 -2.5589
 9252SOL     OW39391   3.797   3.264   7.075  0.2995  0.3685  0.0725
 9252SOL    HW139392   3.707   3.274   7.107  0.5195 -0.3204  0.9399
 9252SOL    HW239393   3.835   3.277   7.162 -1.3751  0.8695  0.7383
 9253SOL     OW39394   3.540   2.688   6.231 -0.0367  0.2789 -0.5268
 9253SOL    HW139395   3.492   2.613   6.197 -0.2609 -0.6545  1.8295
 9253SOL    HW239396   3.631   2.675   6.203  0.8403  1.6781  1.6166
 9254SOL     OW39397   1.105   0.177   7.297  0.1964  0.1169  0.4801
 9254SOL    HW139398   1.146   0.237   7.359  0.6355  2.2399 -1.8632
 9254SOL    HW239399   1.127   0.225   7.217  0.7577 -1.0410 -0.0599
 9255SOL     OW39400   1.109   3.535   2.150 -0.0744  0.3715  0.1410
 9255SOL    HW139401   1.051   3.547   2.075  0.7185  2.0687 -0.2123
 9255SOL    HW239402   1.091   3.443   2.167  0.9351  0.4365  1.5418
 9256SOL     OW39403   3.792   3.153   0.429 -0.1380 -0.1300 -0.0880
 9256SOL    HW139404   3.854   3.081   0.439 -0.0684 -0.1243 -0.4636
 9256SOL    HW239405   3.754   3.143   0.516  1.4052 -2.2236  0.3429
 9257SOL     OW39406   0.932   3.750  15.452  0.2152 -0.1118  0.1164
 9257SOL    HW139407   1.009   3.805  15.435 -1.3376  1.4609 -1.7971
 9257SOL    HW239408   0.963   3.661  15.439 -1.2241 -0.8293  1.5419
 9258SOL     OW39409   0.406   3.698   8.640  0.0804 -0.0405 -0.0432
 9258SOL    HW139410   0.479   3.759   8.626 -0.3312  0.7249  1.1662
 9258SOL    HW239411   0.383   3.705   8.547 -1.4997  0.5280  0.3903
 9259SOL     OW39412   3.026   3.186   3.924 -0.0349  0.0807 -0.2828
 9259SOL    HW139413   3.057   3.114   3.869 -0.4141 -0.2602 -0.0441
 9259SOL    HW239414   2.960   3.143   3.978  1.2688 -1.6175 -0.0324
 9260SOL     OW39415   4.172   1.398   3.369 -0.2669  0.0817 -0.4633
 9260SOL    HW139416   4.174   1.487   3.405  1.2197 -0.0033 -0.3516
 9260SOL    HW239417   4.137   1.411   3.280  1.6633  0.0286 -1.2353
 9261SOL     OW39418   2.533   0.612   9.383 -0.0290  0.1185 -0.2485
 9261SOL    HW139419   2.443   0.592   9.406  0.5183 -1.1229  0.8443
 9261SOL    HW239420   2.522   0.571   9.298 -2.0345 -1.5120  0.8195
 9262SOL     OW39421   2.309   1.340   2.068 -0.1979  0.0071 -0.0463
 9262SOL    HW139422   2.214   1.341   2.059 -0.2681  1.5009  0.8279
 9262SOL    HW239423   2.321   1.418   2.013 -2.7806 -0.7781 -1.7050
 9263SOL     OW39424   1.989   1.677   9.455 -0.2093 -0.2648  0.0027
 9263SOL    HW139425   2.011   1.591   9.420  2.1002 -0.1451  1.1000
 9263SOL    HW239426   1.925   1.709   9.393 -1.2930 -1.9752  0.2362
 9264SOL     OW39427   2.849   2.621   5.955  0.0348  0.1192  0.0912
 9264SOL    HW139428   2.889   2.563   6.021 -3.8605  0.7121  2.9930
 9264SOL    HW239429   2.930   2.636   5.905  1.1880 -0.6290  1.7234
 9265SOL     OW39430   2.777   0.315   1.737 -0.0948 -0.6662  0.3503
 9265SOL    HW139431   2.780   0.372   1.814  1.3410  1.0254 -0.9657
 9265SOL    HW239432   2.852   0.256   1.739 -0.7499 -1.5032  0.4539
 9266SOL     OW39433   2.206   1.869  15.902  0.1729 -0.6287  0.2151
 9266SOL    HW139434   2.259   1.791  15.920 -0.7242 -1.0270  1.1027
 9266SOL    HW239435   2.119   1.830  15.904  0.6411 -1.6774  0.2691
 9267SOL     OW39436   0.040   1.009   6.070  0.0908  0.0649 -1.1237
 9267SOL    HW139437   4.717   1.079   6.075  1.1568  0.9942  0.0995
 9267SOL    HW239438   0.120   1.049   6.035 -0.4344  2.5549  0.4974
 9268SOL     OW39439   0.560   1.907   6.415 -0.4040 -0.6416  0.6584
 9268SOL    HW139440   0.606   1.988   6.394 -0.8615 -0.2333  1.2519
 9268SOL    HW239441   0.630   1.844   6.395  0.0947  1.3191 -3.5518
 9269SOL     OW39442   2.410   3.294   3.347  0.2000 -0.3559 -0.3381
 9269SOL    HW139443   2.493   3.256   3.319  0.7549  1.6768 -1.4190
 9269SOL    HW239444   2.442   3.328   3.431  0.3389  0.7485 -0.8423
 9270SOL     OW39445   4.566   2.019   3.053  0.3281  0.1576  0.4408
 9270SOL    HW139446   4.655   1.991   3.071  0.4659 -1.3535 -2.5213
 9270SOL    HW239447   4.532   2.015   3.142  0.5617 -0.4879  0.5034
 9271SOL     OW39448   1.799   0.110  13.089  0.0861 -0.3015 -0.6781
 9271SOL    HW139449   1.833   0.070  13.010  1.4658 -2.0289  0.7961
 9271SOL    HW239450   1.797   0.031  13.144  0.0837  0.8130  0.9293
 9272SOL     OW39451   2.521   2.040   4.136 -0.9064  0.2652 -0.2279
 9272SOL    HW139452   2.557   2.004   4.217 -0.8758 -0.5845 -0.6236
 9272SOL    HW239453   2.455   2.096   4.178 -1.0850 -0.0425 -0.0973
 9273SOL     OW39454   1.241   1.368   8.134  0.8437  0.1908 -0.7665
 9273SOL    HW139455   1.246   1.360   8.039  0.1292 -0.1658 -0.7715
 9273SOL    HW239456   1.152   1.402   8.142  0.5165 -0.4209 -1.7686
 9274SOL     OW39457   2.192   1.155   8.521 -0.2801 -0.4467  0.6762
 9274SOL    HW139458   2.168   1.212   8.448 -1.4844 -1.7498  0.0455
 9274SOL    HW239459   2.279   1.120   8.500 -0.5746 -0.9575  0.2747
 9275SOL     OW39460   1.760   1.820  15.188  0.1397 -0.0504  0.7825
 9275SOL    HW139461   1.764   1.873  15.268 -0.6831  0.1438  0.6997
 9275SOL    HW239462   1.673   1.845  15.157  0.1036  0.0964  0.9990
 9276SOL     OW39463   2.136   3.678   6.498  0.2785 -0.2144  0.0846
 9276SOL    HW139464   2.081   3.603   6.474  1.6163 -1.4644  0.9162
 9276SOL    HW239465   2.197   3.678   6.425 -0.0679 -1.2794 -0.2082
 9277SOL     OW39466   2.873   0.502   8.752  0.1871 -0.0835 -0.3058
 9277SOL    HW139467   2.962   0.536   8.760  0.0757 -0.0389  0.8253
 9277SOL    HW239468   2.820   0.573   8.717 -0.5385 -1.0900 -1.2360
 9278SOL     OW39469   0.736   3.852  15.688  0.3149 -0.6196  0.1367
 9278SOL    HW139470   0.790   3.823  15.615  2.1576  1.6014  0.6358
 9278SOL    HW239471   0.653   3.833  15.644  0.7435  3.0074 -2.1912
 9279SOL     OW39472   2.194   0.119  15.759 -0.1185 -0.3474  0.0985
 9279SOL    HW139473   2.219   0.026  15.755 -0.7678 -0.5544  0.9189
 9279SOL    HW239474   2.115   0.103  15.810 -0.4498 -2.5824 -1.1016
 9280SOL     OW39475   2.186   2.335   7.616 -0.0063 -0.2059 -0.2456
 9280SOL    HW139476   2.233   2.270   7.564 -0.7313 -2.1207  1.4710
 9280SOL    HW239477   2.097   2.325   7.581  0.1023 -3.2533  0.3039
 9281SOL     OW39478   2.271   3.057   3.236  0.1146  0.7372  0.1202
 9281SOL    HW139479   2.323   3.137   3.236 -0.0440  0.8396 -0.0233
 9281SOL    HW239480   2.326   3.007   3.176  0.3713  1.9538 -0.6411
 9282SOL     OW39481   3.589   3.806  15.672  0.5688  0.6602  0.0953
 9282SOL    HW139482   3.552   3.815  15.760  1.9908  1.3512  0.6261
 9282SOL    HW239483   3.595   3.711  15.659  2.4717  0.7855  0.1255
 9283SOL     OW39484   3.779   0.785   5.014  0.1408 -0.6522  0.1424
 9283SOL    HW139485   3.816   0.713   5.064  0.1186  0.2180  1.3939
 9283SOL    HW239486   3.685   0.771   5.025  0.1776 -0.5026  0.6262
 9284SOL     OW39487   0.488   1.695   5.779  0.1756 -0.2223  0.2246
 9284SOL    HW139488   0.414   1.636   5.775 -0.4880  0.7355 -1.6763
 9284SOL    HW239489   0.557   1.631   5.762  0.4487 -0.1091  0.8961
 9285SOL     OW39490   3.052   1.388   5.100 -0.7023 -0.1707 -0.1529
 9285SOL    HW139491   3.074   1.471   5.144 -0.7712 -2.2844  3.8786
 9285SOL    HW239492   3.123   1.333   5.130 -0.9321 -0.7107 -0.6122
 9286SOL     OW39493   3.029   3.306   8.651  0.0757 -0.1757 -0.1205
 9286SOL    HW139494   3.056   3.396   8.636  0.2102  0.2484  2.6444
 9286SOL    HW239495   2.958   3.322   8.712 -1.4071 -1.9779 -1.3596
 9287SOL     OW39496   4.429   4.361   3.843 -0.0735 -0.4083 -0.0961
 9287SOL    HW139497   4.481   4.282   3.831 -3.9396 -2.7210 -1.7156
 9287SOL    HW239498   4.353   4.319   3.883 -0.2892  1.2198  1.2165
 9288SOL     OW39499   4.175   0.102   6.275 -0.1378  0.4768 -0.4018
 9288SOL    HW139500   4.208   0.045   6.344 -0.1685 -0.5374 -1.2161
 9288SOL    HW239501   4.103   0.049   6.241 -1.0743  1.1425  0.5424
 9289SOL     OW39502   0.846   1.853   9.850 -0.2317 -0.7010 -0.3207
 9289SOL    HW139503   0.844   1.780   9.911  2.1745 -2.0787 -1.8968
 9289SOL    HW239504   0.760   1.862   9.810 -0.0940  0.4345 -0.3841
 9290SOL     OW39505   2.956   4.571  15.896 -0.2368 -0.7405  0.5864
 9290SOL    HW139506   2.992   4.648  15.941  0.0041  0.1262 -1.0929
 9290SOL    HW239507   2.868   4.569  15.934  0.5307  2.6403  2.6193
 9291SOL     OW39508   3.689   4.376   5.784  1.2930  0.4697 -0.0526
 9291SOL    HW139509   3.695   4.303   5.846  0.3640  0.6700  0.2805
 9291SOL    HW239510   3.738   4.348   5.707 -0.2979 -0.3651 -0.7363
 9292SOL     OW39511   0.410   0.678   7.151 -0.4804  0.3667 -0.0606
 9292SOL    HW139512   0.345   0.636   7.095 -0.2540 -2.3152  1.7012
 9292SOL    HW239513   0.372   0.766   7.155  0.8415  0.8814  1.0186
 9293SOL     OW39514   2.061   2.601   7.844  0.2466 -0.2326  0.2841
 9293SOL    HW139515   2.107   2.683   7.828 -0.7423  0.7166  2.2992
 9293SOL    HW239516   1.974   2.633   7.867  0.2363  1.5239 -2.1926
 9294SOL     OW39517   3.318   0.263   3.283 -0.1910 -0.2504 -0.0759
 9294SOL    HW139518   3.233   0.231   3.253 -0.1953  0.5310 -0.8919
 9294SOL    HW239519   3.357   0.196   3.339  3.0675  1.8087  0.0917
 9295SOL     OW39520   0.710   1.993   1.784  0.5292 -0.7817  0.5343
 9295SOL    HW139521   0.650   1.925   1.815  0.1167 -1.0382 -0.8224
 9295SOL    HW239522   0.742   1.956   1.702 -0.0078  1.5611 -0.7347
 9296SOL     OW39523   2.220   1.686   9.608 -0.0573  0.0424 -0.3163
 9296SOL    HW139524   2.243   1.598   9.638  1.1414  0.2702 -0.5699
 9296SOL    HW239525   2.147   1.664   9.550 -0.2766  4.3424 -1.6597
 9297SOL     OW39526   2.520   1.519   3.363  0.1864  0.3694  0.3917
 9297SOL    HW139527   2.511   1.457   3.436  0.6428  1.5949  1.4992
 9297SOL    HW239528   2.463   1.593   3.387  0.6178  1.0505 -0.6824
 9298SOL     OW39529   2.719   0.045   9.564  0.3453  0.3115  0.0973
 9298SOL    HW139530   2.639   0.084   9.598  0.9489  1.0529  0.6617
 9298SOL    HW239531   2.724   0.080   9.476 -0.4896  0.5602  0.1458
 9299SOL     OW39532   3.677   4.137   7.564  0.0198 -0.3884  0.0338
 9299SOL    HW139533   3.629   4.065   7.607 -1.0805  0.9989  1.1762
 9299SOL    HW239534   3.767   4.105   7.558  0.0705 -0.3733  0.6533
 9300SOL     OW39535   3.241   3.758   7.186  0.3519 -0.3215  0.0640
 9300SOL    HW139536   3.155   3.800   7.188 -0.0159 -1.0941  0.4196
 9300SOL    HW239537   3.252   3.692   7.254  2.5961  2.3228  2.2576
 9301SOL     OW39538   1.087   1.716   1.801  0.3104 -0.0940  0.2643
 9301SOL    HW139539   1.053   1.795   1.843 -0.1723 -0.8451  1.2760
 9301SOL    HW239540   1.013   1.682   1.750 -1.4207  0.5558  2.3041
 9302SOL     OW39541   0.143   3.748   6.969  1.1287 -0.1280 -0.3734
 9302SOL    HW139542   0.111   3.788   7.050 -3.3430 -1.7319 -1.3892
 9302SOL    HW239543   0.225   3.705   6.996  0.7974  0.1421  1.0518
 9303SOL     OW39544   0.518   1.216   3.750  0.4277  0.4280 -0.0172
 9303SOL    HW139545   0.534   1.297   3.798  0.1966  0.4890 -0.0454
 9303SOL    HW239546   0.595   1.218   3.692  1.2834 -1.5121  1.0756
 9304SOL     OW39547   1.003   0.806   9.250 -0.2297  0.3847  0.2441
 9304SOL    HW139548   0.942   0.840   9.185  2.3036 -1.1578 -2.9816
 9304SOL    HW239549   1.010   0.719   9.211  0.1211  0.7684 -0.5679
 9305SOL     OW39550   2.432   3.055   4.500  0.3217 -0.1424  1.3529
 9305SOL    HW139551   2.366   3.053   4.430  1.2346 -0.0782  0.4918
 9305SOL    HW239552   2.428   3.145   4.530 -0.4733  0.1977  0.2444
 9306SOL     OW39553   1.581   2.863  11.023 -0.6851  0.2629 -0.3960
 9306SOL    HW139554   1.570   2.769  11.035  0.9649 -0.1573 -2.1890
 9306SOL    HW239555   1.582   2.906  11.108 -2.6785 -1.2881  0.4093
 9307SOL     OW39556   4.422   4.319   8.017 -0.2413  0.1002 -0.2490
 9307SOL    HW139557   4.510   4.285   8.027 -0.7347 -1.3707 -0.9035
 9307SOL    HW239558   4.364   4.243   8.007  0.4614 -0.3591 -0.7850
 9308SOL     OW39559   0.681   4.263   4.156 -0.1343 -0.1907 -0.1943
 9308SOL    HW139560   0.673   4.331   4.223  1.5094  0.1469 -0.3441
 9308SOL    HW239561   0.706   4.187   4.208 -0.9101  0.2305  0.8021
 9309SOL     OW39562   2.986   1.035  12.264 -0.7302  0.1781 -0.0146
 9309SOL    HW139563   2.937   0.953  12.268  1.0486 -0.9327 -0.7928
 9309SOL    HW239564   2.945   1.089  12.331 -0.5529  2.9841 -2.1779
 9310SOL     OW39565   2.081   3.511  12.367 -0.5060 -0.5835 -0.4550
 9310SOL    HW139566   2.158   3.454  12.371 -0.9041 -1.0395  0.5441
 9310SOL    HW239567   2.013   3.450  12.394  0.5601 -0.9830  1.3304
 9311SOL     OW39568   1.950   2.866   4.823  0.4054  0.2247  0.2474
 9311SOL    HW139569   2.025   2.924   4.811  1.5232 -1.3365 -0.3018
 9311SOL    HW239570   1.875   2.916   4.792  0.1863 -1.1825 -1.5254
 9312SOL     OW39571   1.709   2.925   7.356 -0.3494  0.3101  0.1446
 9312SOL    HW139572   1.669   2.840   7.376  1.4758 -0.4188  0.6312
 9312SOL    HW239573   1.787   2.913   7.410 -0.6033  0.1977  0.4839
 9313SOL     OW39574   0.492   4.262   8.280  0.0098  0.4719 -0.0262
 9313SOL    HW139575   0.571   4.309   8.307  0.0305  0.0606  0.6292
 9313SOL    HW239576   0.515   4.215   8.200 -1.4270  1.1949 -0.8549
 9314SOL     OW39577   0.602   1.298   7.763  0.0106  0.0750  0.2390
 9314SOL    HW139578   0.542   1.227   7.788  1.6927 -1.7830 -0.9879
 9314SOL    HW239579   0.644   1.269   7.682  0.6056  0.5410  0.3866
 9315SOL     OW39580   3.710   3.548  10.066 -0.1902  0.0272  0.6777
 9315SOL    HW139581   3.710   3.641  10.088 -0.4062 -0.4674  2.7705
 9315SOL    HW239582   3.617   3.524  10.062  0.3058 -1.4145 -1.6662
 9316SOL     OW39583   0.823   4.589   5.427  0.2283  0.4003  0.1406
 9316SOL    HW139584   0.795   4.498   5.439  0.4925  0.2181 -0.6188
 9316SOL    HW239585   0.738   4.630   5.412  0.9259  1.9550  0.4256
 9317SOL     OW39586   0.326   3.596   5.000  0.5015  0.0874  0.0188
 9317SOL    HW139587   0.321   3.681   4.958 -2.6893  0.3407  0.8692
 9317SOL    HW239588   0.387   3.549   4.942  0.5759  1.8550 -1.3159
 9318SOL     OW39589   3.522   4.663   6.951 -0.7342  0.3648 -0.2418
 9318SOL    HW139590   3.559   4.699   6.871  1.6052 -0.5598  0.4186
 9318SOL    HW239591   3.595   4.679   7.011 -0.3892  1.0501 -0.8523
 9319SOL     OW39592   1.055   2.180   0.830  0.1005  0.1923  0.0394
 9319SOL    HW139593   1.069   2.096   0.873 -0.0966 -0.2872 -0.8210
 9319SOL    HW239594   1.030   2.243   0.897 -0.1276  0.2337 -0.0838
 9320SOL     OW39595   3.398   4.303   4.252 -0.2186 -0.0104 -0.3923
 9320SOL    HW139596   3.439   4.382   4.218  0.2761  0.1215  0.5316
 9320SOL    HW239597   3.401   4.245   4.176  0.4091  0.1476 -0.4858
 9321SOL     OW39598   0.424   2.325   1.861 -0.3407  0.0396  0.0451
 9321SOL    HW139599   0.399   2.357   1.774  0.0914  2.1602  0.7122
 9321SOL    HW239600   0.512   2.290   1.844 -0.0630 -0.1364  1.9007
 9322SOL     OW39601   2.455   3.604   1.362 -0.2907 -0.0931 -0.5193
 9322SOL    HW139602   2.412   3.524   1.394 -0.2548 -0.0931 -0.4712
 9322SOL    HW239603   2.527   3.567   1.310 -0.9725  1.3606 -2.5154
 9323SOL     OW39604   0.723   1.396   1.405 -0.1740 -0.5275  0.4259
 9323SOL    HW139605   0.755   1.308   1.385  2.4824  0.1782  1.6375
 9323SOL    HW239606   0.670   1.360   1.476  0.3268  0.0486  1.0933
 9324SOL     OW39607   1.150   2.628   0.667 -0.2723 -0.1906 -0.2816
 9324SOL    HW139608   1.090   2.696   0.635  0.8128  1.1185  0.5148
 9324SOL    HW239609   1.181   2.613   0.578 -2.2610  0.9629 -1.1913
 9325SOL     OW39610   1.148   0.209   3.695  0.0512 -0.0438  0.7010
 9325SOL    HW139611   1.061   0.244   3.714 -0.1706  0.4710 -1.2179
 9325SOL    HW239612   1.150   0.204   3.599 -0.7858  1.7324  0.5949
 9326SOL     OW39613   2.267   2.752   3.287  0.5999 -0.0006 -0.0643
 9326SOL    HW139614   2.317   2.786   3.361  1.0353 -1.0031  0.0948
 9326SOL    HW239615   2.248   2.816   3.218  0.9624  1.1745  0.9321
 9327SOL     OW39616   2.676   2.164   2.208  0.0413 -0.3794  0.3846
 9327SOL    HW139617   2.632   2.226   2.151  0.0010  0.5875  1.4673
 9327SOL    HW239618   2.739   2.115   2.154 -1.5298  0.7633 -2.4424
 9328SOL     OW39619   1.087   4.494  14.221 -0.2691 -0.0383  0.0990
 9328SOL    HW139620   1.141   4.433  14.272 -1.1340 -1.5857 -0.8231
 9328SOL    HW239621   1.056   4.544  14.296 -1.0338 -0.5900  0.1571
 9329SOL     OW39622   0.172   1.672   8.809  0.3416 -0.3327  0.5294
 9329SOL    HW139623   0.091   1.717   8.786  0.8266  0.6315  0.6869
 9329SOL    HW239624   0.134   1.586   8.791 -0.2815  0.5939 -2.5509
 9330SOL     OW39625   0.342   0.233   8.118  0.3017 -0.6091  1.0636
 9330SOL    HW139626   0.319   0.326   8.117  0.1176 -0.6218  3.9859
 9330SOL    HW239627   0.253   0.201   8.136  1.2315 -2.7882  1.7718
 9331SOL     OW39628   2.252   3.004   5.255 -0.1576  0.2728 -0.3818
 9331SOL    HW139629   2.338   3.034   5.286 -1.3980  0.6145  2.7425
 9331SOL    HW239630   2.219   3.077   5.201 -1.3916 -0.0278 -0.0410
 9332SOL     OW39631   4.000   2.203   7.008  0.0697  0.4749 -0.2940
 9332SOL    HW139632   4.016   2.120   7.052  1.0341  0.9532  0.2511
 9332SOL    HW239633   3.907   2.218   7.028  0.7265  0.9879  2.3229
 9333SOL     OW39634   3.387   0.989  11.273  0.0190 -0.0771 -0.1537
 9333SOL    HW139635   3.420   1.042  11.200 -2.5078  0.2686 -1.0256
 9333SOL    HW239636   3.294   1.002  11.258 -0.1790 -0.3303  0.8921
 9334SOL     OW39637   0.934   2.088   7.432  0.3256 -0.3852 -0.1828
 9334SOL    HW139638   0.891   2.112   7.514  0.6656 -0.4188  0.0047
 9334SOL    HW239639   0.857   2.092   7.375  0.1155 -0.2179  0.1139
 9335SOL     OW39640   2.790   3.506   7.996  0.5468 -0.2570 -0.3867
 9335SOL    HW139641   2.768   3.423   8.037 -1.0311  1.4847  2.3054
 9335SOL    HW239642   2.807   3.481   7.905 -2.0707 -0.1405 -0.8934
 9336SOL     OW39643   1.174   2.909   5.668  0.1354  0.3948  0.3794
 9336SOL    HW139644   1.159   2.859   5.748 -1.6514  0.1007 -0.1352
 9336SOL    HW239645   1.088   2.892   5.630  0.3221  1.0756 -0.3457
 9337SOL     OW39646   4.437   2.802   3.643  0.6678  0.0925  0.2680
 9337SOL    HW139647   4.491   2.723   3.638 -0.3244 -0.5465 -0.7042
 9337SOL    HW239648   4.497   2.871   3.615  2.3619 -0.3813  2.8120
 9338SOL     OW39649   2.720   0.751   3.519  0.1512  0.5351  0.6721
 9338SOL    HW139650   2.810   0.756   3.552  1.4423 -0.5107 -2.7339
 9338SOL    HW239651   2.670   0.747   3.601  0.4754 -2.6601  0.7230
 9339SOL     OW39652   3.183   4.339   3.316 -0.4596 -0.5237 -0.4533
 9339SOL    HW139653   3.257   4.360   3.259  1.0467 -0.9561  1.3410
 9339SOL    HW239654   3.102   4.363   3.271  0.9722  0.4725 -2.5105
 9340SOL     OW39655   2.975   0.257   9.881 -0.3279  0.4214 -0.1677
 9340SOL    HW139656   2.899   0.306   9.849 -0.6294  0.0088 -0.0725
 9340SOL    HW239657   3.010   0.238   9.794  0.9356 -1.7456  0.8279
 9341SOL     OW39658   2.760   0.339   7.022 -0.3083  0.1649 -0.1529
 9341SOL    HW139659   2.793   0.369   7.108  0.7469  1.8473 -1.1335
 9341SOL    HW239660   2.679   0.389   7.009 -0.2352  0.2212 -0.3886
 9342SOL     OW39661   3.286   0.140   6.601 -0.2889 -0.0472 -0.0379
 9342SOL    HW139662   3.356   0.076   6.616  0.3965  1.0792  1.5174
 9342SOL    HW239663   3.340   0.218   6.610 -1.7929  0.7891  1.6740
 9343SOL     OW39664   2.633   1.768   3.058  0.5238  0.2972  0.2934
 9343SOL    HW139665   2.682   1.736   3.134 -0.3257  1.6448  1.4141
 9343SOL    HW239666   2.545   1.734   3.074  1.2221 -1.7317 -0.2204
 9344SOL     OW39667   3.414   2.133  16.196 -0.4015  0.3678 -0.0181
 9344SOL    HW139668   3.388   2.057  16.145  0.2641 -1.7752  2.8107
 9344SOL    HW239669   3.343   2.198  16.189  1.0154  1.8667 -0.5491
 9345SOL     OW39670   0.374   1.032   3.244  0.1051  0.1823  0.1930
 9345SOL    HW139671   0.375   1.042   3.149  1.7886 -2.0791 -0.0184
 9345SOL    HW239672   0.281   1.014   3.262 -0.6883  2.5829 -1.5993
 9346SOL     OW39673   2.052   1.108   1.419  0.0836 -0.2717  0.0514
 9346SOL    HW139674   2.106   1.094   1.496 -0.3527 -0.1694  0.3774
 9346SOL    HW239675   1.974   1.142   1.464  1.1863  0.9081  1.0868
 9347SOL     OW39676   3.454   1.827   7.240 -0.5845 -0.0615 -0.2236
 9347SOL    HW139677   3.455   1.761   7.310  2.4202 -0.2960 -0.4605
 9347SOL    HW239678   3.383   1.792   7.186 -1.8607 -0.9985  2.0837
 9348SOL     OW39679   4.272   4.053  16.035 -0.6834  0.2269  0.0161
 9348SOL    HW139680   4.227   4.073  15.953  0.2101  4.5262  0.5861
 9348SOL    HW239681   4.357   4.043  15.992 -1.0959  0.9018 -0.9677
 9349SOL     OW39682   4.268   4.496   7.866 -0.1585 -0.1184  0.0132
 9349SOL    HW139683   4.316   4.437   7.924 -0.9942  0.1361  0.9545
 9349SOL    HW239684   4.311   4.477   7.783 -0.3782 -1.8265  0.2842
 9350SOL     OW39685   0.670   0.397   8.792 -0.5277  0.2192  0.1036
 9350SOL    HW139686   0.577   0.379   8.798 -0.2315 -1.8589 -1.2704
 9350SOL    HW239687   0.711   0.311   8.777 -0.8536  0.1605 -0.4169
 9351SOL     OW39688   3.572   0.408   2.610 -0.1877  0.1771  0.0966
 9351SOL    HW139689   3.579   0.334   2.671 -0.2515  1.9398  2.2388
 9351SOL    HW239690   3.630   0.379   2.539 -1.2926 -1.6874 -0.0650
 9352SOL     OW39691   0.008   0.880   5.152  0.1028 -0.0921  0.7640
 9352SOL    HW139692   0.052   0.965   5.164  1.7811 -0.8816  0.2255
 9352SOL    HW239693   0.059   0.815   5.199  1.4481  0.8346  0.6018
 9353SOL     OW39694   0.959   0.220   3.029  0.3914  0.0325  0.9862
 9353SOL    HW139695   0.878   0.176   3.052 -0.6811  1.3921 -0.2028
 9353SOL    HW239696   0.921   0.308   3.028 -0.5984 -0.4170 -1.4553
 9354SOL     OW39697   4.556   0.812   8.863 -0.4219 -0.6350  0.5607
 9354SOL    HW139698   4.534   0.719   8.864  0.4519 -0.8411  0.2391
 9354SOL    HW239699   4.651   0.804   8.854 -0.3382  0.5121  0.4752
 9355SOL     OW39700   1.639   1.190   7.082  0.3979  0.0639 -0.3909
 9355SOL    HW139701   1.703   1.176   7.153  0.0759  0.8564  0.0531
 9355SOL    HW239702   1.646   1.285   7.082  0.0813  0.0851 -0.2200
 9356SOL     OW39703   4.002   0.941   4.188  0.0240  0.2660  0.0931
 9356SOL    HW139704   3.921   0.931   4.237 -0.5806 -1.4911 -1.2963
 9356SOL    HW239705   3.978   0.982   4.104  0.6424  1.4211  0.4718
 9357SOL     OW39706   1.469   1.646   2.349 -0.4660  0.0688  0.0618
 9357SOL    HW139707   1.520   1.704   2.406 -0.9621  0.9647 -0.3945
 9357SOL    HW239708   1.381   1.679   2.366 -1.1219 -1.8462  0.3035
 9358SOL     OW39709   1.937   0.134   6.449  0.4080 -0.0552  0.3675
 9358SOL    HW139710   1.941   0.092   6.363  0.4822 -1.1377  0.9015
 9358SOL    HW239711   1.867   0.091   6.499  1.7480 -0.6570  1.7438
 9359SOL     OW39712   4.182   4.515   6.013  1.0221 -0.1788 -0.7654
 9359SOL    HW139713   4.099   4.563   6.006  0.2447 -1.4324 -0.2130
 9359SOL    HW239714   4.168   4.442   6.073 -0.7654  1.3068  0.6384
 9360SOL     OW39715   1.481   3.535  11.293 -0.6541 -0.5735  0.5509
 9360SOL    HW139716   1.478   3.612  11.350  0.7212  0.0257 -0.1686
 9360SOL    HW239717   1.481   3.573  11.205  1.2698  0.8326  1.1617
 9361SOL     OW39718   0.525   2.037   8.150 -0.4685 -0.0909 -0.2853
 9361SOL    HW139719   0.474   1.957   8.156  1.5447 -1.1608  2.8095
 9361SOL    HW239720   0.478   2.096   8.209  0.7416  0.5686  0.0364
 9362SOL     OW39721   2.667   3.536  13.151  0.6424  0.2670 -0.3511
 9362SOL    HW139722   2.726   3.550  13.226 -1.2036  0.8364  0.9784
 9362SOL    HW239723   2.733   3.548  13.083  2.6800  0.9433  1.7397
 9363SOL     OW39724   0.466   2.732  10.514 -0.1228  0.3333 -0.2484
 9363SOL    HW139725   0.374   2.743  10.493 -0.1768 -0.7830 -0.5911
 9363SOL    HW239726   0.468   2.772  10.601 -0.3685  1.3159 -0.6919
 9364SOL     OW39727   3.792   0.275   3.541 -0.2925 -0.5115  0.0308
 9364SOL    HW139728   3.878   0.303   3.573 -0.5020  0.2987 -0.1384
 9364SOL    HW239729   3.737   0.340   3.585  0.6836  0.8801 -0.8067
 9365SOL     OW39730   0.611   2.572  17.645 -0.5237 -0.5248  0.0253
 9365SOL    HW139731   0.688   2.530  17.683  0.2668  0.3689 -0.5866
 9365SOL    HW239732   0.546   2.541  17.708 -1.0039  0.3629 -0.0365
 9366SOL     OW39733   3.971   1.026   8.381  0.0894  0.4945  0.3559
 9366SOL    HW139734   3.943   1.117   8.387  1.1810  0.8723 -0.3599
 9366SOL    HW239735   4.051   1.030   8.328 -0.3982 -2.5488 -0.6251
 9367SOL     OW39736   0.854   0.109   8.998  0.1154  0.2492  0.0109
 9367SOL    HW139737   0.762   0.092   9.016  0.1156 -0.4359 -0.6844
 9367SOL    HW239738   0.858   0.088   8.905 -0.0846  0.0002  0.0599
 9368SOL     OW39739   1.486   4.153  16.647 -0.4239 -0.0834  0.1117
 9368SOL    HW139740   1.412   4.103  16.613  0.8140 -0.7849 -1.5572
 9368SOL    HW239741   1.437   4.214  16.702 -1.1226  0.3199 -0.9400
 9369SOL     OW39742   4.075   4.120   4.301 -0.3063  0.3458 -0.1032
 9369SOL    HW139743   4.065   4.030   4.269 -0.3427 -0.0664  1.0677
 9369SOL    HW239744   4.008   4.167   4.251 -0.4507 -1.5892 -1.7617
 9370SOL     OW39745   2.697   4.496   1.502 -0.4394  0.0226  0.8041
 9370SOL    HW139746   2.720   4.589   1.490 -0.7768  0.1455  1.1099
 9370SOL    HW239747   2.738   4.449   1.429 -0.7514  0.6432  0.2229
 9371SOL     OW39748   3.537   0.571   4.592  0.0423 -0.1392 -0.1837
 9371SOL    HW139749   3.537   0.524   4.675 -0.5715 -0.7565 -0.5274
 9371SOL    HW239750   3.497   0.501   4.540 -0.4534  0.7944 -1.0893
 9372SOL     OW39751   3.215   0.634   3.972 -0.3106 -0.3226  0.1999
 9372SOL    HW139752   3.199   0.725   3.998  1.5288 -0.0196  0.2474
 9372SOL    HW239753   3.136   0.605   4.018 -0.8176 -0.2387 -0.6203
 9373SOL     OW39754   4.248   3.028   9.251  0.4684 -0.1376  0.2966
 9373SOL    HW139755   4.172   3.055   9.200  2.8316  1.2355 -2.4851
 9373SOL    HW239756   4.237   2.932   9.255  0.3247 -0.1340 -0.0230
 9374SOL     OW39757   1.706   4.741  13.325  0.8209 -0.1511 -0.1639
 9374SOL    HW139758   1.613   4.724  13.345  1.2186 -1.3043  0.7151
 9374SOL    HW239759   1.744   4.666  13.371  0.4283 -0.2896 -0.0630
 9375SOL     OW39760   0.051   2.213   5.961  0.4361  0.3060  0.0924
 9375SOL    HW139761   4.714   2.172   5.928 -0.1220  1.0754  0.5031
 9375SOL    HW239762   0.079   2.271   5.890  1.1500 -1.8785 -1.4219
 9376SOL     OW39763   4.417   3.995   8.704 -0.3910  0.2138 -0.3002
 9376SOL    HW139764   4.421   4.087   8.678 -0.6076 -0.2185 -1.8690
 9376SOL    HW239765   4.325   3.992   8.730 -0.3611  0.6593 -0.1506
 9377SOL     OW39766   1.503   2.667   1.750 -0.2418  0.1678  0.1652
 9377SOL    HW139767   1.481   2.745   1.801  1.2451 -1.1945  2.8926
 9377SOL    HW239768   1.588   2.634   1.782 -0.2982  0.4177  0.5758
 9378SOL     OW39769   3.076   4.659   8.694 -0.2546  0.5318 -0.5330
 9378SOL    HW139770   3.131   4.720   8.645  1.2220 -1.3868 -1.2892
 9378SOL    HW239771   3.135   4.584   8.692  0.0051  0.7473 -1.0793
 9379SOL     OW39772   1.794   2.726  11.568  0.2276  1.0325 -0.2535
 9379SOL    HW139773   1.766   2.780  11.642  0.2249 -0.2537  0.6872
 9379SOL    HW239774   1.778   2.785  11.495  2.7971 -0.0456 -1.6868
 9380SOL     OW39775   2.284   3.002   4.276 -0.5916  0.1795 -0.7063
 9380SOL    HW139776   2.311   2.910   4.266 -0.6460 -0.1534  2.2910
 9380SOL    HW239777   2.266   3.030   4.187  0.5213  0.5502 -0.8095
 9381SOL     OW39778   1.858   1.121   0.621  0.8348 -0.0078 -0.0999
 9381SOL    HW139779   1.854   1.200   0.567 -0.8058 -0.9365 -1.3559
 9381SOL    HW239780   1.873   1.155   0.709 -0.1464  0.2626 -0.0399
 9382SOL     OW39781   3.037   2.504   6.121 -0.3381  0.1116  0.0133
 9382SOL    HW139782   3.083   2.563   6.181  0.6967 -1.2915  0.5999
 9382SOL    HW239783   3.038   2.420   6.167  0.9740 -0.2691 -0.7300
 9383SOL     OW39784   4.725   1.612   5.904  0.3727  0.1882 -0.3639
 9383SOL    HW139785   4.672   1.538   5.872  0.2373 -0.1687  0.6718
 9383SOL    HW239786   4.742   1.579   5.992  1.6586 -1.7363 -1.3450
 9384SOL     OW39787   3.586   4.617  14.046 -0.1134 -0.0109  0.0879
 9384SOL    HW139788   3.579   4.644  13.955 -1.6645 -0.6451  0.0279
 9384SOL    HW239789   3.566   4.698  14.094 -0.9810 -1.3214  1.9506
 9385SOL     OW39790   2.564   3.286   4.312  0.3786 -0.5330 -0.2166
 9385SOL    HW139791   2.474   3.295   4.281 -0.4214 -0.7637  2.0390
 9385SOL    HW239792   2.567   3.375   4.349 -1.1275  0.5600 -2.7034
 9386SOL     OW39793   4.302   2.394   6.628 -0.1413 -0.4351  0.1571
 9386SOL    HW139794   4.349   2.464   6.675 -2.1505 -1.0980  3.1752
 9386SOL    HW239795   4.212   2.420   6.645  0.6244  0.4673  2.8482
 9387SOL     OW39796   3.090   1.950   5.203 -0.0874 -0.1452  0.6734
 9387SOL    HW139797   3.170   1.991   5.171 -0.0960 -0.4453  0.2577
 9387SOL    HW239798   3.040   1.956   5.121 -0.5740  0.2425  1.0002
 9388SOL     OW39799   3.194   2.550   9.401  0.3199 -0.4036  0.1587
 9388SOL    HW139800   3.163   2.571   9.490  1.2942 -2.2135  0.9298
 9388SOL    HW239801   3.116   2.564   9.347  0.4185  2.0566  0.6150
 9389SOL     OW39802   0.840   0.211   8.434  0.1888  0.3022 -0.1734
 9389SOL    HW139803   0.758   0.166   8.455  0.6464 -2.0354 -3.2181
 9389SOL    HW239804   0.894   0.143   8.394  0.5405 -1.2818  3.0410
 9390SOL     OW39805   1.613   4.637   7.439  0.2307 -0.1443 -0.3869
 9390SOL    HW139806   1.633   4.562   7.382  1.3238  1.2918 -1.8883
 9390SOL    HW239807   1.577   4.590   7.514 -0.5888 -0.9993 -1.2990
 9391SOL     OW39808   2.964   0.175  10.597  0.4358  0.2112  0.0707
 9391SOL    HW139809   2.985   0.139  10.511 -0.9240 -3.1789  1.1452
 9391SOL    HW239810   3.041   0.148  10.648  0.8369 -0.9205 -1.1148
 9392SOL     OW39811   0.647   0.784   8.748  0.0671 -0.1850 -0.9038
 9392SOL    HW139812   0.566   0.809   8.792  1.4187 -0.7841  1.9493
 9392SOL    HW239813   0.675   0.706   8.797 -0.8872 -0.9774 -1.6154
 9393SOL     OW39814   1.712   3.407   4.253 -0.1501  0.3156 -0.3694
 9393SOL    HW139815   1.804   3.429   4.261  0.2877 -2.1426  1.3529
 9393SOL    HW239816   1.658   3.484   4.275  1.1506  1.4281 -1.0533
 9394SOL     OW39817   3.930   2.339   4.609  0.3663  0.0646  0.2540
 9394SOL    HW139818   3.848   2.314   4.566 -0.5244  0.5863  1.6282
 9394SOL    HW239819   3.967   2.252   4.627  0.1688 -0.1983 -0.6167
 9395SOL     OW39820   2.303   1.231   3.270 -0.2975  0.4911  0.0369
 9395SOL    HW139821   2.212   1.208   3.289  0.9961 -3.6095  1.3740
 9395SOL    HW239822   2.351   1.188   3.341  0.7328  1.8686  0.1750
 9396SOL     OW39823   1.179   1.763  13.387  0.3690 -0.1950  0.2501
 9396SOL    HW139824   1.173   1.668  13.386  3.1077 -0.3438  0.1273
 9396SOL    HW239825   1.270   1.788  13.400  0.7856 -2.8920  2.3785
 9397SOL     OW39826   1.339   3.990   0.823  0.0603  0.4666  0.0341
 9397SOL    HW139827   1.286   4.044   0.882 -1.0529 -0.1012 -0.4493
 9397SOL    HW239828   1.407   4.053   0.803  0.3431  0.4896  1.0764
 9398SOL     OW39829   1.910   1.473   1.492  0.2294 -0.0609  0.2193
 9398SOL    HW139830   1.957   1.555   1.479  0.0121  0.0571  0.1729
 9398SOL    HW239831   1.971   1.417   1.541  1.9318  1.0414 -0.6510
 9399SOL     OW39832   3.623   0.847   3.702  0.2311 -0.4176 -0.2153
 9399SOL    HW139833   3.716   0.840   3.682 -0.0306 -3.2581 -0.5135
 9399SOL    HW239834   3.607   0.936   3.672  0.9645 -0.5806 -1.0847
 9400SOL     OW39835   3.628   2.183   4.780 -0.2195 -0.3070 -0.1311
 9400SOL    HW139836   3.552   2.160   4.834 -1.0398 -1.9612 -1.9977
 9400SOL    HW239837   3.682   2.104   4.784 -2.1384 -1.6949 -1.6626
 9401SOL     OW39838   0.455   0.829  12.240 -0.6253 -0.0464 -0.2008
 9401SOL    HW139839   0.364   0.856  12.229 -0.3664  1.6229  1.7390
 9401SOL    HW239840   0.494   0.883  12.309  0.6274 -1.9025  0.5629
 9402SOL     OW39841   4.243   1.319  16.215  0.5209  0.3487 -0.8449
 9402SOL    HW139842   4.173   1.259  16.191  0.4156 -0.0630  0.4528
 9402SOL    HW239843   4.217   1.337  16.306  1.1108  1.0132 -0.8106
 9403SOL     OW39844   1.259   0.966   4.858  0.1192 -0.2818  0.4971
 9403SOL    HW139845   1.222   0.917   4.784 -1.0811  1.5258 -0.0883
 9403SOL    HW239846   1.311   0.894   4.895  3.1033  2.1927  1.1157
 9404SOL     OW39847   3.588   0.277  10.303  0.0926 -0.5322 -0.1078
 9404SOL    HW139848   3.501   0.283  10.264 -0.3787 -0.5314  0.9188
 9404SOL    HW239849   3.566   0.269  10.396  1.6557 -2.1514  0.1368
 9405SOL     OW39850   1.574   1.694   2.718  0.1813  0.3494 -0.0971
 9405SOL    HW139851   1.488   1.700   2.760 -0.6126 -1.1196 -1.5158
 9405SOL    HW239852   1.554   1.721   2.629  1.5215 -1.1302 -0.8398
 9406SOL     OW39853   1.188   0.842  14.359  0.5026 -0.0549  0.2016
 9406SOL    HW139854   1.228   0.814  14.277  1.2731 -1.3730  1.0223
 9406SOL    HW239855   1.099   0.871  14.339  1.3914  1.3336 -1.6947
 9407SOL     OW39856   2.357   1.964   6.666 -0.1676 -0.1671  0.1877
 9407SOL    HW139857   2.366   1.926   6.578  1.1481 -1.3751  0.8583
 9407SOL    HW239858   2.331   2.054   6.647 -0.4290 -0.5160 -1.1480
 9408SOL     OW39859   0.987   1.789  10.308 -0.2231 -0.5941  0.3792
 9408SOL    HW139860   1.016   1.720  10.368  3.7251  0.1911 -0.6310
 9408SOL    HW239861   1.046   1.772  10.235  2.2876 -0.2913  2.3437
 9409SOL     OW39862   0.781   4.292   0.859  0.4143 -0.2130  0.5813
 9409SOL    HW139863   0.789   4.388   0.867  1.9101 -0.2887 -0.0449
 9409SOL    HW239864   0.785   4.289   0.763  1.7442  0.8060  0.5933
 9410SOL     OW39865   0.591   0.241   4.402 -0.0520  0.5044 -0.4229
 9410SOL    HW139866   0.603   0.292   4.321  1.6119  4.2528  2.1874
 9410SOL    HW239867   0.544   0.166   4.366 -1.5657  0.2067  2.1671
 9411SOL     OW39868   2.399   0.973  10.748 -0.1463 -0.3787 -0.2314
 9411SOL    HW139869   2.460   0.929  10.807  1.5352 -1.0888 -2.5164
 9411SOL    HW239870   2.314   0.962  10.790  0.2611 -0.6993  0.5130
 9412SOL     OW39871   0.219   2.759   8.183  0.0837 -0.3270  0.2384
 9412SOL    HW139872   0.245   2.722   8.267  1.0691 -0.8117 -0.2804
 9412SOL    HW239873   0.297   2.812   8.165  0.6088 -0.4900  2.0430
 9413SOL     OW39874   0.513   2.317   6.228  0.1023  0.3688  0.0600
 9413SOL    HW139875   0.535   2.364   6.148  1.3978 -1.0010 -0.3880
 9413SOL    HW239876   0.437   2.268   6.197  0.9146 -1.7074  1.3526
 9414SOL     OW39877   0.310   3.079  11.529 -0.1543  0.3510 -0.0155
 9414SOL    HW139878   0.322   3.173  11.540 -2.2298  0.6398 -0.2086
 9414SOL    HW239879   0.356   3.064  11.446 -0.6176 -1.3198  0.0230
 9415SOL     OW39880   4.415   2.286   8.890 -0.0467 -0.0848  0.3933
 9415SOL    HW139881   4.445   2.317   8.805 -1.5091 -1.0720 -0.4888
 9415SOL    HW239882   4.365   2.212   8.854  0.6410 -0.5268  0.3384
 9416SOL     OW39883   3.543   2.367   7.339  0.2484 -0.3585 -0.2636
 9416SOL    HW139884   3.517   2.280   7.309 -2.2671 -0.3216  1.7143
 9416SOL    HW239885   3.497   2.421   7.275 -1.4151 -1.5182 -0.0683
 9417SOL     OW39886   0.956   0.191  13.180 -0.0057  0.2309  0.2335
 9417SOL    HW139887   0.897   0.137  13.232 -0.1015 -0.0609 -0.1820
 9417SOL    HW239888   0.966   0.131  13.107 -0.9862 -2.2817  2.1751
 9418SOL     OW39889   4.576   2.877  10.757  0.0482  0.1603 -0.1361
 9418SOL    HW139890   4.504   2.906  10.813 -1.7621 -3.2044 -0.6552
 9418SOL    HW239891   4.630   2.816  10.808 -0.3774  0.6027  0.8444
 9419SOL     OW39892   2.763   0.960   7.866  0.5895 -0.2099 -0.5836
 9419SOL    HW139893   2.760   0.965   7.962 -0.6400  1.1706 -0.7050
 9419SOL    HW239894   2.671   0.953   7.842  0.5570  0.2492 -0.5834
 9420SOL     OW39895   4.544   0.721   9.840  0.3659 -0.0582  0.4385
 9420SOL    HW139896   4.621   0.740   9.894 -0.4691 -1.2310  2.0305
 9420SOL    HW239897   4.536   0.803   9.792  0.5062  0.3092  1.0411
 9421SOL     OW39898   2.985   0.007  17.550 -0.0269 -0.2385  0.5259
 9421SOL    HW139899   3.080   0.007  17.541 -0.0882  0.6986 -0.1147
 9421SOL    HW239900   2.966   4.659  17.526  1.3039 -0.7548  1.4588
 9422SOL     OW39901   4.568   2.550   5.662 -0.1240  0.2827  0.5713
 9422SOL    HW139902   4.628   2.608   5.615 -1.3881  1.0465 -0.0755
 9422SOL    HW239903   4.481   2.572   5.629 -0.0846  1.6292  1.3290
 9423SOL     OW39904   0.341   4.428   8.714 -0.0450  0.5534  0.0321
 9423SOL    HW139905   0.286   4.431   8.792 -1.8843 -1.9298 -1.1672
 9423SOL    HW239906   0.299   4.495   8.661  0.0729  1.3876  1.0000
 9424SOL     OW39907   1.868   4.413   2.368 -0.4132  0.1768 -0.2000
 9424SOL    HW139908   1.858   4.326   2.408 -1.7454 -0.3499 -1.7049
 9424SOL    HW239909   1.963   4.421   2.376 -0.4736 -0.3801  1.1059
 9425SOL     OW39910   3.433   3.515   4.545  0.4138  0.2067 -0.4053
 9425SOL    HW139911   3.451   3.597   4.591 -1.3664 -0.5945  1.7221
 9425SOL    HW239912   3.339   3.508   4.531  0.1772 -0.0966  1.3331
 9426SOL     OW39913   1.173   1.962   7.311 -0.6048 -0.3161 -0.6501
 9426SOL    HW139914   1.126   1.879   7.297 -2.9718  1.3068 -2.3467
 9426SOL    HW239915   1.098   2.019   7.329 -0.8660 -0.7543 -0.3647
 9427SOL     OW39916   3.030   0.104   7.075  0.0663 -0.4211  0.7803
 9427SOL    HW139917   3.103   0.132   7.129  1.2312 -1.8707 -0.0471
 9427SOL    HW239918   3.070   0.107   6.988 -0.2823 -0.4582  0.6171
 9428SOL     OW39919   2.457   1.860   9.556 -0.3984 -0.0919  0.3957
 9428SOL    HW139920   2.381   1.818   9.597 -0.6635 -1.3474 -1.3860
 9428SOL    HW239921   2.419   1.885   9.472 -0.0692  1.3602  0.6811
 9429SOL     OW39922   3.175   4.496   5.942 -0.3288  0.4671  0.7372
 9429SOL    HW139923   3.103   4.434   5.929 -0.4790  0.5976  0.9449
 9429SOL    HW239924   3.167   4.542   5.859 -2.6446 -0.6040  0.3595
 9430SOL     OW39925   2.240   2.761  10.991  0.2364 -0.0763 -0.5975
 9430SOL    HW139926   2.274   2.849  10.972  0.5902  0.0070  0.4308
 9430SOL    HW239927   2.165   2.776  11.048 -0.1877 -1.7864 -0.6962
 9431SOL     OW39928   2.379   1.313   4.513 -0.4309 -0.2792 -0.5410
 9431SOL    HW139929   2.423   1.251   4.570  1.6514 -0.4153 -2.2743
 9431SOL    HW239930   2.288   1.284   4.513 -0.1361 -1.1921 -2.2652
 9432SOL     OW39931   2.740   4.001   0.873  0.4037 -0.0879  0.3213
 9432SOL    HW139932   2.726   4.096   0.868  0.0798 -0.2136 -1.2745
 9432SOL    HW239933   2.812   3.987   0.811 -1.2002 -1.9327 -1.1270
 9433SOL     OW39934   1.736   0.905  13.053 -0.0294  0.4642 -0.2088
 9433SOL    HW139935   1.827   0.905  13.024 -0.0659 -2.0755 -0.3316
 9433SOL    HW239936   1.697   0.974  12.998 -0.7961  1.3025  1.3738
 9434SOL     OW39937   3.616   3.240   9.716  0.3329 -0.3042 -0.3956
 9434SOL    HW139938   3.598   3.334   9.727  0.0348 -0.3412 -0.5883
 9434SOL    HW239939   3.710   3.236   9.738  1.1193  0.3659 -3.5619
 9435SOL     OW39940   4.118   4.269   5.662 -0.1197  0.3959  0.7614
 9435SOL    HW139941   4.118   4.206   5.590 -0.8542  2.8544 -1.3803
 9435SOL    HW239942   4.111   4.202   5.730  0.7533 -0.4734 -0.0112
 9436SOL     OW39943   3.356   3.167   9.774 -0.3120  0.1890  0.0844
 9436SOL    HW139944   3.449   3.184   9.763 -0.4252  0.5756 -0.3406
 9436SOL    HW239945   3.316   3.235   9.718 -1.0513  0.4562  0.9320
 9437SOL     OW39946   3.825   2.714   5.709  0.0164 -0.9256  0.0714
 9437SOL    HW139947   3.864   2.651   5.648  0.5248  1.1203 -1.7373
 9437SOL    HW239948   3.739   2.678   5.730  0.4427 -0.0515  3.3799
 9438SOL     OW39949   2.183   2.967   0.663 -0.2649  0.6568 -0.4504
 9438SOL    HW139950   2.153   2.931   0.746  1.5900  0.4337  0.1141
 9438SOL    HW239951   2.159   3.059   0.669 -1.8411  0.2509 -0.6345
 9439SOL     OW39952   1.244   1.250   0.956 -0.1597  0.0693 -0.5910
 9439SOL    HW139953   1.203   1.211   0.879 -0.8961 -3.1515  1.4109
 9439SOL    HW239954   1.172   1.289   1.005  0.3668  0.0383  0.2072
 9440SOL     OW39955   4.340   1.764   9.469  0.6531  0.0665 -0.1863
 9440SOL    HW139956   4.299   1.819   9.403  1.3576 -1.3394 -1.7927
 9440SOL    HW239957   4.406   1.826   9.501  1.2247 -0.8670  0.4392
 9441SOL     OW39958   1.128   1.375  13.662 -0.2606  0.1789  0.1488
 9441SOL    HW139959   1.193   1.435  13.698  0.1020 -0.6801  0.9130
 9441SOL    HW239960   1.049   1.420  13.693 -0.0599 -1.2788  2.7501
 9442SOL     OW39961   3.987   0.956   8.867  0.1546  0.0557 -0.7512
 9442SOL    HW139962   3.919   0.990   8.809  0.1332  1.3190  0.0214
 9442SOL    HW239963   3.939   0.952   8.949  0.9415 -0.8544 -0.3282
 9443SOL     OW39964   0.993   1.835   4.284  0.5299  0.4809  0.5175
 9443SOL    HW139965   0.978   1.765   4.348  0.4425  0.0133 -0.0179
 9443SOL    HW239966   1.026   1.906   4.340 -0.0612  1.5629 -0.4958
 9444SOL     OW39967   1.948   4.253   2.897 -0.6331  0.6046  0.1896
 9444SOL    HW139968   1.894   4.196   2.843  2.3533 -0.4591 -1.6765
 9444SOL    HW239969   1.929   4.228   2.988 -1.4986 -2.0502 -0.7370
 9445SOL     OW39970   0.116   0.697   3.375 -0.3087  0.3015 -0.2395
 9445SOL    HW139971   0.187   0.687   3.311 -1.7443  0.7875 -1.8883
 9445SOL    HW239972   0.043   0.667   3.321 -1.1279 -1.5745  1.8833
 9446SOL     OW39973   2.402   2.667   3.971 -0.1823  0.0650  0.7840
 9446SOL    HW139974   2.408   2.581   3.930  1.3813 -1.4264  4.2080
 9446SOL    HW239975   2.493   2.694   3.957 -0.5017 -0.0918 -1.6383
 9447SOL     OW39976   2.677   0.827   1.945 -0.4178  0.0562 -0.2068
 9447SOL    HW139977   2.623   0.778   1.883  1.0800  1.0063 -2.2327
 9447SOL    HW239978   2.648   0.915   1.920  0.1743 -0.5343 -2.9813
 9448SOL     OW39979   3.232   3.997   6.594 -0.2344  0.0296  0.4088
 9448SOL    HW139980   3.202   3.909   6.573  0.8301 -0.3756  0.5582
 9448SOL    HW239981   3.306   3.980   6.653 -0.9695  0.1912  1.3642
 9449SOL     OW39982   3.698   1.919   2.124  0.1242 -0.0967  0.4769
 9449SOL    HW139983   3.742   1.908   2.040 -0.5247  0.2780  0.0936
 9449SOL    HW239984   3.619   1.871   2.099 -0.4530 -0.0951  2.2530
 9450SOL     OW39985   1.086   4.641   7.051 -0.2850  0.3985 -0.6297
 9450SOL    HW139986   1.018   4.574   7.052 -0.6697  0.7848 -1.5240
 9450SOL    HW239987   1.124   4.622   7.137 -1.7169 -1.2783 -0.3680
 9451SOL     OW39988   1.159   0.632   8.781  0.7767  0.1672  0.7959
 9451SOL    HW139989   1.155   0.580   8.861  0.1414 -1.5578 -0.3538
 9451SOL    HW239990   1.221   0.701   8.802 -0.0235  1.6176 -1.5874
 9452SOL     OW39991   4.205   1.172   5.617 -0.3631 -0.4307  0.1624
 9452SOL    HW139992   4.189   1.081   5.643 -0.3328 -0.2250  0.8810
 9452SOL    HW239993   4.124   1.197   5.572 -0.4400 -0.0596  0.5047
 9453SOL     OW39994   0.885   4.150  17.169  0.3591 -0.1555 -0.2937
 9453SOL    HW139995   0.852   4.063  17.145 -2.5901  2.1831 -4.7776
 9453SOL    HW239996   0.979   4.135  17.160  0.0767 -1.6475 -0.8051
 9454SOL     OW39997   0.582   0.930   6.544 -0.4076  0.1177 -0.5368
 9454SOL    HW139998   0.525   0.855   6.526 -1.0998  0.9512 -1.8120
 9454SOL    HW239999   0.644   0.946   6.473 -2.3666  0.0106 -2.2594
 9455SOL     OW40000   3.612   3.317   3.328 -0.0676 -0.3478 -0.4516
 9455SOL    HW140001   3.562   3.236   3.315  1.7246 -1.3012 -1.4482
 9455SOL    HW240002   3.699   3.286   3.301  1.4284  1.0549  2.7583
 9456SOL     OW40003   2.308   0.274  17.183 -0.0678 -0.3177  0.0969
 9456SOL    HW140004   2.231   0.326  17.160 -0.1833 -0.8241 -0.6474
 9456SOL    HW240005   2.371   0.334  17.223 -0.6609 -0.4231  1.1898
 9457SOL     OW40006   0.178   2.941  11.768  0.3025 -0.4880  0.3628
 9457SOL    HW140007   0.240   2.901  11.829  1.0304 -0.8197 -0.5961
 9457SOL    HW240008   0.152   2.865  11.715 -0.5594  0.4692 -0.5803
 9458SOL     OW40009   0.329   1.806   3.701 -0.4945  0.7138 -0.0732
 9458SOL    HW140010   0.360   1.778   3.787 -1.5920 -1.7767 -0.5018
 9458SOL    HW240011   0.405   1.822   3.646  0.9572 -1.9069  1.2186
 9459SOL     OW40012   0.638   2.760   7.512  0.1449 -0.4776 -0.0384
 9459SOL    HW140013   0.708   2.742   7.449  1.5934 -0.5555  1.5985
 9459SOL    HW240014   0.622   2.849   7.482 -1.2871 -0.4553  0.8251
 9460SOL     OW40015   2.062   0.470   5.536 -0.0070  0.1284 -0.3650
 9460SOL    HW140016   1.995   0.537   5.548  0.4678  0.5342  0.0051
 9460SOL    HW240017   2.027   0.395   5.584  0.2539  0.4030  0.2513
 9461SOL     OW40018   0.786   1.200   6.790  0.1997  0.6052 -0.2108
 9461SOL    HW140019   0.719   1.214   6.723 -0.7378 -0.7730  0.4306
 9461SOL    HW240020   0.778   1.278   6.844 -3.2413  0.1078  0.0181
 9462SOL     OW40021   4.434   3.299   7.285 -0.1386  0.5449  0.0318
 9462SOL    HW140022   4.475   3.377   7.247  1.3152 -0.4210 -0.3380
 9462SOL    HW240023   4.371   3.334   7.349 -1.0183  0.9411 -1.0377
 9463SOL     OW40024   0.767   2.412  17.424 -0.0724  0.2489 -0.0425
 9463SOL    HW140025   0.854   2.399  17.385 -0.1954 -0.5270 -0.0694
 9463SOL    HW240026   0.794   2.404  17.516 -1.1206 -3.9754 -0.0911
 9464SOL     OW40027   0.535   2.483  12.291  0.4983  0.5203 -0.1066
 9464SOL    HW140028   0.573   2.441  12.213  0.3916  0.2583 -0.0182
 9464SOL    HW240029   0.440   2.476  12.279  0.5511 -2.6895  1.2877
 9465SOL     OW40030   4.437   3.051   4.488  0.1465 -0.1004 -0.2080
 9465SOL    HW140031   4.508   3.030   4.427 -0.6522 -3.7778  0.1095
 9465SOL    HW240032   4.493   3.019   4.559  0.1151 -1.7646 -0.9371
 9466SOL     OW40033   3.361   1.282   0.197  0.1359  0.4203 -0.2493
 9466SOL    HW140034   3.439   1.336   0.206  1.2914 -1.2751 -0.0954
 9466SOL    HW240035   3.295   1.351   0.203 -0.8671 -0.5611  0.0318
 9467SOL     OW40036   2.851   2.619   6.439  0.3404 -0.2222 -0.5154
 9467SOL    HW140037   2.773   2.621   6.383  1.1242  1.5647 -1.5341
 9467SOL    HW240038   2.913   2.679   6.397  1.5789 -1.2654 -0.1750
 9468SOL     OW40039   4.416   0.331   8.485  0.0258  0.2559  0.3433
 9468SOL    HW140040   4.362   0.344   8.563  2.6344 -1.8406  2.5010
 9468SOL    HW240041   4.394   0.240   8.465 -3.0404  1.3598 -1.4171
 9469SOL     OW40042   0.328   2.033   1.899 -0.0654 -0.1415 -0.2409
 9469SOL    HW140043   0.370   2.049   1.983  0.8779 -1.7520 -0.4079
 9469SOL    HW240044   0.285   2.115   1.876  0.0237  0.3170  1.2220
 9470SOL     OW40045   4.487   4.223   4.623  0.8920 -0.0774  0.0533
 9470SOL    HW140046   4.578   4.201   4.603  1.2966  0.9416  0.8000
 9470SOL    HW240047   4.463   4.278   4.548  0.5220 -0.9616 -0.4850
 9471SOL     OW40048   2.592   2.342   2.026  0.8232 -0.6362 -0.2904
 9471SOL    HW140049   2.550   2.360   1.941  0.0019  0.6705  0.3986
 9471SOL    HW240050   2.611   2.430   2.058 -0.3705 -0.9032  1.1291
 9472SOL     OW40051   2.179   1.206   7.182  0.2272 -0.4356  0.0863
 9472SOL    HW140052   2.101   1.213   7.127  0.4572  2.4701  0.1157
 9472SOL    HW240053   2.173   1.112   7.202 -0.8561  0.0962  2.3561
 9473SOL     OW40054   0.437   4.583   9.078 -0.3366  0.2396  0.3527
 9473SOL    HW140055   0.502   4.554   9.014  0.4283 -0.8970  1.6238
 9473SOL    HW240056   0.369   4.524   9.045 -1.2912  3.0165 -2.5252
 9474SOL     OW40057   0.857   4.395   3.010 -0.3983 -0.2442 -0.1548
 9474SOL    HW140058   0.947   4.418   3.034  0.2826 -2.2255 -0.7756
 9474SOL    HW240059   0.827   4.452   2.939 -0.0288 -0.0590 -0.1625
 9475SOL     OW40060   0.001   1.813   7.311 -0.2213 -0.2312  0.3698
 9475SOL    HW140061   4.691   1.759   7.370 -1.1452  1.3235  0.9758
 9475SOL    HW240062   0.076   1.845   7.360 -0.5405 -0.8670  1.2717
 9476SOL     OW40063   1.761   0.707   5.623 -0.1140 -0.8640 -0.1291
 9476SOL    HW140064   1.675   0.692   5.583  0.3006 -0.1375 -1.2853
 9476SOL    HW240065   1.773   0.620   5.662  0.1641 -0.5875  0.3993
 9477SOL     OW40066   0.824   1.337   3.001  0.0138 -0.3410  0.4715
 9477SOL    HW140067   0.861   1.402   3.061  1.1306 -2.4346  2.0812
 9477SOL    HW240068   0.745   1.314   3.051  0.8363 -2.5136  0.7881
 9478SOL     OW40069   1.297   2.545  15.249 -0.0911  0.2589 -0.2032
 9478SOL    HW140070   1.352   2.623  15.239  1.4935 -0.7354  0.6722
 9478SOL    HW240071   1.340   2.477  15.199  0.1451 -0.7943  1.4266
 9479SOL     OW40072   1.244   1.262  13.036 -0.7739 -0.9506 -0.4804
 9479SOL    HW140073   1.310   1.271  12.967 -0.6113  1.0372 -0.0507
 9479SOL    HW240074   1.284   1.188  13.082 -0.9717  0.1523  1.4707
 9480SOL     OW40075   2.836   4.370   8.876 -0.6287  0.5496  0.2884
 9480SOL    HW140076   2.830   4.455   8.832 -0.4164  0.3912 -0.0410
 9480SOL    HW240077   2.743   4.350   8.885  0.4089 -3.4889  2.1836
 9481SOL     OW40078   4.632   4.481   0.349  0.2799 -0.1151  0.2870
 9481SOL    HW140079   4.689   4.491   0.425  3.6457 -0.0212 -2.2702
 9481SOL    HW240080   4.547   4.472   0.393 -0.2207 -1.2608 -0.9198
 9482SOL     OW40081   2.366   0.475   1.875 -0.0044 -0.0295 -0.1023
 9482SOL    HW140082   2.380   0.381   1.866  1.0570  0.3800 -2.7799
 9482SOL    HW240083   2.350   0.496   1.967  0.6451  0.2038 -0.0417
 9483SOL     OW40084   4.633   2.996   3.560 -0.2490  1.1387  0.1499
 9483SOL    HW140085   4.627   3.025   3.469  0.7174  1.6316  0.2475
 9483SOL    HW240086   4.726   2.978   3.569 -0.8605 -1.4158  1.4892
 9484SOL     OW40087   1.004   0.578   7.530  0.2009 -0.2790  0.7962
 9484SOL    HW140088   1.004   0.641   7.458 -0.3845 -2.2656 -0.9147
 9484SOL    HW240089   1.039   0.634   7.600 -0.0560 -0.2275  0.8842
 9485SOL     OW40090   2.415   3.633   2.262 -0.4639 -0.8014  0.7778
 9485SOL    HW140091   2.389   3.544   2.236  1.6323 -0.4705 -2.5694
 9485SOL    HW240092   2.507   3.636   2.233 -1.1519 -0.6399 -1.3653
 9486SOL     OW40093   0.400   3.994   4.644 -0.3092  0.0325  0.6722
 9486SOL    HW140094   0.344   3.955   4.577 -1.1661  0.9674  0.8436
 9486SOL    HW240095   0.358   4.079   4.636 -0.0408 -0.0861 -1.9826
 9487SOL     OW40096   2.182   3.859   5.170  0.3920  0.4910 -0.0890
 9487SOL    HW140097   2.135   3.865   5.254 -0.1472  2.3678 -0.5392
 9487SOL    HW240098   2.188   3.951   5.147  0.3197  0.7895  1.0737
 9488SOL     OW40099   4.016   0.064   2.949  0.1389  0.1504 -0.1885
 9488SOL    HW140100   4.025   4.718   2.912  3.2987 -0.1340  1.2579
 9488SOL    HW240101   3.936   0.052   3.000  0.8302  0.4600  0.9651
 9489SOL     OW40102   0.451   4.565   7.184 -0.1151  0.3271  0.0642
 9489SOL    HW140103   0.440   4.625   7.258 -0.2176  0.5883 -0.1615
 9489SOL    HW240104   0.460   4.483   7.232  0.3314 -0.2383 -0.9990
 9490SOL     OW40105   1.797   3.239   0.883 -0.0061  0.1580  0.2324
 9490SOL    HW140106   1.853   3.258   0.957 -0.3343 -0.3972  0.6287
 9490SOL    HW240107   1.754   3.157   0.909 -0.1968 -0.4321 -1.9673
 9491SOL     OW40108   4.206   4.585   6.409 -0.0815  0.6155  0.2878
 9491SOL    HW140109   4.147   4.518   6.375  1.8130 -0.8775 -0.1241
 9491SOL    HW240110   4.285   4.540   6.379 -0.4412  1.1543 -1.4653
 9492SOL     OW40111   3.788   1.330   3.158  0.3095 -0.1199 -0.6110
 9492SOL    HW140112   3.747   1.261   3.212 -0.7607  0.2781 -0.9072
 9492SOL    HW240113   3.715   1.346   3.098  0.4726 -0.6611 -0.9533
 9493SOL     OW40114   3.664   0.592   6.266 -0.2711  0.2028 -0.6247
 9493SOL    HW140115   3.662   0.665   6.328  0.0903  0.3580 -0.7928
 9493SOL    HW240116   3.731   0.632   6.210 -0.7066  0.1381 -1.1870
 9494SOL     OW40117   2.926   0.688   5.677  0.4952  0.1987 -0.6808
 9494SOL    HW140118   2.955   0.643   5.756 -1.5093 -0.5915 -0.4015
 9494SOL    HW240119   2.989   0.653   5.614  1.9742 -1.2129  1.5822
 9495SOL     OW40120   2.733   0.750   3.963 -0.6238  0.0568 -0.1734
 9495SOL    HW140121   2.744   0.845   3.959 -3.6217  0.3830 -0.5459
 9495SOL    HW240122   2.733   0.733   3.869 -2.8588 -0.7277 -0.0395
 9496SOL     OW40123   4.704   0.798  10.922  0.2628 -0.0830 -0.1803
 9496SOL    HW140124   4.613   0.773  10.939  0.8711 -2.2620 -0.1411
 9496SOL    HW240125   4.727   0.874  10.975 -2.7340  1.1226 -0.6072
 9497SOL     OW40126   4.474   1.410   7.042  0.0792 -0.6771 -0.6322
 9497SOL    HW140127   4.567   1.431   7.033 -0.1450  1.4887  2.0098
 9497SOL    HW240128   4.443   1.499   7.061  0.0130 -0.4181 -1.9886
 9498SOL     OW40129   3.718   1.054   6.198 -0.0180 -0.2826  0.0065
 9498SOL    HW140130   3.737   1.117   6.267 -0.0114 -1.2006  0.8513
 9498SOL    HW240131   3.627   1.027   6.213  0.1566 -0.8828  0.0221
 9499SOL     OW40132   0.794   2.528   4.825 -0.5823 -0.5325 -1.3102
 9499SOL    HW140133   0.761   2.547   4.737 -1.6232  0.8898 -0.6345
 9499SOL    HW240134   0.819   2.436   4.820  1.4392  0.0768 -2.0497
 9500SOL     OW40135   1.213   3.856   8.791 -0.0758 -0.0224  0.6594
 9500SOL    HW140136   1.242   3.785   8.849  1.1734  0.8312  1.0914
 9500SOL    HW240137   1.296   3.902   8.780  0.6226 -1.6166 -0.6763
 9501SOL     OW40138   2.652   3.255   2.327  0.0312  0.4007  0.2494
 9501SOL    HW140139   2.648   3.161   2.343  0.4803  0.3946  0.3186
 9501SOL    HW240140   2.616   3.270   2.240 -1.2936  2.6892  1.1752
 9502SOL     OW40141   1.349   1.449   0.521 -0.2631 -0.1878 -0.4795
 9502SOL    HW140142   1.260   1.473   0.494 -0.7389 -2.0887 -0.5459
 9502SOL    HW240143   1.327   1.358   0.539 -2.1788 -0.1798 -2.7492
 9503SOL     OW40144   0.106   2.150   8.369 -0.5971  0.1219 -0.5412
 9503SOL    HW140145   0.054   2.221   8.405  0.4194  0.2411  0.7058
 9503SOL    HW240146   0.040   2.081   8.365 -1.8206  1.3279 -1.2795
 9504SOL     OW40147   1.872   3.098   3.904  0.8328 -0.0891  0.0057
 9504SOL    HW140148   1.941   3.163   3.895  0.5654  0.2063  0.0793
 9504SOL    HW240149   1.800   3.149   3.942 -0.7248 -0.8121 -1.9293
 9505SOL     OW40150   3.746   0.761   5.324 -0.3881 -0.0545  0.0983
 9505SOL    HW140151   3.774   0.674   5.355 -1.2570 -0.0576  0.8693
 9505SOL    HW240152   3.653   0.744   5.309 -0.6775  1.2066  0.4404
 9506SOL     OW40153   2.788   3.670  14.428  0.0842 -0.3062 -0.4531
 9506SOL    HW140154   2.707   3.629  14.397 -1.1916  1.8486  0.0543
 9506SOL    HW240155   2.845   3.602  14.392 -1.3632 -2.4345  1.3076
 9507SOL     OW40156   3.768   0.312   8.514 -0.0589  0.0497 -0.5681
 9507SOL    HW140157   3.722   0.370   8.453 -0.7306 -0.4504 -0.5418
 9507SOL    HW240158   3.734   0.343   8.598  0.2935 -0.0564 -0.3872
 9508SOL     OW40159   0.459   4.052   4.312  0.1253 -0.2823  0.3615
 9508SOL    HW140160   0.391   4.119   4.314 -0.9299 -1.4039  1.8125
 9508SOL    HW240161   0.417   4.003   4.241 -2.8234  0.0221  1.9022
 9509SOL     OW40162   2.335   1.723   7.433 -0.2752 -0.1405 -0.3737
 9509SOL    HW140163   2.283   1.699   7.510  0.8268  4.0217  1.6381
 9509SOL    HW240164   2.411   1.665   7.431  1.3757  2.0000 -0.2048
 9510SOL     OW40165   2.527   2.573  10.050 -0.1901  0.0229 -0.4959
 9510SOL    HW140166   2.536   2.607   9.960 -0.5042 -1.0758 -0.9430
 9510SOL    HW240167   2.583   2.628  10.105  0.2360 -1.5938  0.6768
 9511SOL     OW40168   2.625   2.944   2.079  0.4392 -0.1328 -0.2729
 9511SOL    HW140169   2.534   2.967   2.058  0.4892 -1.4061 -1.8835
 9511SOL    HW240170   2.639   2.986   2.164 -1.2624  1.2377 -0.6722
 9512SOL     OW40171   3.112   4.122   7.199 -0.1596 -0.4331  0.9241
 9512SOL    HW140172   3.079   4.202   7.156 -1.6147 -1.7380 -0.3893
 9512SOL    HW240173   3.207   4.123   7.186 -0.3695 -0.1788 -0.6067
 9513SOL     OW40174   4.694   2.424  11.065 -0.0559 -0.4202 -0.5319
 9513SOL    HW140175   4.612   2.472  11.052  0.6695  0.8409 -0.4195
 9513SOL    HW240176   4.738   2.489  11.120 -0.3903  0.9731 -1.9334
 9514SOL     OW40177   4.559   4.643   8.562  0.2506  0.3116  0.2561
 9514SOL    HW140178   4.489   4.684   8.511  0.4120  0.8887  0.5048
 9514SOL    HW240179   4.617   4.718   8.551  1.6712 -0.9600 -0.9282
 9515SOL     OW40180   1.491   3.237   0.839 -0.6253 -0.3623  0.0787
 9515SOL    HW140181   1.402   3.237   0.804 -0.3987  2.8144 -0.4965
 9515SOL    HW240182   1.484   3.312   0.899  2.5651 -1.6393  2.0436
 9516SOL     OW40183   3.873   0.849   6.604 -0.3580 -0.3775 -0.2962
 9516SOL    HW140184   3.907   0.882   6.687  1.6870 -0.7222 -0.9753
 9516SOL    HW240185   3.817   0.775   6.628 -2.2082  0.6247 -1.4971
 9517SOL     OW40186   2.312   1.139   9.627 -0.4810 -0.0426  0.0155
 9517SOL    HW140187   2.297   1.091   9.546 -0.9410 -0.7787  0.5425
 9517SOL    HW240188   2.401   1.112   9.652 -0.7387 -1.1795 -0.2957
 9518SOL     OW40189   0.096   3.523  17.713 -0.0197  0.3216  0.4307
 9518SOL    HW140190   0.186   3.519  17.747  0.3839  0.0786 -0.6571
 9518SOL    HW240191   0.108   3.594  17.649  1.9007  0.2617  0.7075
 9519SOL     OW40192   3.436   1.003   5.873  0.8354  0.0796  0.1640
 9519SOL    HW140193   3.412   1.081   5.923  0.4447  1.2232 -1.7977
 9519SOL    HW240194   3.378   0.932   5.899  2.4115 -0.8556  1.0890
 9520SOL     OW40195   3.761   1.566   1.600  0.5678 -0.6941  0.2542
 9520SOL    HW140196   3.692   1.618   1.642  1.1823  0.7522 -0.5601
 9520SOL    HW240197   3.830   1.551   1.665  1.1530 -1.6397 -0.5797
 9521SOL     OW40198   1.429   4.092   5.948 -0.0758 -0.5946 -0.5105
 9521SOL    HW140199   1.509   4.046   5.925  1.3131  1.0507  1.0585
 9521SOL    HW240200   1.421   4.079   6.042 -0.3310 -1.5709 -0.6719
 9522SOL     OW40201   0.872   4.579   2.774 -0.0238  0.2081 -0.2096
 9522SOL    HW140202   0.919   4.661   2.785  0.9999 -0.4366  0.2032
 9522SOL    HW240203   0.788   4.605   2.735 -1.3529  0.0664  2.5108
 9523SOL     OW40204   2.276   1.032   4.120 -0.2129 -0.1035  0.6373
 9523SOL    HW140205   2.355   1.025   4.175  0.4424 -0.0641 -0.2952
 9523SOL    HW240206   2.228   0.955   4.152 -0.0648 -0.3929  0.1621
 9524SOL     OW40207   4.046   2.646   3.326 -0.4951  0.3045  0.0798
 9524SOL    HW140208   4.108   2.688   3.385 -0.5436  0.0979  0.2797
 9524SOL    HW240209   4.019   2.719   3.271  2.3429 -0.0525 -1.8024
 9525SOL     OW40210   3.481   4.194   2.504  0.1993 -0.2492  0.1164
 9525SOL    HW140211   3.422   4.262   2.471  0.2611 -0.5592 -0.6289
 9525SOL    HW240212   3.489   4.133   2.431 -2.2407  1.2196 -1.3605
 9526SOL     OW40213   3.486   3.050  14.458  0.0596 -0.1535  0.0831
 9526SOL    HW140214   3.480   3.054  14.363 -0.1133 -1.5013  0.0347
 9526SOL    HW240215   3.402   3.088  14.482  0.9993  0.2462  2.7690
 9527SOL     OW40216   3.640   3.499   9.704  0.2363 -0.0761 -0.3103
 9527SOL    HW140217   3.582   3.568   9.736 -0.0692 -0.5966  0.2397
 9527SOL    HW240218   3.716   3.555   9.685  0.5942 -0.7633 -0.8931
 9528SOL     OW40219   2.119   0.415   3.541 -0.1973  0.2635  0.0392
 9528SOL    HW140220   2.062   0.382   3.471 -0.5044  1.2664 -0.1803
 9528SOL    HW240221   2.202   0.435   3.499  1.1108  0.4186  2.7657
 9529SOL     OW40222   0.841   4.726   1.009 -0.5010 -0.4267  0.1214
 9529SOL    HW140223   0.870   0.036   1.083  0.4422 -0.1369 -0.4578
 9529SOL    HW240224   0.917   4.719   0.951  0.3479  1.1235  1.0660
 9530SOL     OW40225   2.142   4.092   9.082  0.0579  0.2493 -0.4191
 9530SOL    HW140226   2.225   4.135   9.104  0.1975 -1.3011  2.0695
 9530SOL    HW240227   2.141   4.007   9.127  1.1904  0.1901 -0.5024
 9531SOL     OW40228   3.186   0.200   3.887  0.3471 -0.5627 -0.2551
 9531SOL    HW140229   3.214   0.134   3.824 -0.9622  0.8271 -2.2920
 9531SOL    HW240230   3.222   0.278   3.845  1.0788 -2.1984 -2.6607
 9532SOL     OW40231   1.227   2.422   7.876 -0.3118 -0.1064  0.8853
 9532SOL    HW140232   1.293   2.361   7.843 -0.0536  1.5530 -1.6631
 9532SOL    HW240233   1.262   2.489   7.935  1.4485  1.0047 -1.4525
 9533SOL     OW40234   1.590   0.173   8.877 -0.2407  0.2567 -0.1678
 9533SOL    HW140235   1.558   0.144   8.962  0.8650  1.2884  0.5917
 9533SOL    HW240236   1.516   0.145   8.823 -1.5550 -0.6663  2.1495
 9534SOL     OW40237   0.822   3.449   6.084  0.0619 -0.3207  0.2557
 9534SOL    HW140238   0.837   3.476   6.175  2.4546 -0.9983  0.0421
 9534SOL    HW240239   0.906   3.470   6.045 -1.3107  2.4705 -1.1944
 9535SOL     OW40240   4.720   0.424   6.697  0.5092  0.0764  0.3974
 9535SOL    HW140241   4.657   0.354   6.714  0.3115  0.3227  0.6832
 9535SOL    HW240242   0.060   0.377   6.700  0.0358 -0.8234 -0.7023
 9536SOL     OW40243   4.146   3.988   6.936  0.0944  0.0223  0.1300
 9536SOL    HW140244   4.233   4.012   6.906 -0.0403 -1.8933 -1.7643
 9536SOL    HW240245   4.092   4.021   6.864  1.0184 -1.7056 -1.3692
 9537SOL     OW40246   2.209   1.222   0.727  0.2450 -0.0033  0.4867
 9537SOL    HW140247   2.131   1.219   0.781 -0.8631 -0.8026 -1.1691
 9537SOL    HW240248   2.279   1.228   0.792  0.9370  0.3590 -0.2813
 9538SOL     OW40249   3.408   3.479   8.219 -0.4906 -0.0805 -0.3318
 9538SOL    HW140250   3.339   3.496   8.154 -4.0974 -1.5959  3.1281
 9538SOL    HW240251   3.383   3.387   8.221 -2.0412  0.2853 -2.0093
 9539SOL     OW40252   2.082   1.862   7.985 -0.1180 -0.0890  0.0284
 9539SOL    HW140253   2.172   1.871   7.952  0.1496 -2.1404  0.2031
 9539SOL    HW240254   2.077   1.924   8.057 -1.8044  0.9602 -1.0009
 9540SOL     OW40255   3.862   4.646  11.084  0.0650  0.6264  0.1719
 9540SOL    HW140256   3.902   4.579  11.029 -1.1533  0.3732 -0.3865
 9540SOL    HW240257   3.791   4.591  11.118 -0.6618  0.3243 -1.8880
 9541SOL     OW40258   4.354   0.578  11.175 -0.5540 -0.4357  0.4235
 9541SOL    HW140259   4.285   0.644  11.170 -0.7556 -0.8032 -1.7277
 9541SOL    HW240260   4.352   0.539  11.088  0.9097  0.3558  0.0378
 9542SOL     OW40261   2.381   3.636   7.544 -1.0879 -0.0895  0.3408
 9542SOL    HW140262   2.453   3.629   7.607 -0.6007  0.8762 -0.1184
 9542SOL    HW240263   2.348   3.546   7.540 -0.8179 -0.2111  0.8530
 9543SOL     OW40264   1.872   0.089  14.674  0.4060 -0.0224 -0.3912
 9543SOL    HW140265   1.837   0.132  14.752 -2.1579  3.1958 -3.3441
 9543SOL    HW240266   1.797   0.078  14.616 -1.3464 -1.3249  2.1202
 9544SOL     OW40267   3.315   2.223   3.848 -0.2364 -0.3994 -0.0832
 9544SOL    HW140268   3.354   2.309   3.834  0.1158 -0.2973  1.5110
 9544SOL    HW240269   3.347   2.210   3.937 -0.0515 -0.4844 -0.1608
 9545SOL     OW40270   0.309   0.938   1.537 -0.4711 -0.2232  0.0892
 9545SOL    HW140271   0.362   1.017   1.546  0.0719 -0.6587  0.7359
 9545SOL    HW240272   0.367   0.874   1.494 -0.6831 -0.8970  0.8013
 9546SOL     OW40273   4.267   3.590   4.528  0.0491 -0.2782  0.0111
 9546SOL    HW140274   4.258   3.600   4.623 -1.6005  1.0756 -0.2933
 9546SOL    HW240275   4.312   3.507   4.515 -0.0983 -0.3898  0.2100
 9547SOL     OW40276   0.113   3.247   5.517  0.6200  0.1292 -0.1720
 9547SOL    HW140277   0.064   3.175   5.557 -1.8962  2.2962  0.6893
 9547SOL    HW240278   0.136   3.213   5.431 -2.6892 -1.4727 -0.4106
 9548SOL     OW40279   2.155   3.512  11.543  0.5398 -0.2032  0.6893
 9548SOL    HW140280   2.248   3.492  11.552  0.0523 -1.8866  1.8371
 9548SOL    HW240281   2.133   3.552  11.627 -2.7209  1.3602 -0.9063
 9549SOL     OW40282   2.041   3.753  12.490 -0.0022 -0.1918 -0.1765
 9549SOL    HW140283   1.954   3.774  12.455  0.6673  0.5526 -1.3549
 9549SOL    HW240284   2.049   3.660  12.468 -0.7350 -1.0295  3.1221
 9550SOL     OW40285   2.661   2.065   6.007  0.3854  0.1545  0.5599
 9550SOL    HW140286   2.679   2.140   5.950  0.0760  1.1078  1.7235
 9550SOL    HW240287   2.742   2.069   6.059  0.1278  1.6977  0.8405
 9551SOL     OW40288   2.933   4.306   0.702  0.0737 -0.7494  0.2723
 9551SOL    HW140289   2.871   4.264   0.761 -1.3571  1.3970  0.3149
 9551SOL    HW240290   2.966   4.370   0.765 -0.0606 -0.0975 -0.3147
 9552SOL     OW40291   2.540   1.731  17.269  0.1263  0.1923 -0.7134
 9552SOL    HW140292   2.606   1.799  17.257  1.4367 -0.9370 -0.0104
 9552SOL    HW240293   2.526   1.714  17.176 -0.3211 -0.0747 -0.5942
 9553SOL     OW40294   0.029   1.669   1.810 -0.0118 -0.1844 -0.0164
 9553SOL    HW140295   4.741   1.584   1.841  0.5270  0.4319  2.2366
 9553SOL    HW240296   0.066   1.706   1.891  0.4668 -0.7157  0.0051
 9554SOL     OW40297   2.258   3.424   1.395  0.1915  0.3018  0.0699
 9554SOL    HW140298   2.222   3.336   1.401  1.9488 -0.2910  2.1222
 9554SOL    HW240299   2.205   3.473   1.458 -0.4477 -0.4309  0.0917
 9555SOL     OW40300   3.055   0.419   6.056  0.0750  0.0873  0.1555
 9555SOL    HW140301   2.968   0.390   6.028 -0.3087  0.2858  1.1281
 9555SOL    HW240302   3.084   0.474   5.984  2.3301 -0.9693  0.2659
 9556SOL     OW40303   2.691   0.098   6.904 -0.2066  0.2119 -0.1163
 9556SOL    HW140304   2.722   0.176   6.949  0.3011  0.4560 -0.8963
 9556SOL    HW240305   2.605   0.085   6.945 -0.0536 -0.2057  0.0665
 9557SOL     OW40306   0.743   1.437   8.233 -0.1681 -0.0525  0.3325
 9557SOL    HW140307   0.720   1.396   8.149  1.2196 -0.8767  0.3581
 9557SOL    HW240308   0.661   1.484   8.246  0.4912  0.8641  1.1759
 9558SOL     OW40309   0.006   3.280   9.004  0.2758  0.1214  0.3015
 9558SOL    HW140310   4.725   3.269   8.912  0.3688 -2.0335  0.5419
 9558SOL    HW240311   4.682   3.334   9.046 -0.6530 -0.4305 -0.4660
 9559SOL     OW40312   4.405   2.518   2.343  0.2901 -0.0018 -0.3759
 9559SOL    HW140313   4.347   2.583   2.382  2.6248  2.3053 -0.6914
 9559SOL    HW240314   4.340   2.468   2.293 -0.4355  0.2693  0.2952
 9560SOL     OW40315   2.534   1.183   5.593  0.3239  0.1087 -0.6600
 9560SOL    HW140316   2.618   1.157   5.631  0.2457  1.0534  0.1503
 9560SOL    HW240317   2.523   1.109   5.534 -0.1966  0.2552 -0.7432
 9561SOL     OW40318   2.753   2.997   5.948 -0.3500 -0.1429  0.2897
 9561SOL    HW140319   2.790   3.017   6.034  1.2611 -2.2114  0.1053
 9561SOL    HW240320   2.737   3.081   5.907  1.5877  1.2708  2.4116
 9562SOL     OW40321   2.619   2.698   2.765  0.4364  0.3168  0.4249
 9562SOL    HW140322   2.664   2.671   2.685  1.7221 -0.1753  1.3164
 9562SOL    HW240323   2.620   2.794   2.763 -0.1542  0.3193  0.3131
 9563SOL     OW40324   1.872   3.114   5.819 -0.0674 -0.3323 -0.3332
 9563SOL    HW140325   1.944   3.163   5.780 -0.0714  1.0961  1.4508
 9563SOL    HW240326   1.830   3.077   5.742  0.1541 -1.0155 -0.1259
 9564SOL     OW40327   2.569   1.087   9.717  0.8035 -0.2046  0.0998
 9564SOL    HW140328   2.642   1.081   9.654 -0.1344  1.8066 -1.1749
 9564SOL    HW240329   2.601   1.016   9.773 -1.7111  0.4284  2.2880
 9565SOL     OW40330   0.749   1.797   3.821 -0.3238  0.1028  0.3209
 9565SOL    HW140331   0.792   1.712   3.827 -2.7166 -1.0600  1.0231
 9565SOL    HW240332   0.754   1.838   3.908  1.2936  1.1102 -0.2388
 9566SOL     OW40333   3.175   3.926   4.018 -0.3236 -0.3657 -0.7118
 9566SOL    HW140334   3.155   3.874   3.941 -0.0958 -2.6846  0.7782
 9566SOL    HW240335   3.152   3.862   4.086  3.4290 -1.2268 -0.2206
 9567SOL     OW40336   2.560   4.244   1.731  0.0124  0.1838  0.7233
 9567SOL    HW140337   2.524   4.309   1.791  1.0574  0.4447  1.0691
 9567SOL    HW240338   2.516   4.285   1.657  3.2718  0.1932 -1.1963
 9568SOL     OW40339   1.783   3.288  11.807  1.0262 -0.8113  0.3969
 9568SOL    HW140340   1.802   3.226  11.878  0.4904  1.0512  2.1507
 9568SOL    HW240341   1.842   3.362  11.818 -1.0665  0.6305  2.0622
 9569SOL     OW40342   4.534   2.681   1.660 -0.2130  0.0119  0.3755
 9569SOL    HW140343   4.532   2.600   1.608 -1.3843  0.9293 -1.0183
 9569SOL    HW240344   4.493   2.745   1.602  0.7143  1.5407  1.4197
   4.74250   4.74250  17.76696
