Membrane in water
40344
    1TMC1    C1    1   4.496   3.408  11.603  0.3510  0.5418  0.0733
    1TMC1    C2    2   4.464   3.530  11.547 -0.3192 -0.0926 -0.3516
    1TMC1    C3    3   4.466   3.641  11.630  0.0966 -0.4554  0.8388
    1TMC1    C4    4   4.522   3.394  11.739  0.2852 -0.6231 -0.1405
    1TMC1    C5    5   4.530   3.506  11.810  0.1928 -0.9600  0.7510
    1TMC1    C6    6   4.508   3.632  11.765 -0.1228  0.6975  0.0351
    1TMC1     C    7   4.462   3.293  11.529  0.8080  0.0990  0.0792
    1TMC1     O    8   4.401   3.202  11.588 -0.4139  0.0994 -0.2783
    1TMC1     H    9   4.419   3.530  11.449  1.9512 -0.0999 -1.4054
    1TMC1    H1   10   4.532   3.294  11.780 -2.0142 -1.3572 -1.3705
    1TMC1    H2   11   4.505   3.714  11.836 -0.7731  0.8185 -0.1272
    1TMC1    C7   12   4.571   3.502  11.948 -0.2752  0.8087  0.2293
    1TMC1    C8   13   4.395   3.756  11.579  0.2082  0.2677  0.6831
    1TMC1    O1   14   4.644   3.582  12.002  0.2229 -0.2984 -0.6583
    1TMC1    O2   15   4.374   3.780  11.461  0.8889 -0.0955  0.1863
    1TMC1    O3   16   4.497   3.402  12.008  0.5613 -0.0339 -0.5883
    1TMC1    H3   17   4.421   3.374  11.952  0.6223  1.1035 -1.2461
    1TMC1    O5   18   4.322   3.801  11.683  0.2019 -0.0263 -0.0375
    1TMC1    H5   19   4.332   3.756  11.769  0.0003  1.0333  0.5325
    2MPD2     C   20   4.310   3.062  11.093 -0.0239  0.6236  0.6841
    2MPD2    C1   21   4.323   3.013  11.222 -0.4922 -0.1574  0.2884
    2MPD2    C2   22   4.377   3.092  11.319 -0.3025  0.5991  0.5977
    2MPD2    C3   23   4.435   3.215  11.290  0.4149  0.2165 -0.1919
    2MPD2    C4   24   4.435   3.257  11.159  0.3754 -0.0380  0.7021
    2MPD2    C5   25   4.377   3.182  11.065 -0.0285 -0.6071  0.6845
    2MPD2     H   26   4.372   3.055  11.421  0.7641 -1.2841 -0.0317
    2MPD2    H1   27   4.463   3.358  11.132  0.8308  0.1090  1.7347
    2MPD2    H2   28   4.257   3.010  11.013  1.1292  0.9780 -0.3101
    2MPD2    H3   29   4.379   3.211  10.961  1.7098 -1.2522  0.5458
    2MPD2     N   30   4.492   3.300  11.389 -0.2735 -0.6636 -0.7769
    2MPD2    H5   31   4.541   3.383  11.357 -1.0447 -0.4716 -1.4487
    2MPD2    N1   32   4.256   2.896  11.260 -0.2124 -0.2697 -0.1186
    2MPD2    H7   33   4.235   2.878  11.357 -0.7925 -1.5847 -0.4869
    3TMC1    C1   34   3.792   3.803  10.622 -0.1241  0.2311 -0.6405
    3TMC1    C2   35   3.776   3.936  10.585  0.2101 -0.0301  0.5496
    3TMC1    C3   36   3.797   3.957  10.448  0.3159  0.1834  0.6164
    3TMC1    C4   37   3.842   3.705  10.544  0.6106 -0.5744  0.1752
    3TMC1    C5   38   3.865   3.739  10.414  0.2238 -0.1932 -0.0054
    3TMC1    C6   39   3.837   3.860  10.363 -0.1216  0.3550 -0.1022
    3TMC1     C   40   3.705   3.751  10.727  0.7859 -0.0315  0.0567
    3TMC1     O   41   3.688   3.627  10.727  0.1966 -0.3925 -0.7355
    3TMC1     H   42   3.767   4.017  10.657 -1.7823 -1.1441  1.5411
    3TMC1    H1   43   3.861   3.602  10.573  0.3673 -0.4719  0.7118
    3TMC1    H2   44   3.857   3.875  10.257 -0.2708 -1.6490 -0.4021
    3TMC1    C7   45   3.898   3.631  10.327  0.2766 -0.4959  0.0516
    3TMC1    C8   46   3.773   4.083  10.379  0.5105 -0.7956  0.1942
    3TMC1    O1   47   3.841   3.525  10.350 -0.1789 -0.7598  0.9921
    3TMC1    O2   48   3.835   4.112  10.275  0.4355 -0.2539  0.0729
    3TMC1    O3   49   4.034   3.649  10.316  0.2357  0.6918 -0.5973
    3TMC1    H3   50   4.063   3.743  10.313  3.2326 -0.2303  0.4148
    3TMC1    O5   51   3.703   4.171  10.450 -0.1804 -0.2064 -0.4846
    3TMC1    H5   52   3.657   4.142  10.531  1.6931  0.3928  0.8010
    4MPD2     C   53   3.327   3.803  11.069 -0.1429  0.5505 -0.0144
    4MPD2    C1   54   3.357   3.925  11.010 -0.0163 -0.3211 -0.4397
    4MPD2    C2   55   3.450   3.931  10.911  0.1119 -0.3587 -0.1439
    4MPD2    C3   56   3.522   3.823  10.872 -0.2676  0.8806 -0.6185
    4MPD2    C4   57   3.488   3.704  10.928 -1.2199 -0.3102  0.4866
    4MPD2    C5   58   3.387   3.690  11.021 -0.1301 -0.1612 -0.0185
    4MPD2     H   59   3.476   4.027  10.868  2.8162 -1.1418 -0.2276
    4MPD2    H1   60   3.549   3.616  10.913  0.3602  1.1874 -1.8611
    4MPD2    H2   61   3.257   3.790  11.151  0.7474 -0.0076  0.6500
    4MPD2    H3   62   3.364   3.590  11.056 -1.8082  0.3407  0.3078
    4MPD2     N   63   3.629   3.845  10.781 -0.0199 -0.1660  0.6039
    4MPD2    H5   64   3.625   3.943  10.753 -0.4195 -0.1288  0.7870
    4MPD2    N1   65   3.305   4.047  11.063 -0.1799 -0.1396  0.7270
    4MPD2    H7   66   3.304   4.125  10.998  0.5454  0.6513  1.6715
    5TCq1    O1   67   4.325   0.754  11.966  0.2560 -0.2414 -0.1658
    5TCq1    C1   68   4.331   0.640  11.898  0.3295  0.5599  0.2100
    5TCq1    O2   69   4.424   0.607  11.826  0.4389  0.5783 -0.1630
    5TCq1    C2   70   4.201   0.617  11.844  0.5415 -0.1855  0.0811
    5TCq1    C3   71   4.095   0.681  11.906 -0.1706 -0.0004  0.5881
    5TCq1    C4   72   3.980   0.692  11.840  0.3063 -0.1050  0.3727
    5TCq1    C5   73   3.966   0.654  11.711 -0.3923 -0.0235 -0.1022
    5TCq1    C6   74   4.076   0.601  11.650  0.5407 -0.2326 -0.0482
    5TCq1    C7   75   4.193   0.580  11.712  0.0287  0.0445 -0.3714
    5TCq1    C8   76   4.072   0.573  11.507  0.2229 -0.8155 -0.7968
    5TCq1    O4   77   4.174   0.570  11.446  0.4165 -0.1453  0.4098
    5TCq1    C9   78   3.869   0.743  11.902 -0.5792 -0.8426 -0.6236
    5TCq1    O5   79   3.759   0.689  11.867 -0.2420  0.7352 -0.1805
    5TCq1    O6   80   3.889   0.797  12.013  0.4067  0.7629 -0.4634
    5TCq1    H1   81   4.266   0.742  12.043  1.8817  1.0916  1.2967
    5TCq1    H2   82   4.103   0.700  12.012  0.2033  2.8647  0.0352
    5TCq1    H3   83   3.879   0.686  11.654 -1.4157 -0.2810  1.3119
    5TCq1    H4   84   4.273   0.526  11.661  1.1746  1.0553  0.3494
    6MPD2     C   85   3.777   0.540  11.302 -0.5784 -0.0424  0.0543
    6MPD2    C1   86   3.906   0.555  11.330 -0.5299 -0.2005 -0.1740
    6MPD2    C2   87   3.994   0.581  11.228 -0.2222  0.2667  0.4681
    6MPD2    C3   88   3.958   0.572  11.094 -0.2315 -0.1694 -0.1085
    6MPD2    C4   89   3.823   0.561  11.064  0.0604  0.6472 -0.5134
    6MPD2    C5   90   3.739   0.547  11.170 -0.0006 -0.1432  0.1806
    6MPD2     H   91   4.096   0.615  11.244  0.5148 -1.0515 -1.3798
    6MPD2    H1   92   3.783   0.558  10.963  1.3434  1.3185 -1.0400
    6MPD2    H2   93   3.705   0.534  11.382 -0.1806 -1.2337  0.3348
    6MPD2    H3   94   3.636   0.537  11.138  0.2197  2.4632 -1.3045
    6MPD2     N   95   4.057   0.612  11.004 -0.5916 -0.2106 -0.2081
    6MPD2    H5   96   4.153   0.616  11.035 -0.7280  0.1124  0.1727
    6MPD2    N1   97   3.944   0.563  11.465  0.2218 -0.6097  0.1575
    6MPD2    H7   98   3.880   0.544  11.542 -0.8294  0.3453 -0.4838
    7TCq1    O1   99   1.984   0.154  13.425 -0.3483  0.4839  0.2225
    7TCq1    C1  100   2.025   0.149  13.296  0.4436  0.9340 -0.4356
    7TCq1    O2  101   2.072   0.244  13.238  0.0726  0.1713  0.0540
    7TCq1    C2  102   1.939   0.051  13.234 -0.1016 -0.0295  0.2089
    7TCq1    C3  103   1.826   0.111  13.182 -0.3435 -0.1582 -0.0802
    7TCq1    C4  104   1.710   0.068  13.224  0.2558 -0.2933 -0.2439
    7TCq1    C5  105   1.696   4.686  13.288  0.8765 -0.3153  0.2334
    7TCq1    C6  106   1.808   4.617  13.325  0.5660  0.0952 -0.0201
    7TCq1    C7  107   1.937   4.667  13.302  0.7368 -0.0682  0.5727
    7TCq1    C8  108   1.783   4.485  13.359  0.5595  0.4075 -0.0984
    7TCq1    O4  109   1.679   4.460  13.419  0.1407  0.3006 -0.0852
    7TCq1    C9  110   1.598   0.143  13.180 -0.2845 -0.2853  0.2413
    7TCq1    O5  111   1.622   0.267  13.162  0.3042 -0.2577 -0.3323
    7TCq1    O6  112   1.482   0.094  13.200 -0.2293 -0.2459 -0.6883
    7TCq1    H1  113   1.932   0.076  13.454  0.0572 -0.1386 -0.7190
    7TCq1    H2  114   1.837   0.209  13.137  2.5646 -0.3914  0.1182
    7TCq1    H3  115   1.595   4.648  13.299  0.5584  0.2521 -0.8090
    7TCq1    H4  116   2.031   4.621  13.330  1.5775  0.4829 -1.3734
    8MPD2     C  117   1.843   4.008  13.189  0.0013 -0.4544  0.2032
    8MPD2    C1  118   1.753   4.058  13.281  1.0957 -0.2454 -0.0302
    8MPD2    C2  119   1.765   4.193  13.316  0.2981  0.5077 -0.2410
    8MPD2    C3  120   1.866   4.274  13.263  0.2404 -0.6248 -0.0411
    8MPD2    C4  121   1.954   4.221  13.166  0.0155  0.0068  1.1146
    8MPD2    C5  122   1.946   4.088  13.142  0.5281  0.9553  0.0104
    8MPD2     H  123   1.693   4.236  13.384  0.2319 -2.2277  1.4027
    8MPD2    H1  124   2.035   4.276  13.119 -0.1875  0.9481  1.8557
    8MPD2    H2  125   1.843   3.908  13.146  2.4343 -1.4276  2.4651
    8MPD2    H3  126   2.006   4.047  13.062  1.3845  0.9380  0.6690
    8MPD2     N  127   1.873   4.407  13.289 -0.1523  0.1676  0.4046
    8MPD2    H5  128   1.957   4.447  13.249 -0.2983  0.9585  0.8843
    8MPD2    N1  129   1.647   3.982  13.335  0.4565 -0.2237  0.2892
    8MPD2    H7  130   1.594   4.022  13.413 -3.5886  0.6694 -2.9275
    9TMC1    C1  131   4.412   3.912  11.080 -1.1647 -0.0317 -0.3107
    9TMC1    C2  132   4.499   3.955  10.979 -0.4481  0.4463  0.1248
    9TMC1    C3  133   4.565   4.073  10.984  0.5095 -0.3080 -0.8285
    9TMC1    C4  134   4.389   3.991  11.190  0.1798  0.4594  0.2349
    9TMC1    C5  135   4.472   4.101  11.202 -0.2651 -0.3942 -0.1533
    9TMC1    C6  136   4.551   4.146  11.102  0.1483  0.4679 -0.0800
    9TMC1     C  137   4.350   3.779  11.077 -0.0494 -0.0468  0.6849
    9TMC1     O  138   4.383   3.704  10.987  0.2035  0.5913  0.7658
    9TMC1     H  139   4.520   3.895  10.891 -1.2628  0.8391 -0.3377
    9TMC1    H1  140   4.320   3.974  11.271  0.0083  1.4340  0.2924
    9TMC1    H2  141   4.616   4.232  11.114  0.7407 -0.1605  1.2236
    9TMC1    C7  142   4.495   4.154  11.334  0.1283  0.3985  0.0392
    9TMC1    C8  143   4.661   4.114  10.882  0.5457  0.1239 -0.7667
    9TMC1    O1  144   4.591   4.229  11.336 -0.1466  0.5428 -0.4303
    9TMC1    O2  145   4.732   4.034  10.820 -0.7776  0.2059  0.2797
    9TMC1    O3  146   4.474   4.061  11.428  0.3320 -0.7941 -0.6006
    9TMC1    H3  147   4.379   4.039  11.437 -0.0017  0.5706 -0.7987
    9TMC1    O5  148   4.686   4.242  10.890  0.0245  0.2289 -0.0642
    9TMC1    H5  149   4.617   4.290  10.941  2.6348  0.7690  2.9522
   10MPD2     C  150   4.199   3.513  11.118  0.1084  0.0133  0.1341
   10MPD2    C1  151   4.215   3.610  11.213 -0.5022  0.0738 -0.2408
   10MPD2    C2  152   4.152   3.593  11.341  0.1880 -0.1416 -0.1409
   10MPD2    C3  153   4.097   3.473  11.376 -0.4034  0.0450 -0.0570
   10MPD2    C4  154   4.084   3.377  11.274  0.7524 -0.3121  0.1199
   10MPD2    C5  155   4.138   3.399  11.155 -0.4324 -0.3366 -0.5362
   10MPD2     H  156   4.166   3.671  11.416  1.6819 -0.4704 -0.0615
   10MPD2    H1  157   4.038   3.280  11.295  0.0257  0.2004  0.9075
   10MPD2    H2  158   4.234   3.519  11.015  1.2379 -1.9508  0.4040
   10MPD2    H3  159   4.125   3.314  11.088  0.5540 -1.4867  0.7495
   10MPD2     N  160   4.035   3.459  11.504  0.4301  0.3324  0.5620
   10MPD2    H5  161   4.002   3.368  11.533  1.0464  0.3313  1.2621
   10MPD2    N1  162   4.275   3.740  11.193  0.4421 -0.7751 -0.4415
   10MPD2    H7  163   4.273   3.812  11.264  0.7150 -0.5455 -0.6706
   11TCq1    O1  164   0.030   3.673  13.731 -0.6822 -0.4507  0.4878
   11TCq1    C1  165   4.654   3.684  13.801 -0.8356  0.1692 -0.1515
   11TCq1    O2  166   4.554   3.747  13.766 -0.0222 -0.0620  0.1964
   11TCq1    C2  167   4.637   3.587  13.919 -0.2283 -0.7568 -0.6986
   11TCq1    C3  168   4.738   3.506  13.962  0.1428  0.4821  1.0127
   11TCq1    C4  169   4.717   3.417  14.072 -0.2388  0.3585 -0.0250
   11TCq1    C5  170   4.594   3.409  14.129  0.1854 -0.2125  0.8941
   11TCq1    C6  171   4.496   3.486  14.072  0.1458 -0.5649  0.4563
   11TCq1    C7  172   4.515   3.575  13.968 -0.1977  0.0727 -0.5210
   11TCq1    C8  173   4.360   3.428  14.087 -0.0081  0.7233  0.2381
   11TCq1    O4  174   4.267   3.506  14.086  0.5557  0.9724 -0.1639
   11TCq1    C9  175   0.094   3.351  14.138 -0.4003 -0.2167 -0.6229
   11TCq1    O5  176   0.207   3.342  14.074 -0.1876 -0.3167  0.4386
   11TCq1    O6  177   0.066   3.307  14.256 -0.2119 -0.2391 -0.4008
   11TCq1    H1  178   0.098   3.610  13.764 -1.7826 -1.9713 -0.1800
   11TCq1    H2  179   0.094   3.533  13.917  1.1244  0.7822  3.2566
   11TCq1    H3  180   4.575   3.340  14.210  0.4657 -1.5145 -0.1672
   11TCq1    H4  181   4.435   3.629  13.920 -0.0923  1.2378  0.6274
   12MPD2     C  182   4.113   3.243  14.058  0.2208  0.0414  1.0462
   12MPD2    C1  183   4.252   3.201  14.054 -0.8896 -0.8601 -0.0954
   12MPD2    C2  184   4.273   3.072  14.023  0.1753  1.0141 -0.4693
   12MPD2    C3  185   4.171   2.986  13.985 -0.4711 -0.8337 -0.2428
   12MPD2    C4  186   4.041   3.019  14.005 -0.3459 -0.0780  0.7642
   12MPD2    C5  187   4.014   3.149  14.035  0.2770 -0.5235  0.4102
   12MPD2     H  188   4.373   3.032  14.027 -0.8334 -1.3634  1.0986
   12MPD2    H1  189   3.964   2.947  13.977 -0.8165  0.9251 -0.5528
   12MPD2    H2  190   4.090   3.342  14.093  0.6091  1.3338 -2.2858
   12MPD2    H3  191   3.911   3.181  14.037  0.2275 -0.6991  0.6013
   12MPD2     N  192   4.190   2.856  13.943 -1.1197 -0.1612 -0.6299
   12MPD2    H5  193   4.108   2.800  13.924 -1.7223 -0.1609  1.9867
   12MPD2    N1  194   4.369   3.287  14.067  0.2703 -0.3076 -0.9035
   12MPD2    H7  195   4.462   3.258  14.039  1.1358  0.0966  1.5652
   13TCq1    O1  196   4.717   4.154  10.446 -0.5547 -0.0535 -0.1897
   13TCq1    C1  197   4.602   4.141  10.515  1.0265  0.2906  0.1097
   13TCq1    O2  198   4.544   4.224  10.586  0.4558  0.1597 -0.0063
   13TCq1    C2  199   4.566   3.999  10.502  0.1580  0.4868  0.1595
   13TCq1    C3  200   4.603   3.930  10.385  0.2162  0.1039  0.5977
   13TCq1    C4  201   4.533   3.818  10.350  0.2220  0.3640 -0.2786
   13TCq1    C5  202   4.427   3.778  10.426  0.4458  0.5368  0.3713
   13TCq1    C6  203   4.397   3.851  10.543  0.1033 -0.1767 -0.1777
   13TCq1    C7  204   4.464   3.961  10.583 -0.1790 -0.0276 -0.6412
   13TCq1    C8  205   4.288   3.812  10.631 -0.2747 -0.4570  0.1777
   13TCq1    O4  206   4.245   3.895  10.709  0.4509  0.4827 -0.3230
   13TCq1    C9  207   4.566   3.752  10.227 -0.0640 -0.3610 -0.4632
   13TCq1    O5  208   4.489   3.661  10.184 -0.4239 -0.6836  0.0729
   13TCq1    O6  209   4.678   3.786  10.173  0.0130  0.0256  0.3334
   13TCq1    H1  210   0.004   4.067  10.408 -0.0802 -0.7276  1.6927
   13TCq1    H2  211   4.670   3.980  10.315 -1.2238  3.0962  1.3419
   13TCq1    H3  212   4.363   3.698  10.393  0.5622  1.9439 -3.2154
   13TCq1    H4  213   4.433   4.017  10.670  0.7303  1.7701 -1.4640
   14MPD2     C  214   4.126   3.471  10.622  0.0376  0.3403 -0.0577
   14MPD2    C1  215   4.151   3.603  10.669  0.1826  0.1860  0.0299
   14MPD2    C2  216   4.087   3.640  10.781 -0.6146  0.2542 -0.1962
   14MPD2    C3  217   3.998   3.558  10.843 -0.2365 -0.5959  0.2354
   14MPD2    C4  218   3.982   3.425  10.816  0.0276  0.1387  0.2592
   14MPD2    C5  219   4.042   3.387  10.695 -0.0462  0.3801  0.7072
   14MPD2     H  220   4.102   3.742  10.815  1.5492 -0.1093 -0.0520
   14MPD2    H1  221   3.936   3.347  10.876 -0.7611  0.2072 -0.2536
   14MPD2    H2  222   4.161   3.432  10.527  2.1062  1.8096  0.1054
   14MPD2    H3  223   4.019   3.287  10.662  1.4947  0.7397 -1.4459
   14MPD2     N  224   3.934   3.618  10.961 -0.6166 -0.0536 -0.4851
   14MPD2    H5  225   3.968   3.710  10.987 -2.0410  0.7988 -1.6769
   14MPD2    N1  226   4.247   3.684  10.596 -0.7359 -0.0318  0.0436
   14MPD2    H7  227   4.300   3.634  10.526  1.4949  0.8316  1.1189
   15TCq1    O1  228   0.379   2.690   1.334 -0.3622 -0.1446  0.0153
   15TCq1    C1  229   0.486   2.700   1.250  0.9949 -0.0859 -0.2017
   15TCq1    O2  230   0.481   2.682   1.126 -0.9908 -0.1881  0.6307
   15TCq1    C2  231   0.600   2.641   1.325  0.5087  0.7743 -0.4327
   15TCq1    C3  232   0.610   2.671   1.453 -0.0758  0.1688  0.7335
   15TCq1    C4  233   0.716   2.618   1.524 -0.7967  0.3121  0.0193
   15TCq1    C5  234   0.794   2.520   1.466  0.8187  0.8107 -0.6963
   15TCq1    C6  235   0.763   2.484   1.335 -0.3017  0.1446  0.0101
   15TCq1    C7  236   0.668   2.541   1.257  0.2050  0.7089  0.0917
   15TCq1    C8  237   0.822   2.354   1.290  0.2437 -0.0159 -0.2150
   15TCq1    O4  238   0.937   2.330   1.329 -0.1268  0.0798 -0.4890
   15TCq1    C9  239   0.745   2.658   1.657 -0.5203  0.2107 -0.3594
   15TCq1    O5  240   0.848   2.611   1.713  1.0756  0.1456 -0.0028
   15TCq1    O6  241   0.660   2.727   1.720 -0.0408  0.2228  0.2618
   15TCq1    H1  242   0.415   2.690   1.425  1.5685 -0.0940 -0.7445
   15TCq1    H2  243   0.558   2.759   1.489 -0.9973 -0.2846  0.5169
   15TCq1    H3  244   0.873   2.472   1.523  0.7857 -0.5814 -1.8260
   15TCq1    H4  245   0.648   2.519   1.153  0.1552 -1.2556  0.5130
   16MPD2     C  246   0.651   2.114   1.072 -0.0011  0.7573  0.0476
   16MPD2    C1  247   0.761   2.174   1.134  0.6766 -0.8291  0.1694
   16MPD2    C2  248   0.885   2.114   1.123  0.2069  0.8339 -0.4828
   16MPD2    C3  249   0.906   2.005   1.039 -0.2666 -0.0021 -0.1530
   16MPD2    C4  250   0.798   1.952   0.970  0.0529  0.3704  0.6226
   16MPD2    C5  251   0.676   2.010   0.990 -0.4356  0.1052  1.0325
   16MPD2     H  252   0.969   2.155   1.178 -0.5850 -0.3287  1.5585
   16MPD2    H1  253   0.800   1.871   0.899  0.7449 -0.6840  1.8534
   16MPD2    H2  254   0.553   2.155   1.094  0.9382  1.7735  2.3576
   16MPD2    H3  255   0.584   1.966   0.953 -0.6474  1.1994  0.2714
   16MPD2     N  256   1.040   1.955   1.032  0.0057 -0.0629 -0.1078
   16MPD2    H5  257   1.104   1.992   1.101 -0.8487 -0.9037  1.1198
   16MPD2    N1  258   0.732   2.292   1.209 -0.6052 -0.1096 -0.0777
   16MPD2    H7  259   0.634   2.315   1.207 -0.1465  1.7859 -0.2545
   17TMC1    C1  260   3.438   1.982  11.368 -0.3614  0.3736  1.1387
   17TMC1    C2  261   3.319   2.003  11.436 -0.2331  0.3079  0.4321
   17TMC1    C3  262   3.300   1.912  11.536  0.3026 -0.0985 -0.0375
   17TMC1    C4  263   3.540   1.904  11.414 -0.0975 -0.4374 -0.5614
   17TMC1    C5  264   3.509   1.836  11.531 -0.5937 -0.0143 -0.3397
   17TMC1    C6  265   3.386   1.833  11.591  0.0260 -0.7698  0.6870
   17TMC1     C  266   3.447   2.038  11.234 -0.4214  0.4466 -0.4173
   17TMC1     O  267   3.341   2.099  11.197  0.0446 -0.5155 -0.0247
   17TMC1     H  268   3.240   2.068  11.399  0.8664  0.0694 -2.3549
   17TMC1    H1  269   3.632   1.899  11.357 -0.3702  0.3821 -1.0715
   17TMC1    H2  270   3.365   1.766  11.673  1.1466  0.7910  2.2289
   17TMC1    C7  271   3.604   1.734  11.575  0.8184  0.4219 -0.6700
   17TMC1    C8  272   3.177   1.919  11.618 -0.4018  0.0663  0.0253
   17TMC1    O1  273   3.572   1.629  11.635  0.1534 -0.8565  0.5672
   17TMC1    O2  274   3.187   1.911  11.739  0.6839 -0.1082  0.8282
   17TMC1    O3  275   3.724   1.774  11.542 -0.0273 -0.4253  0.4687
   17TMC1    H3  276   3.726   1.865  11.505 -0.4843 -0.2929  0.7685
   17TMC1    O5  277   3.067   1.933  11.545 -0.4516  0.1223  0.0101
   17TMC1    H5  278   3.079   1.903  11.452  0.7027  0.8171 -0.0628
   18MPD2     C  279   3.519   2.114  10.957 -0.6221 -0.1608 -0.2883
   18MPD2    C1  280   3.609   2.130  11.064  0.2586 -0.5335 -0.6444
   18MPD2    C2  281   3.729   2.191  11.038 -0.2830  0.1728  0.4091
   18MPD2    C3  282   3.747   2.265  10.922 -0.3087 -0.2130  0.8295
   18MPD2    C4  283   3.662   2.254  10.818  0.4212  0.5749  0.1223
   18MPD2    C5  284   3.549   2.177  10.837 -0.0193 -0.2984 -0.2910
   18MPD2     H  285   3.798   2.206  11.120 -1.9155  0.2784  1.7392
   18MPD2    H1  286   3.677   2.303  10.722 -0.2070 -0.8049 -0.6909
   18MPD2    H2  287   3.425   2.061  10.966 -0.0896 -1.6444 -3.4014
   18MPD2    H3  288   3.484   2.169  10.750 -1.5752 -4.2210  1.2311
   18MPD2     N  289   3.860   2.341  10.899 -0.0981 -0.4103 -0.3668
   18MPD2    H5  290   3.868   2.402  10.819  2.3390  1.4960  1.3355
   18MPD2    N1  291   3.577   2.069  11.187  0.5881  0.7319  0.3921
   18MPD2    H7  292   3.651   2.039  11.250 -0.5869 -0.3310  1.2738
   19TMC2    C1  293   0.704   3.510  14.158  0.4332  0.0058 -0.0663
   19TMC2    C2  294   0.602   3.593  14.203  0.6816 -0.4430 -0.7676
   19TMC2    C3  295   0.481   3.536  14.220 -0.2416  0.7932  0.5134
   19TMC2    C4  296   0.689   3.377  14.130  0.1031 -0.0007  0.0911
   19TMC2    C5  297   0.565   3.323  14.151 -0.0572 -0.1714  0.3215
   19TMC2    C6  298   0.456   3.404  14.188  0.1931 -0.1535  0.3016
   19TMC2     C  299   0.840   3.562  14.171  0.2207 -0.5554  0.2783
   19TMC2     O  300   0.861   3.682  14.177  0.5972  0.3283  0.1697
   19TMC2     H  301   0.634   3.684  14.250  1.0056 -0.9778  0.0459
   19TMC2    H1  302   0.766   3.308  14.100 -1.1425 -1.4706  0.2784
   19TMC2    H2  303   0.365   3.357  14.223 -1.7306  2.7736 -0.7642
   19TMC2    C7  304   0.541   3.191  14.110  0.2136  0.2756 -0.2695
   19TMC2    C8  305   0.370   3.623  14.203 -0.6270  0.1202  0.4696
   19TMC2    O1  306   0.641   3.118  14.095  0.1190 -0.7414  0.0358
   19TMC2    O2  307   0.376   3.743  14.226  0.2473 -0.5007 -0.4743
   19TMC2    O5  308   0.312   3.578  14.094 -0.2488 -0.5262 -0.4155
   19TMC2    H5  309   0.313   3.481  14.083 -0.7201 -0.7694  1.6859
   20MPD2     C  310   1.131   3.573  14.180 -0.8844 -0.4086 -0.2064
   20MPD2    C1  311   1.054   3.461  14.199  0.3329 -0.1747 -0.4411
   20MPD2    C2  312   1.117   3.339  14.224  0.0199 -0.5099 -0.3706
   20MPD2    C3  313   1.250   3.322  14.244  0.0305  0.3841  0.4973
   20MPD2    C4  314   1.324   3.440  14.226  0.1881  0.5364 -0.0094
   20MPD2    C5  315   1.263   3.562  14.208  0.0213 -0.3001 -0.1964
   20MPD2     H  316   1.056   3.250  14.235  1.3335 -1.7603 -3.1506
   20MPD2    H1  317   1.432   3.445  14.233  0.1104  1.3896  0.5964
   20MPD2    H2  318   1.092   3.671  14.153 -1.2346 -0.3961  0.3508
   20MPD2    H3  319   1.328   3.648  14.213 -1.4978  0.8361  0.2812
   20MPD2     N  320   1.335   3.201  14.264  0.5068  0.0697 -0.1083
   20MPD2    H5  321   1.435   3.205  14.278  0.4205 -2.0909  1.1062
   20MPD2    N1  322   0.913   3.455  14.190 -0.1491  0.2559  0.3805
   20MPD2    H7  323   0.865   3.366  14.201  2.5082 -1.3424 -0.9052
   21TMC2    C1  324   2.847   3.523  14.925 -0.1480 -0.4807 -0.4402
   21TMC2    C2  325   2.870   3.549  15.055 -0.4961 -0.1951 -0.5296
   21TMC2    C3  326   2.761   3.568  15.134 -0.0230  0.6119 -0.9574
   21TMC2    C4  327   2.729   3.512  14.865 -0.0164 -0.0892 -0.0811
   21TMC2    C5  328   2.623   3.528  14.951  0.6289  0.3192 -0.4953
   21TMC2    C6  329   2.634   3.544  15.085 -1.1704  0.1439 -0.0355
   21TMC2     C  330   2.960   3.457  14.853  0.4176 -0.0012 -0.0899
   21TMC2     O  331   2.945   3.455  14.732 -0.3248  0.2974 -0.0541
   21TMC2     H  332   2.970   3.569  15.092 -0.2008  0.8804 -1.9087
   21TMC2    H1  333   2.721   3.494  14.759 -0.9127 -1.0305  0.1529
   21TMC2    H2  334   2.548   3.565  15.148 -0.5208 -0.3521  1.0313
   21TMC2    C7  335   2.494   3.533  14.891 -0.2320 -0.6063 -0.1754
   21TMC2    C8  336   2.786   3.599  15.272 -0.6584  0.8528 -0.1527
   21TMC2    O1  337   2.400   3.500  14.960 -0.3362 -0.0555  0.0790
   21TMC2    O2  338   2.893   3.560  15.312  0.3800 -0.0174 -0.0342
   21TMC2    O5  339   2.664   3.597  15.331  0.4693  0.5661 -0.0590
   21TMC2    H5  340   2.605   3.656  15.280 -0.3211  0.2193  0.4600
   22MPD2     C  341   3.379   3.148  14.821 -0.3097 -0.4638 -0.1239
   22MPD2    C1  342   3.321   3.227  14.724 -0.3862 -1.0012 -0.9700
   22MPD2    C2  343   3.211   3.306  14.756 -0.0965 -0.0393 -0.4794
   22MPD2    C3  344   3.171   3.322  14.884  0.0730  0.2147  0.7555
   22MPD2    C4  345   3.252   3.272  14.984  0.1295  0.5420 -0.3134
   22MPD2    C5  346   3.350   3.181  14.954 -0.1579 -0.4734 -0.6124
   22MPD2     H  347   3.172   3.370  14.678 -0.4011 -1.9183 -1.8555
   22MPD2    H1  348   3.229   3.290  15.089  1.0747  1.5512 -0.2717
   22MPD2    H2  349   3.460   3.079  14.800  1.1969  1.3255 -0.1967
   22MPD2    H3  350   3.390   3.116  15.031 -0.8690 -0.1116  0.0623
   22MPD2     N  351   3.062   3.405  14.927 -0.2418 -0.4816  0.2532
   22MPD2    H5  352   3.054   3.409  15.028  1.3503 -0.2512  0.3673
   22MPD2    N1  353   3.353   3.217  14.584 -0.5715  0.2111  0.6116
   22MPD2    H7  354   3.312   3.290  14.525  0.5252  2.0988  2.1836
   23TMC2    C1  355   4.535   4.734  14.782 -0.2539 -0.3955  0.5976
   23TMC2    C2  356   4.610   0.115  14.772 -1.0740 -0.4486 -0.1308
   23TMC2    C3  357   4.700   0.122  14.665 -0.3393 -0.1926 -0.2579
   23TMC2    C4  358   4.534   4.637  14.689 -0.1282  0.1510  0.3620
   23TMC2    C5  359   4.619   4.657  14.576  0.3675 -0.2801  0.4920
   23TMC2    C6  360   4.702   0.028  14.560  0.3734  0.1084 -0.0936
   23TMC2     C  361   4.493   4.693  14.910  0.9031 -0.3224 -0.6677
   23TMC2     O  362   4.508   4.580  14.952 -0.1651 -0.4908  0.2020
   23TMC2     H  363   4.623   0.182  14.857  0.3710 -0.2571 -0.4943
   23TMC2    H1  364   4.462   4.557  14.702  1.4190 -1.0242  1.7241
   23TMC2    H2  365   0.020   0.027  14.469  0.7512  1.8504  0.1216
   23TMC2    C7  366   4.555   4.617  14.449  1.2182 -0.3552 -0.9087
   23TMC2    C8  367   0.070   0.212  14.677 -0.0941  0.3884 -0.0965
   23TMC2    O1  368   4.632   4.598  14.354  0.0190 -0.0669 -0.0981
   23TMC2    O2  369   0.109   0.229  14.793 -0.4294  0.2977  0.2017
   23TMC2    O5  370   0.151   0.173  14.576 -0.2394  0.5181  0.0790
   23TMC2    H5  371   0.108   0.194  14.491 -1.1052 -1.8202 -0.0766
   24MPD2     C  372   4.419   0.122  15.385 -0.7233  0.1648  0.1025
   24MPD2    C1  373   4.480   0.004  15.348 -0.0068 -0.0366 -0.9388
   24MPD2    C2  374   4.493   4.721  15.213  0.4826  0.5511  0.2322
   24MPD2    C3  375   4.446   0.079  15.121  0.1777  0.5691 -0.7489
   24MPD2    C4  376   4.370   0.184  15.164  0.2915  0.0046 -0.6526
   24MPD2    C5  377   4.363   0.203  15.293 -0.0332 -0.1948 -0.3985
   24MPD2     H  378   4.531   4.625  15.180 -1.9801 -0.1035 -0.6567
   24MPD2    H1  379   4.315   0.250  15.098 -1.9267 -1.9291 -0.7264
   24MPD2    H2  380   4.400   0.156  15.486 -0.4994 -0.3829  0.3292
   24MPD2    H3  381   4.306   0.287  15.332 -0.5168  0.0399 -1.6170
   24MPD2     N  382   4.454   0.064  14.980 -0.1076  0.4713 -0.4026
   24MPD2    H5  383   4.436   0.150  14.930 -1.9933  0.3562  0.0567
   24MPD2    N1  384   4.546   4.658  15.438  0.4147 -0.1235 -0.1824
   24MPD2    H7  385   4.590   4.573  15.404 -0.0735 -1.0739  1.5729
   25TMC2    C1  386   3.424   2.420  11.185  0.0100  0.0447 -0.6185
   25TMC2    C2  387   3.558   2.446  11.203  0.3191 -0.1275 -0.2422
   25TMC2    C3  388   3.591   2.449  11.332 -0.4497 -0.2765  0.2468
   25TMC2    C4  389   3.331   2.404  11.291  0.3082 -0.0743 -0.1778
   25TMC2    C5  390   3.379   2.407  11.418  0.6584  0.1223 -0.2990
   25TMC2    C6  391   3.513   2.421  11.438  0.7422  0.1349  0.0513
   25TMC2     C  392   3.389   2.407  11.046 -1.6321  0.2373 -0.0595
   25TMC2     O  393   3.418   2.495  10.968  0.2574  0.1680  0.1440
   25TMC2     H  394   3.629   2.454  11.122 -0.7452  0.0884 -1.1606
   25TMC2    H1  395   3.227   2.383  11.266 -0.1445  0.3164  1.3717
   25TMC2    H2  396   3.550   2.425  11.540 -0.3166  1.0307  0.4089
   25TMC2    C7  397   3.300   2.379  11.530 -0.2357  0.7109  0.7631
   25TMC2    C8  398   3.726   2.452  11.369 -0.2058 -0.2419 -0.4059
   25TMC2    O1  399   3.349   2.312  11.619 -0.2149  0.8503 -0.4471
   25TMC2    O2  400   3.762   2.428  11.484 -0.7733  0.6210 -0.4913
   25TMC2    O5  401   3.811   2.456  11.265 -0.1616  0.3207  0.2993
   25TMC2    H5  402   3.775   2.512  11.193 -0.6518  2.9055  2.5586
   26MPD2     C  403   3.072   2.194  10.709  0.0002  0.0080 -0.3485
   26MPD2    C1  404   3.085   2.103  10.813 -1.1039 -0.4513 -0.1480
   26MPD2    C2  405   3.152   2.152  10.927  0.7458  0.1031 -0.2519
   26MPD2    C3  406   3.207   2.274  10.927 -0.1864  0.0886 -0.1129
   26MPD2    C4  407   3.200   2.354  10.818  0.7029 -0.6237  0.3082
   26MPD2    C5  408   3.144   2.314  10.706 -0.8217  0.2889  0.4196
   26MPD2     H  409   3.163   2.090  11.014  0.4484  0.3219 -0.0566
   26MPD2    H1  410   3.252   2.449  10.822 -0.8354  0.2077  0.3417
   26MPD2    H2  411   3.028   2.169  10.613  1.6581  0.7254 -1.3057
   26MPD2    H3  412   3.154   2.376  10.618  0.3425 -2.8727 -1.6846
   26MPD2     N  413   3.289   2.307  11.037 -0.1297 -0.3237  0.0775
   26MPD2    H5  414   3.293   2.237  11.110  0.6922  0.4356  0.7640
   26MPD2    N1  415   3.033   1.970  10.793  0.2872  0.0161  0.4787
   26MPD2    H7  416   2.995   1.943  10.703 -0.3236 -0.4201  0.8688
   27TMC2    C1  417   2.421   3.914  11.770  0.2597  0.4020 -0.0657
   27TMC2    C2  418   2.542   3.933  11.718  0.8192  0.2084 -0.8156
   27TMC2    C3  419   2.585   4.063  11.705  0.4354  0.4618 -0.5401
   27TMC2    C4  420   2.330   4.011  11.780 -0.5309  0.0074  0.6937
   27TMC2    C5  421   2.375   4.142  11.792 -0.0176  0.1829  0.0031
   27TMC2    C6  422   2.502   4.169  11.740  0.5633  0.1418  0.2131
   27TMC2     C  423   2.404   3.800  11.859 -0.0054 -0.4807 -0.3854
   27TMC2     O  424   2.465   3.709  11.814  0.2846  0.0263  0.2936
   27TMC2     H  425   2.609   3.848  11.711  2.4366  1.5693 -1.8155
   27TMC2    H1  426   2.236   3.979  11.824 -0.9547 -1.8965 -1.5845
   27TMC2    H2  427   2.541   4.269  11.729 -2.4346  1.4486  1.4853
   27TMC2    C7  428   2.329   4.212  11.911  0.3455 -0.1772  0.4385
   27TMC2    C8  429   2.724   4.085  11.725  0.4208 -0.1190  0.3118
   27TMC2    O1  430   2.281   4.134  11.993  0.0353 -0.2055  0.5461
   27TMC2    O2  431   2.789   4.064  11.825  0.3574  0.0148 -0.0550
   27TMC2    O5  432   2.770   4.178  11.638  0.3924 -0.1422  0.8183
   27TMC2    H5  433   2.707   4.177  11.563  1.5337  1.8820 -0.1821
   28MPD2     C  434   2.181   3.521  12.227 -0.5025 -0.3562 -0.2437
   28MPD2    C1  435   2.155   3.655  12.250  0.7128 -0.7064 -0.2007
   28MPD2    C2  436   2.220   3.747  12.172  0.4079  0.4952  0.4496
   28MPD2    C3  437   2.284   3.711  12.055  0.5093 -0.3206  0.0475
   28MPD2    C4  438   2.313   3.574  12.032  0.4254  0.0049 -0.4403
   28MPD2    C5  439   2.262   3.477  12.120  0.2411  0.1045 -0.4341
   28MPD2     H  440   2.190   3.851  12.179 -0.2468  0.2592  1.1936
   28MPD2    H1  441   2.373   3.534  11.952 -0.6855 -2.9077  0.1943
   28MPD2    H2  442   2.149   3.446  12.299 -2.2457 -1.4259 -2.1086
   28MPD2    H3  443   2.286   3.373  12.099  0.4131 -0.2979  1.8022
   28MPD2     N  444   2.334   3.824  11.977  0.3860 -0.1068  1.0858
   28MPD2    H5  445   2.295   3.916  11.997 -1.0232 -0.8706  1.8277
   28MPD2    N1  446   2.078   3.686  12.371 -0.0276  0.2090 -0.3001
   28MPD2    H7  447   2.052   3.609  12.432 -1.0437  0.6957 -0.1199
   29TMC2    C1  448   1.705   1.661  13.905 -0.4610  0.6252 -0.6751
   29TMC2    C2  449   1.592   1.664  13.986 -0.5677  0.6441  0.4657
   29TMC2    C3  450   1.568   1.776  14.055  0.4835  0.4423 -0.4327
   29TMC2    C4  451   1.787   1.764  13.890  0.8847 -0.4163  0.2388
   29TMC2    C5  452   1.767   1.875  13.974 -0.0958 -0.1872  0.2102
   29TMC2    C6  453   1.654   1.882  14.053  0.4361 -0.1210 -0.8698
   29TMC2     C  454   1.741   1.530  13.862  0.3184 -0.6608 -0.2627
   29TMC2     O  455   1.861   1.502  13.839 -0.2479  0.0960  0.0243
   29TMC2     H  456   1.542   1.571  14.011  0.8917  0.4473  2.6239
   29TMC2    H1  457   1.870   1.758  13.821  0.1513  2.8709 -0.9395
   29TMC2    H2  458   1.643   1.958  14.128  0.0822 -1.1572  0.1253
   29TMC2    C7  459   1.860   1.983  13.963  0.1876 -0.6379  0.2897
   29TMC2    C8  460   1.472   1.766  14.158 -0.3062  0.1663  0.3312
   29TMC2    O1  461   1.936   1.980  13.868  0.1512 -0.1572 -0.0672
   29TMC2    O2  462   1.488   1.816  14.270 -0.3655 -0.4518  0.3669
   29TMC2    O5  463   1.361   1.718  14.105  0.8146  0.2428 -0.0907
   29TMC2    H5  464   1.365   1.693  14.011  0.9318 -0.9776  0.2394
   30MPD2     C  465   1.598   1.039  13.850 -0.5138 -0.0214 -0.4024
   30MPD2    C1  466   1.711   1.099  13.897 -1.1315  0.1739 -0.4770
   30MPD2    C2  467   1.725   1.233  13.888 -0.5820 -0.4832 -0.7767
   30MPD2    C3  468   1.628   1.314  13.836  0.5327  0.0365 -0.3588
   30MPD2    C4  469   1.509   1.253  13.797 -0.8922 -0.3907 -0.6300
   30MPD2    C5  470   1.497   1.119  13.808  0.3784 -0.4299  0.2898
   30MPD2     H  471   1.813   1.283  13.927 -0.7301 -1.5253  0.9017
   30MPD2    H1  472   1.429   1.313  13.755 -0.3128 -0.3926 -1.7315
   30MPD2    H2  473   1.587   0.931  13.856  0.7625 -0.0878  0.7474
   30MPD2    H3  474   1.396   1.081  13.806 -0.0372  0.7551 -1.2775
   30MPD2     N  475   1.636   1.456  13.821 -0.5905 -0.3709 -0.2677
   30MPD2    H5  476   1.553   1.510  13.801  0.9510  1.7170 -0.9979
   30MPD2    N1  477   1.821   1.027  13.947 -0.1786  0.3015  1.2514
   30MPD2    H7  478   1.899   1.086  13.974 -0.3149  1.2560 -0.4280
   31TMC2    C1  479   4.309   0.602  15.608  0.0672  0.1041  0.2725
   31TMC2    C2  480   4.187   0.659  15.631  0.6637  0.3376 -0.1492
   31TMC2    C3  481   4.163   0.703  15.759 -0.4524  0.3089 -0.1799
   31TMC2    C4  482   4.401   0.580  15.710  0.8256 -0.0833  0.0701
   31TMC2    C5  483   4.360   0.617  15.838  0.2732  0.3208 -0.2971
   31TMC2    C6  484   4.247   0.691  15.865 -0.9874  0.6995 -0.0281
   31TMC2     C  485   4.344   0.585  15.471 -0.7255 -0.6733 -0.2084
   31TMC2     O  486   4.281   0.652  15.389  0.2581  0.3687  0.6121
   31TMC2     H  487   4.106   0.658  15.559  2.6063  1.3034 -2.3189
   31TMC2    H1  488   4.495   0.531  15.688  0.9352 -0.3058  1.0267
   31TMC2    H2  489   4.213   0.718  15.964 -0.4611  2.3065 -0.2990
   31TMC2    C7  490   4.425   0.541  15.944 -0.1777 -0.3933 -0.1899
   31TMC2    C8  491   4.036   0.761  15.771 -0.8053  0.4459  0.6597
   31TMC2    O1  492   4.471   0.436  15.918  0.4837 -0.1285 -0.4841
   31TMC2    O2  493   3.973   0.747  15.877 -0.0345 -0.3158  0.0237
   31TMC2    O5  494   4.009   0.846  15.667 -0.3520  0.4141 -0.4999
   31TMC2    H5  495   4.091   0.863  15.615 -0.1222  0.5023 -0.1111
   32MPD2     C  496   4.676   0.463  15.086  0.5733 -0.1409 -0.1592
   32MPD2    C1  497   4.571   0.553  15.091  0.3014 -0.0391 -0.3159
   32MPD2    C2  498   4.503   0.573  15.211  0.0844 -0.0249  0.2319
   32MPD2    C3  499   4.533   0.508  15.324 -0.4742 -1.0513 -0.3091
   32MPD2    C4  500   4.640   0.425  15.324 -0.1772 -0.5613  0.2396
   32MPD2    C5  501   4.718   0.400  15.203  0.1780  0.2672  0.0912
   32MPD2     H  502   4.428   0.651  15.208  0.6963  0.5369 -0.4669
   32MPD2    H1  503   4.665   0.362  15.409  0.9211 -2.3683 -1.4360
   32MPD2    H2  504   4.735   0.441  14.998 -0.3731  0.8874 -1.0578
   32MPD2    H3  505   0.070   0.342  15.206 -0.3965 -0.5622  1.4191
   32MPD2     N  506   4.463   0.516  15.448  0.1525 -0.5724  0.6636
   32MPD2    H5  507   4.513   0.467  15.522  0.1816 -0.0393  1.0051
   32MPD2    N1  508   4.532   0.629  14.976 -0.0251  0.6321 -0.6143
   32MPD2    H7  509   4.585   0.605  14.892 -0.1266  0.5241 -0.6473
   33TMC2    C1  510   3.981   3.113  10.212 -0.3653  0.0570 -0.1790
   33TMC2    C2  511   3.845   3.096  10.180  0.1744  0.6225  0.4721
   33TMC2    C3  512   3.802   3.194  10.095  0.1978  0.3904 -0.2366
   33TMC2    C4  513   4.063   3.206  10.149  0.3479  0.4580 -0.3802
   33TMC2    C5  514   4.009   3.310  10.079  0.6283 -0.0561  0.5307
   33TMC2    C6  515   3.874   3.300  10.044  0.2856 -0.1536 -0.6782
   33TMC2     C  516   4.013   3.060  10.337  0.3983 -0.8934 -0.3736
   33TMC2     O  517   3.954   2.963  10.383 -0.3179 -0.4262 -0.2405
   33TMC2     H  518   3.778   3.027  10.231 -0.3992  0.6091 -0.2957
   33TMC2    H1  519   4.169   3.216  10.170 -0.0993 -2.0336  3.1739
   33TMC2    H2  520   3.831   3.362   9.966 -0.0665  0.0590 -0.3183
   33TMC2    C7  521   4.094   3.414  10.021  0.2013 -0.7617  1.3260
   33TMC2    C8  522   3.663   3.200  10.076  0.5589 -0.0362  0.2812
   33TMC2    O1  523   4.212   3.383  10.009  0.0556 -0.6169  0.3998
   33TMC2    O2  524   3.625   3.317  10.066  0.5408  0.0123  0.2588
   33TMC2    O5  525   3.656   3.114   9.965 -0.2026  0.4141 -0.7044
   33TMC2    H5  526   3.696   3.026   9.985 -1.9827 -0.7648 -2.2971
   34MPD2     C  527   4.364   2.976  10.714  0.4853 -0.1244  0.5282
   34MPD2    C1  528   4.264   2.892  10.665  0.1647  0.6581  0.0378
   34MPD2    C2  529   4.184   2.944  10.560  0.1277  0.2670  0.0703
   34MPD2    C3  530   4.192   3.072  10.506  0.6951  0.4890  0.8100
   34MPD2    C4  531   4.288   3.151  10.563  0.1856 -0.1418  0.5092
   34MPD2    C5  532   4.365   3.102  10.662 -0.0870 -0.1405  0.4001
   34MPD2     H  533   4.109   2.873  10.527  0.0041 -0.3520  1.6795
   34MPD2    H1  534   4.317   3.247  10.522 -0.5074 -0.8596 -1.7003
   34MPD2    H2  535   4.432   2.937  10.789 -0.4749  0.5743  1.7750
   34MPD2    H3  536   4.446   3.164  10.700 -1.9722  1.0914  2.3534
   34MPD2     N  537   4.122   3.124  10.400  0.5044 -0.1226  0.0974
   34MPD2    H5  538   4.139   3.220  10.372  1.0523 -0.7001 -1.5427
   34MPD2    N1  539   4.262   2.762  10.718  0.6516  0.3401 -0.2240
   34MPD2    H7  540   4.338   2.736  10.781  1.3154 -2.0060 -2.0133
   35TMC2    C1  541   1.331   4.569  11.474 -0.1265  0.3719  0.6961
   35TMC2    C2  542   1.321   4.601  11.345  0.8143  0.1307  0.1138
   35TMC2    C3  543   1.223   4.548  11.266  0.2398 -0.3325 -0.5182
   35TMC2    C4  544   1.241   4.483  11.536  0.1421 -0.3480 -0.8731
   35TMC2    C5  545   1.151   4.426  11.449  0.0353 -0.5239  1.1740
   35TMC2    C6  546   1.137   4.459  11.320 -0.2085 -0.2492  0.5582
   35TMC2     C  547   1.438   4.630  11.545 -0.9017 -0.5538  0.3467
   35TMC2     O  548   1.491   4.719  11.481 -0.5180 -0.1068 -0.1868
   35TMC2     H  549   1.393   4.665  11.295  0.9745  0.0727  0.2713
   35TMC2    H1  550   1.231   4.473  11.644 -1.9784  1.4358 -0.9016
   35TMC2    H2  551   1.062   4.426  11.249 -0.9279  1.9439  0.2795
   35TMC2    C7  552   1.043   4.338  11.501  0.1865 -0.8403  0.9649
   35TMC2    C8  553   1.220   4.579  11.123  0.0830 -0.3569  0.2557
   35TMC2    O1  554   0.937   4.325  11.442  0.4751  0.0675  0.2487
   35TMC2    O2  555   1.214   4.491  11.040 -0.1266 -0.1839 -0.3372
   35TMC2    O5  556   1.219   4.713  11.113 -0.9296 -0.1411  0.1090
   35TMC2    H5  557   1.208   0.028  11.194  1.2631 -2.1532  1.7745
   36MPD2     C  558   1.768   4.733  11.903 -0.4736  0.2176  0.2465
   36MPD2    C1  559   1.706   4.619  11.937 -0.3080 -0.0201  0.5810
   36MPD2    C2  560   1.608   4.566  11.859 -0.2235 -0.9501 -0.4095
   36MPD2    C3  561   1.569   4.636  11.749  0.1990  0.0960 -0.9237
   36MPD2    C4  562   1.624   0.023  11.722 -0.8899 -0.5525 -0.1878
   36MPD2    C5  563   1.726   0.073  11.805  0.3644  0.9350  0.5091
   36MPD2     H  564   1.560   4.474  11.891 -1.4331  0.1789  0.9950
   36MPD2    H1  565   1.590   0.090  11.644  1.9604  2.1887  0.9297
   36MPD2    H2  566   1.850   0.034  11.962  0.3915 -0.7404 -0.2863
   36MPD2    H3  567   1.753   0.176  11.788 -0.9503  1.2736  0.4235
   36MPD2     N  568   1.473   4.578  11.664  0.5692  0.1722 -0.7944
   36MPD2    H5  569   1.435   4.488  11.689 -0.4503  0.5910 -0.8263
   36MPD2    N1  570   1.745   4.560  12.059 -0.3910  0.6645  1.2660
   36MPD2    H7  571   1.808   4.619  12.112  2.4022 -0.6338 -0.5976
   37TMC2    C1  572   3.408   4.394  11.998 -0.6593  0.2318 -0.0561
   37TMC2    C2  573   3.321   4.444  11.898  0.4172  0.0444 -0.0276
   37TMC2    C3  574   3.359   4.441  11.761 -0.6913  0.7746  0.8199
   37TMC2    C4  575   3.531   4.346  11.953  0.5408 -0.1088 -0.6266
   37TMC2    C5  576   3.552   4.332  11.819 -0.4201  0.6823  0.0010
   37TMC2    C6  577   3.472   4.384  11.723  0.1603 -0.1138  0.3144
   37TMC2     C  578   3.379   4.423  12.136  0.7715  0.4741 -0.5547
   37TMC2     O  579   3.270   4.462  12.170  0.7328  0.3354 -0.0619
   37TMC2     H  580   3.225   4.488  11.923  0.0904 -0.6860  0.0061
   37TMC2    H1  581   3.601   4.290  12.014  0.7383  1.6048  0.7351
   37TMC2    H2  582   3.497   4.380  11.618 -3.6305  0.2783 -0.5961
   37TMC2    C7  583   3.686   4.298  11.784 -0.8177  0.0033  0.5528
   37TMC2    C8  584   3.284   4.514  11.660 -0.2590 -0.0396 -0.7501
   37TMC2    O1  585   3.775   4.302  11.868  0.4293 -0.1128  0.0416
   37TMC2    O2  586   3.344   4.543  11.559 -0.5708 -0.0019 -0.5414
   37TMC2    O5  587   3.156   4.462  11.668  0.3288 -0.2564  0.4006
   37TMC2    H5  588   3.135   4.423  11.755 -2.3977 -0.3084 -0.2857
   38MPD2     C  589   3.492   4.371  12.642  0.1456 -0.1097  0.2940
   38MPD2    C1  590   3.608   4.380  12.570  0.6221 -0.3853 -0.5554
   38MPD2    C2  591   3.609   4.403  12.432 -0.4171  0.6672  0.1318
   38MPD2    C3  592   3.489   4.405  12.364  0.2161 -0.0848  0.6587
   38MPD2    C4  593   3.368   4.401  12.438 -0.3097 -0.8524 -0.4908
   38MPD2    C5  594   3.368   4.395  12.578 -0.2168  0.0362 -0.3512
   38MPD2     H  595   3.705   4.389  12.385 -0.6615 -0.9883  0.1130
   38MPD2    H1  596   3.269   4.408  12.394 -0.6622  1.7235  0.7018
   38MPD2    H2  597   3.493   4.344  12.747  0.2232 -1.2696 -0.0082
   38MPD2    H3  598   3.280   4.394  12.641 -0.0700 -0.1881 -0.1501
   38MPD2     N  599   3.488   4.400  12.220 -0.5402  0.1818  0.1562
   38MPD2    H5  600   3.580   4.397  12.176 -0.8870  0.7347 -0.6024
   38MPD2    N1  601   3.733   4.364  12.639  0.6394  0.4140  0.0829
   38MPD2    H7  602   3.817   4.392  12.589 -0.7331  3.6967 -0.3769
   39TMC2    C1  603   1.861   1.719   1.290  0.1043  0.2759 -0.4377
   39TMC2    C2  604   1.878   1.816   1.384  0.4342  0.0977 -0.6931
   39TMC2    C3  605   2.003   1.866   1.412 -0.4695  0.9432  0.2479
   39TMC2    C4  606   1.967   1.674   1.219  0.4239  0.0947  0.4108
   39TMC2    C5  607   2.086   1.726   1.252 -0.2605 -0.1857 -0.3896
   39TMC2    C6  608   2.112   1.837   1.332 -0.0325  0.2546  0.0197
   39TMC2     C  609   1.735   1.650   1.273 -0.0019 -0.0493  0.1186
   39TMC2     O  610   1.632   1.709   1.313  0.1146  0.5436  0.2042
   39TMC2     H  611   1.781   1.848   1.420 -0.6738 -2.1439 -1.7209
   39TMC2    H1  612   1.969   1.600   1.140  2.9432 -0.2322  0.7697
   39TMC2    H2  613   2.211   1.873   1.359 -0.1673  1.0111 -0.4858
   39TMC2    C7  614   2.198   1.658   1.196  1.2301  0.4961  0.2214
   39TMC2    C8  615   2.013   1.964   1.519 -0.3898 -0.3318 -0.5563
   39TMC2    O1  616   2.195   1.537   1.162  0.1651  0.1300 -0.3498
   39TMC2    O2  617   1.929   1.965   1.611  0.5107 -0.2228  0.0959
   39TMC2    O5  618   2.121   2.048   1.499 -0.0199  0.7964  0.0784
   39TMC2    H5  619   2.172   2.044   1.416  0.7825 -0.6049  0.6451
   40MPD2     C  620   1.716   1.308   1.161 -0.0851  0.1621 -0.0226
   40MPD2    C1  621   1.666   1.431   1.204  0.4269 -0.3254  0.3869
   40MPD2    C2  622   1.529   1.459   1.195  0.0316 -1.1116 -0.2461
   40MPD2    C3  623   1.442   1.364   1.147 -0.2724 -0.1106  0.6098
   40MPD2    C4  624   1.492   1.249   1.102  0.3580 -0.1106  0.8426
   40MPD2    C5  625   1.628   1.215   1.115 -0.1540 -0.6878 -0.7911
   40MPD2     H  626   1.496   1.560   1.218 -0.2154 -1.4373  0.8003
   40MPD2    H1  627   1.422   1.178   1.058 -0.0167  0.6047  0.2885
   40MPD2    H2  628   1.821   1.283   1.158 -0.0324  0.1583  1.6862
   40MPD2    H3  629   1.660   1.117   1.083  1.2468 -0.8053  0.9749
   40MPD2     N  630   1.300   1.381   1.147  0.4086 -0.3298 -0.5654
   40MPD2    H5  631   1.250   1.312   1.092 -0.8031 -1.3280  1.7370
   40MPD2    N1  632   1.763   1.524   1.239  0.1055  0.7581 -0.1463
   40MPD2    H7  633   1.859   1.491   1.236  0.3189  1.3664 -0.0444
   41TMC2    C1  634   0.476   4.366  14.074 -0.4005  1.1247  0.3697
   41TMC2    C2  635   0.399   4.464  14.013 -0.0914 -1.4997 -0.0547
   41TMC2    C3  636   0.451   4.530  13.906  0.6879  0.0362 -1.0604
   41TMC2    C4  637   0.608   4.333  14.031 -0.4545 -0.0275  0.5847
   41TMC2    C5  638   0.657   4.411  13.928  0.3139  0.3412  0.1917
   41TMC2    C6  639   0.577   4.506  13.859  0.2238  0.1962 -0.3742
   41TMC2     C  640   0.413   4.286  14.175  0.6352  0.1380 -0.7310
   41TMC2     O  641   0.465   4.176  14.196 -0.0750 -0.0269 -0.1877
   41TMC2     H  642   0.294   4.474  14.038  0.6247  1.4881  1.8147
   41TMC2    H1  643   0.663   4.254  14.081 -1.3377  0.1106  1.7567
   41TMC2    H2  644   0.616   4.578  13.789  1.9876 -0.0972  0.2949
   41TMC2    C7  645   0.799   4.431  13.905  0.1484  0.3269 -0.6308
   41TMC2    C8  646   0.385   4.649  13.851 -0.0979 -0.0699 -0.6857
   41TMC2    O1  647   0.851   4.494  13.994  0.4356  0.1544 -0.1832
   41TMC2    O2  648   0.461   4.724  13.786 -0.9496  0.0722  0.0555
   41TMC2    O5  649   0.270   4.675  13.921  0.0309  0.2604 -0.5060
   41TMC2    H5  650   0.212   4.605  13.959  2.7291 -0.1600  2.7781
   42MPD2     C  651   0.225   4.143  14.362  0.8947  0.2230 -0.0814
   42MPD2    C1  652   0.245   4.280  14.350 -0.2109 -0.1208 -0.6773
   42MPD2    C2  653   0.205   4.353  14.460  0.5610 -0.2896 -0.5486
   42MPD2    C3  654   0.143   4.289  14.574  0.1415  0.4808 -0.6583
   42MPD2    C4  655   0.126   4.156  14.579  0.0869  0.9037  0.1212
   42MPD2    C5  656   0.166   4.083  14.469  0.5047 -0.9551 -0.2030
   42MPD2     H  657   0.232   4.458  14.460  0.4519 -0.2599 -0.9334
   42MPD2    H1  658   0.074   4.101  14.656  0.4368 -0.0908 -0.3511
   42MPD2    H2  659   0.240   4.074  14.279 -2.4314  0.1163 -0.6163
   42MPD2    H3  660   0.150   3.976  14.465  2.2427 -1.1695 -1.2415
   42MPD2     N  661   0.106   4.347  14.696  0.0302  0.3098 -0.3196
   42MPD2    H5  662   0.060   4.286  14.763  0.9234  0.2741  0.2544
   42MPD2    N1  663   0.316   4.347  14.252  0.2702 -0.7257 -0.5669
   42MPD2    H7  664   0.281   4.442  14.238 -1.1546 -1.0127  0.9128
   43TMC2    C1  665   2.163   3.286   0.676 -0.2659  0.1338  0.1641
   43TMC2    C2  666   2.158   3.411   0.617 -0.3030  0.1829 -0.7898
   43TMC2    C3  667   2.203   3.518   0.698  0.8872 -0.4981 -0.7387
   43TMC2    C4  668   2.221   3.268   0.798  0.2218 -0.2852  0.3526
   43TMC2    C5  669   2.249   3.379   0.876  0.1054 -0.3997  0.3851
   43TMC2    C6  670   2.250   3.505   0.823  0.3981  0.9030 -0.8368
   43TMC2     C  671   2.163   3.176   0.586  0.0883  0.2012  0.7675
   43TMC2     O  672   2.269   3.114   0.583 -0.0625  0.0500  0.4181
   43TMC2     H  673   2.125   3.425   0.515  0.7235  2.7963 -0.7657
   43TMC2    H1  674   2.259   3.168   0.819 -1.0486 -0.6918  0.6950
   43TMC2    H2  675   2.285   3.592   0.877  0.5898  1.1605 -1.3693
   43TMC2    C7  676   2.332   3.346   0.994 -0.3716  0.7388  0.6498
   43TMC2    C8  677   2.168   3.651   0.649 -0.7033  0.1121 -1.0966
   43TMC2    O1  678   2.430   3.412   1.014 -0.3809 -0.2992  0.1581
   43TMC2    O2  679   2.058   3.673   0.596  0.5655 -0.1634  0.2128
   43TMC2    O5  680   2.286   3.701   0.603 -0.8715 -0.4740 -0.5409
   43TMC2    H5  681   2.367   3.656   0.635 -1.1451 -1.2296 -0.9118
   44MPD2     C  682   2.046   3.002   0.128  0.1968  1.3498  0.3872
   44MPD2    C1  683   2.148   2.963   0.219 -1.0608 -0.7377 -0.5456
   44MPD2    C2  684   2.145   3.014   0.343  0.8199  0.0388 -0.5814
   44MPD2    C3  685   2.051   3.110   0.386 -0.0746 -0.0489 -0.0340
   44MPD2    C4  686   1.946   3.137   0.305 -0.2913  1.0255 -0.0481
   44MPD2    C5  687   1.945   3.087   0.174 -0.5141  0.4072  0.8189
   44MPD2     H  688   2.228   2.981   0.404  0.5158 -0.1912 -0.2965
   44MPD2    H1  689   1.873   3.211   0.337 -0.8957  0.7352 -0.7649
   44MPD2    H2  690   2.037   2.971   0.025 -0.4224 -2.6441  1.6589
   44MPD2    H3  691   1.883   3.138   0.101 -0.0937  0.1719  0.2931
   44MPD2     N  692   2.066   3.194   0.493  0.5303  0.5467  0.4508
   44MPD2    H5  693   1.992   3.260   0.515 -1.7034 -2.9065  3.1847
   44MPD2    N1  694   2.257   2.881   0.196  0.1968  0.3317 -0.4389
   44MPD2    H7  695   2.314   2.850   0.274 -0.0570  0.7860 -0.0689
   45TMC2    C1  696   2.753   4.618   9.404 -0.2474  0.3668  0.6950
   45TMC2    C2  697   2.795   4.591   9.277 -0.0108 -0.0563  0.1397
   45TMC2    C3  698   2.791   4.694   9.188 -0.5006 -0.4385  0.2097
   45TMC2    C4  699   2.706   4.738   9.441 -0.5245  0.2984 -0.1444
   45TMC2    C5  700   2.708   0.102   9.353 -0.2874  0.1208 -0.0098
   45TMC2    C6  701   2.745   0.077   9.223 -0.1582 -0.8642  0.9377
   45TMC2     C  702   2.730   4.502   9.494 -0.4603 -1.1081  0.6046
   45TMC2     O  703   2.747   4.517   9.615 -0.1473  0.4245 -0.3459
   45TMC2     H  704   2.839   4.494   9.259 -1.0262 -0.0905 -2.3273
   45TMC2    H1  705   2.676   0.025   9.541 -2.4739  0.3323 -0.7283
   45TMC2    H2  706   2.758   0.156   9.151  2.9915 -2.2573 -0.0489
   45TMC2    C7  707   2.714   0.237   9.408  0.3870 -0.1774  0.0348
   45TMC2    C8  708   2.857   4.687   9.054  0.5154 -0.0143  0.7787
   45TMC2    O1  709   2.739   0.254   9.526  0.0999 -0.3086  0.0494
   45TMC2    O2  710   2.912   0.047   9.007 -0.2536 -0.1155  0.0081
   45TMC2    O5  711   2.921   4.569   9.067 -0.2165  0.5112  0.7267
   45TMC2    H5  712   2.852   4.500   9.081 -0.6320  0.8196  0.1847
   46MPD2     C  713   2.782   4.229   9.545 -0.1922 -0.0129  0.7322
   46MPD2    C1  714   2.699   4.271   9.442 -0.7704 -0.9935 -0.0597
   46MPD2    C2  715   2.635   4.186   9.366 -0.3598  0.2433  0.5307
   46MPD2    C3  716   2.650   4.049   9.390  0.3978 -0.3216  0.2245
   46MPD2    C4  717   2.744   4.007   9.479  0.6710  0.1529 -0.0515
   46MPD2    C5  718   2.820   4.096   9.554 -0.6294  0.1063  0.8430
   46MPD2     H  719   2.561   4.216   9.293  1.5147  0.3606 -1.3153
   46MPD2    H1  720   2.755   3.904   9.510  0.7017 -0.3668 -1.8262
   46MPD2    H2  721   2.842   4.303   9.598  0.2488  0.9858 -1.1470
   46MPD2    H3  722   2.895   4.072   9.629 -0.0882  0.6417  0.4750
   46MPD2     N  723   2.558   3.966   9.323 -0.2418  0.3213 -0.1555
   46MPD2    H5  724   2.489   4.009   9.263  3.3591  0.6924 -4.0592
   46MPD2    N1  725   2.675   4.404   9.417  0.0800  0.0111  0.0548
   46MPD2    H7  726   2.623   4.434   9.335  3.1890  3.5054 -0.6343
   47TMC2    C1  727   4.410   0.005   9.630 -0.3179  0.8175 -0.0702
   47TMC2    C2  728   4.434   4.656   9.530 -0.0744  0.2670  1.0467
   47TMC2    C3  729   4.326   4.581   9.487 -0.1867  0.6023 -0.1021
   47TMC2    C4  730   4.285   0.030   9.680  0.0864 -0.6502 -0.7729
   47TMC2    C5  731   4.179   4.701   9.627 -0.3134  0.6085 -0.1633
   47TMC2    C6  732   4.202   4.598   9.536 -0.2976 -0.1248  0.6727
   47TMC2     C  733   4.505   0.114   9.654  0.1139  0.5177  0.3869
   47TMC2     O  734   4.455   0.228   9.654 -0.5159  0.2933  0.1849
   47TMC2     H  735   4.532   4.633   9.490  0.0809  2.4204  0.2229
   47TMC2    H1  736   4.279   0.108   9.755 -2.8003 -3.6620  2.1211
   47TMC2    H2  737   4.122   4.538   9.495 -1.7516  3.9449 -2.3793
   47TMC2    C7  738   4.045   4.725   9.673 -0.1696  0.1259  0.1564
   47TMC2    C8  739   4.340   4.484   9.379 -0.0148  0.1953  0.2428
   47TMC2    O1  740   4.014   0.099   9.714 -0.2750  0.0377  0.1516
   47TMC2    O2  741   4.248   4.407   9.348 -0.1019 -0.1504 -0.1380
   47TMC2    O5  742   4.450   4.520   9.308  0.5854  0.2498 -0.3193
   47TMC2    H5  743   4.495   4.602   9.338  1.7563 -0.0951 -1.0998
   48MPD2     C  744   0.006   0.286   9.695  0.5018 -0.6715  0.7639
   48MPD2    C1  745   0.010   0.153   9.661 -0.2777  0.4858 -0.5037
   48MPD2    C2  746   0.132   0.085   9.638 -0.4311  0.4418  0.9207
   48MPD2    C3  747   0.253   0.157   9.648  0.1595 -0.4142 -0.3691
   48MPD2    C4  748   0.244   0.291   9.693 -0.6255  0.4186  0.4554
   48MPD2    C5  749   0.122   0.348   9.713 -0.1875  0.1925  0.4263
   48MPD2     H  750   0.134   4.717   9.622  2.0815  0.4634  1.1885
   48MPD2    H1  751   0.329   0.349   9.726  0.4299 -0.6808 -0.3293
   48MPD2    H2  752   4.657   0.344   9.719  0.9020 -0.2069  1.1192
   48MPD2    H3  753   0.118   0.450   9.749  1.2787  0.7888 -1.1196
   48MPD2     N  754   0.373   0.084   9.624 -0.2316 -0.2077 -0.0964
   48MPD2    H5  755   0.361   4.725   9.600  2.4727 -0.7057  0.7218
   48MPD2    N1  756   4.636   0.074   9.657 -0.4323  0.0507 -0.2577
   48MPD2    H7  757   4.657   4.714   9.662  0.5449  0.1833 -1.5777
   49TMC2    C1  758   3.205   3.028   9.936 -0.1254  0.0870  0.2121
   49TMC2    C2  759   3.242   3.101   9.831 -0.0113  0.4107 -0.0717
   49TMC2    C3  760   3.159   3.109   9.722 -0.3579  0.2953  0.0425
   49TMC2    C4  761   3.083   2.964   9.943  0.3074 -0.3976 -0.9809
   49TMC2    C5  762   2.998   2.974   9.832 -0.2877  0.2204 -0.7770
   49TMC2    C6  763   3.035   3.053   9.723 -0.0581 -0.5811 -0.4343
   49TMC2     C  764   3.288   3.036  10.054 -0.5547  0.1977 -0.2464
   49TMC2     O  765   3.376   3.122  10.060  0.0051 -0.3401 -0.7703
   49TMC2     H  766   3.335   3.158   9.830  0.5809 -0.5533 -0.3207
   49TMC2    H1  767   3.039   2.925  10.034 -0.9266 -0.6904 -1.7023
   49TMC2    H2  768   2.977   3.044   9.632 -1.0716 -0.8242  0.2391
   49TMC2    C7  769   2.904   2.866   9.802 -0.0430 -0.0874 -0.2082
   49TMC2    C8  770   3.185   3.209   9.615 -0.2988 -0.4158 -0.1765
   49TMC2    O1  771   2.840   2.875   9.698  0.1332  0.4334  0.2458
   49TMC2    O2  772   3.103   3.239   9.529 -0.6599 -0.0801 -0.0680
   49TMC2    O5  773   3.319   3.217   9.594 -0.4320  0.0726 -0.2100
   49TMC2    H5  774   3.365   3.152   9.651 -0.3607 -0.1036 -0.4686
   50MPD2     C  775   3.478   2.937  10.263  0.2830 -0.0519  0.0578
   50MPD2    C1  776   3.342   2.906  10.258  0.0161 -1.5619 -1.1409
   50MPD2    C2  777   3.289   2.823  10.352  0.3548 -0.2334 -0.3625
   50MPD2    C3  778   3.359   2.778  10.458 -0.5824  0.2554 -0.5759
   50MPD2    C4  779   3.490   2.816  10.478 -0.4356  1.2808  0.0960
   50MPD2    C5  780   3.546   2.890  10.369 -0.3822 -0.2639 -0.4137
   50MPD2     H  781   3.185   2.800  10.336  0.7275 -0.5298 -2.2935
   50MPD2    H1  782   3.548   2.771  10.557 -0.7766 -1.6419 -1.3369
   50MPD2    H2  783   3.525   2.988  10.180 -0.3103  2.5194  1.2676
   50MPD2    H3  784   3.653   2.908  10.371 -0.8584  2.4593 -0.0313
   50MPD2     N  785   3.298   2.713  10.568  0.0085  0.0331  0.2045
   50MPD2    H5  786   3.363   2.694  10.644  0.3144  1.4365  0.3050
   50MPD2    N1  787   3.271   2.931  10.139  0.0764  0.2581 -0.6313
   50MPD2    H7  788   3.196   2.868  10.112  1.8398 -1.2521 -2.0195
   51TMC2    C1  789   3.751   0.809   1.752 -0.4895  0.0886  0.3589
   51TMC2    C2  790   3.630   0.796   1.812  1.0115  0.6922  0.1506
   51TMC2    C3  791   3.571   0.915   1.847 -0.0367  0.3599  0.4355
   51TMC2    C4  792   3.800   0.928   1.714  0.2023  0.5112 -0.3686
   51TMC2    C5  793   3.734   1.044   1.747  0.4911 -0.1181 -0.2825
   51TMC2    C6  794   3.615   1.039   1.816  0.1002  0.9507  0.0017
   51TMC2     C  795   3.813   0.695   1.685  0.0686 -0.2672  0.3819
   51TMC2     O  796   3.910   0.716   1.611 -0.6667  0.2897  0.3323
   51TMC2     H  797   3.563   0.714   1.790  3.2784 -1.4404  1.1971
   51TMC2    H1  798   3.899   0.937   1.669  0.9451  0.5973  1.3000
   51TMC2    H2  799   3.547   1.117   1.847 -0.1725  2.0217 -3.3040
   51TMC2    C7  800   3.788   1.169   1.709  0.0600 -0.3899  0.0935
   51TMC2    C8  801   3.428   0.903   1.885 -0.7381  0.8265 -0.1767
   51TMC2    O1  802   3.873   1.176   1.621  1.1933  0.5429  0.0342
   51TMC2    O2  803   3.341   0.983   1.849 -0.0354 -0.5550  0.5855
   51TMC2    O5  804   3.431   0.850   2.009 -0.4636  0.1410  0.3119
   51TMC2    H5  805   3.508   0.791   2.026 -0.1065  0.8035  1.0251
   52MPD2     C  806   3.847   0.177   1.603 -0.0335  0.1684 -0.1665
   52MPD2    C1  807   3.922   0.283   1.545 -0.6418  0.0656  0.3677
   52MPD2    C2  808   3.890   0.411   1.588  0.3141  0.4358 -0.4983
   52MPD2    C3  809   3.791   0.435   1.676 -0.0078  0.6887  0.1452
   52MPD2    C4  810   3.713   0.333   1.721 -0.2968 -1.4607  0.3734
   52MPD2    C5  811   3.751   0.203   1.691  0.2969  0.0298 -0.0162
   52MPD2     H  812   3.945   0.496   1.550 -0.5683  1.5215  0.6980
   52MPD2    H1  813   3.634   0.347   1.793 -0.5377 -0.0182 -0.1844
   52MPD2    H2  814   3.861   0.071   1.583 -2.3803  0.1616 -1.7868
   52MPD2    H3  815   3.693   0.125   1.739 -0.0482 -0.1034 -0.6549
   52MPD2     N  816   3.762   0.571   1.719 -0.3770  0.0967 -0.2443
   52MPD2    H5  817   3.682   0.574   1.781 -0.8042 -4.0560 -0.5531
   52MPD2    N1  818   4.036   0.259   1.459  0.0844 -0.0143  0.7270
   52MPD2    H7  819   4.088   0.343   1.435  1.8273 -1.5197 -0.7229
   53TMC2    C1  820   4.365   4.441  11.651  0.0780  0.3833  0.2045
   53TMC2    C2  821   4.477   4.360  11.663 -0.1479 -0.6858  0.3313
   53TMC2    C3  822   4.533   4.360  11.783 -0.7034  0.9316  0.5034
   53TMC2    C4  823   4.312   4.518  11.750  0.6223 -0.7170  0.3418
   53TMC2    C5  824   4.365   4.493  11.871 -0.7282 -0.8283  0.5158
   53TMC2    C6  825   4.478   4.422  11.891 -0.1992  0.2691  0.5022
   53TMC2     C  826   4.280   4.405  11.548 -0.7761 -0.0407  0.9230
   53TMC2     O  827   4.322   4.373  11.437 -0.1040  0.1940 -0.1934
   53TMC2     H  828   4.515   4.301  11.580 -2.4796 -0.0266 -1.2131
   53TMC2    H1  829   4.236   4.593  11.732  0.1593 -1.7379 -1.8367
   53TMC2    H2  830   4.523   4.407  11.988  0.2885 -2.4535 -0.1606
   53TMC2    C7  831   4.280   4.536  11.982  0.6276 -0.6370  0.0645
   53TMC2    C8  832   4.657   4.292  11.814  0.9598  0.6244  0.2559
   53TMC2    O1  833   4.172   4.586  11.949  0.2103 -0.0819  0.2710
   53TMC2    O2  834   4.678   4.249  11.925 -0.1304 -0.1807 -0.5498
   53TMC2    O5  835   4.714   4.255  11.696 -0.3862  0.2882  0.2477
   53TMC2    H5  836   4.702   4.317  11.622  1.6100 -0.4074 -0.6525
   54MPD2     C  837   4.028   4.317  11.415 -0.2924 -1.4099 -0.6756
   54MPD2    C1  838   4.039   4.338  11.547 -0.6893 -0.0159  0.0230
   54MPD2    C2  839   3.931   4.315  11.628  0.2682  0.5468  0.1273
   54MPD2    C3  840   3.810   4.273  11.574 -0.6265 -0.1572  0.6610
   54MPD2    C4  841   3.800   4.259  11.440 -0.1629  0.4800  0.1825
   54MPD2    C5  842   3.913   4.274  11.361 -0.9987 -0.2964  0.6399
   54MPD2     H  843   3.942   4.328  11.735  0.9886 -0.4934  0.1760
   54MPD2    H1  844   3.723   4.207  11.385 -0.7813 -0.4003  1.8910
   54MPD2    H2  845   4.111   4.339  11.349  0.5683 -1.5295  0.3801
   54MPD2    H3  846   3.910   4.265  11.253 -0.0929 -1.2552  0.6913
   54MPD2     N  847   3.689   4.257  11.650 -0.1019  0.5425 -0.8871
   54MPD2    H5  848   3.599   4.235  11.609  0.2517  0.6968 -1.7388
   54MPD2    N1  849   4.156   4.395  11.608  0.1975  0.1005 -0.8289
   54MPD2    H7  850   4.156   4.405  11.709 -2.6171 -1.8495 -0.6230
   55TMC2    C1  851   0.208   2.597   0.092 -0.2221 -0.3602 -0.6451
   55TMC2    C2  852   0.217   2.591  17.708  0.2153  0.1289  0.1402
   55TMC2    C3  853   0.253   2.467  17.667 -0.5097 -0.3297  0.5191
   55TMC2    C4  854   0.221   2.494   0.179  0.2746 -0.1769 -0.3948
   55TMC2    C5  855   0.243   2.367   0.127 -0.5254  0.7040  0.3016
   55TMC2    C6  856   0.255   2.356  17.743 -0.0456  0.4299 -0.4743
   55TMC2     C  857   0.192   2.728   0.152  0.2931 -0.8983  0.8914
   55TMC2     O  858   0.184   2.740   0.269 -0.4210 -0.4345 -0.0277
   55TMC2     H  859   0.208   2.675  17.639  0.8949  0.0881  0.0008
   55TMC2    H1  860   0.214   2.511   0.286 -0.0831  1.2194 -0.6451
   55TMC2    H2  861   0.259   2.259  17.694  0.3258 -0.0200  0.4383
   55TMC2    C7  862   0.218   2.244   0.200 -0.3488 -0.9444 -0.1244
   55TMC2    C8  863   0.262   2.461  17.520  0.7688  0.4237 -0.3254
   55TMC2    O1  864   0.236   2.139   0.140  0.1042  0.6449 -0.5873
   55TMC2    O2  865   0.240   2.556  17.454 -0.4043  0.0089  0.3486
   55TMC2    O5  866   0.342   2.361  17.484 -0.3199 -0.1954 -0.1819
   55TMC2    H5  867   0.364   2.300  17.558 -2.4798 -1.2767 -0.4515
   56MPD2     C  868   0.111   3.035  17.719  0.0736 -0.1330 -0.2216
   56MPD2    C1  869   0.129   2.962   0.077  0.0622 -0.2768  0.0784
   56MPD2    C2  870   0.082   3.016   0.199 -0.3561 -0.6301 -0.2808
   56MPD2    C3  871   0.011   3.137   0.197 -0.4218  0.0288  0.0408
   56MPD2    C4  872   4.730   3.198   0.079 -0.5685 -0.6957 -0.7568
   56MPD2    C5  873   0.045   3.156  17.720 -0.0899 -0.3596 -0.4024
   56MPD2     H  874   0.089   2.964   0.293 -1.2601  1.6225  1.0232
   56MPD2    H1  875   4.662   3.282   0.071 -0.8705 -0.6580  2.4833
   56MPD2    H2  876   0.139   2.988  17.625  1.3673 -1.1249  0.6573
   56MPD2    H3  877   0.026   3.205  17.625 -1.7445  2.7468  1.5280
   56MPD2     N  878   4.699   3.183   0.319 -0.1663  0.3049 -0.5813
   56MPD2    H5  879   4.732   3.133   0.401 -1.1934 -0.8423 -0.8628
   56MPD2    N1  880   0.180   2.828   0.054 -0.3026 -0.2769  0.7878
   56MPD2    H7  881   0.229   2.818  17.721 -2.3342 -0.2990 -0.3128
   57TMC2    C1  882   3.951   3.113  13.540  0.2059  0.0386 -0.4076
   57TMC2    C2  883   3.941   2.984  13.493  0.4165  0.4746  0.0826
   57TMC2    C3  884   4.031   2.942  13.401  0.0464 -0.0156 -0.4096
   57TMC2    C4  885   4.049   3.202  13.498  0.0760 -0.1908  0.9260
   57TMC2    C5  886   4.135   3.152  13.406  0.2903  0.1624  0.0928
   57TMC2    C6  887   4.137   3.021  13.360  0.5145 -0.2087 -0.6149
   57TMC2     C  888   3.872   3.154  13.656 -0.4298  0.2430 -0.1438
   57TMC2     O  889   3.898   3.265  13.702 -0.3015 -0.0243  0.7699
   57TMC2     H  890   3.881   2.906  13.539  0.1673 -0.9740 -2.6717
   57TMC2    H1  891   4.048   3.307  13.524  1.0528 -0.1163  0.6818
   57TMC2    H2  892   4.197   2.989  13.276 -1.0482 -0.1224 -1.7536
   57TMC2    C7  893   4.228   3.242  13.357  0.5884  0.1520  0.3406
   57TMC2    C8  894   3.998   2.827  13.311 -0.0517 -0.1655 -0.1644
   57TMC2    O1  895   4.203   3.362  13.368  0.4813 -0.0646  1.0118
   57TMC2    O2  896   4.081   2.759  13.253 -0.1173 -0.5534 -0.4070
   57TMC2    O5  897   3.874   2.860  13.265 -0.4621 -0.8113  0.4928
   57TMC2    H5  898   3.840   2.922  13.333 -1.5013  1.4460 -2.1154
   58MPD2     C  899   3.440   3.136  13.936 -0.1159 -0.1910 -0.9158
   58MPD2    C1  900   3.529   3.237  13.924  0.0777  0.7117  0.3479
   58MPD2    C2  901   3.640   3.217  13.846  0.0294  0.3490 -0.2321
   58MPD2    C3  902   3.665   3.095  13.784  0.0192  0.5139 -0.3891
   58MPD2    C4  903   3.570   2.994  13.796 -0.0179  0.1591  0.2633
   58MPD2    C5  904   3.467   3.013  13.883  0.1834  0.0334 -0.3018
   58MPD2     H  905   3.705   3.304  13.846  0.4376  0.0540  2.0728
   58MPD2    H1  906   3.581   2.893  13.757 -0.7103  1.0555 -2.2564
   58MPD2    H2  907   3.351   3.146  13.998  0.3165  0.3961 -0.3867
   58MPD2    H3  908   3.400   2.930  13.899  1.5553 -0.4813  2.7448
   58MPD2     N  909   3.773   3.063  13.700  0.0465  0.2114  0.2012
   58MPD2    H5  910   3.764   2.977  13.647 -2.2702 -0.1676  1.2286
   58MPD2    N1  911   3.512   3.364  13.978 -0.2797 -0.6229 -0.3616
   58MPD2    H7  912   3.596   3.422  13.973 -0.0733 -0.9865 -1.0718
   59TMC2    C1  913   1.682   3.273  12.474  0.5156 -0.0638  0.5657
   59TMC2    C2  914   1.599   3.165  12.463 -0.0886 -0.5418 -0.7778
   59TMC2    C3  915   1.464   3.180  12.447  0.0296 -0.0901 -0.7886
   59TMC2    C4  916   1.637   3.406  12.473  0.3432 -0.1697 -0.4875
   59TMC2    C5  917   1.503   3.415  12.454 -0.2225 -0.6275 -0.0231
   59TMC2    C6  918   1.414   3.307  12.449 -0.8265  0.1639  0.1162
   59TMC2     C  919   1.825   3.246  12.483 -1.0178  0.3182  0.1105
   59TMC2     O  920   1.863   3.141  12.430  0.2553 -0.2913  0.1349
   59TMC2     H  921   1.634   3.065  12.441  0.1595 -0.7885  0.7886
   59TMC2    H1  922   1.717   3.479  12.474  0.6701 -0.5316 -0.3353
   59TMC2    H2  923   1.307   3.318  12.435 -0.7834  0.9118  0.4103
   59TMC2    C7  924   1.445   3.541  12.487  0.2273 -0.4962  0.8093
   59TMC2    C8  925   1.380   3.075  12.388 -0.0349  0.0817 -0.4105
   59TMC2    O1  926   1.322   3.538  12.482 -0.5279 -0.1764 -0.6558
   59TMC2    O2  927   1.262   3.088  12.392 -0.4972  0.3447  0.0335
   59TMC2    O5  928   1.451   2.979  12.316  0.2835 -0.2071 -0.0212
   59TMC2    H5  929   1.547   2.996  12.305 -0.1708  0.0435 -3.6929
   60MPD2     C  930   2.109   3.231  12.559 -0.1371 -0.0506  0.1375
   60MPD2    C1  931   2.025   3.327  12.606  0.0098  0.6109 -0.4937
   60MPD2    C2  932   2.063   3.419  12.700  0.7780 -0.3047  0.7911
   60MPD2    C3  933   2.191   3.413  12.752  0.2034 -0.1449 -0.1164
   60MPD2    C4  934   2.280   3.308  12.710 -0.5489  0.6018 -0.0148
   60MPD2    C5  935   2.237   3.218  12.612 -0.2238 -0.1900 -0.5226
   60MPD2     H  936   1.999   3.497  12.740  0.9466  1.0368 -1.5522
   60MPD2    H1  937   2.378   3.300  12.757 -1.3295  0.7532  1.6264
   60MPD2    H2  938   2.084   3.178  12.468 -0.0624 -1.7218  1.0870
   60MPD2    H3  939   2.299   3.135  12.579  0.1629  0.3328 -1.1015
   60MPD2     N  940   2.240   3.501  12.853 -0.5715 -0.2380 -0.2189
   60MPD2    H5  941   2.336   3.482  12.879 -0.1251 -0.3267 -1.9565
   60MPD2    N1  942   1.886   3.333  12.567  0.2798  0.4636  0.4447
   60MPD2    H7  943   1.824   3.402  12.608  1.5914  2.5168 -1.0566
   61TMC2    C1  944   0.453   4.687  15.283  0.2710  0.1550  0.5386
   61TMC2    C2  945   0.371   4.651  15.393  1.0664 -0.2886 -0.3190
   61TMC2    C3  946   0.335   0.004  15.480 -0.2169  0.2161 -0.0313
   61TMC2    C4  947   0.512   0.072  15.283  0.3824  0.4600  0.2930
   61TMC2    C5  948   0.482   0.159  15.382  0.7756  0.3500  0.3669
   61TMC2    C6  949   0.392   0.134  15.478  0.4454  0.2338  0.5282
   61TMC2     C  950   0.489   4.591  15.187  0.8398  0.9618 -0.0027
   61TMC2     O  951   0.423   4.489  15.196 -0.6609  0.1356  0.0547
   61TMC2     H  952   0.341   4.549  15.416 -2.1231 -0.0264 -3.3204
   61TMC2    H1  953   0.581   0.105  15.206  0.2892 -0.3292 -0.1324
   61TMC2    H2  954   0.349   0.197  15.555  0.5162  1.0693 -0.1141
   61TMC2    C7  955   0.579   0.266  15.393 -0.3714  0.3790 -0.4044
   61TMC2    C8  956   0.267   4.686  15.597 -0.0311 -0.0820 -0.0293
   61TMC2    O1  957   0.652   0.294  15.296 -0.3373  0.2271 -0.0623
   61TMC2    O2  958   0.296   4.578  15.648  0.4145  0.0155  0.5887
   61TMC2    O5  959   0.155   0.019  15.624  0.5156  0.0029 -0.4591
   61TMC2    H5  960   0.135   0.085  15.554 -1.4172  1.1561  1.1551
   62MPD2     C  961   0.496   4.485  14.918  0.1583  0.3221  0.5968
   62MPD2    C1  962   0.592   4.573  14.965 -0.2619 -0.0701  0.1823
   62MPD2    C2  963   0.679   4.624  14.877  0.6509 -0.1040  0.7392
   62MPD2    C3  964   0.682   4.584  14.744 -0.4155 -0.1685  0.5248
   62MPD2    C4  965   0.585   4.499  14.698 -0.2934 -0.3658 -0.2384
   62MPD2    C5  966   0.493   4.448  14.786 -0.1863 -1.1043  0.6414
   62MPD2     H  967   0.747   4.704  14.904 -0.1058 -0.0164  2.3368
   62MPD2    H1  968   0.571   4.466  14.596  1.1884  0.1198 -0.5898
   62MPD2    H2  969   0.414   4.446  14.978  0.7155 -2.8985 -0.7461
   62MPD2    H3  970   0.417   4.377  14.757 -0.2864 -1.4168  1.6743
   62MPD2     N  971   0.768   4.642  14.649 -0.1164 -0.0235 -0.1583
   62MPD2    H5  972   0.751   4.597  14.560  1.9223 -0.2622 -0.4178
   62MPD2    N1  973   0.585   4.624  15.098 -0.1357  0.8227 -0.2984
   62MPD2    H7  974   0.639   4.710  15.104  0.4408  0.4019  0.6147
   63TMC2    C1  975   0.849   0.623  10.250  0.5362 -0.1193 -0.1578
   63TMC2    C2  976   0.926   0.587  10.361  0.3729 -0.1679 -0.5573
   63TMC2    C3  977   1.011   0.685  10.407  0.1306 -0.4105 -0.0932
   63TMC2    C4  978   0.882   0.741  10.186 -0.0248  0.2839 -0.3279
   63TMC2    C5  979   0.983   0.823  10.217  0.2547 -0.6342 -0.2157
   63TMC2    C6  980   1.045   0.795  10.340 -0.3430 -0.0489 -0.1603
   63TMC2     C  981   0.705   0.592  10.259  0.2363 -0.2000 -0.6587
   63TMC2     O  982   0.626   0.684  10.235  0.3905  0.4055  0.4211
   63TMC2     H  983   0.915   0.494  10.415 -0.7857 -0.1184 -0.7164
   63TMC2    H1  984   0.819   0.773  10.103  1.3525  2.4719 -0.5105
   63TMC2    H2  985   1.104   0.871  10.390  0.9901 -0.5054 -1.0409
   63TMC2    C7  986   0.946   0.967  10.210 -0.4069 -0.5715 -0.0343
   63TMC2    C8  987   1.098   0.662  10.526  0.2474 -0.5936  0.4834
   63TMC2    O1  988   0.840   0.990  10.148 -0.0879  0.0571 -0.4198
   63TMC2    O2  989   1.206   0.711  10.542 -0.1859  0.1228  0.4549
   63TMC2    O5  990   1.014   0.614  10.621  0.6165  0.0870  0.0086
   63TMC2    H5  991   0.921   0.617  10.589 -0.1312 -1.7156  2.0560
   64MPD2     C  992   0.298   0.312  10.400  0.1237 -0.0900  0.0413
   64MPD2    C1  993   0.414   0.228  10.394 -0.1249  0.4773  0.4843
   64MPD2    C2  994   0.538   0.282  10.368 -0.2524 -0.3374  0.5390
   64MPD2    C3  995   0.554   0.414  10.340  0.2799  0.0541 -0.1303
   64MPD2    C4  996   0.437   0.494  10.353 -0.2334 -0.3029  0.1294
   64MPD2    C5  997   0.315   0.447  10.386 -0.1374 -0.7030  0.5161
   64MPD2     H  998   0.629   0.223  10.372 -0.4388 -0.6590  0.0773
   64MPD2    H1  999   0.441   0.601  10.333  0.3461 -0.8234 -2.5228
   64MPD2    H2 1000   0.195   0.283  10.419  0.4626 -0.7147  0.8991
   64MPD2    H3 1001   0.237   0.522  10.393  0.1033 -0.4960  0.9884
   64MPD2     N 1002   0.678   0.463  10.299  0.2890  0.3631 -0.2091
   64MPD2    H5 1003   0.754   0.396  10.309  0.1424  0.3043  0.4883
   64MPD2    N1 1004   0.405   0.085  10.387  0.4475  0.1708 -0.0470
   64MPD2    H7 1005   0.492   0.035  10.369 -0.7092 -0.9985 -2.4959
   65TMC2    C1 1006   1.984   0.029  15.661  0.5718  0.3466 -0.0132
   65TMC2    C2 1007   1.969   4.729  15.529 -0.1953  0.1802  1.1225
   65TMC2    C3 1008   1.987   0.083  15.426  0.4332 -0.0308 -0.3185
   65TMC2    C4 1009   2.030   0.160  15.686  0.4346 -0.0626  0.0253
   65TMC2    C5 1010   2.039   0.247  15.581  0.2713  0.2803  0.3765
   65TMC2    C6 1011   2.033   0.207  15.452  0.3496  0.2985 -0.3109
   65TMC2     C 1012   1.975   4.674  15.772 -0.0745  0.6651  0.1467
   65TMC2     O 1013   2.057   4.688  15.863  0.3616  0.1721  0.0503
   65TMC2     H 1014   1.934   4.633  15.492  2.0022 -0.4237  0.6002
   65TMC2    H1 1015   2.069   0.187  15.784  2.4185  0.5691 -0.9365
   65TMC2    H2 1016   2.062   0.281  15.378  0.2730 -0.5470 -1.1833
   65TMC2    C7 1017   2.014   0.383  15.614  0.1983 -0.2481 -0.3667
   65TMC2    C8 1018   1.963   0.042  15.291  0.0889  0.2015  0.1125
   65TMC2    O1 1019   2.045   0.457  15.517  0.4349  0.0329 -0.1270
   65TMC2    O2 1020   1.955   4.662  15.260  0.4143  0.2761 -0.4090
   65TMC2    O5 1021   2.012   0.133  15.202 -0.1191 -0.7269 -0.2863
   65TMC2    H5 1022   2.027   0.221  15.244  1.7811 -1.9545  1.5925
   66MPD2     C 1023   1.922   4.441  15.940 -0.1516 -0.0190 -0.5069
   66MPD2    C1 1024   1.854   4.465  15.826 -0.4968 -0.5203 -0.3075
   66MPD2    C2 1025   1.754   4.371  15.787 -0.1341  0.0693  0.1693
   66MPD2    C3 1026   1.716   4.264  15.867 -0.8105  0.0585 -0.2629
   66MPD2    C4 1027   1.788   4.246  15.986  0.2215 -0.2700 -0.3397
   66MPD2    C5 1028   1.892   4.329  16.013  0.3694  1.1791 -0.0103
   66MPD2     H 1029   1.686   4.384  15.703 -1.6196  0.0228  1.3609
   66MPD2    H1 1030   1.781   4.156  16.046  1.9308 -0.7989 -0.9499
   66MPD2    H2 1031   1.999   4.507  15.977  0.4095 -0.5852 -0.6813
   66MPD2    H3 1032   1.939   4.316  16.109  1.7219 -2.1253 -1.0892
   66MPD2     N 1033   1.614   4.184  15.817  0.0337  0.2720 -0.5504
   66MPD2    H5 1034   1.589   4.205  15.721 -2.7628 -2.3848 -0.4083
   66MPD2    N1 1035   1.880   4.574  15.747 -0.8563  0.0509 -0.2312
   66MPD2    H7 1036   1.812   4.597  15.675 -1.6139  3.7094  1.6533
   67TMC2    C1 1037   1.722   3.908  14.473  0.8195  0.2326 -0.1930
   67TMC2    C2 1038   1.750   3.849  14.353 -0.0560  0.0752 -0.2403
   67TMC2    C3 1039   1.846   3.912  14.282  0.3716  0.3217 -0.0752
   67TMC2    C4 1040   1.791   4.009  14.527  0.6660  0.4904  0.3155
   67TMC2    C5 1041   1.896   4.058  14.452 -0.0418  0.5852  0.6867
   67TMC2    C6 1042   1.920   4.013  14.327 -0.2578 -0.5724  0.0609
   67TMC2     C 1043   1.592   3.886  14.523 -0.2835 -0.1863  0.1733
   67TMC2     O 1044   1.535   3.987  14.559  1.1035  0.2894  0.4130
   67TMC2     H 1045   1.685   3.770  14.316  1.7941 -0.6944 -1.8309
   67TMC2    H1 1046   1.775   4.038  14.631  2.2936  1.1552  0.3877
   67TMC2    H2 1047   1.996   4.062  14.267 -0.4439  1.4174  1.4344
   67TMC2    C7 1048   1.982   4.169  14.498 -0.7603 -0.7389  0.5275
   67TMC2    C8 1049   1.873   3.847  14.159 -0.1522 -1.4272 -0.2315
   67TMC2    O1 1050   2.074   4.197  14.421 -0.2808  0.1803  0.1702
   67TMC2    O2 1051   1.844   3.729  14.134  0.0609 -0.4656  0.1695
   67TMC2    O5 1052   1.947   3.923  14.081 -0.1651 -0.4352 -0.4775
   67TMC2    H5 1053   1.951   4.017  14.111 -2.6442 -1.0380  1.7569
   68MPD2     C 1054   1.403   3.574  14.584 -0.3814  0.3247 -0.1037
   68MPD2    C1 1055   1.423   3.705  14.550 -0.1549  0.0240  0.0304
   68MPD2    C2 1056   1.317   3.787  14.522  0.5951 -0.2184  0.5193
   68MPD2    C3 1057   1.188   3.735  14.517 -0.1679  0.1855  0.0375
   68MPD2    C4 1058   1.169   3.601  14.532  0.2383 -0.2367 -0.7777
   68MPD2    C5 1059   1.275   3.522  14.571 -0.2259  0.3251 -0.6725
   68MPD2     H 1060   1.339   3.888  14.489  0.3628  0.4734  2.5366
   68MPD2    H1 1061   1.074   3.551  14.513  0.0980 -0.4184  0.3441
   68MPD2    H2 1062   1.486   3.511  14.613  0.5045  1.6418  0.2466
   68MPD2    H3 1063   1.261   3.414  14.568 -0.6683  0.3645  0.1660
   68MPD2     N 1064   1.075   3.807  14.468  0.3014  0.1504 -0.1548
   68MPD2    H5 1065   0.987   3.756  14.461  0.0801  0.2269  1.9675
   68MPD2    N1 1066   1.556   3.753  14.533 -0.3112 -0.2266  0.0676
   68MPD2    H7 1067   1.620   3.674  14.528  1.6460  1.3393  0.5249
   69TMC2    C1 1068   4.010   0.599  12.429 -0.2656  0.1650 -0.4567
   69TMC2    C2 1069   3.901   0.682  12.426  0.3156 -0.6068  0.0231
   69TMC2    C3 1070   3.834   0.685  12.305  0.3111  0.3664 -0.0018
   69TMC2    C4 1071   4.040   0.519  12.327  0.6151  0.2155 -0.1540
   69TMC2    C5 1072   3.958   0.508  12.220 -0.2167 -1.1704 -0.0104
   69TMC2    C6 1073   3.856   0.597  12.204  0.5551  0.5649  0.6944
   69TMC2     C 1074   4.042   0.544  12.560 -0.0507 -0.2537 -0.3025
   69TMC2     O 1075   4.070   0.423  12.548 -0.5391 -0.5891 -0.3387
   69TMC2     H 1076   3.878   0.745  12.511  3.1088  0.4711 -0.0029
   69TMC2    H1 1077   4.131   0.464  12.347  1.1296  1.6526  1.4766
   69TMC2    H2 1078   3.795   0.600  12.114  1.1832  1.5700  0.3054
   69TMC2    C7 1079   4.003   0.428  12.109  0.0156  0.2608  0.5810
   69TMC2    C8 1080   3.727   0.782  12.305 -0.0766 -0.8971  0.1241
   69TMC2    O1 1081   4.125   0.411  12.105 -0.3866  0.4150  0.4323
   69TMC2    O2 1082   3.690   0.832  12.411  0.2954  0.0809  0.0733
   69TMC2    O5 1083   3.697   0.816  12.183 -0.1970  0.4029 -0.1407
   69TMC2    H5 1084   3.764   0.785  12.119 -0.8590  0.7220 -0.9852
   70MPD2     C 1085   4.176   0.690  12.860  0.0834  0.4454  0.1066
   70MPD2    C1 1086   4.101   0.601  12.790 -1.3935 -0.5489  0.6914
   70MPD2    C2 1087   4.060   0.480  12.849 -0.2272 -0.6005 -0.0494
   70MPD2    C3 1088   4.123   0.442  12.964  0.2984 -0.8626  0.6313
   70MPD2    C4 1089   4.217   0.526  13.019  0.3077 -0.1716  0.7443
   70MPD2    C5 1090   4.238   0.654  12.973  0.1682  0.1041  0.2563
   70MPD2     H 1091   3.998   0.401  12.808 -0.5169 -0.4871  0.1658
   70MPD2    H1 1092   4.273   0.500  13.108  2.0627  1.1048  0.0087
   70MPD2    H2 1093   4.206   0.784  12.814  2.2725  0.4749  1.5741
   70MPD2    H3 1094   4.312   0.712  13.027 -0.0716 -0.0936  0.8019
   70MPD2     N 1095   4.110   0.320  13.033  0.0763 -0.3083 -0.1727
   70MPD2    H5 1096   4.175   0.295  13.108  0.2210  0.0080 -0.1926
   70MPD2    N1 1097   4.063   0.633  12.661  0.0148 -0.0650 -0.5209
   70MPD2    H7 1098   4.071   0.730  12.631 -0.2216 -0.2592 -1.1987
   71TMC2    C1 1099   1.248   0.100   1.561  0.2211  0.0070  0.0525
   71TMC2    C2 1100   1.337   0.026   1.634  0.2929  0.1482 -0.0720
   71TMC2    C3 1101   1.280   4.684   1.724 -0.5486 -0.1594  0.8963
   71TMC2    C4 1102   1.114   0.094   1.571 -0.5405 -0.8826  0.2213
   71TMC2    C5 1103   1.062   0.015   1.672 -0.3531 -0.1846  0.6315
   71TMC2    C6 1104   1.148   4.672   1.744  0.3309  0.2325 -0.1225
   71TMC2     C 1105   1.298   0.212   1.484 -0.4849  0.2006  0.4936
   71TMC2     O 1106   1.228   0.274   1.406  0.0648  0.1622  0.0071
   71TMC2     H 1107   1.439   0.011   1.602 -0.0782 -0.8635 -0.8239
   71TMC2    H1 1108   1.056   0.172   1.523 -0.5730 -0.2601  1.2781
   71TMC2    H2 1109   1.112   4.608   1.824 -0.0952 -0.9271 -1.2389
   71TMC2    C7 1110   0.922   4.704   1.665  0.1118  0.1392  0.2845
   71TMC2    C8 1111   1.355   4.592   1.800 -0.5336 -0.0844  0.1692
   71TMC2    O1 1112   0.893   4.592   1.710  0.2869  0.3968  0.1558
   71TMC2    O2 1113   1.310   4.489   1.841  0.0121  0.0087  0.3966
   71TMC2    O5 1114   1.463   4.655   1.849  0.6027 -0.0810 -0.1788
   71TMC2    H5 1115   1.447   0.010   1.825 -2.1027 -0.3333  0.6528
   72MPD2     C 1116   1.640   0.547   1.304 -0.3353 -0.0351  0.2179
   72MPD2    C1 1117   1.524   0.501   1.252  0.6280  0.2871  0.5398
   72MPD2    C2 1118   1.456   0.400   1.315 -0.5747 -0.2327 -0.0959
   72MPD2    C3 1119   1.499   0.345   1.439 -0.0850 -0.1958 -0.1708
   72MPD2    C4 1120   1.622   0.385   1.489 -0.7629  0.0073  0.2312
   72MPD2    C5 1121   1.685   0.484   1.422 -0.3480  0.5209  0.2776
   72MPD2     H 1122   1.374   0.356   1.260  0.4709 -1.4951 -0.6652
   72MPD2    H1 1123   1.661   0.351   1.584  1.4739  0.0710 -0.6786
   72MPD2    H2 1124   1.702   0.620   1.252  0.1609  0.8524  2.0554
   72MPD2    H3 1125   1.772   0.527   1.469 -0.5082  1.2895 -0.1158
   72MPD2     N 1126   1.430   0.243   1.506  0.5799 -0.3871  0.2528
   72MPD2    H5 1127   1.477   0.197   1.584 -1.1431  0.4500  1.7936
   72MPD2    N1 1128   1.467   0.538   1.133  0.5540 -0.0261 -0.4892
   72MPD2    H7 1129   1.384   0.486   1.107 -0.1928  0.1283  1.5780
   73TMC2    C1 1130   0.979   2.887  13.965 -1.0587 -0.1280 -0.5652
   73TMC2    C2 1131   0.901   2.875  14.074 -0.9392 -0.6694 -0.1717
   73TMC2    C3 1132   0.921   2.761  14.154  0.6025 -0.5296  0.0188
   73TMC2    C4 1133   1.071   2.788  13.925 -0.1605 -0.0755  0.3793
   73TMC2    C5 1134   1.106   2.688  14.027 -0.5076 -0.4334  0.2448
   73TMC2    C6 1135   1.037   2.688  14.138  0.4546 -0.0083 -0.2438
   73TMC2     C 1136   1.031   3.022  13.929  0.4879 -0.1488 -0.1128
   73TMC2     O 1137   1.151   3.024  13.892 -0.0585 -0.1664  0.4105
   73TMC2     H 1138   0.826   2.950  14.095  0.0085  0.0156  0.7367
   73TMC2    H1 1139   1.111   2.786  13.825 -0.4213 -1.3807  0.3066
   73TMC2    H2 1140   1.069   2.616  14.211 -2.2886 -1.4435 -0.4487
   73TMC2    C7 1141   1.253   2.681  14.049 -0.0274 -0.0327 -0.5298
   73TMC2    C8 1142   0.872   2.763  14.293  0.3354 -0.0172  0.7880
   73TMC2    O1 1143   1.296   2.602  14.131 -0.5559  0.0127  0.5191
   73TMC2    O2 1144   0.947   2.757  14.388 -0.1319 -0.3564 -0.1048
   73TMC2    O5 1145   0.760   2.843  14.293 -0.3123 -0.0593  0.1874
   73TMC2    H5 1146   0.707   2.824  14.212 -1.3477  0.2620  0.8029
   74MPD2     C 1147   1.061   3.493  13.773  0.0772  0.0172 -0.2136
   74MPD2    C1 1148   1.150   3.414  13.831  0.2738  0.0341 -0.2748
   74MPD2    C2 1149   1.102   3.297  13.893 -0.7217 -0.2510  0.6988
   74MPD2    C3 1150   0.972   3.258  13.891 -0.3541  0.1530 -0.0899
   74MPD2    C4 1151   0.879   3.337  13.829 -0.3742 -0.2807 -0.1918
   74MPD2    C5 1152   0.924   3.453  13.772 -0.1853  0.3952 -0.6413
   74MPD2     H 1153   1.167   3.247  13.964 -0.4809 -0.5887  0.2423
   74MPD2    H1 1154   0.778   3.303  13.810 -0.6265 -0.6996  1.9543
   74MPD2    H2 1155   1.091   3.584  13.722 -0.8706  1.1044  1.1441
   74MPD2    H3 1156   0.847   3.508  13.719 -0.6842  1.1831  0.8989
   74MPD2     N 1157   0.937   3.129  13.935  0.1462  0.6189 -0.3497
   74MPD2    H5 1158   0.838   3.107  13.935 -0.0437  1.5054 -0.0290
   74MPD2    N1 1159   1.282   3.461  13.841 -0.2072  0.0080 -0.1708
   74MPD2    H7 1160   1.296   3.552  13.799  0.1133  0.5039  1.0021
   75TMC2    C1 1161   0.952   3.983  14.371  0.2954  0.5229 -0.4144
   75TMC2    C2 1162   0.836   3.933  14.423 -0.1399 -0.1958 -0.5148
   75TMC2    C3 1163   0.724   3.954  14.342 -0.4762 -0.3488  0.0057
   75TMC2    C4 1164   0.962   4.034  14.244  0.0928  0.8111 -0.0273
   75TMC2    C5 1165   0.851   4.040  14.168  0.6213  0.2683  0.0777
   75TMC2    C6 1166   0.729   4.001  14.213  0.7155  0.3012 -0.4000
   75TMC2     C 1167   1.076   3.934  14.414  0.0708  0.1498  0.6251
   75TMC2     O 1168   1.174   4.007  14.394  0.0002 -0.1749  0.1281
   75TMC2     H 1169   0.831   3.899  14.526  1.8229  1.8892  0.2777
   75TMC2    H1 1170   1.061   4.027  14.202 -0.2733 -1.3151 -0.5645
   75TMC2    H2 1171   0.638   4.001  14.154  0.8679  1.0956 -0.6427
   75TMC2    C7 1172   0.866   4.061  14.027  0.4824  0.4039  0.5013
   75TMC2    C8 1173   0.599   3.900  14.396  0.3872  0.2030  0.3069
   75TMC2    O1 1174   0.790   3.998  13.959 -0.1893 -0.2040 -0.2913
   75TMC2    O2 1175   0.607   3.831  14.500 -0.5873 -0.3520 -0.1862
   75TMC2    O5 1176   0.513   4.009  14.385  0.3628 -0.3979  0.2515
   75TMC2    H5 1177   0.491   4.047  14.298  1.0938  0.3597  0.3879
   76TMC2    C1 1178   0.344   4.309  12.125  0.4065 -0.1312  0.1149
   76TMC2    C2 1179   0.245   4.268  12.213  0.2910 -0.0650 -0.5551
   76TMC2    C3 1180   0.282   4.211  12.334 -0.4520 -0.9902 -0.4169
   76TMC2    C4 1181   0.478   4.303  12.162  0.5646 -0.0019  0.0608
   76TMC2    C5 1182   0.510   4.240  12.283 -0.7482  0.3175  0.3871
   76TMC2    C6 1183   0.416   4.185  12.363 -0.0632 -0.3505  0.6866
   76TMC2     C 1184   0.300   4.401  12.026  0.6508 -0.3541  1.0244
   76TMC2     O 1185   0.180   4.415  12.031 -0.5055  0.3648  0.1091
   76TMC2     H 1186   0.139   4.283  12.199  0.0204  0.1546  1.7051
   76TMC2    H1 1187   0.558   4.353  12.108  0.2150  0.8427  0.3317
   76TMC2    H2 1188   0.448   4.126  12.448 -0.6443 -1.1341  0.3605
   76TMC2    C7 1189   0.648   4.199  12.287 -0.0326  0.2292 -0.2762
   76TMC2    C8 1190   0.211   4.255  12.455  0.2277  0.3430  0.0624
   76TMC2    O1 1191   0.708   4.192  12.179 -0.5851  0.5692 -0.1241
   76TMC2    O2 1192   0.109   4.321  12.437 -0.3585  0.0662 -0.3761
   76TMC2    O5 1193   0.231   4.168  12.556  0.4443 -0.1516  0.3733
   76TMC2    H5 1194   0.294   4.092  12.548  0.3250 -0.2596  0.4629
   77MPD2     C 1195   0.361   4.631  11.574  0.0747  0.8060  0.2463
   77MPD2    C1 1196   0.248   4.625  11.651 -0.1580 -1.2569  0.3170
   77MPD2    C2 1197   0.255   4.562  11.772 -0.0216 -0.4315 -0.0933
   77MPD2    C3 1198   0.371   4.497  11.808 -0.4903 -0.3308 -0.3096
   77MPD2    C4 1199   0.486   4.515  11.734  0.7557 -0.3116  0.3521
   77MPD2    C5 1200   0.475   4.580  11.617 -0.2451  0.5850 -0.0894
   77MPD2     H 1201   0.169   4.578  11.837  1.6778  1.8683  1.5930
   77MPD2    H1 1202   0.580   4.470  11.765  0.7507  0.0617  0.9028
   77MPD2    H2 1203   0.354   4.687  11.481 -1.4648  1.2811  0.6445
   77MPD2    H3 1204   0.565   4.593  11.558 -0.3663 -2.1757 -0.8476
   77MPD2     N 1205   0.394   4.428  11.929 -0.6883 -0.2167  0.3846
   77MPD2    H5 1206   0.486   4.388  11.939 -0.9181 -0.9883 -0.4939
   77MPD2    N1 1207   0.124   4.691  11.602  0.7772 -0.2658  0.1609
   77MPD2    H7 1208   0.125   4.739  11.513  1.4770  1.6121  1.1593
   78TMC2    C1 1209   0.841   4.435   1.360  0.9761 -0.7813 -0.1887
   78TMC2    C2 1210   0.830   4.295   1.361 -0.5136  0.0835  0.6131
   78TMC2    C3 1211   0.947   4.222   1.381  0.1255 -0.3802 -0.4992
   78TMC2    C4 1212   0.962   4.498   1.358 -0.2287  0.4000  0.3686
   78TMC2    C5 1213   1.072   4.416   1.372 -0.2425  0.9098  0.9868
   78TMC2    C6 1214   1.069   4.279   1.390  0.4895 -0.4392 -0.0389
   78TMC2     C 1215   0.724   4.516   1.313  0.3999 -0.6244  0.4488
   78TMC2     O 1216   0.740   4.621   1.254 -0.1480  0.3504 -0.3713
   78TMC2     H 1217   0.738   4.240   1.355  0.4589 -1.5078  0.3915
   78TMC2    H1 1218   0.964   4.606   1.347  1.2548  0.3148 -0.1532
   78TMC2    H2 1219   1.154   4.212   1.399 -0.5489 -1.4211  2.5430
   78TMC2    C7 1220   1.193   4.492   1.362  0.5883 -0.3207  1.1725
   78TMC2    C8 1221   0.925   4.077   1.400  0.0651  0.0435  0.4215
   78TMC2    O1 1222   1.192   4.604   1.311  0.6516  0.1069 -0.2871
   78TMC2    O2 1223   0.857   4.008   1.325  0.0612  0.7927  0.0750
   78TMC2    O5 1224   1.026   4.038   1.481 -0.5882  0.2527  0.4294
   78TMC2    H5 1225   1.064   4.106   1.540  0.2180 -0.4500  0.7260
   79MPD1     C 1226   0.225   4.517   1.195 -0.1398  0.5013  0.2994
   79MPD1    C1 1227   0.323   4.604   1.146  0.1665 -0.1792  0.2632
   79MPD1    C2 1228   0.456   4.568   1.179 -0.2318  0.3215  0.2650
   79MPD1    C3 1229   0.476   4.470   1.281 -0.6125  0.6242  0.0810
   79MPD1    C4 1230   0.374   4.396   1.328  0.4722 -0.0185  0.2285
   79MPD1    C5 1231   0.250   4.414   1.276 -0.1131 -0.1265  0.1842
   79MPD1     H 1232   0.540   4.626   1.142 -0.5557  0.3125 -0.4870
   79MPD1    H1 1233   0.383   4.323   1.408  1.0414  0.3069  0.4596
   79MPD1    H2 1234   0.121   4.519   1.164 -0.0337  1.9337  0.0516
   79MPD1    H3 1235   0.163   4.359   1.310 -1.3409  2.2599  0.8520
   79MPD1     N 1236   0.607   4.444   1.337  0.0007 -0.6766  0.2049
   79MPD1    H5 1237   0.608   4.367   1.403 -2.5938  0.2602  1.3678
   79MPD1    N1 1238   0.288   4.715   1.068 -0.0386 -0.0591  0.3313
   79MPD1    H6 1239   0.196   0.012   1.093 -0.5318 -0.3439 -1.1004
   79MPD1    H7 1240   0.369   0.036   1.075 -1.7356  2.2114  0.4513
   80TMC2    C1 1241   4.119   4.091  11.849 -0.6552  0.0551 -0.3437
   80TMC2    C2 1242   4.156   4.069  11.720 -0.4164 -0.5169 -0.8446
   80TMC2    C3 1243   4.066   4.001  11.642  0.0609  0.0110  0.7273
   80TMC2    C4 1244   3.998   4.060  11.900  0.6239  0.5412 -0.4017
   80TMC2    C5 1245   3.908   4.001  11.810  0.0581 -0.7605  0.9960
   80TMC2    C6 1246   3.938   3.979  11.681  0.2534 -0.0506  0.0025
   80TMC2     C 1247   4.228   4.137  11.943 -0.1684  0.0902 -0.5960
   80TMC2     O 1248   4.337   4.158  11.885  0.6042 -0.2166 -0.0106
   80TMC2     H 1249   4.257   4.094  11.687 -0.3599  0.2000 -0.1392
   80TMC2    H1 1250   3.960   4.093  11.996  3.8033 -1.2901  1.4765
   80TMC2    H2 1251   3.867   3.953  11.603  0.9789 -0.5050 -0.5102
   80TMC2    C7 1252   3.796   3.937  11.857  0.0731  0.8267  0.5021
   80TMC2    C8 1253   4.114   3.978  11.505 -0.2219  0.1208  0.1958
   80TMC2    O1 1254   3.709   3.918  11.776 -0.1954  0.1049  0.4719
   80TMC2    O2 1255   4.205   4.044  11.457 -0.4435  0.1344 -0.4882
   80TMC2    O5 1256   4.028   3.895  11.445  0.4727 -0.1047  0.2933
   80TMC2    H5 1257   3.998   3.830  11.512 -1.5135  0.7545  0.2567
   81MPD2     C 1258   4.429   4.202  12.162 -0.0394 -0.2433  0.1319
   81MPD2    C1 1259   4.293   4.189  12.183 -0.2184  0.0139  0.5290
   81MPD2    C2 1260   4.245   4.191  12.309  0.1950 -0.1700 -0.1312
   81MPD2    C3 1261   4.318   4.230  12.420 -0.4366  0.2043  0.2904
   81MPD2    C4 1262   4.454   4.255  12.401 -0.3836 -0.0909 -0.4687
   81MPD2    C5 1263   4.503   4.236  12.273 -0.1197  0.1041  0.7727
   81MPD2     H 1264   4.141   4.163  12.319 -0.0094  0.3470 -0.7843
   81MPD2    H1 1265   4.524   4.274  12.481 -0.8387  0.2703 -0.1648
   81MPD2    H2 1266   4.475   4.199  12.064  1.0862 -1.0354  0.6999
   81MPD2    H3 1267   4.608   4.247  12.250 -0.4451 -1.4134 -1.4163
   81MPD2     N 1268   4.262   4.253  12.547 -0.1855 -0.4738 -0.0253
   81MPD2    H5 1269   4.327   4.284  12.618 -1.1856  1.1935  0.1678
   81MPD2    N1 1270   4.202   4.155  12.077 -0.3491 -0.3975  0.3832
   81MPD2    H7 1271   4.107   4.134  12.106 -0.4146  0.4260  0.7525
   82TMC2    C1 1272   1.934   3.082  10.698  0.0167 -0.4693  0.8410
   82TMC2    C2 1273   2.035   3.141  10.777  0.5254  0.0645  0.4167
   82TMC2    C3 1274   2.054   3.093  10.903 -0.6283 -0.3532  0.3087
   82TMC2    C4 1275   1.863   2.979  10.744  0.8258  0.4190 -0.1521
   82TMC2    C5 1276   1.881   2.934  10.877  0.1281 -0.2800 -0.2705
   82TMC2    C6 1277   1.980   2.992  10.961  0.0874 -0.8955 -0.2589
   82TMC2     C 1278   1.889   3.140  10.576 -0.1657  0.0641 -0.1439
   82TMC2     O 1279   1.784   3.103  10.527 -0.5613 -0.2653 -1.1208
   82TMC2     H 1280   2.086   3.234  10.754  0.0166  0.1539 -0.3702
   82TMC2    H1 1281   1.807   2.925  10.668 -1.3634  1.5363  0.6529
   82TMC2    H2 1282   1.986   2.967  11.066  1.2744 -2.2040 -0.6446
   82TMC2    C7 1283   1.798   2.837  10.949 -0.2669  0.4223  0.6491
   82TMC2    C8 1284   2.120   3.182  10.992  0.6791  0.2028 -0.8567
   82TMC2    O1 1285   1.824   2.831  11.068 -0.4133 -0.2277 -0.1140
   82TMC2    O2 1286   2.103   3.302  10.993 -0.0078 -0.2384 -0.5897
   82TMC2    O5 1287   2.194   3.106  11.076 -0.1012  0.2983  0.7477
   82TMC2    H5 1288   2.202   3.012  11.050 -1.7578 -0.1572  1.8654
   83MPD2     C 1289   1.902   3.520  10.257  0.9510 -0.2442  0.4056
   83MPD2    C1 1290   1.805   3.486  10.345  0.7460 -0.1710  0.1009
   83MPD2    C2 1291   1.836   3.384  10.430  0.2010 -0.0350  0.2103
   83MPD2    C3 1292   1.963   3.327  10.438  0.1614 -0.5883  0.3935
   83MPD2    C4 1293   2.067   3.374  10.357 -0.1379 -0.1761 -0.4745
   83MPD2    C5 1294   2.029   3.468  10.264 -0.5669  0.7840 -0.1515
   83MPD2     H 1295   1.757   3.350  10.496  0.2489 -0.0184  0.2772
   83MPD2    H1 1296   2.166   3.333  10.345 -0.6627 -1.6060  0.1127
   83MPD2    H2 1297   1.890   3.599  10.184  1.2293 -0.5703  0.0098
   83MPD2    H3 1298   2.101   3.505  10.192 -1.9448  1.1408 -1.3584
   83MPD2     N 1299   1.985   3.221  10.524 -0.7218  0.0341  0.2486
   83MPD2    H5 1300   2.076   3.208  10.566  0.2787  1.4559 -1.5071
   83MPD2    N1 1301   1.681   3.551  10.313  0.4024  0.1201 -0.0429
   83MPD2    H7 1302   1.685   3.611  10.232  2.4661  1.0427  0.7381
   84TMC2    C1 1303   3.103   2.692  10.930 -0.0294 -0.2709  0.3930
   84TMC2    C2 1304   2.978   2.636  10.941  0.0720  0.4093 -0.0561
   84TMC2    C3 1305   2.914   2.596  10.825  0.2071  0.0208 -0.1303
   84TMC2    C4 1306   3.176   2.684  10.816  0.0500 -0.2142 -0.1809
   84TMC2    C5 1307   3.113   2.638  10.705 -0.2841 -0.7470  0.4988
   84TMC2    C6 1308   2.977   2.602  10.706 -0.6093  1.0136  0.0658
   84TMC2     C 1309   3.153   2.757  11.049 -0.0437  0.3850 -0.2535
   84TMC2     O 1310   3.071   2.794  11.135  0.1738  0.2505  0.6506
   84TMC2     H 1311   2.921   2.628  11.032  0.8896 -0.5628  0.3729
   84TMC2    H1 1312   3.263   2.748  10.814 -0.9081  1.2343  3.3121
   84TMC2    H2 1313   2.925   2.598  10.611 -0.9473  0.3870  0.2755
   84TMC2    C7 1314   3.164   2.674  10.571 -0.8365  0.2269 -0.2869
   84TMC2    C8 1315   2.775   2.648  10.826 -0.2679  0.3857  0.0415
   84TMC2    O1 1316   3.094   2.643  10.477 -0.2239 -0.0594  0.1996
   84TMC2    O2 1317   2.721   2.698  10.929  0.4874 -0.5900  0.1681
   84TMC2    O5 1318   2.708   2.604  10.714  0.2599  0.2201 -0.4618
   84TMC2    H5 1319   2.749   2.537  10.656 -1.2942 -0.7432 -0.4507
   85TMC2    C1 1320   4.318   1.114  15.951  0.0907 -0.2334  0.5297
   85TMC2    C2 1321   4.224   1.215  15.942 -0.5505 -0.1630  0.0425
   85TMC2    C3 1322   4.253   1.325  15.859  0.5198 -0.5195  0.2661
   85TMC2    C4 1323   4.431   1.124  15.877  0.1884 -0.1573 -0.7158
   85TMC2    C5 1324   4.455   1.224  15.786  0.2544  0.2459 -0.3866
   85TMC2    C6 1325   4.367   1.325  15.779  0.0816  0.1683 -0.8409
   85TMC2     C 1326   4.287   0.992  16.022 -0.3250 -0.0270  0.4207
   85TMC2     O 1327   4.372   0.900  16.024 -0.2914  0.4924  0.0529
   85TMC2     H 1328   4.161   1.228  16.029  0.5648 -1.6694  1.0639
   85TMC2    H1 1329   4.505   1.045  15.885 -0.5523 -0.7711 -0.0414
   85TMC2    H2 1330   4.378   1.412  15.714 -0.0107  0.6602 -0.1942
   85TMC2    C7 1331   4.553   1.211  15.676  0.6506 -0.4057 -0.0827
   85TMC2    C8 1332   4.156   1.431  15.853  0.2654 -0.6580 -0.2204
   85TMC2    O1 1333   4.626   1.114  15.684 -0.1673  0.4073 -0.3457
   85TMC2    O2 1334   4.186   1.545  15.813 -0.0764 -0.2522 -0.0541
   85TMC2    O5 1335   4.038   1.390  15.892 -0.5817  0.4843 -0.1152
   85TMC2    H5 1336   4.039   1.294  15.912 -0.1650  0.5383  0.1055
   86MPD2     C 1337   4.040   0.719  16.350 -0.4761  0.5282 -0.0911
   86MPD2    C1 1338   3.946   0.764  16.258 -0.1546 -0.0062 -0.6079
   86MPD2    C2 1339   3.986   0.855  16.166 -0.1145  0.2939 -1.0355
   86MPD2    C3 1340   4.118   0.898  16.161  0.1033  0.2858 -0.1341
   86MPD2    C4 1341   4.210   0.859  16.256  0.3613  0.1859 -0.1285
   86MPD2    C5 1342   4.168   0.769  16.350  0.1470  0.3242  0.3163
   86MPD2     H 1343   3.919   0.889  16.088  0.1228 -0.6919 -1.6717
   86MPD2    H1 1344   4.312   0.895  16.263  1.2362 -2.3536  0.3509
   86MPD2    H2 1345   4.022   0.636  16.417 -0.1100  1.1489  0.7755
   86MPD2    H3 1346   4.243   0.739  16.422 -0.8857 -1.4203  0.6666
   86MPD2     N 1347   4.155   0.980  16.054  0.7369  0.2763 -0.5324
   86MPD2    H5 1348   4.081   1.039  16.019 -0.1696  1.6198  3.6607
   86MPD2    N1 1349   3.815   0.721  16.257 -0.4207 -0.6583  0.1439
   86MPD2    H7 1350   3.755   0.750  16.180  0.0639 -1.2645 -0.4716
   87TMC2    C1 1351   1.541   3.581   1.001 -0.2826 -0.3068 -0.4703
   87TMC2    C2 1352   1.590   3.537   1.118  0.8468 -0.0133 -0.9306
   87TMC2    C3 1353   1.623   3.640   1.207 -0.1399 -0.1931  0.0047
   87TMC2    C4 1354   1.523   3.716   0.974 -0.1140 -0.1162  0.9196
   87TMC2    C5 1355   1.573   3.807   1.062  0.5245  0.7631  0.6866
   87TMC2    C6 1356   1.621   3.773   1.181  0.5447 -0.4914 -1.0263
   87TMC2     C 1357   1.515   3.485   0.889  0.3276 -0.4828 -0.0370
   87TMC2     O 1358   1.473   3.372   0.916  0.4540  0.2456  0.1898
   87TMC2     H 1359   1.585   3.434   1.151  0.4777  1.0867  2.5032
   87TMC2    H1 1360   1.465   3.745   0.888 -0.4580 -4.8015 -0.4354
   87TMC2    H2 1361   1.636   3.840   1.265  0.9961 -1.4349 -0.3645
   87TMC2    C7 1362   1.524   3.939   1.036  0.2126  0.4609  0.1351
   87TMC2    C8 1363   1.704   3.604   1.328  0.3418  0.7667 -0.5900
   87TMC2    O1 1364   1.442   3.951   0.949  0.0141 -0.3235  0.4874
   87TMC2    O2 1365   1.763   3.691   1.390  0.3316 -0.2982  0.0119
   87TMC2    O5 1366   1.687   3.473   1.370  0.3886  0.2087 -0.4619
   87TMC2    H5 1367   1.600   3.438   1.342  0.5908 -1.6788  1.2734
   88MPD2     C 1368   1.673   4.261   1.140 -0.4974 -0.8709  0.0370
   88MPD2    C1 1369   1.577   4.169   1.099  0.3504  0.0023 -0.3473
   88MPD2    C2 1370   1.455   4.212   1.054 -0.2517 -0.1000 -0.0175
   88MPD2    C3 1371   1.426   4.350   1.049 -0.6059  0.6232 -0.0071
   88MPD2    C4 1372   1.525   4.439   1.072  0.1205 -0.5494  0.3210
   88MPD2    C5 1373   1.645   4.398   1.125 -0.4891 -0.0542  0.2734
   88MPD2     H 1374   1.375   4.143   1.032 -0.9070  0.7553 -0.3042
   88MPD2    H1 1375   1.507   4.545   1.081 -0.5424 -0.8344  2.5707
   88MPD2    H2 1376   1.774   4.229   1.161  0.2105  0.8138 -0.7322
   88MPD2    H3 1377   1.714   4.475   1.158 -0.8120 -0.2772  1.4454
   88MPD2     N 1378   1.304   4.407   1.021  0.5565  0.0000 -0.0789
   88MPD2    H5 1379   1.311   4.507   1.007  4.0637 -0.4708 -1.7667
   88MPD2    N1 1380   1.606   4.032   1.102 -0.2815 -0.0554 -0.1555
   88MPD2    H7 1381   1.690   4.000   1.147  0.0047 -1.6333 -1.7902
   89TMC2    C1 1382   2.929   1.983   0.952 -0.5669  0.1672  0.1838
   89TMC2    C2 1383   2.996   2.009   0.840 -0.5105  0.5738  0.2783
   89TMC2    C3 1384   3.019   2.136   0.799  0.3134 -0.1323  0.2817
   89TMC2    C4 1385   2.882   2.091   1.024  0.8331  0.2252 -0.9848
   89TMC2    C5 1386   2.886   2.211   0.968 -0.7130 -0.0707 -0.0666
   89TMC2    C6 1387   2.971   2.241   0.867  0.0040  0.0847 -0.5132
   89TMC2     C 1388   2.851   1.860   0.955 -0.2830 -0.8420  0.1386
   89TMC2     O 1389   2.893   1.771   0.879 -0.6421 -0.7167  0.5278
   89TMC2     H 1390   3.046   1.928   0.788 -0.0697  0.2608  1.1968
   89TMC2    H1 1391   2.835   2.086   1.122  0.2704  0.4675 -1.2435
   89TMC2    H2 1392   2.979   2.341   0.825 -3.0368  0.6523  0.2195
   89TMC2    C7 1393   2.753   2.267   0.970 -0.5269 -0.6046 -0.7974
   89TMC2    C8 1394   3.132   2.137   0.708  0.0674 -0.5808  0.3375
   89TMC2    O1 1395   2.663   2.190   0.994  0.0853 -0.4794 -0.3896
   89TMC2    O2 1396   3.179   2.036   0.660 -0.6237  0.6499  0.2430
   89TMC2    O5 1397   3.214   2.238   0.723  0.0931  0.4589 -0.2080
   89TMC2    H5 1398   3.187   2.313   0.780 -2.8161 -0.0930 -0.8807
   90MPD2     C 1399   2.471   1.574   1.097 -0.3398 -0.2633  0.1819
   90MPD2    C1 1400   2.439   1.699   1.146 -0.4327 -0.2952  0.3953
   90MPD2    C2 1401   2.537   1.796   1.126  0.6668 -0.8241 -0.9999
   90MPD2    C3 1402   2.661   1.760   1.076  0.9104 -0.0110 -0.6310
   90MPD2    C4 1403   2.690   1.632   1.043 -0.1786 -0.5144 -0.4514
   90MPD2    C5 1404   2.594   1.542   1.045 -1.1534  0.0474 -0.2084
   90MPD2     H 1405   2.522   1.901   1.145  1.0043 -0.7500 -1.1314
   90MPD2    H1 1406   2.785   1.603   0.999 -0.2200 -0.6759 -0.4304
   90MPD2    H2 1407   2.394   1.498   1.101 -0.1000 -0.5997 -2.1015
   90MPD2    H3 1408   2.612   1.447   0.997  0.4898  0.2532  0.0039
   90MPD2     N 1409   2.759   1.861   1.053 -0.2093  0.3568  0.6808
   90MPD2    H5 1410   2.736   1.947   1.101 -1.9726  0.1861  0.1604
   90MPD2    N1 1411   2.309   1.739   1.186 -0.2260 -0.0011  0.3220
   90MPD2    H7 1412   2.309   1.838   1.208 -0.6813  0.2434 -0.7775
   91TMC2    C1 1413   3.765   2.511  15.913 -0.3478  0.6787 -0.4780
   91TMC2    C2 1414   3.705   2.634  15.905 -0.1057  0.0979  0.2651
   91TMC2    C3 1415   3.627   2.675  16.013 -0.7729 -0.2386  0.2841
   91TMC2    C4 1416   3.718   2.433  16.016  0.3668 -0.6626 -0.2086
   91TMC2    C5 1417   3.637   2.473  16.114  0.1403  0.2303 -0.5012
   91TMC2    C6 1418   3.594   2.601  16.123  0.1678 -0.6525 -0.3039
   91TMC2     C 1419   3.798   2.446  15.784 -0.3944 -0.4262  0.2143
   91TMC2     O 1420   3.703   2.407  15.719 -1.3157 -0.1716 -0.0145
   91TMC2     H 1421   3.745   2.696  15.824 -0.8870 -1.4936 -1.3304
   91TMC2    H1 1422   3.758   2.332  16.014 -0.0244 -0.8383  0.7326
   91TMC2    H2 1423   3.520   2.638  16.193 -0.6705 -1.4105 -0.7845
   91TMC2    C7 1424   3.557   2.378  16.187  0.3576  0.0047 -0.2298
   91TMC2    C8 1425   3.631   2.815  16.041 -0.2052 -0.6220  0.2668
   91TMC2    O1 1426   3.500   2.421  16.285  0.1762 -0.4367  0.1245
   91TMC2    O2 1427   3.619   2.859  16.155  0.4755 -0.0008  0.3784
   91TMC2    O5 1428   3.620   2.883  15.927  0.7684 -0.1054 -0.1247
   91TMC2    H5 1429   3.614   2.822  15.851  2.3464  0.2198 -0.5021
   92MPD2     C 1430   3.919   2.235  15.607  0.4100  0.4513 -0.5790
   92MPD2    C1 1431   3.982   2.291  15.718  0.0838  0.8823  0.3242
   92MPD2    C2 1432   4.104   2.239  15.759 -0.1894  0.1890 -0.5483
   92MPD2    C3 1433   4.147   2.120  15.701  0.0448  0.0104  0.0457
   92MPD2    C4 1434   4.082   2.068  15.597  0.6816  0.2404  0.1725
   92MPD2    C5 1435   3.965   2.119  15.551  0.2812 -0.3408 -0.1150
   92MPD2     H 1436   4.162   2.277  15.842 -0.0257  2.4782 -1.7383
   92MPD2    H1 1437   4.122   1.984  15.541  4.5908  1.7744  0.6499
   92MPD2    H2 1438   3.821   2.275  15.581 -0.7904 -0.1999  2.9554
   92MPD2    H3 1439   3.907   2.074  15.471  0.7505 -0.2776 -0.4928
   92MPD2     N 1440   4.263   2.064  15.759 -0.4778  0.0141  0.1910
   92MPD2    H5 1441   4.311   2.128  15.822 -0.3412 -0.6123  0.7129
   92MPD2    N1 1442   3.927   2.407  15.783  0.5114 -0.6544  0.4132
   92MPD2    H7 1443   3.986   2.437  15.860 -0.4066  0.9542  0.4821
   93TMC2    C1 1444   0.869   1.754  14.293 -0.0377  0.3098 -0.3810
   93TMC2    C2 1445   0.936   1.700  14.394  0.0871  0.5806 -0.4140
   93TMC2    C3 1446   1.064   1.735  14.411  0.2523  0.3938 -0.0474
   93TMC2    C4 1447   0.926   1.836  14.200  0.6943 -0.2972 -0.8935
   93TMC2    C5 1448   1.058   1.869  14.216  0.9208  0.1317 -1.3259
   93TMC2    C6 1449   1.135   1.813  14.321  0.0137 -0.3811  0.9220
   93TMC2     C 1450   0.729   1.709  14.288 -0.0616 -0.6982 -0.5474
   93TMC2     O 1451   0.663   1.684  14.387 -0.1002 -0.0101  0.1036
   93TMC2     H 1452   0.899   1.634  14.472  1.0181 -0.1407 -0.5730
   93TMC2    H1 1453   0.868   1.891  14.127 -0.2167 -1.3731 -0.9694
   93TMC2    H2 1454   1.242   1.831  14.333 -0.0689 -0.1799  1.3519
   93TMC2    C7 1455   1.125   1.935  14.103  1.2376 -0.6559 -0.0554
   93TMC2    C8 1456   1.135   1.661  14.512 -0.1364 -0.0494  0.1915
   93TMC2    O1 1457   1.073   1.921  13.988 -0.3115  0.3755 -0.0654
   93TMC2    O2 1458   1.250   1.632  14.495  0.0981 -0.5168 -0.0184
   93TMC2    O5 1459   1.070   1.678  14.627  0.0242 -0.2853 -0.6785
   93TMC2    H5 1460   0.983   1.722  14.620  0.3660  0.1676 -2.1627
   94MPD2     C 1461   0.475   1.599  14.193 -0.6885  0.2231  0.3674
   94MPD2    C1 1462   0.574   1.649  14.112  0.0370 -0.3782  0.0251
   94MPD2    C2 1463   0.552   1.636  13.976 -0.0155  0.1110 -0.4865
   94MPD2    C3 1464   0.430   1.593  13.920 -0.1287 -0.2764 -0.6254
   94MPD2    C4 1465   0.328   1.557  14.008 -0.3605 -0.0292 -0.2899
   94MPD2    C5 1466   0.357   1.555  14.142 -0.0292 -0.2016  0.8873
   94MPD2     H 1467   0.629   1.674  13.911 -2.6764  2.9640 -1.9473
   94MPD2    H1 1468   0.228   1.527  13.980  0.2264 -1.0741 -1.2639
   94MPD2    H2 1469   0.482   1.592  14.301  1.7388 -0.6874  0.1582
   94MPD2    H3 1470   0.285   1.509  14.209 -0.2043 -2.4994 -0.8889
   94MPD2     N 1471   0.392   1.585  13.784 -0.8316  0.0919 -0.0103
   94MPD2    H5 1472   0.301   1.546  13.762 -0.8540 -0.5578  1.2058
   94MPD2    N1 1473   0.698   1.692  14.161  0.0839  0.7837 -0.4935
   94MPD2    H7 1474   0.764   1.726  14.091  0.8461  1.8774  0.7706
   95TMC2    C1 1475   0.506   3.609  15.516  0.5738  0.1977 -0.3623
   95TMC2    C2 1476   0.438   3.498  15.530  0.4909  0.3083  0.0574
   95TMC2    C3 1477   0.349   3.461  15.424  0.4508 -0.4980 -0.1632
   95TMC2    C4 1478   0.489   3.686  15.409  0.7263  0.4033 -0.7549
   95TMC2    C5 1479   0.386   3.662  15.315  0.3367 -0.3062 -0.5935
   95TMC2    C6 1480   0.315   3.543  15.326 -0.4628 -0.8460 -0.2304
   95TMC2     C 1481   0.640   3.617  15.578 -0.2996 -0.9121  0.2189
   95TMC2     O 1482   0.728   3.689  15.532  0.0515 -0.1922  0.0150
   95TMC2     H 1483   0.476   3.415  15.589 -0.0576  0.0426  0.0349
   95TMC2    H1 1484   0.547   3.777  15.406  1.3562  0.0745  1.4458
   95TMC2    H2 1485   0.242   3.512  15.253 -0.4142 -0.2512 -0.5299
   95TMC2    C7 1486   0.394   3.730  15.183  0.2766 -0.0076 -0.0515
   95TMC2    C8 1487   0.278   3.329  15.430 -0.1496  0.2116 -0.3647
   95TMC2    O1 1488   0.325   3.673  15.099 -0.0432  0.0110 -0.1339
   95TMC2    O2 1489   0.254   3.273  15.533 -0.5142 -0.0932  0.8457
   95TMC2    O5 1490   0.296   3.263  15.310  0.2248 -0.0626 -0.4351
   95TMC2    H5 1491   0.313   3.317  15.229 -0.6566  3.2229  1.5745
   96MPD2     C 1492   0.958   3.580  15.982  0.1095  0.3503  0.2684
   96MPD2    C1 1493   0.977   3.622  15.852  0.3444 -0.4442  0.1141
   96MPD2    C2 1494   0.884   3.600  15.762 -0.3699  0.6294 -0.6824
   96MPD2    C3 1495   0.758   3.562  15.802  0.2375  0.5358 -0.0438
   96MPD2    C4 1496   0.734   3.517  15.928  1.2464  0.1521  0.0650
   96MPD2    C5 1497   0.841   3.515  16.016 -0.8438  0.0062 -0.0727
   96MPD2     H 1498   0.902   3.625  15.658  1.4420  0.2039 -0.4774
   96MPD2    H1 1499   0.635   3.486  15.959  1.7990 -0.6813  1.0165
   96MPD2    H2 1500   1.043   3.586  16.049  0.4046 -2.7814  0.1739
   96MPD2    H3 1501   0.835   3.476  16.117  2.8240  2.5036  1.1113
   96MPD2     N 1502   0.643   3.563  15.709 -0.5175  0.3649  0.1136
   96MPD2    H5 1503   0.552   3.537  15.745 -0.3650 -1.5973 -0.8975
   96MPD2    N1 1504   1.088   3.700  15.811 -0.0448 -0.4395  0.2949
   96MPD2    H7 1505   1.086   3.739  15.717 -2.2578  1.0702  0.9524
   97TMC2    C1 1506   2.864   1.879   0.036 -0.0146 -1.2014 -0.3401
   97TMC2    C2 1507   2.738   1.934   0.045 -0.0100  0.3213 -0.0087
   97TMC2    C3 1508   2.726   2.071   0.035 -0.3640 -0.5490  0.0195
   97TMC2    C4 1509   2.970   1.958  17.753 -0.3923  0.1362 -0.3678
   97TMC2    C5 1510   2.959   2.092  17.737 -0.2835 -0.6522 -0.5167
   97TMC2    C6 1511   2.828   2.145  17.745  0.6124 -0.4488  0.0486
   97TMC2     C 1512   2.878   1.736   0.058 -0.2717 -0.6218  0.4003
   97TMC2     O 1513   2.783   1.687   0.120 -0.2898 -0.5014  0.3051
   97TMC2     H 1514   2.650   1.871   0.039  0.1819  0.0414  0.1045
   97TMC2    H1 1515   3.072   1.920  17.749 -0.7824 -1.0836  1.0538
   97TMC2    H2 1516   2.815   2.252  17.735  0.1596 -0.6645 -1.5477
   97TMC2    C7 1517   3.080   2.177  17.732  0.2039  0.5375 -0.5854
   97TMC2    C8 1518   2.598   2.122   0.017 -0.2882  0.6266 -0.3812
   97TMC2    O1 1519   3.189   2.130   0.005 -0.3984  0.9672  0.5058
   97TMC2    O2 1520   2.572   2.224  17.707  0.4310 -0.1624  0.3136
   97TMC2    O5 1521   2.510   2.037   0.071  0.0665 -0.3777 -0.2028
   97TMC2    H5 1522   2.559   1.977   0.132 -0.2793 -0.7323 -0.2709
   98MPD2     C 1523   3.108   1.282   0.013  0.5247  0.9683 -0.5797
   98MPD2    C1 1524   3.015   1.332   0.104 -0.3753 -0.1635 -0.1957
   98MPD2    C2 1525   2.974   1.466   0.100  0.1293 -0.1343  0.5256
   98MPD2    C3 1526   3.023   1.542  17.749 -0.1901  0.4257 -0.0592
   98MPD2    C4 1527   3.121   1.493  17.668  0.0456  0.2257 -0.0490
   98MPD2    C5 1528   3.173   1.364  17.684 -0.0799 -0.1311 -0.0485
   98MPD2     H 1529   2.901   1.499   0.173 -0.8571  0.7067 -0.8417
   98MPD2    H1 1530   3.169   1.561  17.598  0.4354  0.7992  0.7645
   98MPD2    H2 1531   3.138   1.178   0.010 -0.1289  0.7684 -0.3483
   98MPD2    H3 1532   3.254   1.333  17.620  1.0891  2.8578 -0.0201
   98MPD2     N 1533   2.981   1.678  17.740 -0.8540  0.2899  0.4552
   98MPD2    H5 1534   3.032   1.736  17.674 -1.4943  0.0134 -0.2791
   98MPD2    N1 1535   2.954   1.247   0.202  0.7255  0.0423  0.4430
   98MPD2    H7 1536   2.888   1.295   0.264  0.7991 -0.1161  0.6445
   99TMC2    C1 1537   2.303   2.677   1.515 -0.4548 -0.5881  0.3043
   99TMC2    C2 1538   2.324   2.582   1.422  0.0048 -0.0626  0.7186
   99TMC2    C3 1539   2.218   2.507   1.373 -0.0453 -0.5720 -0.3285
   99TMC2    C4 1540   2.174   2.692   1.556 -0.2380  0.3782  1.0953
   99TMC2    C5 1541   2.072   2.619   1.507 -0.3742  0.3588 -0.9774
   99TMC2    C6 1542   2.094   2.528   1.414  0.4529 -0.3105 -0.6747
   99TMC2     C 1543   2.376   2.803   1.509  0.4561 -0.6572 -0.7057
   99TMC2     O 1544   2.427   2.855   1.611  0.0684  0.5439 -0.6539
   99TMC2     H 1545   2.416   2.566   1.367  0.4053  1.4250  0.9538
   99TMC2    H1 1546   2.144   2.775   1.619  0.5169  0.4897  1.3034
   99TMC2    H2 1547   2.021   2.449   1.399  0.1266 -0.3373  1.0193
   99TMC2    C7 1548   1.940   2.637   1.567 -0.1883  0.2303 -0.0850
   99TMC2    C8 1549   2.246   2.427   1.255 -0.2299  0.4267 -0.4064
   99TMC2    O1 1550   1.937   2.676   1.682 -0.3409  0.1110 -0.3430
   99TMC2    O2 1551   2.361   2.384   1.241 -0.0156  0.1448 -0.3739
   99TMC2    O5 1552   2.129   2.378   1.198  0.3889  0.7399 -0.8587
   99TMC2    H5 1553   2.048   2.432   1.214 -2.4245 -3.6181 -0.3591
  100MPD2     C 1554   2.476   3.075   1.415 -0.1092  0.3837  0.3659
  100MPD2    C1 1555   2.387   2.997   1.344 -0.1923  0.4055  0.3474
  100MPD2    C2 1556   2.338   3.055   1.226  0.4838  0.0424 -0.1260
  100MPD2    C3 1557   2.362   3.188   1.186  0.5831 -0.2725  0.2457
  100MPD2    C4 1558   2.465   3.248   1.251  0.0446  0.6070  0.5024
  100MPD2    C5 1559   2.520   3.200   1.366 -0.0331  0.5189 -0.2679
  100MPD2     H 1560   2.262   3.001   1.172  3.5259 -2.2223 -2.1278
  100MPD2    H1 1561   2.502   3.343   1.214 -1.3903  0.9023 -0.1624
  100MPD2    H2 1562   2.531   3.032   1.499 -1.3129  1.3062  1.6251
  100MPD2    H3 1563   2.600   3.251   1.419 -0.5252  1.9298 -0.8785
  100MPD2     N 1564   2.307   3.232   1.063  0.5682  0.9703  0.5901
  100MPD2    H5 1565   2.237   3.165   1.032 -1.2350  2.3227  1.7399
  100MPD2    N1 1566   2.338   2.869   1.386  0.2402 -0.1034 -0.4986
  100MPD2    H7 1567   2.259   2.827   1.339 -0.1091  0.0975 -0.0903
  101TMC2    C1 1568   2.682   4.617  12.856 -0.0792  0.2468  0.2556
  101TMC2    C2 1569   2.564   4.674  12.817  0.2921  0.3833 -0.5362
  101TMC2    C3 1570   2.579   0.062  12.768 -0.4552  0.1267 -0.2755
  101TMC2    C4 1571   2.802   4.678  12.854 -0.1839  1.0963 -0.9683
  101TMC2    C5 1572   2.802   0.066  12.807  0.5890 -0.5863  0.1819
  101TMC2    C6 1573   2.691   0.126  12.758  0.5959  0.3271 -0.0962
  101TMC2     C 1574   2.664   4.475  12.893  0.5866 -0.3179  0.3822
  101TMC2     O 1575   2.551   4.450  12.927  0.2813  0.1048 -0.2047
  101TMC2     H 1576   2.471   4.621  12.804  0.1828  0.5338 -0.3591
  101TMC2    H1 1577   2.886   4.616  12.882  0.5208  2.2374 -0.5529
  101TMC2    H2 1578   2.700   0.229  12.729  0.2428  0.4830  0.3449
  101TMC2    C7 1579   2.929   0.130  12.779 -0.4330  0.1347 -0.6154
  101TMC2    C8 1580   2.473   0.120  12.691 -0.1884  0.4257  0.7584
  101TMC2    O1 1581   2.941   0.178  12.669  0.2749  0.4319  0.4008
  101TMC2    O2 1582   2.452   0.241  12.682 -0.4809 -0.0097  0.3594
  101TMC2    O5 1583   2.453   0.031  12.589  0.3060  0.3000  0.8218
  101TMC2    H5 1584   2.513   4.693  12.585  0.8460  0.7988 -0.6324
  102MPD2     C 1585   2.884   4.173  12.837 -0.0385 -0.3966  0.7664
  102MPD2    C1 1586   2.778   4.247  12.886  0.3287 -0.0206  0.4665
  102MPD2    C2 1587   2.671   4.176  12.950  0.1380 -0.4102  0.3005
  102MPD2    C3 1588   2.677   4.043  12.961  0.1766  0.2533  0.6092
  102MPD2    C4 1589   2.788   3.972  12.915 -0.2991  0.4715 -0.0249
  102MPD2    C5 1590   2.890   4.041  12.859  0.2462 -0.5369  0.1992
  102MPD2     H 1591   2.579   4.221  12.985 -0.8200  0.6296 -3.6632
  102MPD2    H1 1592   2.791   3.864  12.926  0.0820  0.3501 -1.4037
  102MPD2    H2 1593   2.966   4.221  12.785  0.5437 -0.8869  1.2481
  102MPD2    H3 1594   2.974   3.993  12.811  1.2220  2.3457 -0.9722
  102MPD2     N 1595   2.565   3.977  13.006  0.2375 -0.3895  0.1923
  102MPD2    H5 1596   2.486   4.036  13.033  1.5475  1.2658  0.3674
  102MPD2    N1 1597   2.772   4.390  12.874 -0.1926  0.7233 -0.4434
  102MPD2    H7 1598   2.855   4.429  12.832  0.0610 -0.6867 -1.2668
  103TMC2    C1 1599   1.052   4.256  12.974 -0.3523  0.2485 -0.3209
  103TMC2    C2 1600   1.166   4.174  12.973  0.0430 -0.3044 -0.3462
  103TMC2    C3 1601   1.243   4.184  13.082  0.2379 -0.7856  0.0317
  103TMC2    C4 1602   0.995   4.315  13.080 -0.1014 -0.5349  0.3162
  103TMC2    C5 1603   1.084   4.320  13.186 -0.0446 -0.1516  1.0555
  103TMC2    C6 1604   1.209   4.255  13.188  0.2974  0.6063 -0.2393
  103TMC2     C 1605   0.969   4.234  12.852 -0.2097 -0.5842  0.2559
  103TMC2     O 1606   0.849   4.232  12.870  0.1551 -0.0931 -0.0121
  103TMC2     H 1607   1.192   4.100  12.898 -1.2218 -1.9928  0.8836
  103TMC2    H1 1608   0.900   4.367  13.076 -0.2217 -0.9142 -1.8202
  103TMC2    H2 1609   1.250   4.238  13.287 -1.2563  0.4016  0.3555
  103TMC2    C7 1610   1.026   4.369  13.307 -0.1021 -0.0379  0.2370
  103TMC2    C8 1611   1.342   4.080  13.103  0.1144 -0.3920  0.3659
  103TMC2    O1 1612   0.906   4.373  13.308 -0.2654  0.1179 -0.6083
  103TMC2    O2 1613   1.340   3.972  13.047  0.6023 -1.2675 -0.4417
  103TMC2    O5 1614   1.454   4.137  13.150  0.5149 -0.4366  0.4542
  103TMC2    H5 1615   1.453   4.228  13.184  1.0162 -0.0171 -0.6383
  104MPD2     C 1616   1.109   4.158  12.522  0.5080  0.4294 -0.5644
  104MPD2    C1 1617   1.006   4.174  12.614  1.1913  0.1674 -0.4081
  104MPD2    C2 1618   0.870   4.174  12.578  0.4406  0.4238 -0.3433
  104MPD2    C3 1619   0.829   4.152  12.446 -0.3448 -0.4356 -0.3829
  104MPD2    C4 1620   0.931   4.123  12.359  0.8606 -0.5199  0.0915
  104MPD2    C5 1621   1.061   4.116  12.400 -0.0297  0.2676 -0.4608
  104MPD2     H 1622   0.794   4.205  12.648  0.8115  0.9860 -0.1919
  104MPD2    H1 1623   0.908   4.088  12.258  0.5442 -0.4670  0.1460
  104MPD2    H2 1624   1.212   4.140  12.550  0.5959  0.2189 -1.0237
  104MPD2    H3 1625   1.127   4.076  12.323  2.1570  0.8271  1.1186
  104MPD2     N 1626   0.691   4.174  12.412  0.3850 -0.6620  0.0574
  104MPD2    H5 1627   0.631   4.205  12.487 -0.2679 -1.6533 -0.0556
  104MPD2    N1 1628   1.050   4.215  12.745 -0.3050 -0.1340 -0.9526
  104MPD2    H7 1629   1.149   4.234  12.756 -0.1603 -1.1650 -0.4905
  105TMC2    C1 1630   1.950   3.631  17.674  0.4911 -0.2699  0.8566
  105TMC2    C2 1631   1.900   3.757  17.646  0.0807 -0.2026  0.1688
  105TMC2    C3 1632   1.800   3.806  17.732  0.3118  0.2000  0.3257
  105TMC2    C4 1633   1.910   3.554   0.023  0.4234  0.6768  0.0501
  105TMC2    C5 1634   1.810   3.604   0.105  0.1814 -0.1422 -0.0360
  105TMC2    C6 1635   1.761   3.729   0.091  0.1352 -0.1426 -0.8209
  105TMC2     C 1636   1.982   3.548  17.557  0.5847 -0.0540  0.1119
  105TMC2     O 1637   1.919   3.442  17.548 -0.2642  0.2253 -0.3854
  105TMC2     H 1638   1.939   3.811  17.561 -1.5116  1.4206  0.4742
  105TMC2    H1 1639   1.953   3.454   0.030  1.0080  1.0935  2.4741
  105TMC2    H2 1640   1.677   3.764   0.149  0.5033 -0.5325 -0.0564
  105TMC2    C7 1641   1.745   3.500   0.177  0.2527  0.3185  0.3433
  105TMC2    C8 1642   1.790   3.951  17.731 -0.4253  0.1457  0.3171
  105TMC2    O1 1643   1.728   3.392   0.125 -0.4690 -0.3635  0.5203
  105TMC2    O2 1644   1.882   4.023  17.696 -0.1019 -0.1679 -0.1228
  105TMC2    O5 1645   1.658   3.979  17.716  0.0833  0.3503 -0.4182
  105TMC2    H5 1646   1.601   3.898  17.716  2.4436 -1.3076 -3.0490
  106MPD2     C 1647   2.258   3.432  17.145  0.0729  0.2601 -0.4654
  106MPD2    C1 1648   2.295   3.557  17.184  0.2355  0.2731  0.1960
  106MPD2    C2 1649   2.226   3.618  17.289  0.6184  0.4432 -0.1317
  106MPD2    C3 1650   2.123   3.548  17.353 -0.1654 -0.7117  0.3049
  106MPD2    C4 1651   2.094   3.418  17.323 -0.3232  0.1492  0.1621
  106MPD2    C5 1652   2.167   3.363  17.220 -0.2495 -0.5789  0.5907
  106MPD2     H 1653   2.245   3.723  17.308  3.0760  0.4443 -2.6074
  106MPD2    H1 1654   2.006   3.371  17.365 -0.8830  0.1102 -1.0555
  106MPD2    H2 1655   2.285   3.383  17.052 -2.9019  0.1034 -1.2495
  106MPD2    H3 1656   2.133   3.267  17.184 -0.2683 -0.8574  1.3614
  106MPD2     N 1657   2.077   3.605  17.471  0.5951 -0.5984  0.1780
  106MPD2    H5 1658   2.114   3.692  17.508 -0.7446  0.0026  0.1059
  106MPD2    N1 1659   2.381   3.642  17.119  0.3948 -0.1468 -0.8101
  106MPD2    H7 1660   2.383   3.735  17.160  0.2937 -0.4003 -0.2410
  107TMC2    C1 1661   3.076   3.223  11.630 -0.5100  0.0308 -0.6925
  107TMC2    C2 1662   3.082   3.318  11.532  0.1680  0.1336  0.0321
  107TMC2    C3 1663   3.201   3.352  11.474 -0.1084  0.1469 -0.2815
  107TMC2    C4 1664   3.185   3.145  11.665 -0.8073  0.3896  0.1314
  107TMC2    C5 1665   3.303   3.191  11.614 -1.0015 -0.3300  0.0992
  107TMC2    C6 1666   3.315   3.296  11.526 -0.3562 -0.6846 -0.9171
  107TMC2     C 1667   2.948   3.160  11.656 -0.2670  0.4291  0.8998
  107TMC2     O 1668   2.929   3.098  11.763 -0.2687  0.4996 -0.3473
  107TMC2     H 1669   2.999   3.385  11.511  0.5935  0.1983 -1.4706
  107TMC2    H1 1670   3.172   3.065  11.737 -1.8717  0.7481  0.3390
  107TMC2    H2 1671   3.417   3.319  11.498 -0.5261  0.6495 -0.4343
  107TMC2    C7 1672   3.387   3.090  11.573  1.1259 -0.4473  0.0772
  107TMC2    C8 1673   3.204   3.480  11.413  0.2122 -0.6357 -0.3317
  107TMC2    O1 1674   3.502   3.086  11.611 -0.6648 -0.3176  0.4470
  107TMC2    O2 1675   3.116   3.565  11.447  0.3446 -0.0172  0.3620
  107TMC2    O5 1676   3.314   3.499  11.343 -0.0556  0.4928 -0.1137
  107TMC2    H5 1677   3.372   3.421  11.327 -0.3155  0.1622  0.5587
  108MPD2     C 1678   2.662   3.175  11.439 -0.0755  0.2668 -0.1503
  108MPD2    C1 1679   2.725   3.167  11.560 -0.7833 -0.2871  0.6027
  108MPD2    C2 1680   2.652   3.148  11.672  0.1225  0.6180  0.2266
  108MPD2    C3 1681   2.512   3.131  11.670 -0.2202 -0.4995  0.1658
  108MPD2    C4 1682   2.453   3.135  11.553  0.5285 -0.4166  1.4255
  108MPD2    C5 1683   2.524   3.165  11.436 -0.6035 -0.0503  0.0306
  108MPD2     H 1684   2.710   3.141  11.763 -0.3386 -0.9337  0.3942
  108MPD2    H1 1685   2.345   3.135  11.546  0.5826  2.0280  0.5466
  108MPD2    H2 1686   2.723   3.181  11.349  0.2334  1.1769  0.1230
  108MPD2    H3 1687   2.483   3.167  11.336  0.2252  3.6303 -0.2401
  108MPD2     N 1688   2.430   3.117  11.786  0.6039 -0.1026  0.2506
  108MPD2    H5 1689   2.333   3.095  11.764 -0.1207  2.2668  1.1365
  108MPD2    N1 1690   2.864   3.186  11.555 -0.0515  0.1104 -0.1760
  108MPD2    H7 1691   2.901   3.228  11.470 -1.8931  0.3042 -0.8790
  109TMC2    C1 1692   1.915   0.274   0.145 -0.4565  0.5403  0.3115
  109TMC2    C2 1693   1.893   0.208   0.029  0.6591  0.4616 -0.0940
  109TMC2    C3 1694   2.000   0.180  17.708  0.5103 -0.1684  1.0813
  109TMC2    C4 1695   2.039   0.317   0.183  0.0580 -0.5464 -0.2126
  109TMC2    C5 1696   2.144   0.293   0.101  0.4759  0.1125  0.7072
  109TMC2    C6 1697   2.128   0.227  17.736  0.2593  0.7015 -0.1103
  109TMC2     C 1698   1.800   0.294   0.230  0.1557 -0.0959  0.5163
  109TMC2     O 1699   1.697   0.279   0.169  0.4573 -0.2631  0.2427
  109TMC2     H 1700   1.797   0.165   0.005  0.8391  0.3038 -0.5395
  109TMC2    H1 1701   2.059   0.374   0.274 -0.9958  0.9546 -0.9235
  109TMC2    H2 1702   2.202   0.219  17.657  0.3472 -0.9102  0.1362
  109TMC2    C7 1703   2.267   0.368   0.127  0.2915 -0.4746  0.5838
  109TMC2    C8 1704   1.981   0.134  17.571 -0.1292 -0.3336 -0.6597
  109TMC2    O1 1705   2.253   0.461   0.209 -0.0824  0.0764 -0.2267
  109TMC2    O2 1706   2.082   0.107  17.509 -0.0417 -0.5119 -0.3150
  109TMC2    O5 1707   1.894   0.231  17.532  0.3823  0.3104  0.4117
  109TMC2    H5 1708   1.818   0.237  17.594 -1.1989  0.7798 -1.5406
  110MPD2     C 1709   1.530   0.418   0.654 -0.6834  0.1333  0.5872
  110MPD2    C1 1710   1.659   0.374   0.689  0.5364 -0.1445 -0.0114
  110MPD2    C2 1711   1.757   0.354   0.598  0.2291  1.1701  0.4383
  110MPD2    C3 1712   1.725   0.352   0.463 -0.4386 -0.6111 -0.2040
  110MPD2    C4 1713   1.590   0.375   0.427 -0.0042 -0.2496  0.2766
  110MPD2    C5 1714   1.500   0.424   0.518 -0.1021 -1.1045 -0.1429
  110MPD2     H 1715   1.856   0.315   0.622  0.4865  1.0358 -0.8744
  110MPD2    H1 1716   1.562   0.373   0.322 -1.3381  0.4063  0.6172
  110MPD2    H2 1717   1.457   0.440   0.731 -2.6819 -1.3156 -0.8837
  110MPD2    H3 1718   1.398   0.453   0.496 -0.4355  0.9281  3.9555
  110MPD2     N 1719   1.826   0.310   0.362  0.8559 -0.1171 -0.3190
  110MPD2    H5 1720   1.923   0.313   0.391  1.4680  3.9007 -2.8416
  110MPD2    N1 1721   1.675   0.366   0.827  0.0050  0.4253 -0.3157
  110MPD2    H7 1722   1.593   0.368   0.887  0.8045 -1.7034  0.8583
  111TMC2    C1 1723   3.260   0.279  11.254  0.3110  0.2532  0.6219
  111TMC2    C2 1724   3.271   0.414  11.227 -0.1212  0.0490  0.5153
  111TMC2    C3 1725   3.353   0.481  11.317 -0.2645 -0.3757 -0.2790
  111TMC2    C4 1726   3.315   0.211  11.365  0.5890 -0.0167  0.0968
  111TMC2    C5 1727   3.388   0.288  11.446 -0.7750 -0.0084  0.2247
  111TMC2    C6 1728   3.409   0.418  11.425 -0.3838  0.1213 -0.3345
  111TMC2     C 1729   3.185   0.215  11.147  0.2926 -0.0216 -0.5445
  111TMC2     O 1730   3.182   0.267  11.036  0.4433 -0.2017 -0.4188
  111TMC2     H 1731   3.217   0.467  11.149 -0.4203 -1.3277 -0.2110
  111TMC2    H1 1732   3.304   0.106  11.387 -1.4515  0.1846  0.0210
  111TMC2    H2 1733   3.464   0.482  11.494 -0.8416 -0.0213  0.1625
  111TMC2    C7 1734   3.453   0.232  11.559 -0.2762 -0.5353 -0.0042
  111TMC2    C8 1735   3.377   0.622  11.282 -0.1512  0.2398 -0.0817
  111TMC2    O1 1736   3.464   0.303  11.659  0.3073  0.1787  0.0990
  111TMC2    O2 1737   3.356   0.665  11.171  0.1722 -0.2928  0.3956
  111TMC2    O5 1738   3.362   0.686  11.397 -0.5479  0.8103 -0.4323
  111TMC2    H5 1739   3.378   0.638  11.480 -0.6486  1.3479 -0.1021
  112MPD2     C 1740   2.839   4.628  10.965 -0.6386  0.3282 -0.0545
  112MPD2    C1 1741   2.940   4.696  10.900  0.3658  0.3282 -0.7157
  112MPD2    C2 1742   3.041   0.019  10.979  0.1140  0.1011  0.0069
  112MPD2    C3 1743   3.036   0.018  11.114  0.5266  0.0953 -0.5412
  112MPD2    C4 1744   2.942   4.681  11.173 -0.6477 -0.3761 -1.0643
  112MPD2    C5 1745   2.849   4.613  11.100  0.2463  0.0748 -0.4396
  112MPD2     H 1746   3.121   0.076  10.933 -1.7125 -0.0778 -3.3396
  112MPD2    H1 1747   2.936   4.683  11.281 -0.7384  0.8980 -1.0925
  112MPD2    H2 1748   2.758   4.581  10.910  0.2668 -0.9284 -0.3135
  112MPD2    H3 1749   2.769   4.557  11.146 -0.4766  0.3791 -1.3222
  112MPD2     N 1750   3.116   0.103  11.194  0.1428 -0.4056  0.0848
  112MPD2    H5 1751   3.106   0.092  11.295  0.6547 -0.1918  0.1580
  112MPD2    N1 1752   2.939   4.715  10.752  0.0251  0.3675  0.0666
  112MPD2    H7 1753   3.020   0.019  10.709  0.7441 -0.9701  0.0674
  113TMC2    C1 1754   0.647   2.674   0.578  0.1745  0.5507  0.1291
  113TMC2    C2 1755   0.581   2.792   0.543  0.3676 -0.3117 -0.2562
  113TMC2    C3 1756   0.447   2.794   0.499  0.0347  0.2635 -0.6614
  113TMC2    C4 1757   0.575   2.557   0.589  0.5626  0.0672 -0.2349
  113TMC2    C5 1758   0.440   2.570   0.552  0.6489  0.1010 -0.2670
  113TMC2    C6 1759   0.377   2.680   0.501  0.1886  0.2387 -0.8501
  113TMC2     C 1760   0.786   2.684   0.628  0.6431  0.5096  0.5976
  113TMC2     O 1761   0.830   2.800   0.636 -0.1310  0.4369  0.4224
  113TMC2     H 1762   0.627   2.890   0.555 -0.0342  0.0738 -1.8382
  113TMC2    H1 1763   0.614   2.464   0.628 -2.3970 -1.8308 -1.8270
  113TMC2    H2 1764   0.270   2.671   0.484  0.2058 -1.5667  0.0217
  113TMC2    C7 1765   0.351   2.462   0.592  0.3340  0.4151  0.4437
  113TMC2    C8 1766   0.370   2.907   0.548 -0.4590  0.0709 -0.1461
  113TMC2    O1 1767   0.260   2.431   0.517  0.2439 -0.1718 -0.1295
  113TMC2    O2 1768   0.408   2.998   0.619 -0.2914 -0.2404  0.6397
  113TMC2    O5 1769   0.260   2.912   0.475 -0.5341 -0.4522 -0.6105
  113TMC2    H5 1770   0.253   2.837   0.412 -0.7137  0.4567 -1.6733
  114MPD2     C 1771   1.261   2.514   0.692 -1.0111  0.4110 -0.0723
  114MPD2    C1 1772   1.196   2.617   0.760  0.1624 -0.7406  0.1349
  114MPD2    C2 1773   1.060   2.639   0.735 -0.2191 -0.5021  0.4307
  114MPD2    C3 1774   0.993   2.555   0.640 -0.0012  0.1457  0.4403
  114MPD2    C4 1775   1.056   2.455   0.581 -0.0164  0.3589 -0.1151
  114MPD2    C5 1776   1.194   2.434   0.604  0.2126 -0.0446 -0.8922
  114MPD2     H 1777   1.014   2.720   0.790 -0.0462  0.2234 -0.4946
  114MPD2    H1 1778   1.003   2.393   0.510  0.1236 -0.6062  0.6195
  114MPD2    H2 1779   1.367   2.494   0.704 -0.9461 -0.6986 -2.4083
  114MPD2    H3 1780   1.245   2.346   0.567 -0.3184 -1.2572  1.2505
  114MPD2     N 1781   0.858   2.569   0.603 -0.1395  0.5676  0.5170
  114MPD2    H5 1782   0.814   2.499   0.544 -0.3506 -0.6068  2.0634
  114MPD2    N1 1783   1.258   2.706   0.847 -0.2666  0.5111  0.2726
  114MPD2    H7 1784   1.202   2.781   0.887 -1.9853 -0.7300  0.1668
  115TMC2    C1 1785   1.523   0.957  17.700  0.6971  0.0199  0.0914
  115TMC2    C2 1786   1.661   0.949  17.681  0.2248  0.4999  0.8872
  115TMC2    C3 1787   1.729   1.068  17.683  0.6428 -0.0100  0.1742
  115TMC2    C4 1788   1.463   1.075  17.740  0.2039  0.3760  0.6035
  115TMC2    C5 1789   1.536   1.192   0.004 -0.2072  0.1692  0.6538
  115TMC2    C6 1790   1.673   1.185  17.731  0.4995  0.0617 -0.2339
  115TMC2     C 1791   1.452   0.839  17.667  0.5958 -0.2818  0.8639
  115TMC2     O 1792   1.512   0.753  17.603 -0.3586  0.5239  0.0921
  115TMC2     H 1793   1.706   0.856  17.650  0.0740  0.7678 -0.1101
  115TMC2    H1 1794   1.357   1.096  17.730  0.2096 -0.4144 -1.0064
  115TMC2    H2 1795   1.726   1.277  17.751  1.1806 -0.1397 -1.1523
  115TMC2    C7 1796   1.457   1.309  17.727 -0.6234 -0.1265  0.5230
  115TMC2    C8 1797   1.869   1.073  17.645 -0.7354 -0.6864  0.2727
  115TMC2    O1 1798   1.341   1.313   0.016  0.0784 -0.1198 -0.4391
  115TMC2    O2 1799   1.954   1.158  17.679  0.4200  0.5105  0.1377
  115TMC2    O5 1800   1.901   0.956  17.586  0.3832 -0.0272  0.0545
  115TMC2    H5 1801   1.823   0.906  17.554  0.1684  0.0852  0.3935
  116MPD2     C 1802   1.026   0.562  17.629  0.1923  0.2348  0.4202
  116MPD2    C1 1803   1.144   0.553  17.559 -0.2962 -0.0364 -0.7639
  116MPD2    C2 1804   1.245   0.642  17.589 -0.1639  1.0320 -0.2265
  116MPD2    C3 1805   1.212   0.753  17.662 -0.3409 -0.7638 -0.4301
  116MPD2    C4 1806   1.094   0.759  17.729 -0.6808 -0.7399  0.2443
  116MPD2    C5 1807   0.997   0.664  17.712  0.2922 -1.1929 -0.5574
  116MPD2     H 1808   1.336   0.625  17.533 -1.3449  0.5177 -1.9932
  116MPD2    H1 1809   1.076   0.847   0.034 -0.7555  0.4010 -1.4285
  116MPD2    H2 1810   0.952   0.484  17.613  0.7396  0.1307 -1.6526
  116MPD2    H3 1811   0.900   0.676   0.004  0.2689 -2.8214 -0.1739
  116MPD2     N 1812   1.314   0.854  17.695 -0.5262  0.5188 -0.2731
  116MPD2    H5 1813   1.280   0.932  17.750 -0.0207 -0.0033  0.7809
  116MPD2    N1 1814   1.154   0.438  17.480  0.0939  0.0424 -0.1871
  116MPD2    H7 1815   1.064   0.402  17.449 -0.4333  2.8645 -1.9469
  117TMC2    C1 1816   0.522   2.267  14.026 -0.5494 -0.2773 -0.2338
  117TMC2    C2 1817   0.649   2.222  14.048 -0.2350 -0.0868 -0.2134
  117TMC2    C3 1818   0.742   2.322  14.064 -0.1092 -0.2680 -0.6630
  117TMC2    C4 1819   0.480   2.394  14.027  0.1100 -0.5000  0.4372
  117TMC2    C5 1820   0.579   2.490  14.041  0.1308 -0.3280 -0.9270
  117TMC2    C6 1821   0.711   2.454  14.057  0.3899 -0.2309  0.1631
  117TMC2     C 1822   0.421   2.173  13.987 -0.0011 -0.3590 -0.1074
  117TMC2     O 1823   0.436   2.056  14.005  0.0018 -0.3242 -0.0728
  117TMC2     H 1824   0.675   2.116  14.042 -1.6019 -0.5007  1.3595
  117TMC2    H1 1825   0.379   2.425  14.052 -0.2291 -2.7158  1.7168
  117TMC2    H2 1826   0.781   2.536  14.069  0.3431 -0.0727 -0.6002
  117TMC2    C7 1827   0.546   2.631  14.064  0.2240 -0.1623  0.5220
  117TMC2    C8 1828   0.882   2.293  14.097 -0.0032 -0.1044 -0.0941
  117TMC2    O1 1829   0.630   2.705  14.120 -0.3708 -0.5868  0.1542
  117TMC2    O2 1830   0.976   2.371  14.063  0.3255 -0.1170 -0.1059
  117TMC2    O5 1831   0.891   2.181  14.169 -0.1884 -0.5941 -0.0463
  117TMC2    H5 1832   0.802   2.155  14.203  0.4536 -2.4482  0.1748
  118MPD2     C 1833   0.241   2.804  13.946  0.5244  0.1641 -0.0199
  118MPD2    C1 1834   0.361   2.791  14.006 -0.0401  0.2889 -0.0572
  118MPD2    C2 1835   0.426   2.912  14.050 -0.0292  0.9177  0.0292
  118MPD2    C3 1836   0.358   3.036  14.045  0.6896 -0.7578  0.5406
  118MPD2    C4 1837   0.229   3.035  13.994  0.4458 -0.0345  0.4205
  118MPD2    C5 1838   0.170   2.921  13.942  0.5028  0.1018 -0.4899
  118MPD2     H 1839   0.530   2.919  14.080  0.2748 -0.3167 -0.7729
  118MPD2    H1 1840   0.171   3.124  14.012  0.4409  0.0991 -0.2818
  118MPD2    H2 1841   0.188   2.722  13.899 -2.1650  1.6838  0.3811
  118MPD2    H3 1842   0.065   2.932  13.919  0.3789 -1.0537 -0.4676
  118MPD2     N 1843   0.408   3.161  14.091  0.6935 -0.6406  0.1520
  118MPD2    H5 1844   0.346   3.241  14.097 -0.1779 -1.1391 -2.1221
  118MPD2    N1 1845   0.421   2.662  14.006  0.5004 -0.3655  0.6377
  118MPD2    H7 1846   0.368   2.591  13.957 -1.0279  0.7792  0.6488
  119TMC2    C1 1847   3.193   3.199  13.722 -0.1247 -1.3168 -0.4658
  119TMC2    C2 1848   3.228   3.076  13.669  0.1240 -0.4980 -0.0781
  119TMC2    C3 1849   3.183   2.962  13.725 -0.0022 -0.2573  0.2311
  119TMC2    C4 1850   3.111   3.203  13.829  0.0758 -0.2290  0.1192
  119TMC2    C5 1851   3.070   3.085  13.883  0.3069 -0.3345 -0.0275
  119TMC2    C6 1852   3.104   2.969  13.831 -0.0216  0.1231  0.0337
  119TMC2     C 1853   3.241   3.328  13.679 -0.2360 -0.7686 -0.3531
  119TMC2     O 1854   3.189   3.433  13.704  0.1836 -0.0846 -0.8326
  119TMC2     H 1855   3.292   3.067  13.582 -0.1271 -0.1160 -0.3008
  119TMC2    H1 1856   3.068   3.297  13.859 -2.7187 -1.6687  0.5740
  119TMC2    H2 1857   3.081   2.877  13.883  2.4826  1.0194  2.7213
  119TMC2    C7 1858   2.973   3.082  13.993  0.1548  0.4393 -0.7214
  119TMC2    C8 1859   3.237   2.836  13.671  0.0909 -0.9033  0.2582
  119TMC2    O1 1860   2.966   3.179  14.062  0.0317  0.8171  0.8106
  119TMC2    O2 1861   3.347   2.828  13.620 -0.5043 -0.4924 -0.1733
  119TMC2    O5 1862   3.151   2.736  13.707  0.0278 -0.4731 -0.2099
  119TMC2    H5 1863   3.060   2.770  13.723 -0.0435 -0.5765 -0.3913
  120MPD2     C 1864   3.698   3.543  13.583  0.4436 -0.7418 -0.4361
  120MPD2    C1 1865   3.590   3.591  13.652 -0.3694 -0.4109 -0.0755
  120MPD2    C2 1866   3.471   3.518  13.659  0.7809  0.5924 -0.4626
  120MPD2    C3 1867   3.472   3.390  13.603 -0.3005  0.2590 -1.1725
  120MPD2    C4 1868   3.583   3.343  13.536 -0.0575 -0.1809 -0.3830
  120MPD2    C5 1869   3.690   3.426  13.519  0.4672 -0.0708  0.0799
  120MPD2     H 1870   3.379   3.554  13.703  0.7156 -0.9311  0.6139
  120MPD2    H1 1871   3.591   3.249  13.482 -0.5012 -2.1607  3.0346
  120MPD2    H2 1872   3.791   3.598  13.575 -0.3338  0.3907 -1.6170
  120MPD2    H3 1873   3.780   3.407  13.461  0.3032  1.3763 -0.6423
  120MPD2     N 1874   3.365   3.301  13.618 -0.1139 -0.4152  0.3063
  120MPD2    H5 1875   3.385   3.205  13.592 -1.6377 -1.3692  2.6522
  120MPD2    N1 1876   3.606   3.717  13.706  0.5952 -0.2008 -0.4657
  120MPD2    H7 1877   3.689   3.769  13.679 -0.0459  1.9417  1.7213
  121TMC2    C1 1878   4.680   0.232  13.893  0.4494  0.8771  0.1184
  121TMC2    C2 1879   4.699   0.338  13.974 -0.3789 -0.2414 -0.1982
  121TMC2    C3 1880   4.592   0.371  14.055 -0.6278  0.2156 -0.2051
  121TMC2    C4 1881   4.569   0.148  13.887  0.5979 -0.1770  0.5821
  121TMC2    C5 1882   4.468   0.185  13.968 -0.2732  0.1362  0.6586
  121TMC2    C6 1883   4.481   0.281  14.059  0.3022  0.8731 -0.4479
  121TMC2     C 1884   0.044   0.208  13.796 -0.1775 -0.1547  0.4010
  121TMC2     O 1885   0.044   0.095  13.743 -0.3913  0.3242 -0.1363
  121TMC2     H 1886   0.059   0.374  13.999  0.6775 -1.3603 -2.8186
  121TMC2    H1 1887   4.555   0.071  13.813  1.1959 -0.6085  0.9156
  121TMC2    H2 1888   4.403   0.298  14.132 -0.6182 -1.3657 -0.8887
  121TMC2    C7 1889   4.332   0.129  13.957  0.1730  0.2909 -0.3790
  121TMC2    C8 1890   4.629   0.471  14.150 -0.6651  0.2928 -0.0380
  121TMC2    O1 1891   4.326   0.019  13.904 -0.1286 -0.4534  0.2124
  121TMC2    O2 1892   4.696   0.570  14.125 -0.4639  0.3305  0.1526
  121TMC2    O5 1893   4.597   0.429  14.277  0.5438  0.4665  0.5644
  121TMC2    H5 1894   4.543   0.348  14.284 -1.4762  1.9061  1.4931
  122MPD2     C 1895   0.279   0.219  13.639  0.6181  0.9023 -0.3426
  122MPD2    C1 1896   0.201   0.329  13.660  1.0220  0.2507 -0.0494
  122MPD2    C2 1897   0.233   0.448  13.597  0.4395  0.7450 -0.2187
  122MPD2    C3 1898   0.334   0.449  13.499 -0.4631 -0.6436  0.4892
  122MPD2    C4 1899   0.415   0.339  13.481  0.8785 -1.3685  0.2891
  122MPD2    C5 1900   0.386   0.223  13.549  0.1890 -0.1444  0.0916
  122MPD2     H 1901   0.168   0.534  13.613 -0.9903  0.0631 -2.2377
  122MPD2    H1 1902   0.490   0.330  13.404  0.3056  1.5069 -0.5845
  122MPD2    H2 1903   0.264   0.118  13.676  1.3569  0.8086 -0.2929
  122MPD2    H3 1904   0.437   0.131  13.524  2.4540  0.9563  0.6935
  122MPD2     N 1905   0.350   0.546  13.408 -0.3016 -0.0229  0.2836
  122MPD2    H5 1906   0.409   0.523  13.328  0.0972 -4.2424  1.8282
  122MPD2    N1 1907   0.100   0.324  13.753  0.0501 -0.1512 -0.8849
  122MPD2    H7 1908   0.043   0.407  13.765 -0.3820 -0.3909 -1.2925
  123TMC2    C1 1909   3.322   4.465  10.383  0.7157 -0.1583  0.1489
  123TMC2    C2 1910   3.337   4.593  10.330  0.2072  0.3785 -0.6473
  123TMC2    C3 1911   3.390   4.601  10.207  0.3193  0.0102  0.7918
  123TMC2    C4 1912   3.362   4.353  10.312  0.6928  0.7656  0.3114
  123TMC2    C5 1913   3.427   4.373  10.187  0.5422  0.5413  0.3602
  123TMC2    C6 1914   3.428   4.499  10.133  0.2293  0.0878  0.3471
  123TMC2     C 1915   3.237   4.467  10.500  0.2021  0.0885  0.5613
  123TMC2     O 1916   3.230   4.571  10.563  0.4821 -0.6610  0.4214
  123TMC2     H 1917   3.307   4.685  10.379 -2.7647 -0.0253 -1.7149
  123TMC2    H1 1918   3.348   4.254  10.353  1.9306  1.0086  1.3328
  123TMC2    H2 1919   3.471   4.511  10.034  1.3160  1.2533  0.9667
  123TMC2    C7 1920   3.462   4.264  10.091  0.6140 -0.2359 -0.3518
  123TMC2    C8 1921   3.410   4.729  10.144 -0.0777 -0.2356  0.2449
  123TMC2    O1 1922   3.465   4.286   9.973  0.1149  0.2406 -0.5871
  123TMC2    O2 1923   3.349   0.023  10.048 -0.5915 -0.9109 -0.8186
  123TMC2    O5 1924   3.513   0.055  10.207  0.6302 -0.1403 -0.4981
  123TMC2    H5 1925   3.557   4.737  10.273  0.4729  0.3097  0.0008
  124MPD2     C 1926   3.009   4.218  10.880 -0.1212  0.0356  1.0309
  124MPD2    C1 1927   3.044   4.124  10.793 -0.0516  0.1313 -0.0302
  124MPD2    C2 1928   3.115   4.165  10.678  0.0194 -0.3612 -0.5097
  124MPD2    C3 1929   3.127   4.306  10.652  0.3180  0.4447 -0.1877
  124MPD2    C4 1930   3.083   4.400  10.746 -0.2473 -0.4322  0.0965
  124MPD2    C5 1931   3.031   4.346  10.865  0.8237  0.2757  0.4871
  124MPD2     H 1932   3.148   4.097  10.601 -0.8709 -0.4315 -0.8356
  124MPD2    H1 1933   3.098   4.506  10.730  0.5615 -0.6654 -0.6656
  124MPD2    H2 1934   2.948   4.186  10.964 -0.8296  0.2276  0.5816
  124MPD2    H3 1935   2.980   4.409  10.936  2.5099  0.3068  1.6804
  124MPD2     N 1936   3.199   4.339  10.535  0.0351  0.3578  0.6639
  124MPD2    H5 1937   3.222   4.259  10.478 -0.3600  1.0906 -0.5093
  124MPD2    N1 1938   3.026   3.982  10.822 -0.0821  0.3856 -0.5894
  124MPD2    H7 1939   2.990   3.962  10.915  0.3099  2.8321  0.0722
  125TMC2    C1 1940   3.388   0.471   9.653  0.0451 -0.2362 -0.2643
  125TMC2    C2 1941   3.253   0.501   9.655 -0.2881  0.1362  0.3309
  125TMC2    C3 1942   3.167   0.393   9.676  0.6537  0.0680  0.3766
  125TMC2    C4 1943   3.438   0.355   9.690  0.0328 -0.7026 -1.2223
  125TMC2    C5 1944   3.352   0.249   9.711 -0.2838 -0.0827  1.1167
  125TMC2    C6 1945   3.214   0.267   9.704  0.1526 -0.2176 -0.4834
  125TMC2     C 1946   3.475   0.583   9.665  0.3983 -0.1418 -0.2418
  125TMC2     O 1947   3.562   0.573   9.754  0.3822  1.2815  0.1357
  125TMC2     H 1948   3.212   0.594   9.618 -0.7092  0.5525  1.8408
  125TMC2    H1 1949   3.544   0.349   9.711 -0.1059  0.1737 -0.2469
  125TMC2    H2 1950   3.152   0.181   9.726 -0.5765  0.2432 -0.7533
  125TMC2    C7 1951   3.396   0.116   9.703 -0.6565  0.0014  0.3561
  125TMC2    C8 1952   3.034   0.431   9.712 -0.5656 -0.4279 -0.3935
  125TMC2    O1 1953   3.311   0.030   9.685  0.3964 -0.3649  0.6788
  125TMC2    O2 1954   2.971   0.532   9.673 -0.0750 -0.2363  0.3560
  125TMC2    O5 1955   3.018   0.368   9.829  0.6464  0.1245  0.4136
  125TMC2    H5 1956   3.083   0.296   9.847  2.1630  1.3837 -0.0198
  126MPD1     C 1957   3.697   1.017   9.488  0.0181  0.0333 -0.4416
  126MPD1    C1 1958   3.607   0.972   9.396  0.3797  0.5688  0.3439
  126MPD1    C2 1959   3.520   0.876   9.440  0.1688  0.1737 -0.8255
  126MPD1    C3 1960   3.540   0.800   9.557 -0.5151 -0.1035  0.0761
  126MPD1    C4 1961   3.648   0.833   9.633  0.1417  0.2699  0.1076
  126MPD1    C5 1962   3.714   0.950   9.607 -0.3781 -0.5908  0.4820
  126MPD1     H 1963   3.437   0.844   9.379 -0.5667 -0.8683  0.7206
  126MPD1    H1 1964   3.670   0.776   9.724 -0.0851 -0.7996 -0.5025
  126MPD1    H2 1965   3.754   1.109   9.476  0.2391  0.0927  1.0402
  126MPD1    H3 1966   3.793   0.981   9.675 -0.3442  1.4813 -0.5101
  126MPD1     N 1967   3.463   0.688   9.570 -0.0615  0.2339  0.1354
  126MPD1    H5 1968   3.395   0.671   9.497 -2.4375 -1.1752  2.6988
  126MPD1    N1 1969   3.594   1.037   9.273 -0.0095  0.0019 -0.6801
  126MPD1    H6 1970   3.542   0.993   9.196  0.2216 -2.1072  0.3700
  126MPD1    H7 1971   3.686   1.059   9.236 -0.2742 -1.3183 -2.1712
  127TMC2    C1 1972   0.093   3.971   9.707  0.1427 -0.0736 -0.6981
  127TMC2    C2 1973   0.162   3.884   9.780 -0.0905 -0.4533 -0.3629
  127TMC2    C3 1974   0.092   3.813   9.871  0.2690 -0.0668 -0.2755
  127TMC2    C4 1975   4.700   3.986   9.714  0.1190 -0.5245 -0.6130
  127TMC2    C5 1976   4.628   3.894   9.785  0.4611 -0.1250 -0.7509
  127TMC2    C6 1977   4.697   3.812   9.871  0.8622 -0.3492  0.0825
  127TMC2     C 1978   0.162   4.070   9.628 -1.0198 -0.3688 -0.3366
  127TMC2     O 1979   0.135   4.185   9.665  0.1546  0.3072  0.3322
  127TMC2     H 1980   0.269   3.891   9.793 -0.2021  1.7333 -0.7078
  127TMC2    H1 1981   4.657   4.060   9.647  1.0182  1.4245  0.9432
  127TMC2    H2 1982   4.633   3.769   9.948 -0.0325  2.1981  0.7716
  127TMC2    C7 1983   4.477   3.897   9.782 -0.1892 -0.1416  0.0449
  127TMC2    C8 1984   0.173   3.712   9.934  0.4531  0.1189  0.3028
  127TMC2    O1 1985   4.438   3.981   9.701  0.4730  0.4938 -0.3632
  127TMC2    O2 1986   0.272   3.666   9.879 -0.2160 -1.0044 -0.4481
  127TMC2    O5 1987   0.122   3.671  10.053 -0.8668 -0.6631 -0.3832
  127TMC2    H5 1988   0.039   3.716  10.083 -0.7183  0.3012 -1.4033
  128MPD2     C 1989   0.469   3.976   9.446  0.0107  0.9317 -0.3221
  128MPD2    C1 1990   0.381   4.070   9.506 -0.0431 -0.2973 -0.3767
  128MPD2    C2 1991   0.406   4.201   9.502  0.1119 -0.2748  0.7967
  128MPD2    C3 1992   0.520   4.251   9.444 -0.0330  0.2519 -0.7405
  128MPD2    C4 1993   0.610   4.160   9.388 -0.8798 -0.2049 -0.0029
  128MPD2    C5 1994   0.584   4.023   9.379  0.3447 -0.1192 -0.2571
  128MPD2     H 1995   0.335   4.269   9.547  0.8386  1.8873 -1.2946
  128MPD2    H1 1996   0.705   4.185   9.342  0.4850  0.4670  3.1589
  128MPD2    H2 1997   0.442   3.872   9.438 -0.0481  1.1057 -2.3894
  128MPD2    H3 1998   0.653   3.960   9.325 -0.1264 -1.0128  0.1819
  128MPD2     N 1999   0.547   4.388   9.463  0.6920 -0.2056  1.0846
  128MPD2    H5 2000   0.481   4.442   9.518 -0.8291 -0.0493 -0.8851
  128MPD2    N1 2001   0.267   4.011   9.560 -0.1580 -0.0476 -0.6277
  128MPD2    H7 2002   0.276   3.910   9.562 -2.0703 -0.1641  1.4811
  129TMC2    C1 2003   4.414   3.990   1.563 -0.2020 -0.1452 -0.0927
  129TMC2    C2 2004   4.524   3.914   1.557 -0.3251 -0.1341 -1.1512
  129TMC2    C3 2005   4.495   3.787   1.516  0.2163 -0.3090  0.0027
  129TMC2    C4 2006   4.283   3.942   1.547  0.5581  0.6138 -0.1346
  129TMC2    C5 2007   4.266   3.812   1.522  0.4348  0.1983  0.0698
  129TMC2    C6 2008   4.376   3.732   1.504  0.1367  0.5613  0.1999
  129TMC2     C 2009   4.436   4.132   1.573  0.0886  0.2468 -0.5846
  129TMC2     O 2010   4.335   4.201   1.553 -0.2425 -0.8188  0.1805
  129TMC2     H 2011   4.624   3.955   1.563 -0.6809  0.4982  0.4342
  129TMC2    H1 2012   4.197   4.008   1.552  0.3394  0.3166  0.0244
  129TMC2    H2 2013   4.366   3.627   1.476  0.6526  0.9251 -1.3559
  129TMC2    C7 2014   4.126   3.775   1.491  0.6815  0.4701 -0.1577
  129TMC2    C8 2015   4.601   3.688   1.531 -0.2425 -0.4671 -0.5757
  129TMC2    O1 2016   4.039   3.859   1.512  0.1474 -0.3122 -0.2572
  129TMC2    O2 2017   4.591   3.574   1.490 -0.6400 -0.3804  0.2128
  129TMC2    O5 2018   4.671   3.724   1.638  0.2347 -0.1021  0.7539
  129TMC2    H5 2019   4.668   3.818   1.668  1.5141 -0.0724  0.8065
  130MPD2     C 2020   0.006   4.334   1.609 -0.2242 -0.5506 -0.1002
  130MPD2    C1 2021   4.620   4.301   1.564  0.4546  0.0800  0.2163
  130MPD2    C2 2022   4.553   4.391   1.486 -0.1208 -0.6315 -0.2966
  130MPD2    C3 2023   4.604   4.518   1.467 -0.3069 -0.1053  0.0611
  130MPD2    C4 2024   4.736   4.543   1.499 -0.3112 -0.1966 -0.3639
  130MPD2    C5 2025   0.062   4.454   1.574  0.0378  0.1513  0.0449
  130MPD2     H 2026   4.453   4.367   1.452 -0.2633  0.9655 -0.9978
  130MPD2    H1 2027   0.051   4.635   1.481 -1.1836  0.9021  2.5251
  130MPD2    H2 2028   0.061   4.261   1.668  0.4642 -0.1644 -0.2593
  130MPD2    H3 2029   0.158   4.475   1.619  0.0894  1.9042 -0.9341
  130MPD2     N 2030   4.521   4.622   1.422 -0.5753  0.3961  0.2208
  130MPD2    H5 2031   4.425   4.590   1.415  0.1731 -1.7279 -0.6222
  130MPD2    N1 2032   4.567   4.169   1.594 -0.1041  0.1847  0.6697
  130MPD2    H7 2033   4.630   4.105   1.640 -1.2790 -1.1979  0.3474
  131TMC2    C1 2034   3.083   4.203  10.168  0.5495  0.4884  0.1083
  131TMC2    C2 2035   3.061   4.323  10.229  0.3251  0.6634 -0.1352
  131TMC2    C3 2036   3.023   4.428  10.150 -0.7219 -0.6032  0.1772
  131TMC2    C4 2037   3.084   4.193  10.024  0.2349 -0.3726  0.2588
  131TMC2    C5 2038   3.078   4.307   9.952 -0.8086  0.6144  0.7535
  131TMC2    C6 2039   3.044   4.427  10.011 -0.3118  0.4193 -0.3112
  131TMC2     C 2040   3.104   4.087  10.251  0.4603 -0.4625 -0.0106
  131TMC2     O 2041   3.140   4.100  10.367  0.0099 -0.1983 -0.5589
  131TMC2     H 2042   3.068   4.326  10.337  2.5847 -2.1742 -0.2150
  131TMC2    H1 2043   3.131   4.103   9.985  1.8023  1.5975 -2.3841
  131TMC2    H2 2044   3.018   4.518   9.958 -1.4163 -0.6102 -1.5315
  131TMC2    C7 2045   3.085   4.287   9.808 -0.0585 -0.0556  0.1494
  131TMC2    C8 2046   3.029   4.558  10.207 -0.9137  1.2595  0.5072
  131TMC2    O1 2047   3.076   4.170   9.766 -0.5372 -0.1764  0.2860
  131TMC2    O2 2048   3.084   4.655  10.162  0.5737  0.1865  0.1507
  131TMC2    O5 2049   2.958   4.559  10.325  0.2172 -0.2806  0.0242
  131TMC2    H5 2050   2.899   4.484  10.344  1.5218 -1.2869  0.1285
  132MPD2     C 2051   3.047   3.749  10.124 -0.3231  0.1327 -0.3762
  132MPD2    C1 2052   3.078   3.845  10.217 -0.6392  0.8182  0.0315
  132MPD2    C2 2053   3.121   3.806  10.339  0.1115 -0.8487  0.4026
  132MPD2    C3 2054   3.109   3.674  10.375 -0.2375  0.2337  0.2728
  132MPD2    C4 2055   3.058   3.579  10.288  0.1845  0.4977  0.2590
  132MPD2    C5 2056   3.039   3.619  10.156  0.5631 -0.2313 -0.1534
  132MPD2     H 2057   3.143   3.871  10.423  1.3324 -1.6909  0.7376
  132MPD2    H1 2058   3.051   3.473  10.306 -0.0801  0.2575 -1.2835
  132MPD2    H2 2059   3.026   3.778  10.021  2.5307  2.5974 -0.2658
  132MPD2    H3 2060   3.018   3.548  10.077 -1.9657  1.0643 -0.6532
  132MPD2     N 2061   3.130   3.649  10.513  0.3196  0.1252  0.0330
  132MPD2    H5 2062   3.166   3.728  10.567  0.7370 -1.0189  1.4165
  132MPD2    N1 2063   3.088   3.976  10.169  0.3158  0.0383 -0.0256
  132MPD2    H7 2064   3.052   3.986  10.075  3.2246  3.1167 -0.8209
  133TMC2    C1 2065   2.059   2.805   9.442 -0.1664  0.0588 -0.2316
  133TMC2    C2 2066   1.943   2.802   9.367 -0.1221 -0.0299 -0.0539
  133TMC2    C3 2067   1.873   2.685   9.367 -0.0989 -0.7038  0.0517
  133TMC2    C4 2068   2.099   2.693   9.507  0.8955 -0.0906 -0.0754
  133TMC2    C5 2069   2.017   2.579   9.508  0.5875  0.1195 -0.1494
  133TMC2    C6 2070   1.905   2.573   9.441  0.1699  0.4332 -0.2834
  133TMC2     C 2071   2.156   2.891   9.386 -0.2229  1.0917 -0.1674
  133TMC2     O 2072   2.116   2.965   9.295 -0.0029 -0.2467  0.1542
  133TMC2     H 2073   1.903   2.888   9.315 -0.7387 -0.2584  0.0364
  133TMC2    H1 2074   2.195   2.684   9.555  0.0390 -0.6303  1.5485
  133TMC2    H2 2075   1.843   2.484   9.437 -1.4835  1.5272  1.4458
  133TMC2    C7 2076   2.030   2.496   9.626 -0.1399 -0.1700  0.5845
  133TMC2    C8 2077   1.762   2.689   9.279 -0.2257 -0.7582 -0.0512
  133TMC2    O1 2078   2.086   2.534   9.724  0.2334  0.0482  0.3386
  133TMC2    O2 2079   1.666   2.613   9.291  0.4499 -0.0517 -0.0625
  133TMC2    O5 2080   1.807   2.725   9.161 -0.0797 -0.5096 -0.0900
  133TMC2    H5 2081   1.901   2.751   9.154  0.2265 -1.0669  2.1793
  134MPD2     C 2082   2.500   2.966   9.516 -0.5029 -0.2364 -0.1303
  134MPD2    C1 2083   2.380   2.991   9.450  0.1712  0.1256 -0.2148
  134MPD2    C2 2084   2.354   3.113   9.389  0.2079  0.0114  0.2186
  134MPD2    C3 2085   2.454   3.210   9.406 -0.5150  0.5478 -0.1172
  134MPD2    C4 2086   2.572   3.177   9.463 -0.0387 -0.0311 -1.6592
  134MPD2    C5 2087   2.601   3.053   9.510 -0.0321  0.2820  0.4913
  134MPD2     H 2088   2.263   3.135   9.335  0.2962  0.3171  0.1927
  134MPD2    H1 2089   2.654   3.247   9.474 -0.4761  0.1427  0.5122
  134MPD2    H2 2090   2.511   2.867   9.558 -0.1713 -0.8473 -1.6191
  134MPD2    H3 2091   2.695   3.022   9.555 -0.6405  3.2273  3.7784
  134MPD2     N 2092   2.442   3.346   9.359  0.7951  0.2536 -0.2208
  134MPD2    H5 2093   2.524   3.404   9.366  0.1100  1.1173  0.6535
  134MPD2    N1 2094   2.283   2.880   9.443 -0.3659 -0.2807 -0.2852
  134MPD2    H7 2095   2.311   2.797   9.495 -4.0340  0.0202  2.1722
  135TMC2    C1 2096   4.452   1.192   9.076  0.9841 -0.0280  0.9708
  135TMC2    C2 2097   4.416   1.057   9.083  0.1428  0.2475 -0.4829
  135TMC2    C3 2098   4.308   1.006   9.022 -0.2800  0.2492  0.4812
  135TMC2    C4 2099   4.363   1.275   9.009 -0.2352 -0.1494  0.7074
  135TMC2    C5 2100   4.249   1.218   8.958 -0.8478  0.5605 -0.1831
  135TMC2    C6 2101   4.213   1.084   8.964 -0.3693 -0.3693  0.0266
  135TMC2     C 2102   4.565   1.249   9.141 -0.1957 -0.4230  0.0830
  135TMC2     O 2103   4.596   1.364   9.113  0.1371  0.4075  0.0026
  135TMC2     H 2104   4.488   0.982   9.114  0.0184 -0.5559 -2.1141
  135TMC2    H1 2105   4.375   1.382   9.005  0.7760 -0.3711 -2.5672
  135TMC2    H2 2106   4.121   1.036   8.935 -0.6444  0.0297  0.2380
  135TMC2    C7 2107   4.142   1.312   8.927 -0.1917  0.0808 -0.5079
  135TMC2    C8 2108   4.257   0.885   9.082 -0.1522 -0.0126 -0.8260
  135TMC2    O1 2109   4.174   1.416   8.869  0.5040  0.2861  0.7076
  135TMC2    O2 2110   4.223   0.870   9.198 -0.7251 -0.2694  0.7604
  135TMC2    O5 2111   4.222   0.801   8.978 -0.3717 -0.1488  0.8672
  135TMC2    H5 2112   4.295   0.820   8.916 -2.4911 -1.8424 -2.1347
  136MPD2     C 2113   0.045   1.296   9.347  0.2988  0.0529  0.1608
  136MPD2    C1 2114   0.002   1.173   9.302  0.0011 -0.0486  0.2543
  136MPD2    C2 2115   0.075   1.061   9.334 -0.3882  0.6274  0.1978
  136MPD2    C3 2116   0.193   1.065   9.408 -0.0661  0.7888 -0.3540
  136MPD2    C4 2117   0.227   1.189   9.453 -0.0928  0.2388 -0.3135
  136MPD2    C5 2118   0.153   1.299   9.423  0.4270 -0.3492  0.7174
  136MPD2     H 2119   0.035   0.970   9.292  1.4280 -0.4304  0.7314
  136MPD2    H1 2120   0.313   1.222   9.509  0.1640 -1.2312  0.1528
  136MPD2    H2 2121   4.727   1.387   9.343 -0.4894 -0.4531 -0.0078
  136MPD2    H3 2122   0.184   1.397   9.456  0.4494 -0.7364  1.8201
  136MPD2     N 2123   0.276   0.951   9.431  0.2796 -0.5905 -0.3599
  136MPD2    H5 2124   0.357   0.959   9.492 -1.2771  2.1568  1.3682
  136MPD2    N1 2125   4.630   1.154   9.219  0.5047  0.2580  0.2790
  136MPD2    H7 2126   4.602   1.059   9.200 -0.8474  0.6434  0.3485
  137TMC2    C1 2127   4.359   0.508   9.416 -0.1300 -0.5220 -0.1335
  137TMC2    C2 2128   4.407   0.564   9.303  0.5631  0.7264 -0.5323
  137TMC2    C3 2129   4.409   0.484   9.196 -0.2606  0.5466  0.5626
  137TMC2    C4 2130   4.322   0.377   9.434 -0.0528 -0.4976  0.3550
  137TMC2    C5 2131   4.320   0.303   9.316 -0.1667 -0.3647  1.0491
  137TMC2    C6 2132   4.369   0.356   9.200  0.8747 -0.4789  0.6602
  137TMC2     C 2133   4.364   0.591   9.531 -0.2424 -0.3224  0.1006
  137TMC2     O 2134   4.351   0.709   9.502 -0.1447 -0.3554  0.6009
  137TMC2     H 2135   4.451   0.663   9.302 -0.9408  1.3855 -1.0335
  137TMC2    H1 2136   4.286   0.348   9.532  0.4070  2.7187  1.4753
  137TMC2    H2 2137   4.388   0.300   9.110  0.2515  1.0369 -0.4055
  137TMC2    C7 2138   4.260   0.174   9.309  1.1706  0.2978  0.2625
  137TMC2    C8 2139   4.406   0.539   9.064 -0.2249 -0.1263  0.5342
  137TMC2    O1 2140   4.306   0.086   9.241  0.3206 -0.3905 -0.4773
  137TMC2    O2 2141   4.300   0.530   9.000 -0.2352 -0.4930  0.7133
  137TMC2    O5 2142   4.494   0.636   9.058 -0.4970  0.3944  0.2921
  137TMC2    H5 2143   4.572   0.630   9.118 -0.7536  1.2865  0.7279
  138MPD2     C 2144   4.429   0.473   9.877 -0.4728  0.4079 -0.5748
  138MPD2    C1 2145   4.414   0.573   9.779 -0.4340  0.8329  0.7149
  138MPD2    C2 2146   4.388   0.700   9.829  0.2912 -0.2969  0.1998
  138MPD2    C3 2147   4.392   0.723   9.967 -0.0255  0.5933  0.2437
  138MPD2    C4 2148   4.419   0.623  10.063  0.2285 -0.0007 -0.2006
  138MPD2    C5 2149   4.424   0.496  10.014 -0.4686  0.8646  0.2406
  138MPD2     H 2150   4.368   0.775   9.754 -2.5208  0.1399  1.3848
  138MPD2    H1 2151   4.423   0.645  10.169  1.6727 -0.3833 -0.1630
  138MPD2    H2 2152   4.448   0.369   9.852  1.2155  1.2730 -2.9403
  138MPD2    H3 2153   4.439   0.415  10.085 -0.2380  1.2716  0.6570
  138MPD2     N 2154   4.372   0.854  10.005 -0.6513 -0.0536 -0.3493
  138MPD2    H5 2155   4.361   0.919   9.929  1.9052  0.7972  0.0021
  138MPD2    N1 2156   4.396   0.523   9.645  0.4612  0.3069  0.4535
  138MPD2    H7 2157   4.419   0.425   9.631 -0.3741  0.3151 -0.9608
  139TMC2    C1 2158   0.273   3.238  13.363  0.0194  0.2775 -0.1094
  139TMC2    C2 2159   0.325   3.349  13.297 -0.4996  0.5567  0.0612
  139TMC2    C3 2160   0.263   3.475  13.326  0.2508  0.7570 -0.0240
  139TMC2    C4 2161   0.167   3.242  13.455  0.1450 -0.0485 -0.9924
  139TMC2    C5 2162   0.114   3.371  13.468 -0.3996  0.1297 -0.2575
  139TMC2    C6 2163   0.165   3.488  13.420  0.0929 -0.3657 -0.3116
  139TMC2     C 2164   0.347   3.115  13.340  0.3103 -0.3369  0.1335
  139TMC2     O 2165   0.415   3.108  13.236 -0.9983 -0.3664  0.5621
  139TMC2     H 2166   0.418   3.334  13.243 -0.0703 -0.7056  1.1392
  139TMC2    H1 2167   0.125   3.147  13.485  0.6172 -0.5859 -2.0598
  139TMC2    H2 2168   0.123   3.585  13.444  1.1948 -0.4117  1.7634
  139TMC2    C7 2169   4.719   3.383  13.521 -0.2481  0.9764  0.7627
  139TMC2    C8 2170   0.293   3.592  13.242  0.0907 -0.0467  0.1645
  139TMC2    O1 2171   4.675   3.494  13.523  0.0393  0.2264 -0.0431
  139TMC2    O2 2172   0.301   3.578  13.126 -0.5581 -0.6708 -0.2883
  139TMC2    O5 2173   0.251   3.700  13.302 -0.0497 -0.0128  0.1355
  139TMC2    H5 2174   0.281   3.691  13.395 -1.8825  0.0664  0.7389
  140MPD2     C 2175   0.439   2.877  13.594 -0.3098 -0.1882 -0.6780
  140MPD2    C1 2176   0.451   2.936  13.475 -1.1443  0.0160  0.1980
  140MPD2    C2 2177   0.538   2.889  13.374 -0.0297  0.1880  0.0280
  140MPD2    C3 2178   0.607   2.770  13.392 -0.2975 -0.5054  0.4876
  140MPD2    C4 2179   0.584   2.702  13.511 -0.1568 -0.2869  0.0307
  140MPD2    C5 2180   0.511   2.763  13.613  0.5586 -0.2613 -0.4723
  140MPD2     H 2181   0.566   2.940  13.283 -2.0571 -1.8546 -1.7611
  140MPD2    H1 2182   0.634   2.609  13.538 -1.1136 -0.9514 -0.4868
  140MPD2    H2 2183   0.364   2.910  13.665  0.9172 -0.1857  0.6328
  140MPD2    H3 2184   0.511   2.703  13.704 -1.8831  2.0617  1.0631
  140MPD2     N 2185   0.708   2.721  13.300  0.1852  0.0551  0.7121
  140MPD2    H5 2186   0.738   2.786  13.227 -0.9354 -0.3954 -0.1542
  140MPD2    N1 2187   0.361   3.043  13.454 -0.2172  0.4756 -0.5107
  140MPD2    H7 2188   0.305   3.055  13.538  0.2761 -0.9300  0.0080
  141TMC2    C1 2189   0.114   4.519  14.865  0.1664 -0.0466  0.1116
  141TMC2    C2 2190   0.061   4.439  14.958 -0.2916  0.1744  0.4400
  141TMC2    C3 2191   0.058   4.488  15.086  0.1018 -0.1015 -0.1770
  141TMC2    C4 2192   0.148   4.646  14.894 -0.4663  1.0423 -0.6972
  141TMC2    C5 2193   0.123   4.691  15.019  0.1533 -0.6034 -0.5206
  141TMC2    C6 2194   0.091   4.612  15.122  0.5130 -0.5868 -0.8038
  141TMC2     C 2195   0.149   4.472  14.736  0.6074  0.2933 -0.1249
  141TMC2     O 2196   0.230   4.542  14.678 -0.4996 -0.0393  0.6536
  141TMC2     H 2197   0.036   4.335  14.938 -1.7717  0.4585  0.8319
  141TMC2    H1 2198   0.140   4.716  14.811  2.0795  0.5997 -1.3098
  141TMC2    H2 2199   0.085   4.655  15.222  0.1717 -1.8333 -0.2825
  141TMC2    C7 2200   0.212   0.055  15.064 -0.3809 -0.1919  1.0289
  141TMC2    C8 2201   4.731   4.404  15.186 -0.0409 -0.3562 -0.7810
  141TMC2    O1 2202   0.201   0.117  15.169  0.3761 -0.2398  0.5301
  141TMC2    O2 2203   4.728   4.422  15.309 -0.2292 -0.9687  0.5492
  141TMC2    O5 2204   4.619   4.377  15.114 -0.4856  0.2102  0.0527
  141TMC2    H5 2205   4.618   4.413  15.023 -0.1681 -0.5258 -0.2369
  142TMC2    C1 2206   3.390   3.288  10.367 -0.6306  0.1991 -0.1526
  142TMC2    C2 2207   3.497   3.240  10.434 -0.4519 -0.0837 -0.3451
  142TMC2    C3 2208   3.591   3.326  10.465  0.2882 -0.5363 -0.4176
  142TMC2    C4 2209   3.397   3.402  10.302  0.7245  0.1850  0.6983
  142TMC2    C5 2210   3.494   3.490  10.336  0.2353 -0.4640 -0.0986
  142TMC2    C6 2211   3.591   3.455  10.424 -0.3166  0.5000  0.1727
  142TMC2     C 2212   3.264   3.233  10.379  0.0328  0.6477 -0.1779
  142TMC2     O 2213   3.184   3.246  10.285 -0.1391 -0.2664 -0.1903
  142TMC2     H 2214   3.503   3.134  10.454  0.6249  0.1148  0.3985
  142TMC2    H1 2215   3.328   3.424  10.221 -0.9724 -3.0930  1.2382
  142TMC2    H2 2216   3.641   3.530  10.484  1.6654 -0.3488 -0.4392
  142TMC2    C7 2217   3.483   3.635  10.303 -0.2868  0.1258  0.3210
  142TMC2    C8 2218   3.702   3.273  10.535  0.4581 -0.3047 -0.3590
  142TMC2    O1 2219   3.512   3.718  10.389  0.1616 -0.3134  0.0203
  142TMC2    O2 2220   3.693   3.176  10.600  0.3241  0.2552  0.5832
  142TMC2    O5 2221   3.791   3.284  10.444 -0.1590  0.4481  0.6440
  142TMC2    H5 2222   3.785   3.368  10.394 -0.7461 -0.9747 -1.6716
  143MPD2     C 2223   2.904   2.942  10.590  0.6469  0.0901  0.7297
  143MPD2    C1 2224   2.934   2.970  10.455 -0.3680 -0.0329  0.6281
  143MPD2    C2 2225   3.047   3.038  10.425 -0.3339 -0.0479 -0.6645
  143MPD2    C3 2226   3.131   3.088  10.525  0.0679 -0.1757 -0.6674
  143MPD2    C4 2227   3.098   3.056  10.657  0.7331  0.6806 -0.1816
  143MPD2    C5 2228   2.986   2.982  10.688  0.0670  0.2986  0.0568
  143MPD2     H 2229   3.071   3.048  10.320  1.1579  0.5673 -0.2624
  143MPD2    H1 2230   3.161   3.093  10.737  1.4140  2.2915 -1.4635
  143MPD2    H2 2231   2.817   2.881  10.611  1.3678 -0.3723  2.3283
  143MPD2    H3 2232   2.966   2.963  10.793  0.2737  0.6595  0.1619
  143MPD2     N 2233   3.239   3.177  10.500  0.2781  0.5439 -0.3720
  143MPD2    H5 2234   3.300   3.194  10.579 -0.4606 -0.2225  0.3544
  143MPD2    N1 2235   2.841   2.917  10.361  0.5540  0.4994  0.8933
  143MPD2    H7 2236   2.756   2.874  10.394 -1.4524  1.7704 -2.6747
  144TMC2    C1 2237   0.976   1.680   0.348  0.3721  0.7276  0.3509
  144TMC2    C2 2238   0.977   1.545   0.334 -0.1237  0.9227 -0.4068
  144TMC2    C3 2239   1.079   1.476   0.391  0.3523 -0.3491 -0.1976
  144TMC2    C4 2240   1.076   1.751   0.409 -0.5763 -0.0738 -0.3052
  144TMC2    C5 2241   1.173   1.683   0.468  0.1088  0.2876  0.2067
  144TMC2    C6 2242   1.178   1.546   0.465  0.6967  0.7312 -0.4494
  144TMC2     C 2243   0.872   1.742   0.260  0.4507 -0.1468  0.4972
  144TMC2     O 2244   0.814   1.674   0.178 -0.4642 -0.1576 -0.1370
  144TMC2     H 2245   0.887   1.500   0.294  1.0365 -0.7682 -1.1172
  144TMC2    H1 2246   1.080   1.859   0.398  1.0077  0.0423  1.3034
  144TMC2    H2 2247   1.265   1.492   0.502 -0.4603 -1.3934 -0.8845
  144TMC2    C7 2248   1.285   1.751   0.535  0.8762  0.4163 -0.1985
  144TMC2    C8 2249   1.114   1.352   0.329 -0.4028 -0.2586 -0.7522
  144TMC2    O1 2250   1.390   1.684   0.536  0.1708  0.1444 -0.5101
  144TMC2    O2 2251   1.068   1.318   0.221 -0.2065  0.0674  0.3440
  144TMC2    O5 2252   1.138   1.271   0.439  0.6149 -0.5400  0.2406
  144TMC2    H5 2253   1.130   1.317   0.526 -0.9257  0.9318 -0.6699
  145MPD2     C 2254   0.576   2.135   0.099  0.0156  0.0316 -0.0906
  145MPD2    C1 2255   0.634   2.031   0.029 -0.4318 -0.3199 -0.0827
  145MPD2    C2 2256   0.722   1.942   0.092 -0.3892  0.1431 -0.4122
  145MPD2    C3 2257   0.758   1.958   0.223  0.2879 -0.0129 -0.1877
  145MPD2    C4 2258   0.703   2.074   0.290  0.2885 -0.1926  0.1899
  145MPD2    C5 2259   0.616   2.156   0.223 -0.2316 -0.5928  0.4083
  145MPD2     H 2260   0.773   1.864   0.038  0.7016 -0.2751  1.2109
  145MPD2    H1 2261   0.728   2.100   0.392  2.3600 -0.2607 -0.2877
  145MPD2    H2 2262   0.522   2.213   0.048  0.8586 -0.3148 -1.5266
  145MPD2    H3 2263   0.593   2.252   0.267  0.3316  0.4163 -1.5085
  145MPD2     N 2264   0.842   1.872   0.298 -0.0998 -0.4462  0.2928
  145MPD2    H5 2265   0.880   1.902   0.387  0.4120 -1.6813  0.4938
  145MPD2    N1 2266   0.605   2.000  17.649  0.1824 -0.4793  0.2763
  145MPD2    H7 2267   0.645   1.915  17.609  0.4271  0.4552 -1.4485
  146TMC2    C1 2268   3.293   0.641  12.071 -0.8716  0.1730  0.5273
  146TMC2    C2 2269   3.318   0.660  11.937 -0.2129  0.0617  0.4337
  146TMC2    C3 2270   3.430   0.601  11.889  0.3526 -0.4297  0.0329
  146TMC2    C4 2271   3.373   0.570  12.153  0.2738 -0.0119 -0.2768
  146TMC2    C5 2272   3.476   0.508  12.096 -0.0041  1.0335 -0.5726
  146TMC2    C6 2273   3.510   0.520  11.964  0.5417 -0.5622  0.5650
  146TMC2     C 2274   3.165   0.692  12.121  0.5104 -0.2995 -0.5336
  146TMC2     O 2275   3.078   0.725  12.041 -0.1543 -0.5019 -0.5366
  146TMC2     H 2276   3.247   0.711  11.873 -3.2620 -2.8305  1.4841
  146TMC2    H1 2277   3.346   0.547  12.256  1.7596  0.8691  0.3151
  146TMC2    H2 2278   3.603   0.486  11.919  0.9974 -1.1875  1.9573
  146TMC2    C7 2279   3.561   0.421  12.166  0.1645 -0.5060 -0.0190
  146TMC2    C8 2280   3.442   0.603  11.742  0.8428  0.1605 -0.6919
  146TMC2    O1 2281   3.644   0.347  12.108 -0.0567  0.0126 -0.2458
  146TMC2    O2 2282   3.352   0.641  11.665 -0.1738 -0.2586  0.0456
  146TMC2    O5 2283   3.576   0.595  11.716  0.5430 -0.7441  0.3066
  146TMC2    H5 2284   3.637   0.611  11.791 -0.3845  0.5816  0.7894
  147MPD2     C 2285   3.794   0.286  12.608 -0.0986  0.2873 -0.3230
  147MPD2    C1 2286   3.710   0.386  12.643  0.4117 -0.8697  0.0136
  147MPD2    C2 2287   3.636   0.438  12.538  0.1083 -0.3424  0.3710
  147MPD2    C3 2288   3.646   0.390  12.398  0.4460 -0.6101 -1.3832
  147MPD2    C4 2289   3.727   0.284  12.379  0.2671  0.2209 -0.6701
  147MPD2    C5 2290   3.811   0.243  12.481  0.0062 -0.0238  0.2865
  147MPD2     H 2291   3.568   0.518  12.564 -1.9294 -1.9808  0.1241
  147MPD2    H1 2292   3.738   0.234  12.284  0.1762 -2.4030  0.7006
  147MPD2    H2 2293   3.860   0.248  12.686 -1.7746 -1.4244  0.2814
  147MPD2    H3 2294   3.878   0.158  12.466 -0.4307  0.2883 -3.4997
  147MPD2     N 2295   3.571   0.460  12.298 -0.1884 -0.4209  0.0232
  147MPD2    H5 2296   3.503   0.528  12.330 -0.1578  0.2584 -1.3399
  147MPD2    N1 2297   3.717   0.434  12.776 -0.4212  0.3220 -0.6818
  147MPD2    H7 2298   3.786   0.386  12.833 -1.6121  0.6844  1.0508
  148TMC2    C1 2299   2.444   4.203  10.581  0.0008  0.2037  0.3824
  148TMC2    C2 2300   2.544   4.232  10.492  0.2734 -0.3337 -0.3827
  148TMC2    C3 2301   2.667   4.242  10.543  0.0900  0.3682  0.3211
  148TMC2    C4 2302   2.464   4.183  10.710  0.1947 -0.3303  0.7945
  148TMC2    C5 2303   2.596   4.175  10.751 -0.0875 -0.0568 -0.4547
  148TMC2    C6 2304   2.700   4.213  10.666 -0.4350  0.5702 -0.2046
  148TMC2     C 2305   2.306   4.181  10.533  0.2708 -0.0193 -0.1793
  148TMC2     O 2306   2.216   4.201  10.610  0.8016 -0.4855 -0.0022
  148TMC2     H 2307   2.518   4.261  10.391 -0.6166  0.2052 -0.0039
  148TMC2    H1 2308   2.379   4.148  10.768 -1.1606 -0.7544 -1.4605
  148TMC2    H2 2309   2.806   4.202  10.687 -0.8567 -1.7071  0.8101
  148TMC2    C7 2310   2.626   4.046  10.811 -0.1443  0.4590 -0.7439
  148TMC2    C8 2311   2.768   4.292  10.451 -0.6632 -0.2032 -0.8655
  148TMC2    O1 2312   2.737   4.005  10.781 -0.0729 -0.1454 -0.6957
  148TMC2    O2 2313   2.764   4.395  10.389 -0.3709  0.4428 -0.7711
  148TMC2    O5 2314   2.885   4.216  10.465 -0.1245  0.0989  0.1019
  148TMC2    H5 2315   2.866   4.130  10.509 -0.5835 -0.2289 -0.7502
  149MPD2     C 2316   2.068   4.183  10.356 -0.1731  0.1061  0.2287
  149MPD2    C1 2317   2.192   4.122  10.322 -0.3316 -0.5696 -0.3190
  149MPD2    C2 2318   2.210   4.056  10.204 -0.2036  0.0310 -0.3760
  149MPD2    C3 2319   2.107   4.056  10.111  0.3906  0.7692 -0.2970
  149MPD2    C4 2320   1.988   4.121  10.140 -0.5627 -1.0138 -0.6961
  149MPD2    C5 2321   1.971   4.179  10.263 -0.1302 -0.1743  0.6628
  149MPD2     H 2322   2.305   4.009  10.181  0.4951  0.3646  1.8287
  149MPD2    H1 2323   1.907   4.126  10.069 -1.0034  0.0680 -0.1180
  149MPD2    H2 2324   2.048   4.235  10.449  0.5169 -1.4560  1.2466
  149MPD2    H3 2325   1.876   4.228  10.280  0.5515  0.9243  1.2453
  149MPD2     N 2326   2.111   3.988   9.992  0.4424 -0.3799 -0.1826
  149MPD2    H5 2327   2.032   4.007   9.931  1.5105  1.9974 -0.8369
  149MPD2    N1 2328   2.307   4.129  10.402  0.1486  0.4170 -0.0814
  149MPD2    H7 2329   2.396   4.097  10.365 -0.7900 -1.5516 -0.6140
  150TMC2    C1 2330   0.091   3.940  12.184  0.4192  0.2607 -0.4550
  150TMC2    C2 2331   0.071   3.972  12.056 -0.4070  0.1419  0.3452
  150TMC2    C3 2332   0.172   3.947  11.969  0.7495 -0.3151 -0.3286
  150TMC2    C4 2333   0.208   3.890  12.229 -0.2037 -0.1085 -0.3082
  150TMC2    C5 2334   0.308   3.870  12.132  0.1761 -0.4037 -0.2301
  150TMC2    C6 2335   0.284   3.891  11.998 -0.6590 -0.6591  0.3227
  150TMC2     C 2336   4.725   3.910  12.277  0.0814 -0.3238  0.2745
  150TMC2     O 2337   0.012   3.910  12.396 -0.0679  0.1273 -0.1291
  150TMC2     H 2338   4.717   4.016  12.022 -0.5379 -1.5847 -1.5916
  150TMC2    H1 2339   0.216   3.865  12.334 -0.9673 -1.7673 -0.6389
  150TMC2    H2 2340   0.363   3.888  11.924 -0.5020 -2.9811  0.5832
  150TMC2    C7 2341   0.446   3.877  12.168 -0.1048 -0.0348  0.7587
  150TMC2    C8 2342   0.134   3.977  11.832  0.4762  0.1738  0.3544
  150TMC2    O1 2343   0.519   3.937  12.089  0.5085 -0.3645 -0.3741
  150TMC2    O2 2344   0.023   3.949  11.792  0.5472 -0.2807 -0.2097
  150TMC2    O5 2345   0.252   3.980  11.760  0.3254 -0.3087  0.0436
  150TMC2    H5 2346   0.321   4.024  11.816 -1.3889  1.6829  0.6011
  151MPD2     C 2347   4.296   3.633  12.368  0.1481 -0.3089  0.7075
  151MPD2    C1 2348   4.298   3.666  12.237 -0.4077 -0.1497 -0.0288
  151MPD2    C2 2349   4.394   3.760  12.188 -0.0332  0.3197  0.7329
  151MPD2    C3 2350   4.493   3.803  12.273 -0.4812 -0.3350 -0.3046
  151MPD2    C4 2351   4.485   3.772  12.403 -0.0357  0.2332 -0.0158
  151MPD2    C5 2352   4.382   3.693  12.461 -0.6393  0.4268  0.0881
  151MPD2     H 2353   4.401   3.784  12.083  0.3112 -0.1645  0.6484
  151MPD2    H1 2354   4.553   3.803  12.482 -1.9727  1.3950  1.1939
  151MPD2    H2 2355   4.236   3.554  12.411  0.5646 -1.9971 -1.7855
  151MPD2    H3 2356   4.378   3.661  12.565  0.6115  0.4239  0.1272
  151MPD2     N 2357   4.612   3.864  12.217  0.3598  0.1065 -0.2991
  151MPD2    H5 2358   4.605   3.887  12.119  2.3660 -0.1443 -0.4986
  151MPD2    N1 2359   4.190   3.613  12.154 -0.0011 -0.2775  0.5361
  151MPD2    H7 2360   4.114   3.560  12.195  0.0572  0.1568  1.1959
  152TMC2    C1 2361   4.736   3.449  12.746 -0.1932  0.0520  0.1494
  152TMC2    C2 2362   0.096   3.355  12.774  0.5281 -0.5518  0.2249
  152TMC2    C3 2363   0.214   3.404  12.827  0.5180  0.7703  0.1635
  152TMC2    C4 2364   0.027   3.584  12.768 -0.0744 -0.6673 -0.9918
  152TMC2    C5 2365   0.142   3.629  12.824  0.6093  0.3235  0.2735
  152TMC2    C6 2366   0.243   3.538  12.848 -0.1786 -0.2525 -0.2624
  152TMC2     C 2367   4.599   3.407  12.737  0.1723  0.0247  0.1885
  152TMC2     O 2368   4.506   3.489  12.766  0.6149  0.4208  0.3145
  152TMC2     H 2369   0.081   3.248  12.768  0.5582 -0.4122 -2.1291
  152TMC2    H1 2370   4.684   3.652  12.747  1.3128  0.8050 -1.6315
  152TMC2    H2 2371   0.331   3.578  12.897 -0.3279 -1.3859  0.9430
  152TMC2    C7 2372   0.189   3.766  12.816  0.4571 -0.3285  0.1383
  152TMC2    C8 2373   0.293   3.310  12.900 -0.1837 -0.0758  0.2531
  152TMC2    O1 2374   0.169   3.832  12.716  0.1634  0.4532 -0.1331
  152TMC2    O2 2375   0.245   3.206  12.943 -0.6522  0.0067  0.3438
  152TMC2    O5 2376   0.425   3.352  12.915  0.0076  0.3850  0.3598
  152TMC2    H5 2377   0.444   3.443  12.882  0.5774  0.1066 -0.0638
  153MPD2     C 2378   4.496   3.059  12.709 -0.6262  0.6333  0.4416
  153MPD2    C1 2379   4.479   3.195  12.695 -0.1035 -0.2706  0.2673
  153MPD2    C2 2380   4.353   3.250  12.680  0.1181  0.7137  1.3702
  153MPD2    C3 2381   4.247   3.161  12.668 -0.9704 -0.4983  0.7687
  153MPD2    C4 2382   4.266   3.024  12.679 -0.1033 -0.1485 -0.1845
  153MPD2    C5 2383   4.389   2.972  12.703 -0.0485 -0.5221 -0.4653
  153MPD2     H 2384   4.343   3.358  12.668  1.1484  0.7531  0.8144
  153MPD2    H1 2385   4.186   2.951  12.672 -0.7061  0.6069 -1.2863
  153MPD2    H2 2386   4.593   3.014  12.729 -0.8296  0.7539  1.6632
  153MPD2    H3 2387   4.398   2.864  12.705 -0.1731 -0.5379 -0.8911
  153MPD2     N 2388   4.115   3.215  12.635  0.5842  0.2903  0.3613
  153MPD2    H5 2389   4.120   3.314  12.614  0.7819  0.7732  2.6827
  153MPD2    N1 2390   4.594   3.271  12.715 -0.2784 -0.6120 -0.2167
  153MPD2    H7 2391   4.680   3.219  12.729 -0.2150 -0.8821 -1.6535
  154TMC2    C1 2392   0.889   2.876   0.093  0.0303 -0.4964  0.3080
  154TMC2    C2 2393   0.865   2.852  17.712  0.4368  0.5833  0.0831
  154TMC2    C3 2394   0.973   2.833  17.628  0.4101  0.3380  0.0413
  154TMC2    C4 2395   1.015   2.876   0.145 -0.2525 -0.3612 -0.1694
  154TMC2    C5 2396   1.117   2.838   0.059  0.0492 -0.6057  0.2430
  154TMC2    C6 2397   1.094   2.810  17.681 -0.0896 -0.5441  0.1467
  154TMC2     C 2398   0.788   2.926   0.182 -0.0749 -0.2378  0.3214
  154TMC2     O 2399   0.813   2.915   0.299 -0.0533  0.0152 -0.3503
  154TMC2     H 2400   0.763   2.868  17.678 -0.0514 -1.2163  0.6938
  154TMC2    H1 2401   1.037   2.911   0.245  0.9361  0.2489 -0.6417
  154TMC2    H2 2402   1.171   2.764  17.621  0.5147 -1.7392  1.8406
  154TMC2    C7 2403   1.256   2.841   0.095  0.0640  0.0109  0.6496
  154TMC2    C8 2404   0.956   2.784  17.494 -0.4500  0.1007 -0.0121
  154TMC2    O1 2405   1.329   2.884   0.007 -0.5584  0.5165  0.5496
  154TMC2    O2 2406   1.006   2.678  17.463  0.0483  0.2665  0.5858
  154TMC2    O5 2407   0.835   2.826  17.457  0.0318  0.4917 -0.4547
  154TMC2    H5 2408   0.820   2.917  17.491  1.5634  0.3466  0.6428
  155MPD2     C 2409   0.490   3.120   0.101  0.5881  0.0129 -0.2909
  155MPD2    C1 2410   0.584   3.068   0.178  0.1055 -0.4165  0.3617
  155MPD2    C2 2411   0.605   3.118   0.306 -0.7098 -0.4473  0.3444
  155MPD2    C3 2412   0.520   3.211   0.362  0.5156 -0.3923 -0.3996
  155MPD2    C4 2413   0.408   3.249   0.294  0.5060  0.6951 -0.5181
  155MPD2    C5 2414   0.402   3.209   0.163 -0.2432 -0.0847 -0.8998
  155MPD2     H 2415   0.675   3.076   0.377  0.1806  1.8959  0.8302
  155MPD2    H1 2416   0.337   3.328   0.316 -0.1570  0.1220 -0.5968
  155MPD2    H2 2417   0.473   3.076   0.004 -1.0844  1.3444 -0.6132
  155MPD2    H3 2418   0.315   3.242   0.107 -0.0241  0.7918 -0.7282
  155MPD2     N 2419   0.545   3.254   0.493 -0.8677  0.2205 -1.1220
  155MPD2    H5 2420   0.625   3.215   0.541 -1.0371 -0.3847 -1.3313
  155MPD2    N1 2421   0.680   2.981   0.118  0.4324 -0.6922  0.0017
  155MPD2    H7 2422   0.673   2.975   0.017 -0.7514  2.2626 -0.0882
  156TMC2    C1 2423   3.869   1.036  11.355  0.3771 -0.5998 -0.5148
  156TMC2    C2 2424   3.971   0.950  11.308  1.0473  1.0050  1.1883
  156TMC2    C3 2425   4.038   0.991  11.201  0.4079 -0.5102  0.1134
  156TMC2    C4 2426   3.826   1.138  11.279  0.5813  0.1385  0.7392
  156TMC2    C5 2427   3.897   1.170  11.166  0.0621 -0.6240 -0.1599
  156TMC2    C6 2428   4.004   1.096  11.128  0.0252 -0.0971  0.0833
  156TMC2     C 2429   3.837   1.034  11.498  0.4510 -0.5174 -0.5986
  156TMC2     O 2430   3.883   0.942  11.562  0.3917 -0.6230 -0.2569
  156TMC2     H 2431   4.013   0.876  11.375  1.0795 -0.2628 -0.2036
  156TMC2    H1 2432   3.742   1.201  11.306  0.1447  0.7078 -1.8951
  156TMC2    H2 2433   4.062   1.122  11.040 -0.1949 -3.0431 -0.9288
  156TMC2    C7 2434   3.854   1.275  11.073  0.9253  0.8515 -0.4916
  156TMC2    C8 2435   4.161   0.922  11.170  0.1804  0.0493 -0.1632
  156TMC2    O1 2436   3.948   1.330  11.013 -0.4232 -0.2260  0.9238
  156TMC2    O2 2437   4.227   0.882  11.262 -0.7800 -0.1437 -0.9442
  156TMC2    O5 2438   4.208   0.951  11.046 -0.4172 -0.0888 -0.4637
  156TMC2    H5 2439   4.143   0.969  10.975 -0.2704 -0.0654 -0.5942
  157MPD2     C 2440   3.644   1.285  11.708 -0.3501  0.1228  0.9478
  157MPD2    C1 2441   3.721   1.172  11.680 -0.3476 -0.2086 -0.0956
  157MPD2    C2 2442   3.775   1.103  11.788  0.2790 -0.5385 -0.3794
  157MPD2    C3 2443   3.764   1.142  11.921  0.0979 -0.1432 -0.2219
  157MPD2    C4 2444   3.690   1.261  11.940  0.0914  0.1085  0.1004
  157MPD2    C5 2445   3.631   1.330  11.838  0.4024 -0.5272 -0.5679
  157MPD2     H 2446   3.847   1.026  11.763  1.7015  0.3614  0.9709
  157MPD2    H1 2447   3.676   1.297  12.041 -2.5166  2.2457 -1.0230
  157MPD2    H2 2448   3.619   1.349  11.625  0.9196 -0.2143  0.2952
  157MPD2    H3 2449   3.582   1.425  11.854  1.7150  0.3353 -1.6340
  157MPD2     N 2450   3.827   1.062  12.019 -0.0379 -0.1443  0.8556
  157MPD2    H5 2451   3.874   0.975  11.996 -0.4564 -0.0948 -0.1612
  157MPD2    N1 2452   3.756   1.138  11.548  0.1536  0.3077  0.3967
  157MPD2    H7 2453   3.730   1.213  11.485  2.8137 -1.1926 -2.4693
  158TMC2    C1 2454   0.114   4.425  13.633 -0.0017  0.3717  0.1165
  158TMC2    C2 2455   0.154   4.525  13.546  0.0232 -0.0303 -0.0824
  158TMC2    C3 2456   0.052   4.609  13.509  0.0899  0.3175  0.6572
  158TMC2    C4 2457   4.726   4.430  13.694 -0.5767 -0.2322  0.1333
  158TMC2    C5 2458   4.633   4.520  13.648 -0.4173  0.3476  0.0325
  158TMC2    C6 2459   4.660   4.607  13.547 -0.0915  0.3566 -0.4805
  158TMC2     C 2460   0.221   4.343  13.683  0.3444 -0.2796 -0.0758
  158TMC2     O 2461   0.329   4.363  13.634 -0.0677  0.5334  0.5253
  158TMC2     H 2462   0.255   4.524  13.506  0.1086  0.7792  0.1017
  158TMC2    H1 2463   4.700   4.351  13.764 -1.8647 -0.7492 -0.9217
  158TMC2    H2 2464   4.582   4.671  13.509  0.9826  1.5399 -0.6819
  158TMC2    C7 2465   4.495   4.502  13.698 -1.2350  0.4626  0.1511
  158TMC2    C8 2466   0.082   4.722  13.422  0.1772  0.5951  0.2975
  158TMC2    O1 2467   4.425   4.596  13.672 -0.1775 -0.2961  0.7955
  158TMC2    O2 2468   0.170   4.732  13.338 -0.3854 -0.7208  0.7265
  158TMC2    O5 2469   0.017   0.089  13.485 -0.0272  0.0464 -0.2196
  158TMC2    H5 2470   0.016   0.074  13.582 -1.4631 -1.8460 -0.5338
  159MPD2     C 2471   0.348   3.924  13.963 -0.1382  0.2453 -0.3519
  159MPD2    C1 2472   0.217   3.959  13.992  0.3621  0.4361  0.0858
  159MPD2    C2 2473   0.167   4.076  13.939  0.8431 -0.1923 -0.1213
  159MPD2    C3 2474   0.240   4.145  13.846  0.9482 -0.0408 -0.2300
  159MPD2    C4 2475   0.366   4.103  13.814 -0.3128 -0.2348 -0.1276
  159MPD2    C5 2476   0.416   3.990  13.869  0.1006  0.5578  0.3703
  159MPD2     H 2477   0.065   4.108  13.959  1.4206  1.6061 -0.0442
  159MPD2    H1 2478   0.428   4.171  13.755  0.4108  0.9664  2.0215
  159MPD2    H2 2479   0.386   3.831  14.005 -0.5557  0.7690  1.1777
  159MPD2    H3 2480   0.516   3.959  13.839  0.0533  1.2761 -0.5373
  159MPD2     N 2481   0.183   4.258  13.783 -0.1425 -0.1491  0.3583
  159MPD2    H5 2482   0.089   4.279  13.813 -0.2182  0.6331 -0.4095
  159MPD2    N1 2483   0.142   3.885  14.087  0.0997 -0.2831 -0.0539
  159MPD2    H7 2484   0.195   3.814  14.137 -0.2129  0.0976  0.8219
  160TMC2    C1 2485   4.421   2.536   1.522  0.0580  0.7711  0.2227
  160TMC2    C2 2486   4.290   2.501   1.506 -0.1049 -0.3151  0.0966
  160TMC2    C3 2487   4.260   2.402   1.411 -0.1865  0.7428  0.1343
  160TMC2    C4 2488   4.517   2.476   1.446 -0.2578 -0.0650  0.3530
  160TMC2    C5 2489   4.488   2.378   1.356 -0.5364 -1.0877  0.4963
  160TMC2    C6 2490   4.359   2.332   1.341 -0.0158  0.4354 -0.1550
  160TMC2     C 2491   4.462   2.662   1.584 -0.1451 -0.2571  0.2093
  160TMC2     O 2492   4.579   2.683   1.605  0.0398  0.3767 -0.0149
  160TMC2     H 2493   4.219   2.547   1.573 -0.4831 -0.2010 -0.3825
  160TMC2    H1 2494   4.616   2.518   1.455 -0.1691 -0.2662  0.3085
  160TMC2    H2 2495   4.333   2.255   1.269  1.3814 -0.4074  0.2592
  160TMC2    C7 2496   4.563   2.365   1.231 -0.1491  0.7911  0.1230
  160TMC2    C8 2497   4.134   2.352   1.432 -1.0480  0.7412 -0.3801
  160TMC2    O1 2498   4.523   2.287   1.149 -0.3698  0.3789 -0.1887
  160TMC2    O2 2499   4.069   2.349   1.536  0.0786  0.0371 -0.0474
  160TMC2    O5 2500   4.084   2.337   1.309  0.0273 -0.0383  0.5209
  160TMC2    H5 2501   4.126   2.381   1.232  0.0795  0.1234  0.6435
  161MPD2     C 2502   4.480   2.947   1.668 -0.0190 -0.5193  0.5550
  161MPD2    C1 2503   4.410   2.895   1.561 -0.2101  0.0202  0.2101
  161MPD2    C2 2504   4.348   2.979   1.471 -0.0001  0.3931  0.1629
  161MPD2    C3 2505   4.379   3.114   1.468  0.3288  0.1396 -0.0933
  161MPD2    C4 2506   4.455   3.165   1.563  0.6171 -0.5716  0.7432
  161MPD2    C5 2507   4.498   3.082   1.661 -0.3398  0.4089 -0.1875
  161MPD2     H 2508   4.296   2.932   1.389  1.5170 -1.2220  0.1178
  161MPD2    H1 2509   4.473   3.271   1.572 -0.6330 -0.4051  1.2841
  161MPD2    H2 2510   4.521   2.881   1.745 -0.1871 -0.2965  0.8334
  161MPD2    H3 2511   4.536   3.131   1.751 -0.1046 -0.0835 -0.0155
  161MPD2     N 2512   4.331   3.202   1.367  0.7093  0.3406 -0.2861
  161MPD2    H5 2513   4.355   3.301   1.377 -0.2282  0.5887 -0.4587
  161MPD2    N1 2514   4.381   2.758   1.538  0.2608 -0.1480 -0.4079
  161MPD2    H7 2515   4.306   2.731   1.474  0.3701  0.7555 -0.9150
  162TMC2    C1 2516   3.002   0.018   1.401 -0.9901  0.1876  0.2861
  162TMC2    C2 2517   2.999   0.136   1.462  0.1789 -0.7494  0.0063
  162TMC2    C3 2518   3.081   0.167   1.565 -0.8871 -0.7043 -0.6019
  162TMC2    C4 2519   3.086   4.665   1.447 -0.4414  0.0295 -0.1634
  162TMC2    C5 2520   3.180   4.695   1.549  0.3322 -0.4976 -0.4485
  162TMC2    C6 2521   3.184   0.083   1.602  0.4328 -0.2028  0.0434
  162TMC2     C 2522   2.943   4.734   1.272 -0.0393  0.5366  0.0617
  162TMC2     O 2523   2.966   4.633   1.208  0.4731 -0.4632  0.1901
  162TMC2     H 2524   2.932   0.209   1.419  1.0380 -0.8105 -1.4357
  162TMC2    H1 2525   3.082   4.570   1.395 -0.9380 -0.6716  1.1500
  162TMC2    H2 2526   3.253   0.117   1.679  0.3730 -1.7486  0.7839
  162TMC2    C7 2527   3.282   4.603   1.603 -0.3234 -0.1797 -0.8077
  162TMC2    C8 2528   3.071   0.297   1.630 -0.9076 -0.2597 -0.4424
  162TMC2    O1 2529   3.328   4.633   1.712 -0.6663 -0.2084  0.5127
  162TMC2    O2 2530   3.163   0.333   1.703 -0.4933  0.6663  0.3907
  162TMC2    O5 2531   2.940   0.330   1.634  0.1567 -0.2642 -0.2285
  162TMC2    H5 2532   2.887   0.253   1.606 -2.9470  2.4635 -1.9181
  163MPD2     C 2533   2.529   0.078   0.971 -0.3136  0.1503 -0.2316
  163MPD2    C1 2534   2.646   0.010   0.942  0.1941  0.3497  0.1988
  163MPD2    C2 2535   2.752   0.006   1.035 -0.1164  0.1627  0.4002
  163MPD2    C3 2536   2.738   0.065   1.157 -0.0993  0.1581 -0.0648
  163MPD2    C4 2537   2.617   0.126   1.185 -0.5346  0.7356  0.0128
  163MPD2    C5 2538   2.520   0.137   1.089  1.0882  0.0943  0.5642
  163MPD2     H 2539   2.849   4.702   1.013  0.2426  0.4785  1.3700
  163MPD2    H1 2540   2.612   0.189   1.273 -2.7403  0.4744  0.0606
  163MPD2    H2 2541   2.444   0.088   0.904 -0.6876  0.6422  0.3146
  163MPD2    H3 2542   2.436   0.201   1.115  2.0371  1.4790  0.1931
  163MPD2     N 2543   2.829   0.066   1.262 -0.0026  0.0732  0.4354
  163MPD2    H5 2544   2.794   0.117   1.343 -2.1881  0.0645 -0.5231
  163MPD2    N1 2545   2.654   4.700   0.812 -0.2612  0.5797 -0.2101
  163MPD2    H7 2546   2.575   4.714   0.750 -1.3285  0.6789  1.1687
  164TMC2    C1 2547   3.186   4.210  11.179  0.1690 -0.6639 -0.0880
  164TMC2    C2 2548   3.277   4.307  11.166 -0.0024 -0.1911 -0.1300
  164TMC2    C3 2549   3.258   4.419  11.243 -0.2019  0.3555 -0.0991
  164TMC2    C4 2550   3.062   4.228  11.241 -0.5862 -0.3078  0.5426
  164TMC2    C5 2551   3.045   4.351  11.310  0.2183 -0.6877 -0.0515
  164TMC2    C6 2552   3.143   4.438  11.320  0.5266 -0.1316 -0.5936
  164TMC2     C 2553   3.223   4.068  11.171 -0.1521  0.9438  0.0150
  164TMC2     O 2554   3.173   3.986  11.245  0.0892  0.4075 -0.1856
  164TMC2     H 2555   3.371   4.286  11.118  0.9095  2.5653  0.4560
  164TMC2    H1 2556   2.989   4.150  11.254 -1.9061  1.0645  1.4318
  164TMC2    H2 2557   3.127   4.536  11.364 -0.4027  0.2282 -1.7470
  164TMC2    C7 2558   2.907   4.379  11.351 -0.4539  0.2702  0.1426
  164TMC2    C8 2559   3.325   4.539  11.197  0.5655 -0.1284 -0.1029
  164TMC2    O1 2560   2.817   4.322  11.285  0.3933  0.5963  0.4903
  164TMC2    O2 2561   3.363   4.552  11.082  0.0314  0.0837  0.0471
  164TMC2    O5 2562   3.370   4.604  11.302  0.4681 -0.4299 -0.2088
  164TMC2    H5 2563   3.346   4.553  11.383  0.1233  0.9217  0.5514
  165TMC2    C1 2564   4.068   1.681   1.357  0.0807 -0.3069  0.1662
  165TMC2    C2 2565   4.074   1.651   1.220 -0.5122 -0.4342 -0.8590
  165TMC2    C3 2566   4.163   1.728   1.147  1.1259 -0.2678 -0.1889
  165TMC2    C4 2567   4.155   1.760   1.416  0.1207  0.6399  0.7953
  165TMC2    C5 2568   4.234   1.840   1.335 -0.1253  0.6760  0.4036
  165TMC2    C6 2569   4.244   1.824   1.202 -0.0356  0.3039  0.1701
  165TMC2     C 2570   3.973   1.604   1.440  0.2913 -0.1474  0.2166
  165TMC2     O 2571   3.931   1.497   1.395 -0.2817  0.3776  0.0124
  165TMC2     H 2572   4.006   1.579   1.176  0.7989 -0.2466 -3.1513
  165TMC2    H1 2573   4.160   1.773   1.524 -2.5705 -0.1588  0.9962
  165TMC2    H2 2574   4.309   1.884   1.140 -2.7304 -0.0516 -2.9939
  165TMC2    C7 2575   4.331   1.932   1.389  0.3155  0.4810  0.2091
  165TMC2    C8 2576   4.164   1.715   1.007 -1.1938 -0.1962  0.0907
  165TMC2    O1 2577   4.416   1.972   1.313 -0.2738 -0.1210 -0.0707
  165TMC2    O2 2578   4.062   1.700   0.934  0.1228 -0.0197  0.2251
  165TMC2    O5 2579   4.289   1.721   0.959  0.1098 -0.1439  0.9120
  165TMC2    H5 2580   4.356   1.727   1.031  0.6785  2.4027  0.1656
  166MPD2     C 2581   3.723   1.489   1.878  0.2216  0.0021 -0.0130
  166MPD2    C1 2582   3.765   1.408   1.774 -0.1222  0.4996  0.4352
  166MPD2    C2 2583   3.836   1.459   1.665 -0.6075 -0.1510  0.3403
  166MPD2    C3 2584   3.863   1.599   1.666  0.1638 -0.1374  0.6358
  166MPD2    C4 2585   3.829   1.678   1.767 -0.3210  0.6170 -0.4527
  166MPD2    C5 2586   3.754   1.622   1.868  0.0702  0.2209 -0.5349
  166MPD2     H 2587   3.884   1.399   1.588 -0.0364 -0.0382  0.6062
  166MPD2    H1 2588   3.856   1.783   1.773 -2.9429  1.3621 -1.7385
  166MPD2    H2 2589   3.652   1.448   1.949  1.8927 -1.1006  1.0412
  166MPD2    H3 2590   3.707   1.680   1.947 -1.3047 -1.9413  0.2536
  166MPD2     N 2591   3.939   1.662   1.560  0.1602 -0.9282  0.4261
  166MPD2    H5 2592   3.962   1.760   1.572 -0.2610 -0.5338 -2.0223
  166MPD2    N1 2593   3.731   1.270   1.786  0.5178  0.3961 -0.2804
  166MPD2    H7 2594   3.665   1.255   1.862 -0.4055  1.5887 -0.8439
  167TMC2    C1 2595   2.422   4.287  12.597 -0.8361  0.1635  0.0190
  167TMC2    C2 2596   2.365   4.325  12.716 -0.2752  0.0312  0.5747
  167TMC2    C3 2597   2.308   4.220  12.789 -0.0051  0.0925 -0.5266
  167TMC2    C4 2598   2.422   4.154  12.553  0.4994  0.3273  0.0253
  167TMC2    C5 2599   2.379   4.058  12.639  0.8859  0.9066  0.4161
  167TMC2    C6 2600   2.313   4.088  12.759 -0.5224 -0.9715  0.4840
  167TMC2     C 2601   2.440   4.400  12.506  0.0437  0.2877  0.0029
  167TMC2     O 2602   2.471   4.507  12.552 -0.0473  0.3176 -0.9022
  167TMC2     H 2603   2.365   4.428  12.748 -0.0775  0.4820 -0.8612
  167TMC2    H1 2604   2.475   4.136  12.460 -1.2160 -0.8792 -0.7281
  167TMC2    H2 2605   2.252   4.019  12.815  1.4450 -1.2885  2.2445
  167TMC2    C7 2606   2.391   3.911  12.601  0.1450 -0.5957  0.8656
  167TMC2    C8 2607   2.301   4.243  12.924  0.0198 -0.0086 -0.2448
  167TMC2    O1 2608   2.328   3.847  12.685 -0.3523  0.1612 -0.2116
  167TMC2    O2 2609   2.297   4.150  13.010 -0.2747  0.0731  0.1598
  167TMC2    O5 2610   2.230   4.360  12.924  0.3546  0.0952 -0.7898
  167TMC2    H5 2611   2.210   4.413  12.844 -0.4435 -0.1565 -0.7591
  168MPD2     C 2612   2.453   4.570  12.258  0.0731 -0.4551  0.0811
  168MPD2    C1 2613   2.396   4.444  12.269 -0.8981 -0.0897  0.2832
  168MPD2    C2 2614   2.374   4.368  12.156 -0.2197 -0.3349  0.5910
  168MPD2    C3 2615   2.398   4.417  12.030 -0.0399 -0.7400 -0.6086
  168MPD2    C4 2616   2.440   4.544  12.020 -0.1636 -0.8292  0.5605
  168MPD2    C5 2617   2.467   4.616  12.132 -0.1302  0.9550 -0.1097
  168MPD2     H 2618   2.333   4.269  12.173 -2.3812  0.2737 -1.1087
  168MPD2    H1 2619   2.464   4.575  11.919 -3.2012  1.6004  0.5908
  168MPD2    H2 2620   2.492   4.632  12.339  3.5536  0.4023 -2.2673
  168MPD2    H3 2621   2.525   4.706  12.111 -2.6486  2.3233 -1.2306
  168MPD2     N 2622   2.376   4.342  11.912  0.2289  0.0219 -0.6731
  168MPD2    H5 2623   2.399   4.393  11.827 -3.4730  4.6525  1.0839
  168MPD2    N1 2624   2.384   4.366  12.390 -0.1862 -0.7606 -0.5560
  168MPD2    H7 2625   2.344   4.273  12.378 -1.9309 -0.3149  1.7294
  169MPD1     C 2626   3.757   4.256   9.396  0.3800 -0.3788  0.8085
  169MPD1    C1 2627   3.703   4.129   9.382 -0.9929  1.1279 -0.2442
  169MPD1    C2 2628   3.794   4.024   9.391 -0.0599  0.3752  0.8645
  169MPD1    C3 2629   3.932   4.040   9.396  0.3118 -0.3624 -0.1047
  169MPD1    C4 2630   3.984   4.167   9.403 -0.5363  0.6860 -0.2806
  169MPD1    C5 2631   3.892   4.271   9.399 -0.1673 -0.1665  0.1284
  169MPD1     H 2632   3.752   3.925   9.405 -2.8488  1.3594 -0.4677
  169MPD1    H1 2633   4.091   4.185   9.408 -0.3512 -0.7870  1.0641
  169MPD1    H2 2634   3.701   4.349   9.393 -1.6624 -1.5524  2.2960
  169MPD1    H3 2635   3.935   4.370   9.405 -0.8709  0.1850 -0.6340
  169MPD1     N 2636   4.009   3.920   9.407  0.1384 -0.5449  1.1738
  169MPD1    H5 2637   3.962   3.831   9.400 -1.0325  0.4319 -3.4976
  169MPD1    N1 2638   3.566   4.116   9.382 -0.3622  0.0295 -0.0942
  169MPD1    H6 2639   3.536   4.035   9.329  0.5954 -0.0754 -0.4814
  169MPD1    H7 2640   3.519   4.202   9.353 -0.5569  0.2138  0.7618
  170MPD1     C 2641   3.461   1.594  12.519  0.1392  0.3597 -0.2168
  170MPD1    C1 2642   3.373   1.696  12.492 -0.0260  1.0965 -0.6088
  170MPD1    C2 2643   3.290   1.735  12.597  0.3770  0.1159 -0.1462
  170MPD1    C3 2644   3.312   1.699  12.731  0.1335 -0.0300 -0.2567
  170MPD1    C4 2645   3.417   1.613  12.749 -0.5591 -0.1111  0.1122
  170MPD1    C5 2646   3.487   1.561  12.648 -0.0858 -0.5359 -0.5930
  170MPD1     H 2647   3.210   1.807  12.587  1.3140  1.0325 -1.0818
  170MPD1    H1 2648   3.439   1.571  12.847 -1.5636 -0.5762  0.1406
  170MPD1    H2 2649   3.514   1.557  12.432  0.5692 -1.0636  0.6448
  170MPD1    H3 2650   3.552   1.476  12.665 -0.3614 -0.5562  0.3689
  170MPD1     N 2651   3.234   1.755  12.831  1.0147 -0.0424  0.4909
  170MPD1    H5 2652   3.145   1.788  12.797  1.0159 -2.0030 -1.4796
  170MPD1    N1 2653   3.352   1.734  12.363 -0.1881  0.0237  0.5201
  170MPD1    H6 2654   3.437   1.732  12.306 -0.4569 -0.1618  0.1210
  170MPD1    H7 2655   3.323   1.832  12.363  1.0904  0.4089 -0.0454
  171MPD1     C 2656   1.611   2.247  14.933  1.1274  0.3273 -0.2877
  171MPD1    C1 2657   1.644   2.363  15.001  0.4371  0.0680 -0.2900
  171MPD1    C2 2658   1.722   2.352  15.121 -0.2312  0.3531 -0.3064
  171MPD1    C3 2659   1.741   2.228  15.177  0.1656  0.1957  0.2952
  171MPD1    C4 2660   1.707   2.114  15.108 -0.2037  0.6100 -0.0210
  171MPD1    C5 2661   1.638   2.125  14.991 -0.0728 -0.3820  0.0709
  171MPD1     H 2662   1.748   2.450  15.160  0.6617  0.1365 -0.3609
  171MPD1    H1 2663   1.717   2.015  15.152  0.0195  1.1715  1.1824
  171MPD1    H2 2664   1.555   2.248  14.841 -1.4849 -0.4551  1.3048
  171MPD1    H3 2665   1.612   2.032  14.942 -1.3186  0.1270 -0.2528
  171MPD1     N 2666   1.814   2.214  15.293 -0.0367 -0.1233 -0.1712
  171MPD1    H5 2667   1.846   2.125  15.329  0.8671 -0.1900 -1.1374
  171MPD1    N1 2668   1.640   2.486  14.928 -0.0049  0.0636 -0.4934
  171MPD1    H6 2669   1.615   2.565  14.987  1.8624  0.5650 -0.3783
  171MPD1    H7 2670   1.565   2.481  14.859  0.0706  1.1426 -0.6557
  172MPD1     C 2671   1.000   1.671  17.229 -0.0917 -0.0427  0.4896
  172MPD1    C1 2672   0.925   1.685  17.339  0.2384 -0.1239  0.1514
  172MPD1    C2 2673   0.958   1.785  17.433 -0.1225  0.2924 -0.1303
  172MPD1    C3 2674   1.043   1.894  17.395 -0.6298  0.3064  0.4543
  172MPD1    C4 2675   1.106   1.881  17.276  0.1587 -0.2504 -0.4753
  172MPD1    C5 2676   1.091   1.772  17.194  0.2197  0.2320 -0.6350
  172MPD1     H 2677   0.906   1.783  17.528  0.7423 -1.0074  0.3180
  172MPD1    H1 2678   1.181   1.952  17.243  1.8268  0.2083  4.2797
  172MPD1    H2 2679   0.993   1.587  17.160  1.0197 -0.1070  0.4554
  172MPD1    H3 2680   1.145   1.774  17.101  1.0086  1.4381 -0.1636
  172MPD1     N 2681   1.076   2.004  17.473 -0.9523  0.6283  0.3269
  172MPD1    H5 2682   1.133   2.078  17.433  0.2732 -0.4370  0.0973
  172MPD1    N1 2683   0.837   1.582  17.377  1.0340 -0.4477 -0.5670
  172MPD1    H6 2684   0.788   1.541  17.298 -0.2239 -1.4787  0.7447
  172MPD1    H7 2685   0.764   1.623  17.436  2.4650 -1.2177  1.7664
  173MPD1     C 2686   3.217   1.640  14.348 -0.6311 -0.2260 -0.4139
  173MPD1    C1 2687   3.119   1.644  14.445  0.2305 -0.1700  0.2805
  173MPD1    C2 2688   3.002   1.574  14.418 -0.2174 -0.8186  0.6543
  173MPD1    C3 2689   2.979   1.509  14.294  0.1927  0.0066  0.0029
  173MPD1    C4 2690   3.073   1.532  14.190  0.2875 -0.1528  0.1190
  173MPD1    C5 2691   3.191   1.591  14.226  0.2288  0.8910 -0.4051
  173MPD1     H 2692   2.932   1.566  14.501 -0.4046 -0.4888  0.5248
  173MPD1    H1 2693   3.068   1.494  14.088  1.0998 -2.6487  1.0047
  173MPD1    H2 2694   3.316   1.680  14.360 -0.5107 -0.8129  0.5580
  173MPD1    H3 2695   3.274   1.610  14.158  0.0763  0.1567 -0.7922
  173MPD1     N 2696   2.859   1.432  14.279  0.3331  0.4092 -0.0520
  173MPD1    H5 2697   2.796   1.427  14.358  0.5485 -1.2553  0.0058
  173MPD1    N1 2698   3.154   1.675  14.580  0.1998  0.1252 -0.7532
  173MPD1    H6 2699   3.069   1.703  14.628  0.7555 -1.6891  1.2985
  173MPD1    H7 2700   3.210   1.760  14.580 -1.3810  1.1543 -0.7336
  174MPD1     C 2701   2.782   0.541  13.845 -1.0208  0.0945  0.4391
  174MPD1    C1 2702   2.649   0.563  13.884 -1.0386  1.1136  0.2517
  174MPD1    C2 2703   2.627   0.685  13.952  0.0924  0.9611  0.3182
  174MPD1    C3 2704   2.716   0.786  13.945  0.2263 -0.3051 -0.2410
  174MPD1    C4 2705   2.839   0.764  13.888 -0.3057  0.2408  0.3013
  174MPD1    C5 2706   2.875   0.637  13.849  0.4543 -0.1200 -0.2602
  174MPD1     H 2707   2.531   0.698  14.000  0.3056  1.1935  0.6846
  174MPD1    H1 2708   2.909   0.846  13.880  0.2054 -0.2513 -0.3200
  174MPD1    H2 2709   2.821   0.444  13.813  2.7128  1.4046  0.9549
  174MPD1    H3 2710   2.977   0.623  13.816  0.2302 -2.7531  0.1538
  174MPD1     N 2711   2.694   0.907  14.010 -0.7699 -0.0882 -0.5738
  174MPD1    H5 2712   2.775   0.967  14.017  0.3715 -1.5836 -0.8221
  174MPD1    N1 2713   2.555   0.461  13.863  0.1700 -0.2276 -0.2690
  174MPD1    H6 2714   2.579   0.398  13.786 -2.2215  1.3186 -2.2697
  174MPD1    H7 2715   2.465   0.500  13.837 -0.0871 -0.8650 -0.3451
  175MPD1     C 2716   0.968   3.224  15.161 -0.1301 -0.6584 -0.3530
  175MPD1    C1 2717   0.828   3.219  15.179  0.7695 -0.1628 -0.7370
  175MPD1    C2 2718   0.774   3.215  15.306 -0.4890  0.4726 -0.0166
  175MPD1    C3 2719   0.851   3.234  15.423 -0.2329 -0.4223 -0.6117
  175MPD1    C4 2720   0.985   3.261  15.402  0.3488  0.8076  0.1440
  175MPD1    C5 2721   1.043   3.250  15.275  0.0417 -0.6706  0.0281
  175MPD1     H 2722   0.666   3.207  15.318 -0.3789 -0.9234 -0.0131
  175MPD1    H1 2723   1.051   3.266  15.487  0.1510  1.7428  0.2351
  175MPD1    H2 2724   1.013   3.242  15.064  1.7051  0.5424  0.7098
  175MPD1    H3 2725   1.150   3.264  15.270  0.1873 -1.6850  0.3788
  175MPD1     N 2726   0.798   3.214  15.559 -0.4340  0.0634 -0.0866
  175MPD1    H5 2727   0.867   3.195  15.631 -1.0160 -0.9339  0.2147
  175MPD1    N1 2728   0.756   3.186  15.067 -0.3133 -0.2732 -0.2402
  175MPD1    H6 2729   0.789   3.234  14.984  1.0912 -0.5213  0.1773
  175MPD1    H7 2730   0.657   3.203  15.085  0.3592  2.1147  1.2294
  176MPD1     C 2731   3.065   0.684  16.080 -0.2470  0.6092  0.5559
  176MPD1    C1 2732   3.043   0.777  16.179 -0.5071 -0.6144  0.4491
  176MPD1    C2 2733   3.061   0.741  16.310 -0.6060 -0.2527  1.0118
  176MPD1    C3 2734   3.077   0.610  16.341  0.3544  0.0098 -0.5388
  176MPD1    C4 2735   3.093   0.509  16.248  0.0739 -0.4233 -0.2218
  176MPD1    C5 2736   3.086   0.550  16.118 -0.6901 -0.0991  0.1249
  176MPD1     H 2737   3.034   0.813  16.387 -0.1624  0.9823  0.0267
  176MPD1    H1 2738   3.106   0.406  16.280 -1.2990 -1.3354 -2.5927
  176MPD1    H2 2739   3.063   0.699  15.973  1.9880 -1.5249  0.2342
  176MPD1    H3 2740   3.100   0.476  16.040 -0.8342 -2.1326  2.0173
  176MPD1     N 2741   3.060   0.583  16.484 -0.7025  0.2978 -0.3725
  176MPD1    H5 2742   3.036   0.664  16.541  0.3426 -0.5034  1.2060
  176MPD1    N1 2743   3.034   0.910  16.145 -0.8532 -0.0289  0.0366
  176MPD1    H6 2744   2.985   0.964  16.216 -0.9788  0.5687 -0.5044
  176MPD1    H7 2745   3.005   0.922  16.048  2.4094 -1.0694 -1.0538
  177MPD1     C 2746   1.350   4.550  10.040 -0.0544  0.1808 -0.1826
  177MPD1    C1 2747   1.268   4.444  10.017  0.9238 -0.1017 -0.7096
  177MPD1    C2 2748   1.155   4.463   9.933  0.2707  0.8745  0.5407
  177MPD1    C3 2749   1.126   4.579   9.869 -0.0578  0.3280  0.4389
  177MPD1    C4 2750   1.220   4.675   9.880 -0.4492  0.0361 -0.5852
  177MPD1    C5 2751   1.332   4.660   9.959 -0.0806 -0.5082 -0.1674
  177MPD1     H 2752   1.082   4.384   9.921  0.6273  0.3231  2.0083
  177MPD1    H1 2753   1.209   0.036   9.839  0.9839  0.6826  0.5878
  177MPD1    H2 2754   1.431   4.545  10.113  0.2857  0.6876 -0.5308
  177MPD1    H3 2755   1.394   0.007   9.977 -1.2822  0.3785 -0.2821
  177MPD1     N 2756   1.008   4.589   9.786  0.0780  0.1986 -0.3237
  177MPD1    H5 2757   0.957   4.504   9.771  1.2123 -0.6487  0.5903
  177MPD1    N1 2758   1.270   4.328  10.094  0.2451 -0.4455  0.7410
  177MPD1    H6 2759   1.224   4.245  10.059  1.1564 -0.0670 -1.3596
  177MPD1    H7 2760   1.362   4.307  10.133  1.7806 -0.8604 -3.0774
  178MPD1     C 2761   3.655   0.310   0.667  0.2937  0.0317 -0.1876
  178MPD1    C1 2762   3.549   0.310   0.583 -0.0314  0.2523  0.3769
  178MPD1    C2 2763   3.523   0.418   0.504 -0.2509 -0.4774 -0.7827
  178MPD1    C3 2764   3.600   0.533   0.512  0.1346  0.3716 -0.2530
  178MPD1    C4 2765   3.702   0.538   0.604 -0.3491  0.7879 -0.4801
  178MPD1    C5 2766   3.729   0.421   0.671 -0.1682  0.9308 -0.3054
  178MPD1     H 2767   3.450   0.405   0.425 -0.4276 -1.4210 -0.4667
  178MPD1    H1 2768   3.761   0.628   0.621 -0.1689  0.0457  2.7767
  178MPD1    H2 2769   3.688   0.227   0.729 -2.8155 -1.1525 -0.1576
  178MPD1    H3 2770   3.812   0.423   0.741 -1.8355  0.9485  1.6651
  178MPD1     N 2771   3.571   0.652   0.438 -0.5902 -0.1534  0.0889
  178MPD1    H5 2772   3.632   0.730   0.458 -1.0823  0.0978  0.6071
  178MPD1    N1 2773   3.472   0.199   0.571  0.9013 -0.1680  0.0064
  178MPD1    H6 2774   3.383   0.215   0.524  1.0452 -0.5789 -0.4077
  178MPD1    H7 2775   3.442   0.157   0.658  0.4392 -2.5260 -1.2928
  179MPD1     C 2776   2.348   4.387  16.014 -0.0821 -0.1782 -0.3408
  179MPD1    C1 2777   2.480   4.373  16.043 -0.3529 -0.3165 -0.1488
  179MPD1    C2 2778   2.549   4.269  15.978  0.3175  0.4474  0.4153
  179MPD1    C3 2779   2.492   4.170  15.895  0.2264 -0.1074 -0.3446
  179MPD1    C4 2780   2.356   4.188  15.880  0.0455 -0.3433 -0.4838
  179MPD1    C5 2781   2.289   4.291  15.933  0.6289 -0.2621  0.0642
  179MPD1     H 2782   2.656   4.257  15.996  0.0235 -2.9708 -0.0766
  179MPD1    H1 2783   2.302   4.109  15.829  1.1829 -0.6873 -1.1597
  179MPD1    H2 2784   2.291   4.472  16.051 -0.1773 -0.6998  0.7064
  179MPD1    H3 2785   2.183   4.304  15.914  0.7133  0.6620  0.2089
  179MPD1     N 2786   2.558   4.049  15.863 -0.4199  0.2832 -0.0127
  179MPD1    H5 2787   2.505   3.972  15.824  1.2033 -0.8804  0.0641
  179MPD1    N1 2788   2.547   4.476  16.111 -0.4894 -0.0790 -0.4657
  179MPD1    H6 2789   2.474   4.506  16.175  1.6582  1.6721  1.1357
  179MPD1    H7 2790   2.618   4.431  16.168 -0.4762 -1.0839 -1.2740
  180MPD1     C 2791   2.716   4.728  15.317 -0.7442  0.0807 -0.1272
  180MPD1    C1 2792   2.786   0.091  15.262  0.3039 -0.3665 -0.2026
  180MPD1    C2 2793   2.762   0.120  15.132 -0.6366 -0.0713  0.3522
  180MPD1    C3 2794   2.670   0.048  15.049  0.7144 -0.4824  0.4718
  180MPD1    C4 2795   2.601   4.687  15.105 -0.0403  0.9398  0.0222
  180MPD1    C5 2796   2.629   4.662  15.235  0.8308 -0.2967 -0.4600
  180MPD1     H 2797   2.830   0.194  15.090  1.1394  0.3524  4.0134
  180MPD1    H1 2798   2.526   4.622  15.061  1.6700 -1.3650  0.5648
  180MPD1    H2 2799   2.732   4.710  15.423 -1.8568 -0.8280 -0.1067
  180MPD1    H3 2800   2.573   4.577  15.273  1.2009  0.0958  0.9611
  180MPD1     N 2801   2.653   0.096  14.918  0.1770 -0.0066 -0.7940
  180MPD1    H5 2802   2.716   0.170  14.890 -0.1950  0.7472  0.3540
  180MPD1    N1 2803   2.908   0.144  15.318  0.6123 -0.1048  0.9643
  180MPD1    H6 2804   2.911   0.145  15.419 -2.5303 -1.2834  1.0544
  180MPD1    H7 2805   2.933   0.236  15.282  0.5920  0.0866  1.4448
  181MPD1     C 2806   4.444   2.969   9.495 -0.0601 -0.5624 -0.2521
  181MPD1    C1 2807   4.489   3.069   9.583 -0.1406  0.1129 -0.6280
  181MPD1    C2 2808   4.594   3.047   9.677  0.5421 -0.1087 -0.0412
  181MPD1    C3 2809   4.647   2.914   9.679  0.0806 -0.5295  0.0316
  181MPD1    C4 2810   4.601   2.822   9.588 -0.2915 -0.3043  0.1532
  181MPD1    C5 2811   4.498   2.847   9.506 -0.0547  0.0631 -0.2356
  181MPD1     H 2812   4.621   3.126   9.746  0.9218 -0.1918 -0.0912
  181MPD1    H1 2813   4.633   2.719   9.599  1.7660  0.5001  1.7619
  181MPD1    H2 2814   4.362   2.982   9.425  0.0191 -0.9696 -0.4163
  181MPD1    H3 2815   4.465   2.762   9.448  1.6511  2.0290 -4.0976
  181MPD1     N 2816   0.005   2.872   9.768 -0.2560  0.1602 -0.4329
  181MPD1    H5 2817   0.043   2.781   9.742 -0.9489 -0.6648  1.4544
  181MPD1    N1 2818   4.444   3.202   9.559  1.1672 -0.0786  0.3688
  181MPD1    H6 2819   4.446   3.265   9.639  0.0743 -1.7223  1.6843
  181MPD1    H7 2820   4.349   3.198   9.525  1.1805  1.8916  0.0570
  182MPD1     C 2821   0.424   1.958   0.460 -0.2224  0.2472 -0.3327
  182MPD1    C1 2822   0.395   1.916   0.587  0.2501 -0.3656  0.1801
  182MPD1    C2 2823   0.326   1.795   0.599 -0.0487 -0.3147 -0.0088
  182MPD1    C3 2824   0.292   1.720   0.486 -0.0545  0.0843  0.1239
  182MPD1    C4 2825   0.321   1.769   0.362  0.1001 -0.0432 -0.4334
  182MPD1    C5 2826   0.384   1.888   0.349 -0.2191  0.4288  0.6002
  182MPD1     H 2827   0.303   1.765   0.701 -0.2497  1.2007  0.3997
  182MPD1    H1 2828   0.294   1.707   0.278  0.5437  0.8504 -1.2445
  182MPD1    H2 2829   0.482   2.047   0.440 -1.8230  1.1518 -0.9646
  182MPD1    H3 2830   0.413   1.916   0.248 -1.6971  0.3504  0.1426
  182MPD1     N 2831   0.240   1.585   0.500 -0.1250  0.2731 -0.1838
  182MPD1    H5 2832   0.226   1.545   0.408 -0.2767  0.3835 -0.2103
  182MPD1    N1 2833   0.425   1.998   0.701  0.1970 -0.2141 -0.5055
  182MPD1    H6 2834   0.383   1.945   0.777 -1.5345  0.9039 -0.6811
  182MPD1    H7 2835   0.375   2.086   0.696  1.5123  0.5574  0.3727
  183MPD1     C 2836   4.673   1.044   8.833  0.1857 -0.5247  0.0285
  183MPD1    C1 2837   4.717   1.175   8.817 -0.0067 -0.7385  0.0284
  183MPD1    C2 2838   0.089   1.223   8.882  0.4115 -0.1709  0.9249
  183MPD1    C3 2839   0.157   1.142   8.967 -0.0619  0.1235  0.0396
  183MPD1    C4 2840   0.110   1.014   8.988 -0.1399  0.3961  0.3000
  183MPD1    C5 2841   0.006   0.958   8.915 -0.1657  0.0324 -0.0186
  183MPD1     H 2842   0.121   1.325   8.864  1.5998 -0.5589  0.8341
  183MPD1    H1 2843   0.159   0.955   9.064 -0.0065  1.0155  0.6965
  183MPD1    H2 2844   4.579   1.011   8.792  0.9609 -4.1207  1.1688
  183MPD1    H3 2845   4.704   0.860   8.937  0.0725  0.0658  0.5945
  183MPD1     N 2846   0.265   1.203   9.038 -0.2753  0.4861  0.3414
  183MPD1    H5 2847   0.275   1.304   9.040  2.7167  0.1906  1.3223
  183MPD1    N1 2848   4.643   1.258   8.732 -0.2219  0.3981  0.0928
  183MPD1    H6 2849   4.542   1.248   8.738  0.1482 -2.2227  1.6280
  183MPD1    H7 2850   4.670   1.355   8.747 -1.0249  0.1169  3.2274
  184MPD1     C 2851   0.009   0.858  10.225 -0.0633 -0.5177 -0.0801
  184MPD1    C1 2852   0.101   0.803  10.140 -0.3986  0.4483  0.1917
  184MPD1    C2 2853   0.125   0.669  10.127 -0.0311  0.7409 -0.0492
  184MPD1    C3 2854   0.041   0.587  10.200 -0.5708  0.1951 -0.5639
  184MPD1    C4 2855   4.684   0.643  10.274  0.6888  1.2211  0.0921
  184MPD1    C5 2856   4.662   0.777  10.284  0.1854 -0.6700  0.2656
  184MPD1     H 2857   0.211   0.637  10.070 -2.8900 -2.5603 -2.5009
  184MPD1    H1 2858   4.621   0.581  10.336  2.0127 -1.8337 -1.5963
  184MPD1    H2 2859   0.009   0.966  10.237 -3.8581 -0.6294  1.0836
  184MPD1    H3 2860   4.584   0.825  10.342 -0.3067  0.6348 -1.4658
  184MPD1     N 2861   0.038   0.446  10.186  0.3621  0.4230  0.5082
  184MPD1    H5 2862   4.706   0.387  10.229 -0.6290 -0.2811 -2.0745
  184MPD1    N1 2863   0.177   0.892  10.062  0.3045  0.2667 -0.4379
  184MPD1    H6 2864   0.186   0.985  10.102  1.4415 -0.1099  0.1925
  184MPD1    H7 2865   0.267   0.850  10.038  0.1582 -1.5791  2.1613
  185MPD1     C 2866   4.188   4.415   9.952  0.1733  0.2224  0.4320
  185MPD1    C1 2867   4.186   4.550   9.992  0.4413 -0.8946 -0.3812
  185MPD1    C2 2868   4.308   4.616  10.014 -0.6684 -0.3697  0.6561
  185MPD1    C3 2869   4.428   4.559   9.975 -0.1173  0.1799 -0.7865
  185MPD1    C4 2870   4.426   4.434   9.921 -0.6920 -0.0785  1.5386
  185MPD1    C5 2871   4.309   4.360   9.919 -0.2379 -0.2008 -0.3739
  185MPD1     H 2872   4.303   4.709  10.071  4.6102  1.2985 -1.5444
  185MPD1    H1 2873   4.513   4.382   9.883 -1.8074 -1.1603  0.4548
  185MPD1    H2 2874   4.097   4.357   9.942 -0.0559  1.1191 -2.6885
  185MPD1    H3 2875   4.321   4.258   9.886 -0.5958 -0.7077  1.0972
  185MPD1     N 2876   4.553   4.629   9.979 -0.4335 -0.3156  0.0436
  185MPD1    H5 2877   4.638   4.578   9.957  0.3640  0.3190  1.6787
  185MPD1    N1 2878   4.066   4.597  10.056  0.0433  0.0051 -0.3724
  185MPD1    H6 2879   4.042   4.694  10.036 -1.9943 -0.1338  1.4041
  185MPD1    H7 2880   3.993   4.544  10.009 -2.0649  2.1328  0.4649
  186MPD1     C 2881   3.283   4.677  15.495 -0.2253  0.3129 -0.5571
  186MPD1    C1 2882   3.168   4.642  15.558  0.1312 -0.7553  0.2803
  186MPD1    C2 2883   3.180   4.606  15.691 -0.7163  0.0599  0.0531
  186MPD1    C3 2884   3.300   4.589  15.750 -0.8988  0.1786 -0.2929
  186MPD1    C4 2885   3.414   4.618  15.682  0.0063 -0.1126  0.0742
  186MPD1    C5 2886   3.400   4.661  15.551 -0.4106  0.0912  0.0275
  186MPD1     H 2887   3.087   4.597  15.746 -0.9730 -2.2609 -0.7645
  186MPD1    H1 2888   3.510   4.614  15.731  0.7550 -1.0309 -1.4646
  186MPD1    H2 2889   3.285   4.735  15.403 -1.3515 -1.2125 -1.5183
  186MPD1    H3 2890   3.486   4.704  15.501  1.2814 -1.1884  1.8602
  186MPD1     N 2891   3.308   4.540  15.882 -0.2351  0.1284 -0.6501
  186MPD1    H5 2892   3.403   4.518  15.911 -1.1652 -0.3937  2.0282
  186MPD1    N1 2893   3.046   4.694  15.514  0.4185 -0.1243  0.2569
  186MPD1    H6 2894   2.967   4.639  15.547  0.9102 -0.9021  0.1350
  186MPD1    H7 2895   3.051   4.701  15.412  2.1800  0.5241  0.3908
  187MPD1     C 2896   2.034   2.393   0.036  0.6666 -0.4183  0.5201
  187MPD1    C1 2897   1.968   2.295  17.728  0.0738  0.2128 -0.0869
  187MPD1    C2 2898   2.040   2.193  17.674 -0.3804 -0.1782 -0.0190
  187MPD1    C3 2899   2.177   2.177  17.687  0.4360  0.0677 -0.5356
  187MPD1    C4 2900   2.243   2.272  17.754  0.2928 -0.5713  0.2659
  187MPD1    C5 2901   2.173   2.378   0.048 -0.7028  0.4683 -0.2855
  187MPD1     H 2902   1.992   2.121  17.609 -0.0432  0.2457 -0.7349
  187MPD1    H1 2903   2.349   2.259   0.016  0.7418  3.4217  0.4389
  187MPD1    H2 2904   1.992   2.481   0.084 -0.2237 -0.3228 -0.4436
  187MPD1    H3 2905   2.237   2.454   0.089  0.9318 -0.6248 -0.8234
  187MPD1     N 2906   2.254   2.077  17.627 -0.2885 -0.5812  0.0712
  187MPD1    H5 2907   2.356   2.071  17.622 -0.1533  2.1664 -0.2766
  187MPD1    N1 2908   1.830   2.295  17.733 -0.3544 -0.0760 -0.2718
  187MPD1    H6 2909   1.797   2.391  17.724 -0.0544  0.2558  2.1646
  187MPD1    H7 2910   1.792   2.237  17.659  1.9536 -1.8596 -0.0806
  188MPD1     C 2911   2.381   0.989  10.373 -0.5654  0.4865  0.4560
  188MPD1    C1 2912   2.412   1.033  10.246 -0.2243 -0.5597 -0.3420
  188MPD1    C2 2913   2.467   0.944  10.159 -1.2024  0.1275  0.4063
  188MPD1    C3 2914   2.527   0.826  10.202  0.3853 -0.1726 -0.2159
  188MPD1    C4 2915   2.532   0.805  10.342  0.1631 -0.0474 -0.0748
  188MPD1    C5 2916   2.451   0.885  10.420 -0.3111 -0.7420 -0.0278
  188MPD1     H 2917   2.458   0.961  10.053 -0.3690  1.4982  0.5491
  188MPD1    H1 2918   2.572   0.712  10.382  2.8031  0.0851 -2.4209
  188MPD1    H2 2919   2.331   1.060  10.438 -0.4630 -1.1305  2.3108
  188MPD1    H3 2920   2.464   0.863  10.525  1.9250  2.5096  0.3941
  188MPD1     N 2921   2.572   0.724  10.114  0.2476 -0.6669 -0.6387
  188MPD1    H5 2922   2.606   0.634  10.148  2.1652  0.2091 -0.2157
  188MPD1    N1 2923   2.347   1.145  10.191 -0.2928  0.3203 -0.3455
  188MPD1    H6 2924   2.352   1.224  10.255 -0.3422  0.3307 -0.3552
  188MPD1    H7 2925   2.407   1.178  10.116  0.1840 -1.5086 -0.7841
  189MPD1     C 2926   4.149   1.923   0.373 -0.2357  0.2194  0.1095
  189MPD1    C1 2927   4.011   1.913   0.367  0.4320 -0.6913 -0.1503
  189MPD1    C2 2928   3.937   2.024   0.385  0.1709 -0.2400  0.0001
  189MPD1    C3 2929   3.990   2.149   0.382 -0.2299  0.1267  0.1429
  189MPD1    C4 2930   4.131   2.153   0.377 -0.2048 -0.8099 -0.6710
  189MPD1    C5 2931   4.213   2.049   0.377 -0.1044 -0.0728 -0.5306
  189MPD1     H 2932   3.830   2.023   0.402  0.4581 -1.2815  1.6746
  189MPD1    H1 2933   4.182   2.248   0.372 -0.5826 -0.5649  0.1647
  189MPD1    H2 2934   4.205   1.830   0.364  1.7710  1.6475 -2.0487
  189MPD1    H3 2935   4.319   2.067   0.363 -0.2088  1.7740  1.0047
  189MPD1     N 2936   3.904   2.264   0.380  0.4816  0.7330  0.1818
  189MPD1    H5 2937   3.808   2.231   0.370  1.0547 -1.3128  1.4244
  189MPD1    N1 2938   3.937   1.793   0.361 -0.0222  0.1639 -0.1970
  189MPD1    H6 2939   3.841   1.800   0.326 -0.9833 -2.1425  2.0073
  189MPD1    H7 2940   3.974   1.729   0.291 -0.7652 -1.9643  1.3879
  190MPD1     C 2941   2.718   0.571  15.672  0.4733 -0.3029 -0.1668
  190MPD1    C1 2942   2.832   0.505  15.640 -0.3471 -0.0350 -0.0048
  190MPD1    C2 2943   2.955   0.572  15.653  0.3560  0.4364 -0.6702
  190MPD1    C3 2944   2.964   0.701  15.706 -0.2761  0.1801 -0.9365
  190MPD1    C4 2945   2.848   0.770  15.724 -0.0255  0.2254  0.1871
  190MPD1    C5 2946   2.729   0.708  15.696  0.1902  0.5236 -0.4814
  190MPD1     H 2947   3.042   0.516  15.622  0.8590 -0.4534  2.3289
  190MPD1    H1 2948   2.845   0.868  15.770 -1.1954 -0.1669  0.9349
  190MPD1    H2 2949   2.616   0.535  15.662 -0.2498  1.2881  1.3600
  190MPD1    H3 2950   2.632   0.755  15.711  0.3147  0.3817  0.7602
  190MPD1     N 2951   3.094   0.764  15.716  0.2002  0.2863  0.5385
  190MPD1    H5 2952   3.172   0.706  15.688 -0.2234 -0.8578  1.7378
  190MPD1    N1 2953   2.818   0.381  15.584 -0.0367  0.6488 -0.3584
  190MPD1    H6 2954   2.753   0.332  15.645  0.8115 -2.5327 -1.9454
  190MPD1    H7 2955   2.912   0.340  15.582 -0.1129  0.4688 -0.2618
  191MPD1     C 2956   2.608   2.662  12.392 -0.5509  0.1081  0.5145
  191MPD1    C1 2957   2.698   2.765  12.369 -0.0078 -0.0033 -0.0370
  191MPD1    C2 2958   2.722   2.798  12.240  0.1476  0.1494 -0.0027
  191MPD1    C3 2959   2.652   2.751  12.131  0.3908 -0.3364 -0.1645
  191MPD1    C4 2960   2.565   2.643  12.149 -0.4496 -0.4722  0.1717
  191MPD1    C5 2961   2.547   2.602  12.282 -0.1513 -0.1265  0.0674
  191MPD1     H 2962   2.787   2.882  12.218  0.4510 -0.9765 -3.5332
  191MPD1    H1 2963   2.520   2.590  12.065 -0.2003 -2.7205  1.4399
  191MPD1    H2 2964   2.597   2.616  12.490  0.0773  1.5313  1.2449
  191MPD1    H3 2965   2.494   2.510  12.302 -1.4380  0.2955 -1.4325
  191MPD1     N 2966   2.686   2.807  12.004 -0.6399  0.5640  0.4878
  191MPD1    H5 2967   2.764   2.871  12.009 -0.0912  0.0544 -1.9108
  191MPD1    N1 2968   2.799   2.798  12.461 -0.0768 -0.1380  0.1325
  191MPD1    H6 2969   2.841   2.889  12.444  0.8138 -0.9047 -1.8279
  191MPD1    H7 2970   2.774   2.786  12.559 -0.6541  3.4838  0.4038
  192MPD1     C 2971   2.371   2.417  11.137  0.5839  0.0270  0.0190
  192MPD1    C1 2972   2.460   2.514  11.093  0.0274  0.6642  0.7262
  192MPD1    C2 2973   2.529   2.591  11.185  0.8504 -0.1990  0.0019
  192MPD1    C3 2974   2.522   2.564  11.319  1.2439  0.4704  0.7109
  192MPD1    C4 2975   2.450   2.458  11.356  0.0632  0.5930  0.1174
  192MPD1    C5 2976   2.366   2.389  11.269  0.4877 -0.0407  0.6733
  192MPD1     H 2977   2.600   2.662  11.145 -1.7835  2.2650 -0.3351
  192MPD1    H1 2978   2.447   2.431  11.461  0.5700 -2.4631 -0.6689
  192MPD1    H2 2979   2.305   2.362  11.071  0.1332 -0.8503  1.1950
  192MPD1    H3 2980   2.307   2.315  11.323  0.9648 -0.9760 -0.0792
  192MPD1     N 2981   2.592   2.626  11.424  0.5629  1.0238  0.0353
  192MPD1    H5 2982   2.551   2.608  11.515 -0.7518  1.3400 -0.4846
  192MPD1    N1 2983   2.470   2.552  10.956 -0.2548 -0.2940 -0.5033
  192MPD1    H6 2984   2.464   2.473  10.892  0.5800 -1.8002  1.2907
  192MPD1    H7 2985   2.551   2.611  10.940 -0.5782  0.1391 -0.5642
  193MPD1     C 2986   2.344   2.186  16.829  0.0468 -0.1066 -0.5273
  193MPD1    C1 2987   2.226   2.228  16.766 -0.9698  0.8056  0.0358
  193MPD1    C2 2988   2.218   2.337  16.685  1.0329  0.5235 -0.0752
  193MPD1    C3 2989   2.335   2.412  16.668 -0.1709 -0.6707  0.4480
  193MPD1    C4 2990   2.455   2.368  16.718  0.1480 -0.4358  0.2068
  193MPD1    C5 2991   2.457   2.265  16.809  0.0056  0.1029  0.6654
  193MPD1     H 2992   2.127   2.366  16.634  0.2073 -0.0747  1.0582
  193MPD1    H1 2993   2.549   2.416  16.693  0.4932 -1.2090 -0.0114
  193MPD1    H2 2994   2.339   2.098  16.891 -1.2947 -1.5116 -2.6533
  193MPD1    H3 2995   2.551   2.238  16.855  1.0079 -0.9003 -1.9412
  193MPD1     N 2996   2.338   2.523  16.579  0.2792 -0.2502 -0.1360
  193MPD1    H5 2997   2.432   2.549  16.550  0.2062  1.9638  1.6603
  193MPD1    N1 2998   2.107   2.173  16.798  0.3073  0.6269  0.6122
  193MPD1    H6 2999   2.113   2.077  16.830  0.9843 -0.0448 -1.5276
  193MPD1    H7 3000   2.048   2.168  16.715  1.7010 -0.8283 -0.2751
  194MPD1     C 3001   4.589   0.475  16.799 -0.0477 -0.2265  0.1644
  194MPD1    C1 3002   4.704   0.467  16.871  0.4282 -0.5211  0.0012
  194MPD1    C2 3003   0.012   0.342  16.904  0.7734 -0.0063 -0.1494
  194MPD1    C3 3004   4.688   0.225  16.861 -0.0642 -0.4725  0.0676
  194MPD1    C4 3005   4.582   0.234  16.773  0.1429 -0.6392 -0.4874
  194MPD1    C5 3006   4.532   0.360  16.740 -0.2228  0.6548  0.1728
  194MPD1     H 3007   0.097   0.319  16.967  1.5865  0.0120 -1.2462
  194MPD1    H1 3008   4.534   0.147  16.730 -1.7582  1.2172 -2.1265
  194MPD1    H2 3009   4.544   0.570  16.770  0.6325  0.2819  0.7916
  194MPD1    H3 3010   4.443   0.371  16.680  0.1595  0.5497 -0.4146
  194MPD1     N 3011   4.728   0.087  16.884  0.7918  0.3027  0.3323
  194MPD1    H5 3012   4.677   0.013  16.836  0.7626  0.1026  0.6746
  194MPD1    N1 3013   0.011   0.587  16.930  0.8902 -0.0330  0.2707
  194MPD1    H6 3014   0.112   0.582  16.941  0.7596 -1.5335  0.7616
  194MPD1    H7 3015   4.732   0.671  16.875 -2.4059 -0.1094  1.2761
  195MPD1     C 3016   2.626   1.315   0.066 -0.0876 -0.2006  0.1254
  195MPD1    C1 3017   2.668   1.242  17.711  0.0078  0.2169 -0.3657
  195MPD1    C2 3018   2.603   1.121  17.678  0.3645  0.7455  0.3035
  195MPD1    C3 3019   2.503   1.077  17.754 -0.0219  0.3342  0.5705
  195MPD1    C4 3020   2.465   1.156   0.102 -0.2047 -0.0183 -0.9840
  195MPD1    C5 3021   2.519   1.270   0.139 -0.7975 -0.0976  0.1094
  195MPD1     H 3022   2.647   1.071  17.593 -2.1104  0.1820 -0.6509
  195MPD1    H1 3023   2.377   1.123   0.158 -0.3230  0.7500 -0.7199
  195MPD1    H2 3024   2.692   1.396   0.096 -0.6268  0.1232  0.4496
  195MPD1    H3 3025   2.491   1.317   0.233  0.2633 -0.0766  0.4062
  195MPD1     N 3026   2.421   0.969  17.725 -0.4697 -0.0140  0.0187
  195MPD1    H5 3027   2.353   0.944   0.040  0.0311 -2.5442 -0.3887
  195MPD1    N1 3028   2.782   1.291  17.650  0.6962 -0.4829 -1.1636
  195MPD1    H6 3029   2.853   1.301  17.722 -0.6353 -0.0417  0.0931
  195MPD1    H7 3030   2.809   1.232  17.571  0.2830 -2.0870 -0.1049
  196MPD1     C 3031   0.571   0.786   0.961  0.7769 -0.6101  0.8773
  196MPD1    C1 3032   0.657   0.762   1.066 -0.0015 -0.1636 -0.0034
  196MPD1    C2 3033   0.787   0.733   1.040  0.1559 -0.1269 -0.1401
  196MPD1    C3 3034   0.838   0.742   0.917 -0.8542  0.6044  0.6581
  196MPD1    C4 3035   0.755   0.748   0.808 -0.3423 -0.9089  0.0753
  196MPD1    C5 3036   0.623   0.773   0.830  0.4925  0.2931 -0.2649
  196MPD1     H 3037   0.853   0.716   1.124  1.4414  0.9702 -0.9310
  196MPD1    H1 3038   0.788   0.732   0.706 -0.5492  0.1272 -0.1603
  196MPD1    H2 3039   0.468   0.818   0.974  0.3270 -0.9044 -2.0071
  196MPD1    H3 3040   0.549   0.786   0.752  0.8232  1.6262 -0.3605
  196MPD1     N 3041   0.967   0.725   0.887 -0.2986 -0.3372  1.1442
  196MPD1    H5 3042   0.994   0.745   0.791 -0.2468 -0.7893  1.0652
  196MPD1    N1 3043   0.627   0.772   1.203  0.8277  0.3968 -0.4568
  196MPD1    H6 3044   0.681   0.706   1.258 -0.0198 -0.7654 -0.9962
  196MPD1    H7 3045   0.530   0.752   1.227  1.6928  0.8693  3.3722
  197MPD1     C 3046   0.534   3.334  17.181  0.7193 -0.3667 -0.5981
  197MPD1    C1 3047   0.508   3.367  17.049 -0.0144  0.4226  0.0515
  197MPD1    C2 3048   0.597   3.310  16.958  0.0114 -0.1568 -0.2621
  197MPD1    C3 3049   0.697   3.224  16.996 -0.6391  0.1431  0.4282
  197MPD1    C4 3050   0.707   3.188  17.128  0.2117 -0.4175 -0.8866
  197MPD1    C5 3051   0.623   3.236  17.220  0.0891 -0.7484  0.6488
  197MPD1     H 3052   0.585   3.344  16.856 -0.7722 -0.2159 -0.1890
  197MPD1    H1 3053   0.781   3.120  17.169  1.1856  1.7504  0.9532
  197MPD1    H2 3054   0.467   3.384  17.250  0.0529  0.3532 -1.7757
  197MPD1    H3 3055   0.627   3.197  17.321  3.3016 -0.5336  0.6094
  197MPD1     N 3056   0.795   3.173  16.912 -0.6681 -0.3334 -0.7707
  197MPD1    H5 3057   0.863   3.119  16.963 -0.6219  0.2872 -0.1765
  197MPD1    N1 3058   0.418   3.470  17.016  0.2368 -0.3733 -0.0852
  197MPD1    H6 3059   0.335   3.465  17.075 -0.2465 -1.5610 -0.8568
  197MPD1    H7 3060   0.406   3.503  16.920  2.2990  0.1064 -0.1679
  198MPD1     C 3061   2.635   1.364  15.209  0.1966  0.3597  0.2558
  198MPD1    C1 3062   2.769   1.352  15.167 -0.1501  0.4265 -0.1829
  198MPD1    C2 3063   2.870   1.390  15.259  0.6833  0.1462 -0.5671
  198MPD1    C3 3064   2.836   1.431  15.387 -0.5594  0.0833  0.3445
  198MPD1    C4 3065   2.708   1.436  15.427 -0.3921  0.3091 -0.5431
  198MPD1    C5 3066   2.610   1.404  15.338 -0.0017 -0.1923  0.0386
  198MPD1     H 3067   2.971   1.399  15.221  0.9320  0.0484  0.0689
  198MPD1    H1 3068   2.675   1.451  15.529 -0.0143  0.3751 -0.4323
  198MPD1    H2 3069   2.550   1.355  15.142 -1.2044 -2.7565  2.4742
  198MPD1    H3 3070   2.505   1.407  15.365  0.1756  0.0983  0.7057
  198MPD1     N 3071   2.949   1.473  15.465  0.4258 -0.1435  0.5276
  198MPD1    H5 3072   3.041   1.465  15.422  0.0348  2.1292 -0.7284
  198MPD1    N1 3073   2.795   1.331  15.031  0.7298  0.4458 -0.0975
  198MPD1    H6 3074   2.881   1.282  15.005  0.3844  0.2921 -0.9771
  198MPD1    H7 3075   2.722   1.274  14.988 -0.2809 -2.0722  4.9947
  199MPD1     C 3076   0.106   3.021  10.664  0.0777 -0.6996 -0.2185
  199MPD1    C1 3077   0.056   2.891  10.639  0.7198 -0.4553 -0.2515
  199MPD1    C2 3078   4.730   2.860  10.520  0.0590  0.2662 -0.2535
  199MPD1    C3 3079   4.690   2.967  10.437 -0.6229 -0.4578 -0.0783
  199MPD1    C4 3080   4.707   3.091  10.480  0.1895 -0.2628 -0.3198
  199MPD1    C5 3081   0.039   3.120  10.594 -0.2721  0.1306  0.1643
  199MPD1     H 3082   4.708   2.759  10.487  1.3006 -0.7194  1.9004
  199MPD1    H1 3083   4.669   3.169  10.414  0.7737  0.2136 -0.0924
  199MPD1    H2 3084   0.176   3.047  10.742  0.1702 -0.2058 -0.4645
  199MPD1    H3 3085   0.056   3.225  10.612 -2.6970  0.2390  1.8864
  199MPD1     N 3086   4.630   2.949  10.309  0.1308 -0.2610 -0.1637
  199MPD1    H5 3087   4.584   3.022  10.256  0.8620  0.8322  0.6886
  199MPD1    N1 3088   0.078   2.781  10.722 -0.5102  0.1540  0.1672
  199MPD1    H6 3089   0.084   2.810  10.819 -0.6482  0.5149  0.0680
  199MPD1    H7 3090   0.004   2.712  10.714  0.9203 -1.3771  0.0378
  200MPD1     C 3091   3.855   2.563  14.889  0.2714  0.6531  0.4742
  200MPD1    C1 3092   3.853   2.676  14.808  0.8071  0.0078  0.4494
  200MPD1    C2 3093   3.972   2.703  14.745  0.2198  0.1484 -0.8996
  200MPD1    C3 3094   4.087   2.630  14.758  0.1664  0.3926 -0.2098
  200MPD1    C4 3095   4.087   2.525  14.847  0.1681 -0.2121  0.0297
  200MPD1    C5 3096   3.969   2.491  14.907 -0.6835 -0.3779 -0.3348
  200MPD1     H 3097   3.964   2.786  14.675  0.0546  2.4241  1.7965
  200MPD1    H1 3098   4.176   2.463  14.852  0.4710  0.1440 -0.9732
  200MPD1    H2 3099   3.766   2.535  14.943 -0.6175 -2.3373 -2.5299
  200MPD1    H3 3100   3.960   2.402  14.968 -2.6275 -0.4949 -0.7803
  200MPD1     N 3101   4.203   2.658  14.670 -0.0422  0.6551  0.4636
  200MPD1    H5 3102   4.195   2.745  14.617  0.9139  0.3782 -0.1410
  200MPD1    N1 3103   3.737   2.745  14.798 -0.6552  0.3165 -0.0712
  200MPD1    H6 3104   3.728   2.782  14.703 -1.4534  0.7396  0.1746
  200MPD1    H7 3105   3.658   2.686  14.823  1.3093 -1.8233  1.1059
  201MPD1     C 3106   1.395   1.875  12.602  0.1940  0.2254 -0.8904
  201MPD1    C1 3107   1.464   1.830  12.715 -0.4898 -0.0658  0.3309
  201MPD1    C2 3108   1.472   1.690  12.728 -0.6146 -0.9336  0.0867
  201MPD1    C3 3109   1.388   1.601  12.659 -0.2185 -0.2662 -0.4639
  201MPD1    C4 3110   1.309   1.655  12.558 -0.3835  0.0490  0.2183
  201MPD1    C5 3111   1.313   1.793  12.528  0.0256  0.1981 -0.1429
  201MPD1     H 3112   1.549   1.650  12.793  1.0378  0.2686 -1.1159
  201MPD1    H1 3113   1.241   1.596  12.499 -1.9960  1.7346  0.3927
  201MPD1    H2 3114   1.401   1.981  12.581 -0.9117  0.7151  1.3238
  201MPD1    H3 3115   1.246   1.836  12.454 -1.1325 -0.9087  0.2714
  201MPD1     N 3116   1.400   1.465  12.680 -0.2530 -0.6570 -0.5189
  201MPD1    H5 3117   1.466   1.441  12.754 -3.6941 -0.8948  2.4594
  201MPD1    N1 3118   1.542   1.920  12.785  0.0362  0.4964 -0.4516
  201MPD1    H6 3119   1.543   1.902  12.885  1.0385  0.4142 -0.4827
  201MPD1    H7 3120   1.528   2.021  12.777  0.9179  0.8358  2.4751
  202MPD1     C 3121   0.952   4.667   9.271 -0.1141  0.4679  0.1767
  202MPD1    C1 3122   0.911   0.054   9.231 -0.2278 -0.9929  0.6043
  202MPD1    C2 3123   0.970   0.158   9.299 -0.0616 -0.1183 -0.2823
  202MPD1    C3 3124   1.052   0.137   9.410  0.6429 -0.9672  0.3325
  202MPD1    C4 3125   1.079   0.009   9.453 -0.1342  0.1881 -0.0810
  202MPD1    C5 3126   1.027   4.648   9.380  0.0224  0.0430 -0.0503
  202MPD1     H 3127   0.967   0.259   9.260  1.4557  1.1931  2.9674
  202MPD1    H1 3128   1.144   4.720   9.535  2.4323  2.6212 -1.2475
  202MPD1    H2 3129   0.921   4.579   9.217 -2.0643 -0.0830  2.1838
  202MPD1    H3 3130   1.055   4.545   9.399  0.4311  0.5031  1.9131
  202MPD1     N 3131   1.112   0.237   9.487 -0.3080 -0.2425  0.2012
  202MPD1    H5 3132   1.195   0.216   9.541  0.8190  1.6995 -0.7761
  202MPD1    N1 3133   0.879   0.063   9.093  0.3417  0.4609 -0.3321
  202MPD1    H6 3134   0.831   0.152   9.083 -1.5412 -0.4295  0.7716
  202MPD1    H7 3135   0.828   4.730   9.043  0.8521  0.8523 -1.4062
  203MPD1     C 3136   4.739   2.097  11.915  0.7603  0.4166 -0.2959
  203MPD1    C1 3137   0.076   1.988  11.875  0.4274 -0.0920 -0.1112
  203MPD1    C2 3138   0.071   1.876  11.970  0.3932 -0.6865  0.1249
  203MPD1    C3 3139   0.009   1.888  12.092  0.3850  1.2532 -0.1802
  203MPD1    C4 3140   4.673   1.999  12.122 -0.6827  0.2246  0.4191
  203MPD1    C5 3141   4.663   2.099  12.028  0.3243 -0.0397  0.2192
  203MPD1     H 3142   0.118   1.779  11.957  1.3021 -0.1444 -0.6547
  203MPD1    H1 3143   4.608   2.006  12.209 -1.6588 -0.7650 -0.2197
  203MPD1    H2 3144   4.727   2.179  11.844 -0.6358 -0.0926 -0.6443
  203MPD1    H3 3145   4.604   2.186  12.058  0.5938 -0.6757  2.6421
  203MPD1     N 3146   0.016   1.785  12.189 -0.1462  0.1323  0.3599
  203MPD1    H5 3147   0.053   1.698  12.152 -0.6210  1.1586 -2.5636
  203MPD1    N1 3148   0.135   1.972  11.749  0.0053 -1.4040 -0.0801
  203MPD1    H6 3149   0.152   2.062  11.705 -1.8315 -0.7368  0.5731
  203MPD1    H7 3150   0.222   1.919  11.752 -0.1450 -1.7233 -1.1313
  204MPD1     C 3151   4.316   3.640  17.725  0.0606  0.5198 -0.1944
  204MPD1    C1 3152   4.343   3.522   0.041  0.5017 -0.3876  0.1084
  204MPD1    C2 3153   4.359   3.402  17.722  1.1671  0.4071  0.6579
  204MPD1    C3 3154   4.362   3.400  17.581  0.7207 -0.2990  0.3092
  204MPD1    C4 3155   4.343   3.523  17.517 -0.4001  0.5763  0.0548
  204MPD1    C5 3156   4.330   3.643  17.590 -0.5301 -0.1821 -0.4830
  204MPD1     H 3157   4.369   3.307   0.018 -1.0359  0.0462  0.4164
  204MPD1    H1 3158   4.348   3.541  17.410 -0.9537 -0.7503 -0.1904
  204MPD1    H2 3159   4.302   3.736   0.017  0.9137  0.1749  0.7564
  204MPD1    H3 3160   4.317   3.740  17.543 -0.7146 -0.9279 -1.9918
  204MPD1     N 3161   4.401   3.280  17.518 -0.1449 -0.0980 -0.5653
  204MPD1    H5 3162   4.425   3.199  17.574  1.1258  0.4874 -0.2767
  204MPD1    N1 3163   4.325   3.510   0.182 -0.3800 -0.5682  0.1926
  204MPD1    H6 3164   4.340   3.602   0.225 -0.2790  0.0129 -1.0833
  204MPD1    H7 3165   4.394   3.445   0.218 -0.0956 -0.3100  0.1112
  205MPD1     C 3166   4.471   1.502   0.462  1.0396  0.3868  0.0727
  205MPD1    C1 3167   4.428   1.634   0.466 -0.2250  0.3731 -0.6865
  205MPD1    C2 3168   4.466   1.716   0.361 -0.3897  0.4210  0.0425
  205MPD1    C3 3169   4.549   1.671   0.255  0.2286 -0.1813 -0.2940
  205MPD1    C4 3170   4.597   1.545   0.268 -0.0790  0.0946  0.1004
  205MPD1    C5 3171   4.556   1.461   0.364  0.5614 -0.2426  0.3957
  205MPD1     H 3172   4.434   1.819   0.366  0.2942  0.6607 -0.3828
  205MPD1    H1 3173   4.657   1.500   0.190  0.9937  0.1019  0.9283
  205MPD1    H2 3174   4.434   1.427   0.530 -0.5512  0.2468 -0.9521
  205MPD1    H3 3175   4.594   1.359   0.363 -0.8184 -0.7234 -4.5594
  205MPD1     N 3176   4.600   1.750   0.152 -0.4127 -0.1683 -0.0667
  205MPD1    H5 3177   4.680   1.719   0.099  0.7018  1.1050  0.8770
  205MPD1    N1 3178   4.329   1.674   0.557  0.2556 -0.2452 -0.2922
  205MPD1    H6 3179   4.335   1.774   0.571  1.4490 -0.2218 -1.0165
  205MPD1    H7 3180   4.341   1.622   0.644  1.0410 -1.9198 -1.3884
  206MPD1     C 3181   0.563   4.328  16.934 -0.1474  0.4422  0.3945
  206MPD1    C1 3182   0.587   4.457  16.912 -0.7054  0.6049  0.6250
  206MPD1    C2 3183   0.510   4.525  16.819 -0.1913 -0.5340 -0.3003
  206MPD1    C3 3184   0.428   4.464  16.727  0.2607  0.8124 -0.2970
  206MPD1    C4 3185   0.429   4.326  16.734  0.6524  0.3240  0.4628
  206MPD1    C5 3186   0.478   4.264  16.846  0.0095 -0.1181  0.2702
  206MPD1     H 3187   0.511   4.633  16.824 -0.6272 -0.5288 -0.3165
  206MPD1    H1 3188   0.376   4.271  16.656  0.9245  0.9418 -0.1589
  206MPD1    H2 3189   0.606   4.268  17.013 -0.3167  0.9578  0.8758
  206MPD1    H3 3190   0.457   4.160  16.869  0.5418 -0.3385 -0.2358
  206MPD1     N 3191   0.337   4.530  16.636  0.3753 -0.6609 -0.1882
  206MPD1    H5 3192   0.303   4.468  16.563 -1.3727 -0.3469  0.3691
  206MPD1    N1 3193   0.664   4.536  17.003  0.2877 -0.1677 -0.1655
  206MPD1    H6 3194   0.718   4.606  16.953  0.0681  1.8505  2.4154
  206MPD1    H7 3195   0.731   4.467  17.035 -0.5923 -1.7045 -1.5754
  207MPD1     C 3196   2.053   3.073   9.685  0.0643  0.7774  0.6455
  207MPD1    C1 3197   2.167   3.156   9.682  0.7608  0.8779 -0.5454
  207MPD1    C2 3198   2.280   3.108   9.747  0.4710 -0.3414  0.1119
  207MPD1    C3 3199   2.278   2.982   9.805 -0.2484 -0.4844  0.2893
  207MPD1    C4 3200   2.159   2.904   9.800  0.3590 -0.5233  0.7189
  207MPD1    C5 3201   2.047   2.948   9.740 -0.4679  0.5699 -0.3946
  207MPD1     H 3202   2.370   3.167   9.755 -0.4040  0.2530  5.4964
  207MPD1    H1 3203   2.145   2.806   9.844 -0.0603 -0.5340  0.5595
  207MPD1    H2 3204   1.965   3.108   9.631  0.3712 -1.7003 -1.5175
  207MPD1    H3 3205   1.956   2.889   9.731 -0.0045 -0.3745  1.2085
  207MPD1     N 3206   2.387   2.921   9.879 -0.0696 -0.5633  0.0890
  207MPD1    H5 3207   2.377   2.822   9.900  2.9265 -0.6108  1.2315
  207MPD1    N1 3208   2.172   3.268   9.608  1.0012 -0.2998 -0.2765
  207MPD1    H6 3209   2.243   3.331   9.643  0.5909 -0.7756  1.3828
  207MPD1    H7 3210   2.182   3.247   9.508 -0.9664 -1.9226 -0.1549
  208MPD1     C 3211   0.892   0.462  17.163 -0.4160 -0.2297 -0.4083
  208MPD1    C1 3212   0.820   0.439  17.281 -0.4702 -0.4796  0.1900
  208MPD1    C2 3213   0.721   0.523  17.313  0.2927 -0.4858 -0.0330
  208MPD1    C3 3214   0.696   0.639  17.244  0.9442  0.3949  0.0660
  208MPD1    C4 3215   0.775   0.673  17.138 -0.3684  0.5808 -0.3428
  208MPD1    C5 3216   0.871   0.578  17.095 -0.7812 -0.4722  0.0281
  208MPD1     H 3217   0.660   0.505  17.400 -2.3376 -2.2877 -2.2383
  208MPD1    H1 3218   0.753   0.745  17.060 -0.9445 -2.3060 -2.8791
  208MPD1    H2 3219   0.962   0.398  17.109  3.3643  2.1064  1.7270
  208MPD1    H3 3220   0.935   0.591  17.008 -1.2713  1.8064  0.0027
  208MPD1     N 3221   0.591   0.721  17.290 -0.3625 -0.2995 -0.1331
  208MPD1    H5 3222   0.539   0.689  17.370  0.4888 -0.8089  0.2174
  208MPD1    N1 3223   0.854   0.332  17.359 -0.2777 -0.3240 -0.0010
  208MPD1    H6 3224   0.878   0.251  17.304 -1.0488 -0.4469 -0.1492
  208MPD1    H7 3225   0.780   0.296  17.420  0.5456  1.3037  1.9932
  209MPD1     C 3226   2.588   1.146  10.705  0.0789  0.1930  0.4545
  209MPD1    C1 3227   2.580   1.213  10.823  0.3392  0.3956 -0.7484
  209MPD1    C2 3228   2.571   1.353  10.821 -0.3551 -0.3658  0.2663
  209MPD1    C3 3229   2.562   1.421  10.700  0.3186  0.1040  0.2407
  209MPD1    C4 3230   2.564   1.354  10.578  0.8546 -0.2604 -0.3206
  209MPD1    C5 3231   2.585   1.217  10.587 -0.1575  0.3393 -0.0090
  209MPD1     H 3232   2.570   1.410  10.913 -0.2215 -1.2218  0.8032
  209MPD1    H1 3233   2.568   1.393  10.477 -0.7596 -0.7510 -0.5627
  209MPD1    H2 3234   2.612   1.041  10.694 -2.4569 -0.5033  1.4112
  209MPD1    H3 3235   2.598   1.169  10.491  0.5373  1.4450 -0.4704
  209MPD1     N 3236   2.557   1.562  10.718 -0.4587 -0.0545  0.0238
  209MPD1    H5 3237   2.573   1.610  10.805  3.1239 -0.4008 -0.4662
  209MPD1    N1 3238   2.572   1.146  10.949  0.2914  0.4402  0.2208
  209MPD1    H6 3239   2.573   1.210  11.029 -0.4560  0.4198  0.2444
  209MPD1    H7 3240   2.650   1.081  10.953 -0.0298  0.0905  0.8311
  210MPD1     C 3241   2.883   2.343  11.239  0.2204  0.4712  0.2057
  210MPD1    C1 3242   2.921   2.211  11.223  0.1209 -0.1173  0.1867
  210MPD1    C2 3243   2.872   2.145  11.112 -0.1764 -0.3384 -1.4672
  210MPD1    C3 3244   2.780   2.205  11.030  0.0437 -0.4249 -0.3465
  210MPD1    C4 3245   2.742   2.335  11.045  0.0831 -0.7540 -0.1854
  210MPD1    C5 3246   2.798   2.404  11.151 -0.7115 -0.4110 -0.1310
  210MPD1     H 3247   2.899   2.041  11.099 -2.3407 -1.2690  1.5380
  210MPD1    H1 3248   2.672   2.384  10.980  0.1079  0.1499  0.4681
  210MPD1    H2 3249   2.933   2.408  11.310  1.0629 -0.8014  0.7747
  210MPD1    H3 3250   2.767   2.507  11.167 -0.9615 -0.7063  1.3018
  210MPD1     N 3251   2.719   2.137  10.922  0.0347  0.0950  0.3543
  210MPD1    H5 3252   2.680   2.200  10.852 -0.1822 -0.9689 -0.4909
  210MPD1    N1 3253   3.013   2.156  11.304  0.4979 -0.0280  0.7717
  210MPD1    H6 3254   3.013   2.055  11.311  2.9863 -0.0192  1.1200
  210MPD1    H7 3255   3.020   2.210  11.390  3.2889 -0.3311  0.7569
  211MPD1     C 3256   4.247   1.282  16.272  0.6274  1.1810  0.5620
  211MPD1    C1 3257   4.176   1.397  16.246 -0.4662 -0.4124 -0.5115
  211MPD1    C2 3258   4.233   1.507  16.179  0.3289  0.1871  0.4691
  211MPD1    C3 3259   4.365   1.501  16.139 -0.1806 -0.4692 -0.2966
  211MPD1    C4 3260   4.438   1.391  16.177 -0.3864 -0.2060 -0.8091
  211MPD1    C5 3261   4.377   1.290  16.241  0.3608 -0.4028 -0.0988
  211MPD1     H 3262   4.176   1.597  16.160  1.4022  0.7654  0.0270
  211MPD1    H1 3263   4.544   1.398  16.159  0.1112 -1.9542  1.4409
  211MPD1    H2 3264   4.196   1.195  16.311 -2.1053  1.6128 -2.0074
  211MPD1    H3 3265   4.446   1.210  16.265  0.4013  0.1662  1.6671
  211MPD1     N 3266   4.413   1.609  16.061  0.0373 -0.4312 -0.3370
  211MPD1    H5 3267   4.343   1.677  16.034  0.0987 -1.3941 -2.8800
  211MPD1    N1 3268   4.048   1.399  16.288  0.1070  0.4256 -0.6379
  211MPD1    H6 3269   4.049   1.364  16.384  1.0444 -1.0274 -1.1927
  211MPD1    H7 3270   4.014   1.495  16.290  0.0042  0.3935 -0.8636
  212MPD1     C 3271   4.154   0.563  16.676 -0.3846  0.2186  0.6705
  212MPD1    C1 3272   4.184   0.442  16.620 -0.3386 -0.1180  0.3415
  212MPD1    C2 3273   4.126   0.326  16.668 -0.0301  0.2707  1.0865
  212MPD1    C3 3274   4.050   0.329  16.774  0.2109 -0.2067 -0.5539
  212MPD1    C4 3275   4.019   0.445  16.837  0.2029  0.3418 -0.4642
  212MPD1    C5 3276   4.072   0.560  16.783  0.2843  0.2788 -0.0099
  212MPD1     H 3277   4.141   0.237  16.609  0.8250 -0.1638  1.9633
  212MPD1    H1 3278   3.954   0.453  16.924 -0.2591  0.3260 -0.8101
  212MPD1    H2 3279   4.189   0.646  16.616  0.7544 -0.2746  0.6412
  212MPD1    H3 3280   4.048   0.657  16.827 -0.1704  0.1334  0.0670
  212MPD1     N 3281   3.984   0.212  16.822  0.7634 -0.3725  0.3921
  212MPD1    H5 3282   3.904   0.221  16.884  0.4985 -0.6255  0.0867
  212MPD1    N1 3283   4.242   0.434  16.491 -0.0003  0.0707 -0.2052
  212MPD1    H6 3284   4.318   0.501  16.478  0.2126 -0.5979 -2.4548
  212MPD1    H7 3285   4.287   0.349  16.458  1.1991  0.3322  0.7445
  213MPD1     C 3286   1.777   1.090  15.760  0.0693  0.9417  0.0881
  213MPD1    C1 3287   1.694   1.024  15.672  0.7682 -0.2077  0.1494
  213MPD1    C2 3288   1.769   0.964  15.569  0.5812 -0.4439 -0.0065
  213MPD1    C3 3289   1.897   0.990  15.546  0.2622  0.2067  0.0919
  213MPD1    C4 3290   1.962   1.092  15.620  0.2495  0.3206  0.0753
  213MPD1    C5 3291   1.903   1.137  15.726  0.4201 -0.1318  0.2728
  213MPD1     H 3292   1.718   0.885  15.516 -0.1753  0.1059 -0.0942
  213MPD1    H1 3293   2.065   1.120  15.602  1.5272 -2.6803  2.8414
  213MPD1    H2 3294   1.733   1.141  15.845  0.9934 -1.0565  1.7592
  213MPD1    H3 3295   1.948   1.218  15.782  0.9659 -0.5998  0.5029
  213MPD1     N 3296   1.956   0.920  15.435 -0.8067 -0.4765  0.0176
  213MPD1    H5 3297   1.899   0.845  15.395  1.7112 -1.5457 -1.5854
  213MPD1    N1 3298   1.579   0.960  15.710  0.0934 -0.1076  0.3835
  213MPD1    H6 3299   1.511   0.959  15.634  1.0952  0.6610 -0.5012
  213MPD1    H7 3300   1.532   1.022  15.776 -0.2508 -0.1900  0.2176
  214MPD1     C 3301   1.616   0.237  15.206  1.2075  0.4472  0.4833
  214MPD1    C1 3302   1.691   0.269  15.094 -0.2059 -0.2419  1.0705
  214MPD1    C2 3303   1.799   0.351  15.112  0.3837  0.0072  0.3456
  214MPD1    C3 3304   1.827   0.408  15.239  0.0117 -0.0814 -0.1520
  214MPD1    C4 3305   1.745   0.372  15.347  0.0053  0.1964  0.0968
  214MPD1    C5 3306   1.640   0.292  15.324 -0.3686 -0.7689  0.3807
  214MPD1     H 3307   1.850   0.387  15.023  4.1810 -2.5712  1.4673
  214MPD1    H1 3308   1.755   0.412  15.447 -2.8405  2.9300 -0.7360
  214MPD1    H2 3309   1.532   0.172  15.184  0.2163  1.4964  1.1566
  214MPD1    H3 3310   1.580   0.258  15.407 -0.4226 -0.8916  0.2915
  214MPD1     N 3311   1.939   0.498  15.261  0.0980 -0.1656 -0.0875
  214MPD1    H5 3312   1.951   0.536  15.354 -0.4938 -1.3932  0.4962
  214MPD1    N1 3313   1.644   0.228  14.965 -0.1822 -0.7833 -0.1869
  214MPD1    H6 3314   1.723   0.227  14.901 -1.4262  0.3100 -1.7757
  214MPD1    H7 3315   1.600   0.136  14.961  0.1499 -1.0712  3.2411
  215MPD1     C 3316   1.927   1.588  10.360 -0.5659 -0.2785  0.5110
  215MPD1    C1 3317   1.892   1.717  10.364 -0.3374  0.5476 -0.3375
  215MPD1    C2 3318   1.954   1.800  10.454  0.4232  0.0122  0.2429
  215MPD1    C3 3319   2.039   1.748  10.548 -0.2081  0.4904 -0.2640
  215MPD1    C4 3320   2.051   1.609  10.557 -0.1596  0.0454  0.5934
  215MPD1    C5 3321   1.998   1.530  10.460  0.4523  0.1559  0.2354
  215MPD1     H 3322   1.931   1.906  10.458 -0.9803 -0.3293  1.3287
  215MPD1    H1 3323   2.096   1.554  10.639  0.6469 -0.7298 -0.3674
  215MPD1    H2 3324   1.884   1.527  10.281 -0.1163  1.4873 -1.0976
  215MPD1    H3 3325   2.004   1.422  10.462  3.6512  0.3437  1.0565
  215MPD1     N 3326   2.103   1.835  10.642  0.4234 -0.5411 -0.3437
  215MPD1    H5 3327   2.071   1.929  10.619 -2.0739 -1.3595 -0.2958
  215MPD1    N1 3328   1.806   1.773  10.264 -0.1354  0.4230 -0.3890
  215MPD1    H6 3329   1.728   1.712  10.241  0.1809 -0.1921  0.1705
  215MPD1    H7 3330   1.751   1.848  10.307 -1.1214 -1.0405  0.8879
  216MPD1     C 3331   4.356   0.177  17.139 -0.2604  0.1818  0.1698
  216MPD1    C1 3332   4.340   0.135  17.266  0.6896  0.5361 -0.2707
  216MPD1    C2 3333   4.272   0.015  17.280 -0.8945  0.8796  0.9313
  216MPD1    C3 3334   4.240   4.676  17.171  0.9429  0.0483 -0.8401
  216MPD1    C4 3335   4.252   4.727  17.047  0.0595 -0.1364  0.3217
  216MPD1    C5 3336   4.314   0.111  17.029  1.0707  0.5683 -0.4868
  216MPD1     H 3337   4.269   4.717  17.381 -0.6871  0.7514  0.8887
  216MPD1    H1 3338   4.245   4.674  16.953  0.4995 -1.3777  0.9954
  216MPD1    H2 3339   4.416   0.266  17.123  1.1953 -1.1694 -1.9469
  216MPD1    H3 3340   4.341   0.139  16.928 -0.3504  1.7931 -0.5161
  216MPD1     N 3341   4.191   4.543  17.196  0.3835 -0.0888  0.3575
  216MPD1    H5 3342   4.199   4.507  17.291  0.6194  1.1547  0.8068
  216MPD1    N1 3343   4.389   0.206  17.377  0.4391 -0.1141 -0.0297
  216MPD1    H6 3344   4.456   0.156  17.434 -1.1874 -2.6891 -0.3595
  216MPD1    H7 3345   4.447   0.281  17.341  0.7983 -0.8828 -1.0557
  217MPD1     C 3346   0.476   4.652   9.177  0.2670  0.7997  0.0081
  217MPD1    C1 3347   0.348   4.705   9.190 -0.1290 -0.8785 -0.1190
  217MPD1    C2 3348   0.334   0.089   9.254  0.6887  0.1156 -0.2819
  217MPD1    C3 3349   0.447   0.158   9.290 -0.6268  0.0021 -0.9412
  217MPD1    C4 3350   0.572   0.102   9.284 -0.0728  0.5543 -1.1288
  217MPD1    C5 3351   0.583   4.719   9.232  0.0171  0.1036  0.6789
  217MPD1     H 3352   0.230   0.116   9.269  0.7652  1.1735 -1.6460
  217MPD1    H1 3353   0.658   0.150   9.329  1.1998 -0.8679 -2.0154
  217MPD1    H2 3354   0.491   4.550   9.143  1.4377  1.0212 -0.1255
  217MPD1    H3 3355   0.678   4.667   9.230  0.0638  0.2279 -0.6939
  217MPD1     N 3356   0.449   0.292   9.333  0.0463 -0.2770  0.4538
  217MPD1    H5 3357   0.539   0.327   9.365 -0.2463  0.7339  0.1607
  217MPD1    N1 3358   0.232   4.631   9.165 -0.4183  0.3533  0.0570
  217MPD1    H6 3359   0.247   4.563   9.091 -0.3714 -1.2259  1.5026
  217MPD1    H7 3360   0.157   4.695   9.139  0.0911  0.0348 -2.1708
  218MPD1     C 3361   3.043   2.426  12.431  0.0124 -0.0199  0.0492
  218MPD1    C1 3362   2.933   2.447  12.350 -0.1102  0.0378 -0.4441
  218MPD1    C2 3363   2.829   2.351  12.344  1.2715  0.1465 -0.1004
  218MPD1    C3 3364   2.830   2.234  12.424 -0.6432 -0.6559 -0.2623
  218MPD1    C4 3365   2.930   2.219  12.511 -0.6525 -0.8880  0.3460
  218MPD1    C5 3366   3.039   2.311  12.511 -0.7326  0.8445 -0.2523
  218MPD1     H 3367   2.751   2.385  12.277  1.2615 -0.8788 -0.6050
  218MPD1    H1 3368   2.940   2.137  12.581  1.2084 -1.7954 -1.0054
  218MPD1    H2 3369   3.127   2.494  12.442  2.4389 -2.6219 -2.2550
  218MPD1    H3 3370   3.121   2.282  12.576 -0.8505 -0.9084 -0.9010
  218MPD1     N 3371   2.724   2.142  12.414  0.3913 -0.1449 -0.0435
  218MPD1    H5 3372   2.650   2.168  12.349  0.1474  1.9165  1.0697
  218MPD1    N1 3373   2.930   2.560  12.262 -0.6648 -0.3901  0.0476
  218MPD1    H6 3374   2.845   2.614  12.270  0.1082  0.5758  1.7857
  218MPD1    H7 3375   3.009   2.620  12.285 -0.8721 -0.5577  1.2012
  219MPD1     C 3376   1.911   1.818  11.936 -0.1126 -0.4619 -0.2376
  219MPD1    C1 3377   2.014   1.912  11.910  0.1388 -0.0817 -0.4538
  219MPD1    C2 3378   2.119   1.914  11.995 -0.5583  1.1976  0.5150
  219MPD1    C3 3379   2.123   1.838  12.112  0.1575  0.6685  0.7229
  219MPD1    C4 3380   2.023   1.753  12.146  0.0426 -0.4887  0.0595
  219MPD1    C5 3381   1.923   1.739  12.052 -0.1184  0.8324  0.1411
  219MPD1     H 3382   2.209   1.971  11.975  0.6779 -0.6431  0.7153
  219MPD1    H1 3383   2.026   1.679  12.225 -0.0206  0.5839  1.0717
  219MPD1    H2 3384   1.824   1.815  11.873 -0.1675 -2.6586 -0.0458
  219MPD1    H3 3385   1.836   1.675  12.066  0.0040  0.6286 -0.0311
  219MPD1     N 3386   2.236   1.828  12.194  0.5600  0.3893 -0.2845
  219MPD1    H5 3387   2.227   1.757  12.266  1.7400  0.9260  0.3763
  219MPD1    N1 3388   2.016   1.979  11.793 -0.5875 -0.1370 -0.1927
  219MPD1    H6 3389   2.081   2.057  11.799 -0.7325 -0.0345  0.0348
  219MPD1    H7 3390   1.924   2.005  11.759  0.1781  1.3078 -1.1679
  220MPD1     C 3391   1.621   3.026   9.561 -0.5764 -0.1937 -0.0180
  220MPD1    C1 3392   1.673   3.057   9.686 -0.6268 -0.4296  0.6300
  220MPD1    C2 3393   1.701   2.947   9.777 -0.8496  0.5576 -0.7926
  220MPD1    C3 3394   1.690   2.816   9.736 -0.2222  0.0399 -0.4129
  220MPD1    C4 3395   1.650   2.782   9.610  0.3803  0.5685 -0.2435
  220MPD1    C5 3396   1.607   2.892   9.525 -0.1310 -0.6719  0.4791
  220MPD1     H 3397   1.726   2.965   9.881  2.4151  2.1353 -1.8345
  220MPD1    H1 3398   1.645   2.682   9.568 -0.7973  0.5325 -0.0198
  220MPD1    H2 3399   1.598   3.103   9.488 -1.0726  0.1895  0.5334
  220MPD1    H3 3400   1.558   2.874   9.430 -1.0061  0.1738  0.7797
  220MPD1     N 3401   1.737   2.719   9.827 -0.0608  0.4972 -0.6033
  220MPD1    H5 3402   1.770   2.756   9.915 -2.2452  3.1103 -0.8873
  220MPD1    N1 3403   1.680   3.187   9.730 -0.5156 -0.0893 -0.1380
  220MPD1    H6 3404   1.747   3.205   9.804 -0.3516 -1.6732  0.0890
  220MPD1    H7 3405   1.704   3.252   9.655 -0.0886 -1.1973 -0.9544
  221MPD1     C 3406   4.222   1.655  16.570  0.2680  0.7346  0.5406
  221MPD1    C1 3407   4.322   1.729  16.515  0.6374 -0.4910 -0.6847
  221MPD1    C2 3408   4.439   1.664  16.479  0.0644  0.1132 -0.4191
  221MPD1    C3 3409   4.455   1.526  16.506  0.1303 -0.6301 -0.2555
  221MPD1    C4 3410   4.350   1.456  16.550  0.0318  0.4359  0.5106
  221MPD1    C5 3411   4.231   1.517  16.581  0.3333  0.4750  0.2343
  221MPD1     H 3412   4.522   1.718  16.436  1.6899 -1.1422  1.1707
  221MPD1    H1 3413   4.348   1.348  16.559  0.8217  0.4714  1.1291
  221MPD1    H2 3414   4.124   1.693  16.599  1.1536  1.1017  3.0682
  221MPD1    H3 3415   4.148   1.461  16.622 -0.1760  0.5977 -0.6201
  221MPD1     N 3416   4.581   1.455  16.486 -0.7054  0.6436 -0.2179
  221MPD1    H5 3417   4.585   1.354  16.497 -1.2808  0.3620 -2.7192
  221MPD1    N1 3418   4.320   1.870  16.503 -0.1074 -0.4159  0.4789
  221MPD1    H6 3419   4.383   1.891  16.426 -0.0894  2.5895  1.3162
  221MPD1    H7 3420   4.228   1.896  16.469  0.9104  0.2132 -1.8301
  222MPD1     C 3421   3.766   4.573   1.017  0.4413 -0.0075  0.1852
  222MPD1    C1 3422   3.795   4.666   1.109 -0.3156  0.5583 -0.3675
  222MPD1    C2 3423   3.733   0.047   1.101 -0.0918 -0.1292 -0.6587
  222MPD1    C3 3424   3.641   0.078   0.996 -1.1165  0.3077  0.5158
  222MPD1    C4 3425   3.607   4.717   0.908 -0.9644 -0.3832 -0.7093
  222MPD1    C5 3426   3.670   4.593   0.925  0.5317  0.2136  0.1113
  222MPD1     H 3427   3.757   0.124   1.173 -0.0070 -0.5821 -0.1997
  222MPD1    H1 3428   3.531   4.736   0.833 -1.1020 -0.4910 -0.5970
  222MPD1    H2 3429   3.816   4.478   1.010 -0.1094 -0.4916  2.6737
  222MPD1    H3 3430   3.650   4.507   0.863  0.8548  1.5963 -1.9317
  222MPD1     N 3431   3.569   0.196   0.986 -0.1430 -0.7321  0.2688
  222MPD1    H5 3432   3.502   0.195   0.910  1.5598  1.2180 -1.2390
  222MPD1    N1 3433   3.905   4.644   1.193 -0.6407  0.2907  0.0000
  222MPD1    H6 3434   3.907   4.545   1.216 -1.5448  0.3453  0.3413
  222MPD1    H7 3435   3.905   4.684   1.287  1.2001  0.6068 -0.1429
  223MPD1     C 3436   2.857   0.662   0.508 -0.7583 -0.1826 -0.4558
  223MPD1    C1 3437   2.881   0.753   0.607 -0.5625 -0.3604 -0.3796
  223MPD1    C2 3438   2.993   0.730   0.682 -0.6058 -0.4462 -0.1200
  223MPD1    C3 3439   3.058   0.615   0.682  0.7987  0.0013 -0.8446
  223MPD1    C4 3440   3.038   0.527   0.583  0.4335  0.1135 -0.1946
  223MPD1    C5 3441   2.936   0.553   0.496 -0.6400 -0.0018 -0.1101
  223MPD1     H 3442   3.024   0.797   0.762 -2.0295  1.9021 -1.5385
  223MPD1    H1 3443   3.093   0.435   0.570 -0.8053 -0.5507 -0.7771
  223MPD1    H2 3444   2.780   0.679   0.434 -0.9559 -0.8218 -0.4001
  223MPD1    H3 3445   2.908   0.478   0.423  0.4256 -0.7480  0.2517
  223MPD1     N 3446   3.156   0.595   0.779  0.7338 -0.0725  0.6976
  223MPD1    H5 3447   3.181   0.670   0.842 -0.7784  0.1718  1.0175
  223MPD1    N1 3448   2.804   0.868   0.612  0.2524  0.1157 -0.1810
  223MPD1    H6 3449   2.709   0.857   0.577  0.7670  1.8858 -2.1315
  223MPD1    H7 3450   2.798   0.900   0.708 -1.2988 -1.6858  0.3274
  224MPD1     C 3451   4.532   1.663   9.455 -0.3047  0.1607 -0.0163
  224MPD1    C1 3452   4.598   1.550   9.495  0.3195  0.1398 -0.0696
  224MPD1    C2 3453   4.722   1.574   9.549  0.4964 -0.2757 -0.1701
  224MPD1    C3 3454   0.040   1.703   9.547 -0.5479  0.2095 -0.1391
  224MPD1    C4 3455   4.701   1.813   9.518  0.2729  0.2491  0.2630
  224MPD1    C5 3456   4.581   1.788   9.471  0.3444  0.1751 -0.1509
  224MPD1     H 3457   0.031   1.490   9.596 -1.2047  0.5616  3.0964
  224MPD1    H1 3458   4.738   1.915   9.525 -0.0150  0.3572  0.2101
  224MPD1    H2 3459   4.430   1.662   9.418 -0.4751  0.3871  0.4394
  224MPD1    H3 3460   4.529   1.875   9.434  1.0041  0.2573 -0.8995
  224MPD1     N 3461   0.162   1.732   9.611 -0.2687 -0.0030  0.3004
  224MPD1    H5 3462   0.170   1.831   9.629  1.5588 -0.4438  1.7906
  224MPD1    N1 3463   4.525   1.432   9.515 -0.4387 -0.3365 -0.0559
  224MPD1    H6 3464   4.579   1.353   9.550  0.8744  0.4021 -0.3921
  224MPD1    H7 3465   4.462   1.411   9.439 -0.3967 -0.3572 -0.0849
  225MPD1     C 3466   2.219   2.754  12.042 -0.8380 -0.3388 -0.1833
  225MPD1    C1 3467   2.115   2.731  11.951  0.0668 -0.3586 -0.1238
  225MPD1    C2 3468   2.005   2.665  12.005  0.9611  0.2682  0.0706
  225MPD1    C3 3469   1.985   2.643  12.141  0.0472 -0.2063  0.8324
  225MPD1    C4 3470   2.092   2.666  12.223 -0.1027 -0.3512 -0.6230
  225MPD1    C5 3471   2.205   2.716  12.171  0.0291  0.0597 -0.3660
  225MPD1     H 3472   1.928   2.638  11.932  1.4551 -0.5036 -0.1605
  225MPD1    H1 3473   2.101   2.645  12.329 -1.6119 -1.9804 -0.8038
  225MPD1    H2 3474   2.320   2.782  12.017 -0.4325 -1.7784 -0.1728
  225MPD1    H3 3475   2.286   2.726  12.242  0.2780 -0.3745 -0.5914
  225MPD1     N 3476   1.859   2.599  12.196 -0.1496  0.0017 -0.1870
  225MPD1    H5 3477   1.859   2.595  12.298 -2.7470 -2.9984 -0.2857
  225MPD1    N1 3478   2.140   2.738  11.811 -0.4704  0.4762  0.0954
  225MPD1    H6 3479   2.206   2.814  11.796 -0.6696  0.5223 -0.5615
  225MPD1    H7 3480   2.052   2.761  11.763 -0.3193 -0.3081 -0.5511
  226MPD1     C 3481   4.462   2.138  10.084  0.2518 -0.1123 -0.2557
  226MPD1    C1 3482   4.528   2.260  10.087  0.3574  0.6360 -0.4558
  226MPD1    C2 3483   4.633   2.289   9.995  0.3046 -0.3134  0.5657
  226MPD1    C3 3484   4.678   2.197   9.904  0.2487 -0.3274  0.4150
  226MPD1    C4 3485   4.620   2.073   9.909 -0.6864 -0.5106  0.6120
  226MPD1    C5 3486   4.514   2.047   9.998 -0.1325 -0.0059 -0.6149
  226MPD1     H 3487   4.675   2.389   9.985 -0.4952 -0.2399 -2.0438
  226MPD1    H1 3488   4.642   1.984   9.850 -1.5901  0.2489 -0.8660
  226MPD1    H2 3489   4.382   2.115  10.153  1.1029 -1.9517  0.1301
  226MPD1    H3 3490   4.462   1.952   9.994 -0.0522 -0.1104  0.7994
  226MPD1     N 3491   0.045   2.232   9.816  0.4347 -0.1526 -0.4485
  226MPD1    H5 3492   0.074   2.330   9.809  1.2673 -0.3419  0.3574
  226MPD1    N1 3493   4.479   2.356  10.172  0.6938  0.1428  0.0337
  226MPD1    H6 3494   4.466   2.310  10.261 -1.3113 -0.8777 -0.7827
  226MPD1    H7 3495   4.558   2.420  10.182  0.9811 -0.5028  1.8456
  227MPD1     C 3496   0.435   3.069   9.611 -0.2382  0.3443  0.3969
  227MPD1    C1 3497   0.549   2.991   9.609 -0.2140  0.1013  0.2972
  227MPD1    C2 3498   0.532   2.852   9.590 -0.4303 -0.1073 -0.2086
  227MPD1    C3 3499   0.402   2.801   9.607 -0.2165 -0.6564  0.0268
  227MPD1    C4 3500   0.285   2.885   9.606 -0.1049  0.8664  0.1930
  227MPD1    C5 3501   0.305   3.021   9.609  0.3174 -0.3475 -0.3889
  227MPD1     H 3502   0.621   2.791   9.583 -0.0363  0.4836 -0.3076
  227MPD1    H1 3503   0.183   2.847   9.606  0.5371 -0.8720  0.2579
  227MPD1    H2 3504   0.455   3.173   9.635 -1.1562  0.6513 -0.2198
  227MPD1    H3 3505   0.217   3.084   9.619  0.1314 -1.2317  3.3687
  227MPD1     N 3506   0.397   2.658   9.595  0.1735 -0.3551 -0.0052
  227MPD1    H5 3507   0.488   2.612   9.590  0.9242  1.0682  0.8530
  227MPD1    N1 3508   0.672   3.053   9.589 -0.0920  0.0947 -0.4573
  227MPD1    H6 3509   0.687   3.133   9.650 -1.9801 -1.1067  1.5793
  227MPD1    H7 3510   0.755   2.997   9.611 -0.1538 -0.7492 -2.3316
  228MPD1     C 3511   4.214   1.061  13.250 -0.3563 -0.0624  0.0079
  228MPD1    C1 3512   4.088   1.095  13.219 -0.3566 -0.4318 -0.3133
  228MPD1    C2 3513   4.008   0.994  13.173 -0.0778 -0.3088 -0.1310
  228MPD1    C3 3514   4.044   0.862  13.189  0.0786 -0.2679 -0.1528
  228MPD1    C4 3515   4.160   0.825  13.243 -0.5433  1.1556 -0.6737
  228MPD1    C5 3516   4.249   0.926  13.268  0.1383 -0.6990 -0.2416
  228MPD1     H 3517   3.910   1.013  13.131 -0.0755  2.2519  0.9678
  228MPD1    H1 3518   4.195   0.723  13.255  0.4442  1.3443 -1.9022
  228MPD1    H2 3519   4.292   1.135  13.266  0.5555 -1.4197  1.9272
  228MPD1    H3 3520   4.354   0.903  13.284  0.5847  1.8847  0.4959
  228MPD1     N 3521   3.945   0.768  13.145 -0.4142  0.8818  0.7740
  228MPD1    H5 3522   3.866   0.810  13.097 -1.2518  0.3063  1.6403
  228MPD1    N1 3523   4.072   1.233  13.179  0.1026 -0.2676 -0.2097
  228MPD1    H6 3524   4.125   1.307  13.225 -0.2875 -0.1192  0.0008
  228MPD1    H7 3525   3.979   1.274  13.187 -0.2809 -1.2454  0.3618
  229MPD1     C 3526   2.469   3.868  15.072  0.4600 -0.3201  0.7576
  229MPD1    C1 3527   2.519   3.852  15.199  0.1108  0.0115 -0.0575
  229MPD1    C2 3528   2.650   3.889  15.233  0.4699 -0.7786  0.1106
  229MPD1    C3 3529   2.736   3.937  15.136  0.0264  0.0529  0.5231
  229MPD1    C4 3530   2.689   3.953  15.009  0.2994 -0.1450  0.2661
  229MPD1    C5 3531   2.559   3.912  14.973  0.0254  0.6555  0.0837
  229MPD1     H 3532   2.692   3.867  15.330  2.9890  0.7440 -0.6237
  229MPD1    H1 3533   2.751   3.990  14.928  0.9753 -3.1417 -0.5873
  229MPD1    H2 3534   2.365   3.848  15.051  0.8706 -1.6067 -0.0347
  229MPD1    H3 3535   2.525   3.936  14.873  4.1226 -0.6845 -1.6199
  229MPD1     N 3536   2.870   3.962  15.163 -0.6533 -0.5107 -0.3055
  229MPD1    H5 3537   2.925   3.996  15.084 -0.3343 -0.0148  0.1298
  229MPD1    N1 3538   2.455   3.777  15.292  0.0063  0.4687  0.1051
  229MPD1    H6 3539   2.357   3.758  15.271  0.0614  0.7994 -0.4410
  229MPD1    H7 3540   2.473   3.810  15.386 -0.2652  3.7748 -0.9979
  230MPD1     C 3541   3.490   3.931  15.960  0.8282 -0.5435 -0.0203
  230MPD1    C1 3542   3.353   3.924  15.946 -0.3274  0.0389  0.3882
  230MPD1    C2 3543   3.293   3.933  15.821 -0.0382 -0.3914  0.2643
  230MPD1    C3 3544   3.375   3.957  15.710  0.5765 -0.8962 -0.9657
  230MPD1    C4 3545   3.511   3.965  15.724 -0.6163 -0.4053  0.3253
  230MPD1    C5 3546   3.570   3.948  15.848 -0.0582  0.9753 -0.1604
  230MPD1     H 3547   3.188   3.912  15.805  0.9315 -1.9783 -3.9237
  230MPD1    H1 3548   3.586   3.984  15.649 -1.3288  0.2341 -0.2170
  230MPD1    H2 3549   3.539   3.918  16.056 -0.2897  0.3618  0.6687
  230MPD1    H3 3550   3.677   3.933  15.855 -0.5672 -1.5245  2.0473
  230MPD1     N 3551   3.314   3.971  15.582  0.0191 -0.1460  0.7426
  230MPD1    H5 3552   3.214   3.982  15.577 -0.0199 -1.4538 -1.2315
  230MPD1    N1 3553   3.274   3.879  16.054 -0.6429  0.0692 -0.4629
  230MPD1    H6 3554   3.188   3.933  16.046  0.4953  2.1266  1.1603
  230MPD1    H7 3555   3.293   3.895  16.153  2.2476 -1.3260 -0.8002
  231MPD1     C 3556   1.338   0.617  15.562 -0.2667 -0.1976 -0.3118
  231MPD1    C1 3557   1.281   0.610  15.439  0.1849  0.3271  0.5355
  231MPD1    C2 3558   1.358   0.625  15.327  0.1911 -0.0552  0.0930
  231MPD1    C3 3559   1.489   0.663  15.334  0.5221  0.5404 -0.3996
  231MPD1    C4 3560   1.546   0.666  15.459 -0.1792 -0.4370  0.0169
  231MPD1    C5 3561   1.476   0.641  15.577  0.3705 -0.8997  0.1739
  231MPD1     H 3562   1.319   0.603  15.228 -1.3197 -0.1319  0.7062
  231MPD1    H1 3563   1.651   0.685  15.479  0.5059 -2.2315 -1.7836
  231MPD1    H2 3564   1.278   0.586  15.647  0.1339  1.4812  0.5894
  231MPD1    H3 3565   1.529   0.648  15.671 -2.2000  3.3015  1.3169
  231MPD1     N 3566   1.563   0.697  15.217  0.8152 -0.1152 -0.4196
  231MPD1    H5 3567   1.510   0.688  15.131  0.0200 -0.7681  0.1482
  231MPD1    N1 3568   1.149   0.572  15.426 -0.0284 -0.1268  0.2616
  231MPD1    H6 3569   1.088   0.599  15.503 -1.5822 -2.1184 -0.2663
  231MPD1    H7 3570   1.108   0.602  15.337  1.1951 -0.1691 -0.3211
  232MPD1     C 3571   3.585   3.760   0.524  0.6655  0.3459 -0.6386
  232MPD1    C1 3572   3.491   3.852   0.519 -0.2804 -0.1109 -0.2120
  232MPD1    C2 3573   3.387   3.834   0.430 -0.7206 -0.3849  0.4293
  232MPD1    C3 3574   3.381   3.731   0.337 -0.1380 -0.2741 -0.1526
  232MPD1    C4 3575   3.494   3.648   0.341  0.6464  0.4544 -0.5155
  232MPD1    C5 3576   3.596   3.662   0.434 -0.2253  0.3036  0.0646
  232MPD1     H 3577   3.307   3.907   0.430 -0.4616 -0.1033  0.4807
  232MPD1    H1 3578   3.512   3.569   0.268  0.4613 -0.8907  0.8761
  232MPD1    H2 3579   3.670   3.771   0.591 -0.1110  1.0055  0.2431
  232MPD1    H3 3580   3.683   3.597   0.438 -1.4446 -1.1987  2.3119
  232MPD1     N 3581   3.267   3.707   0.248  0.2196 -0.2508  0.9149
  232MPD1    H5 3582   3.191   3.774   0.247  0.3104 -0.1841 -1.3726
  232MPD1    N1 3583   3.487   3.954   0.612  0.6829 -0.0236 -0.3353
  232MPD1    H6 3584   3.414   4.023   0.596  0.1658 -0.8622 -1.6389
  232MPD1    H7 3585   3.578   3.992   0.636 -0.4110  3.1569 -1.1705
  233MPD1     C 3586   3.380   0.754   1.529 -0.7680 -0.6134 -0.5751
  233MPD1    C1 3587   3.444   0.871   1.516  0.0642 -0.7781  0.6497
  233MPD1    C2 3588   3.558   0.876   1.442  0.3287  0.3176 -0.5271
  233MPD1    C3 3589   3.619   0.761   1.397 -0.7479 -0.0551 -0.2275
  233MPD1    C4 3590   3.562   0.639   1.429  0.3155 -0.3514 -0.0222
  233MPD1    C5 3591   3.440   0.640   1.490  0.6218  0.2035 -0.9195
  233MPD1     H 3592   3.595   0.974   1.412 -1.0874  1.2178  0.6781
  233MPD1    H1 3593   3.596   0.541   1.398  0.3152  0.3006 -2.0769
  233MPD1    H2 3594   3.287   0.740   1.583 -0.7260 -0.8471 -0.5622
  233MPD1    H3 3595   3.401   0.542   1.514 -0.0180  1.2111  2.0756
  233MPD1     N 3596   3.739   0.750   1.324 -0.6640 -0.1209  0.2167
  233MPD1    H5 3597   3.781   0.657   1.320 -3.0322 -1.2803  2.4016
  233MPD1    N1 3598   3.385   0.996   1.553 -0.3513 -0.3428 -0.4856
  233MPD1    H6 3599   3.459   1.059   1.583  0.8265 -0.6871 -2.6815
  233MPD1    H7 3600   3.315   0.999   1.627 -0.9360 -0.7188 -1.0242
  234MPD1     C 3601   2.048   0.833  10.008 -0.2204  0.3726 -0.0503
  234MPD1    C1 3602   1.998   0.946  10.068  0.5237  0.1585  0.1221
  234MPD1    C2 3603   1.866   0.979  10.040 -0.2886  0.8583  0.0421
  234MPD1    C3 3604   1.786   0.908   9.958 -0.6197  0.0051 -0.6034
  234MPD1    C4 3605   1.842   0.797   9.893  0.3504  0.0661  0.2839
  234MPD1    C5 3606   1.973   0.762   9.920  0.8621  0.3224 -0.1787
  234MPD1     H 3607   1.823   1.059  10.099 -2.8373  0.1459 -0.8682
  234MPD1    H1 3608   1.788   0.727   9.831  1.4285 -0.5712  0.0696
  234MPD1    H2 3609   2.145   0.799  10.040  1.0304  1.2220 -2.9435
  234MPD1    H3 3610   2.014   0.673   9.874 -1.8707 -1.5374  1.0228
  234MPD1     N 3611   1.646   0.938   9.960 -0.5447 -0.3269  0.0884
  234MPD1    H5 3612   1.617   1.022  10.010  1.5977  0.3397  0.2504
  234MPD1    N1 3613   2.069   0.998  10.177  0.3923  0.2272  0.1672
  234MPD1    H6 3614   2.048   1.094  10.202  0.8895  0.2845  0.3784
  234MPD1    H7 3615   2.171   0.994  10.173  0.3880  1.8579 -1.1921
  235MPD1     C 3616   2.521   3.151  11.055  0.5253 -0.2403 -0.7569
  235MPD1    C1 3617   2.620   3.093  10.977 -0.0501  0.6172  0.4399
  235MPD1    C2 3618   2.721   3.175  10.920  0.2710 -0.7587 -0.1151
  235MPD1    C3 3619   2.715   3.311  10.947 -0.4494 -0.2357  0.0430
  235MPD1    C4 3620   2.617   3.368  11.030  0.2537 -0.4496  0.3256
  235MPD1    C5 3621   2.528   3.283  11.089 -0.1425  0.0414  0.0847
  235MPD1     H 3622   2.802   3.130  10.863  0.8734 -0.5430  0.5685
  235MPD1    H1 3623   2.619   3.474  11.055 -2.4964 -0.2806 -0.2764
  235MPD1    H2 3624   2.437   3.090  11.087  1.5959 -0.8540  0.8712
  235MPD1    H3 3625   2.443   3.323  11.141  0.2668  1.1733 -0.1292
  235MPD1     N 3626   2.819   3.388  10.894  0.1988  0.1179 -0.2624
  235MPD1    H5 3627   2.876   3.335  10.829 -1.4123  1.5045 -2.8048
  235MPD1    N1 3628   2.603   2.956  10.936 -0.3122  0.3512 -0.0919
  235MPD1    H6 3629   2.683   2.898  10.913  0.9721  1.6323  1.1396
  235MPD1    H7 3630   2.545   2.914  11.007  0.1396 -1.6442 -0.9078
  236MPD1     C 3631   1.396   4.054   9.512  0.2219 -0.4242 -0.6255
  236MPD1    C1 3632   1.443   4.088   9.636  0.4482  1.0642 -0.0440
  236MPD1    C2 3633   1.565   4.023   9.676  0.0998 -0.0367  0.6875
  236MPD1    C3 3634   1.620   3.922   9.599 -0.4594  0.6697 -0.0812
  236MPD1    C4 3635   1.560   3.884   9.478  0.1910 -0.5482 -0.0768
  236MPD1    C5 3636   1.447   3.949   9.441  0.7957  0.2801  0.6114
  236MPD1     H 3637   1.620   4.060   9.762 -0.7898  0.5592  0.9962
  236MPD1    H1 3638   1.604   3.813   9.409  0.8907  0.4508 -0.6718
  236MPD1    H2 3639   1.307   4.106   9.480 -0.0491 -1.1547 -1.0779
  236MPD1    H3 3640   1.407   3.913   9.347 -1.5770 -0.7212  1.9949
  236MPD1     N 3641   1.744   3.862   9.629  0.6579 -0.6001  0.1282
  236MPD1    H5 3642   1.776   3.793   9.561 -1.3160  0.0544 -1.4828
  236MPD1    N1 3643   1.396   4.207   9.699  0.2566 -0.0863  0.0131
  236MPD1    H6 3644   1.399   4.188   9.799 -2.5316  1.7780  0.4342
  236MPD1    H7 3645   1.308   4.247   9.669  0.0044 -2.3611 -2.3160
  237MPD1     C 3646   2.300   1.992  14.378  0.2322 -0.4813  0.0596
  237MPD1    C1 3647   2.202   1.951  14.297  0.5053  0.3855 -0.3992
  237MPD1    C2 3648   2.072   1.938  14.352 -0.5548 -0.0936  1.0369
  237MPD1    C3 3649   2.046   1.972  14.489 -0.5712 -0.0078  0.1211
  237MPD1    C4 3650   2.151   2.020  14.564 -0.4140 -0.5787 -0.1600
  237MPD1    C5 3651   2.278   2.025  14.509  0.3467  0.3754 -0.2397
  237MPD1     H 3652   1.993   1.906  14.285 -0.2356 -0.8400  1.0128
  237MPD1    H1 3653   2.131   2.057  14.664 -1.2727 -0.3268 -0.4274
  237MPD1    H2 3654   2.403   1.996  14.345 -0.1223  1.9372 -0.7627
  237MPD1    H3 3655   2.366   2.051  14.567  0.3819 -2.2835  0.9227
  237MPD1     N 3656   1.913   1.969  14.545  0.1461 -0.0602  0.1134
  237MPD1    H5 3657   1.904   1.979  14.646 -0.3953  2.5705 -0.1933
  237MPD1    N1 3658   2.227   1.909  14.167 -0.2501  0.2911  0.6618
  237MPD1    H6 3659   2.299   1.972  14.131  0.1408 -0.0123  0.9117
  237MPD1    H7 3660   2.148   1.905  14.104 -0.3513  1.9704  0.6941
  238MPD1     C 3661   3.882   1.203  15.020  0.5382 -0.1392  0.0422
  238MPD1    C1 3662   3.777   1.127  15.054 -0.0284 -0.4055  0.2925
  238MPD1    C2 3663   3.670   1.120  14.970  0.6435 -0.2619 -0.1685
  238MPD1    C3 3664   3.661   1.190  14.854 -0.3228  0.3351  0.0797
  238MPD1    C4 3665   3.769   1.262  14.815  0.7121 -0.1567  0.3106
  238MPD1    C5 3666   3.875   1.266  14.897  0.7081 -0.1694  0.7274
  238MPD1     H 3667   3.595   1.054  15.013  1.6730 -1.4667 -0.2366
  238MPD1    H1 3668   3.769   1.304  14.715 -0.6169 -0.6895  0.0796
  238MPD1    H2 3669   3.970   1.219  15.081  1.0669  0.7828 -0.9568
  238MPD1    H3 3670   3.953   1.339  14.880  1.4935 -0.6634  2.2769
  238MPD1     N 3671   3.551   1.188  14.763  0.9276 -0.3635  0.4374
  238MPD1    H5 3672   3.551   1.239  14.675 -0.2400  0.4668  0.9130
  238MPD1    N1 3673   3.779   1.073  15.188  0.7479  0.8386 -0.2327
  238MPD1    H6 3674   3.730   0.984  15.194  0.1708  1.2016  0.4689
  238MPD1    H7 3675   3.870   1.056  15.230  0.3243  0.2296  0.4348
  239MPD1     C 3676   3.804   1.494  14.477  0.3697 -0.8952  0.7586
  239MPD1    C1 3677   3.710   1.579  14.535 -0.2172  0.2186  0.2056
  239MPD1    C2 3678   3.637   1.672  14.453 -0.0883 -0.2755 -0.4962
  239MPD1    C3 3679   3.660   1.675  14.316 -0.2132 -0.2481  0.4493
  239MPD1    C4 3680   3.757   1.594  14.269 -0.1536 -0.5181 -0.1140
  239MPD1    C5 3681   3.826   1.512  14.344  0.6171 -0.6722  0.7485
  239MPD1     H 3682   3.552   1.723  14.496 -2.0142 -2.3682 -1.8122
  239MPD1    H1 3683   3.788   1.604  14.165 -2.0136 -0.9971 -0.7191
  239MPD1    H2 3684   3.852   1.407  14.522 -1.7442 -2.8037 -0.7067
  239MPD1    H3 3685   3.911   1.462  14.298 -0.3800 -2.7961  1.2095
  239MPD1     N 3686   3.603   1.767  14.229 -0.1893 -0.0182 -0.3672
  239MPD1    H5 3687   3.625   1.759  14.130 -0.4101  0.5191 -0.4602
  239MPD1    N1 3688   3.659   1.543  14.659  0.4883 -0.0827 -0.3991
  239MPD1    H6 3689   3.613   1.617  14.711  1.3463  1.1753 -1.4508
  239MPD1    H7 3690   3.732   1.508  14.722  0.7029  1.3957  0.1826
  240MPD1     C 3691   2.365   2.097  13.018 -0.0802 -0.1986 -0.1428
  240MPD1    C1 3692   2.502   2.098  13.033  0.1934 -0.5479  0.5408
  240MPD1    C2 3693   2.555   2.012  13.131  0.1152  0.1394 -0.0702
  240MPD1    C3 3694   2.479   1.935  13.214  0.1090  1.0471 -0.1882
  240MPD1    C4 3695   2.347   1.941  13.194 -0.0236 -0.4323  1.0803
  240MPD1    C5 3696   2.291   2.017  13.092 -0.1957  0.0554 -0.0847
  240MPD1     H 3697   2.662   2.015  13.143  0.2616  1.0798 -1.6278
  240MPD1    H1 3698   2.282   1.867  13.240 -1.4931  0.8232  1.0126
  240MPD1    H2 3699   2.322   2.153  12.935 -1.6348 -1.3390 -0.1144
  240MPD1    H3 3700   2.193   1.992  13.051  0.5838 -1.0131 -1.3061
  240MPD1     N 3701   2.546   1.851  13.318  0.0449 -0.0817  0.0036
  240MPD1    H5 3702   2.647   1.855  13.329  0.0435 -0.0035 -0.0108
  240MPD1    N1 3703   2.577   2.163  12.941 -0.0495  0.0429  0.2552
  240MPD1    H6 3704   2.535   2.249  12.907  0.2471  0.5758  1.2130
  240MPD1    H7 3705   2.673   2.171  12.977  0.2763  1.4298 -0.9384
  241MPD1     C 3706   3.407   1.434  13.467  0.2428  0.1600  0.4055
  241MPD1    C1 3707   3.324   1.451  13.357  0.4214  0.4695 -0.1716
  241MPD1    C2 3708   3.191   1.461  13.383  0.3608  0.4130 -0.0704
  241MPD1    C3 3709   3.131   1.456  13.505 -0.4958  0.2521 -0.9963
  241MPD1    C4 3710   3.219   1.432  13.604  0.3802  0.2940  0.2599
  241MPD1    C5 3711   3.351   1.422  13.589  0.3096  0.2402 -0.0352
  241MPD1     H 3712   3.124   1.477  13.300 -1.5550  0.5462  1.5114
  241MPD1    H1 3713   3.184   1.454  13.704  2.1943  0.2786  0.8976
  241MPD1    H2 3714   3.514   1.426  13.456  0.3264 -0.8745  1.9825
  241MPD1    H3 3715   3.412   1.416  13.679  1.5568  2.3342 -0.7243
  241MPD1     N 3716   3.000   1.497  13.547 -0.6112 -0.4595 -0.2244
  241MPD1    H5 3717   2.982   1.489  13.647 -1.4995  1.7882 -0.2095
  241MPD1    N1 3718   3.370   1.476  13.228  0.3194  0.1294 -0.5682
  241MPD1    H6 3719   3.458   1.428  13.208  1.2770  0.6682  2.2796
  241MPD1    H7 3720   3.305   1.453  13.154  0.6110 -2.4259 -0.0195
  242MPD1     C 3721   2.009   3.818  15.336 -0.1774  0.6468 -0.8936
  242MPD1    C1 3722   2.065   3.905  15.434 -0.2189 -0.6470  0.5946
  242MPD1    C2 3723   2.160   4.001  15.388  0.1002  0.5028 -0.2384
  242MPD1    C3 3724   2.178   4.020  15.249  0.5894  0.2558 -0.1054
  242MPD1    C4 3725   2.106   3.953  15.159 -0.5859  0.0517  0.0500
  242MPD1    C5 3726   2.023   3.848  15.204 -0.0008  0.2069  0.0583
  242MPD1     H 3727   2.213   4.070  15.452  1.1039  0.3863 -0.9517
  242MPD1    H1 3728   2.114   3.962  15.051 -1.6649  0.9463  0.0493
  242MPD1    H2 3729   1.953   3.728  15.356  2.1767 -0.9428 -1.4547
  242MPD1    H3 3730   1.997   3.778  15.126  0.1840 -0.2267  0.3863
  242MPD1     N 3731   2.275   4.105  15.192  0.1335  0.3824  0.3791
  242MPD1    H5 3732   2.272   4.110  15.090  1.6284 -0.5437  0.3055
  242MPD1    N1 3733   2.059   3.872  15.571  0.0436  0.4195 -0.6987
  242MPD1    H6 3734   2.052   3.956  15.627 -2.4382  0.2800 -0.7820
  242MPD1    H7 3735   1.967   3.829  15.580  0.3111 -0.2549 -1.1759
  243MPD1     C 3736   3.697   4.004   0.066  0.6643  0.1544 -0.1474
  243MPD1    C1 3737   3.751   4.050  17.710  0.0035 -0.1191 -0.3338
  243MPD1    C2 3738   3.822   3.967  17.632 -0.4750 -0.1506 -0.3417
  243MPD1    C3 3739   3.844   3.833  17.670 -0.0608 -0.3614  0.0639
  243MPD1    C4 3740   3.796   3.785   0.036  0.1757 -0.7875  0.9873
  243MPD1    C5 3741   3.724   3.872   0.104  0.2402 -0.1232  0.9154
  243MPD1     H 3742   3.855   3.998  17.533  1.3215  2.1392  0.9942
  243MPD1    H1 3743   3.814   3.683   0.068 -0.6793 -1.5772 -1.0059
  243MPD1    H2 3744   3.626   4.064   0.121  0.0237  0.2973 -1.1415
  243MPD1    H3 3745   3.676   3.834   0.194  0.0905 -3.4138 -0.5825
  243MPD1     N 3746   3.909   3.758  17.571  0.3865  0.8713 -0.3464
  243MPD1    H5 3747   3.931   3.804  17.484  0.2456 -1.7445 -1.7858
  243MPD1    N1 3748   3.706   4.180  17.665 -0.2087 -0.2008 -0.5742
  243MPD1    H6 3749   3.684   4.245  17.740  0.5102 -1.8158  1.0063
  243MPD1    H7 3750   3.776   4.228  17.608  0.2869  0.4065  0.5431
  244MPD1     C 3751   4.188   2.833  17.669 -0.1266  0.1395  0.3756
  244MPD1    C1 3752   4.101   2.906  17.744  0.5018 -0.2845 -0.0038
  244MPD1    C2 3753   4.058   3.018  17.679 -0.3504 -0.0478  0.3010
  244MPD1    C3 3754   4.092   3.049  17.550 -0.3735 -0.2873  0.1917
  244MPD1    C4 3755   4.165   2.959  17.470  0.2305  0.8632  0.0132
  244MPD1    C5 3756   4.218   2.848  17.534  0.2288  0.0066 -0.1287
  244MPD1     H 3757   3.998   3.088  17.737 -1.5074 -1.4508  0.8026
  244MPD1    H1 3758   4.184   2.975  17.364 -1.1496 -0.8896 -0.4874
  244MPD1    H2 3759   4.235   2.756  17.730  0.8413  1.2978  1.1055
  244MPD1    H3 3760   4.286   2.780  17.484 -0.0006 -0.0831 -0.3216
  244MPD1     N 3761   4.035   3.167  17.494  0.2029 -0.0664 -0.0295
  244MPD1    H5 3762   3.986   3.226  17.561  0.4024  0.8027 -0.6580
  244MPD1    N1 3763   4.085   2.881   0.128 -0.2003  0.1173 -0.3471
  244MPD1    H6 3764   3.989   2.897   0.159 -0.3557 -0.6559 -0.4331
  244MPD1    H7 3765   4.104   2.784   0.152  0.2854 -0.1757 -1.9467
  245MPD1     C 3766   1.407   3.049  13.158  0.6514 -0.0917  0.1715
  245MPD1    C1 3767   1.523   3.120  13.166 -0.7333  0.6409 -0.2601
  245MPD1    C2 3768   1.514   3.246  13.221  0.4624 -0.6875 -0.4864
  245MPD1    C3 3769   1.396   3.303  13.270  0.1894  0.1301 -0.0593
  245MPD1    C4 3770   1.277   3.233  13.252 -0.0876  0.1924  0.3126
  245MPD1    C5 3771   1.283   3.110  13.187  0.0385  0.2210 -1.3093
  245MPD1     H 3772   1.605   3.304  13.234  0.1757 -0.5411  0.9243
  245MPD1    H1 3773   1.177   3.266  13.274 -0.2764 -0.1674 -0.0089
  245MPD1    H2 3774   1.391   2.957  13.104 -0.5618  0.1642  0.1089
  245MPD1    H3 3775   1.195   3.048  13.182  0.3933 -0.4383  0.5143
  245MPD1     N 3776   1.400   3.440  13.323 -0.0682  0.0475 -0.1360
  245MPD1    H5 3777   1.488   3.489  13.327 -0.2829  0.3769  0.4865
  245MPD1    N1 3778   1.651   3.066  13.139 -0.2391  0.8296 -0.6562
  245MPD1    H6 3779   1.727   3.131  13.123  0.5590 -0.1794 -0.9713
  245MPD1    H7 3780   1.645   2.998  13.064  1.9604  1.0856 -1.0579
  246MPD1     C 3781   1.935   2.053   9.873 -0.6271  0.3516  0.0170
  246MPD1    C1 3782   1.899   2.041   9.739 -0.6292  0.3172  0.2910
  246MPD1    C2 3783   1.915   2.149   9.659  0.6119 -0.4385 -0.7148
  246MPD1    C3 3784   1.980   2.264   9.697  0.0313  0.0242  0.1245
  246MPD1    C4 3785   2.030   2.269   9.819  0.1853  0.1058 -0.1370
  246MPD1    C5 3786   1.998   2.170   9.913  0.4176 -0.2662  0.0389
  246MPD1     H 3787   1.861   2.138   9.566  0.0774 -1.6181 -0.2652
  246MPD1    H1 3788   2.095   2.347   9.856  0.1681  0.3826 -0.7007
  246MPD1    H2 3789   1.907   1.973   9.940 -0.8839  0.4988  0.0855
  246MPD1    H3 3790   2.030   2.179  10.016 -3.1450  0.9102  1.0417
  246MPD1     N 3791   1.982   2.369   9.608  0.3258 -0.0342 -0.1972
  246MPD1    H5 3792   1.935   2.346   9.520 -2.8557  2.4089  0.8783
  246MPD1    N1 3793   1.819   1.932   9.702 -0.4552 -0.2785  0.3684
  246MPD1    H6 3794   1.824   1.901   9.605  0.0964 -2.6968  1.1547
  246MPD1    H7 3795   1.838   1.847   9.756 -2.2770 -0.9106  0.0532
  247MPD1     C 3796   0.554   4.060  14.820  0.5203 -0.0738  0.6069
  247MPD1    C1 3797   0.468   3.952  14.815  0.5249 -0.6811 -0.2120
  247MPD1    C2 3798   0.442   3.872  14.931  0.3846  0.0897 -0.5331
  247MPD1    C3 3799   0.519   3.896  15.041 -0.2105 -0.1729 -0.2963
  247MPD1    C4 3800   0.614   3.998  15.045 -0.1119 -0.1681  0.7257
  247MPD1    C5 3801   0.630   4.079  14.935 -0.1822 -0.7736 -0.1000
  247MPD1     H 3802   0.373   3.789  14.931 -0.8414  1.0993  1.2952
  247MPD1    H1 3803   0.660   4.017  15.141  2.4562  0.9192 -0.7292
  247MPD1    H2 3804   0.568   4.124  14.734  1.5669  2.1934  2.4709
  247MPD1    H3 3805   0.688   4.170  14.950 -2.6939  0.5795  1.5209
  247MPD1     N 3806   0.491   3.834  15.167  0.0261 -0.6918  0.3799
  247MPD1    H5 3807   0.538   3.876  15.246 -1.6304  0.0135  0.9924
  247MPD1    N1 3808   0.392   3.960  14.694  0.9479 -0.2114  0.1134
  247MPD1    H6 3809   0.443   4.005  14.619 -1.3022 -0.1862 -1.3971
  247MPD1    H7 3810   0.346   3.872  14.671  1.0734 -0.0467 -0.7746
  248MPD1     C 3811   1.641   2.927   0.397 -0.0587  0.1709  0.0493
  248MPD1    C1 3812   1.566   2.835   0.463  0.0481 -0.5246  0.3683
  248MPD1    C2 3813   1.447   2.795   0.404  0.4814 -0.3426  0.1053
  248MPD1    C3 3814   1.406   2.856   0.284  0.5578  0.1556 -0.1044
  248MPD1    C4 3815   1.477   2.960   0.234  0.6549 -0.1402 -0.1440
  248MPD1    C5 3816   1.600   2.991   0.284  0.6058  1.1811 -0.1406
  248MPD1     H 3817   1.399   2.708   0.446 -0.6965 -0.5550 -1.6881
  248MPD1    H1 3818   1.445   3.022   0.151  0.4929  1.2964  1.0007
  248MPD1    H2 3819   1.724   2.960   0.458 -0.8795 -1.2045  1.9405
  248MPD1    H3 3820   1.652   3.075   0.240 -0.8135  1.0465 -2.1266
  248MPD1     N 3821   1.285   2.813   0.232 -0.3900 -0.0915 -0.3090
  248MPD1    H5 3822   1.213   2.761   0.283  2.7297 -1.3713  2.7654
  248MPD1    N1 3823   1.600   2.786   0.589 -0.1467  0.4422  0.1915
  248MPD1    H6 3824   1.696   2.750   0.591 -0.5116 -0.3977  2.0914
  248MPD1    H7 3825   1.539   2.709   0.617  0.4387  0.2449  0.9071
  249MPD1     C 3826   2.700   2.394   9.836  0.5643 -0.0138 -0.8053
  249MPD1    C1 3827   2.799   2.407   9.932 -0.0338 -1.0400  0.0090
  249MPD1    C2 3828   2.867   2.524   9.938  0.0089  0.0124 -0.0091
  249MPD1    C3 3829   2.847   2.630   9.858  0.3897  0.0840  0.2350
  249MPD1    C4 3830   2.754   2.607   9.758  0.5452  0.5154 -0.1182
  249MPD1    C5 3831   2.680   2.494   9.751 -0.5913 -0.1686  0.2936
  249MPD1     H 3832   2.942   2.532  10.015 -1.2466 -0.9397  1.3143
  249MPD1    H1 3833   2.732   2.685   9.685 -0.9913 -0.5322 -0.7648
  249MPD1    H2 3834   2.658   2.296   9.815 -1.8793  1.1806 -1.4358
  249MPD1    H3 3835   2.620   2.476   9.663 -0.2045 -2.9121  0.5942
  249MPD1     N 3836   2.916   2.753   9.882  0.7474  0.3304 -0.2624
  249MPD1    H5 3837   2.972   2.759   9.967 -1.2282 -1.7547  1.1766
  249MPD1    N1 3838   2.844   2.296  10.002  0.2550 -0.1066 -0.6050
  249MPD1    H6 3839   2.760   2.240  10.012  0.7372 -0.8950 -0.9840
  249MPD1    H7 3840   2.882   2.321  10.093  0.7824  0.1460 -0.8884
  250MPD2     C 3841   0.208   2.257  12.794 -0.3114 -0.0975  0.2222
  250MPD2    C1 3842   0.123   2.361  12.760 -1.2944 -0.2751  0.4588
  250MPD2    C2 3843   0.024   2.337  12.658 -1.0611 -0.1344 -0.5399
  250MPD2    C3 3844   0.016   2.209  12.599  0.0857  0.6588  0.2735
  250MPD2    C4 3845   0.101   2.112  12.639 -0.5461 -0.2348 -0.2240
  250MPD2    C5 3846   0.199   2.132  12.734  0.9611 -0.0954  0.1947
  250MPD2     H 3847   4.698   2.419  12.630 -1.8373 -0.5603  0.0444
  250MPD2    H1 3848   0.106   2.012  12.598 -0.8899 -0.9609  1.4874
  250MPD2    H2 3849   0.287   2.283  12.864 -1.9649  2.4706  1.1141
  250MPD2    H3 3850   0.276   2.058  12.752  0.6332 -0.5872 -0.4432
  250MPD2     N 3851   4.655   2.175  12.495 -0.5867  0.3384 -1.2485
  250MPD2    H5 3852   4.648   2.081  12.459 -0.5980 -0.1356  0.0362
  250MPD2    N1 3853   0.155   2.490  12.813 -0.0816 -0.7560 -0.4966
  250MPD2    H7 3854   0.240   2.502  12.867 -0.7923  0.5588  0.3174
  251TMC3    C1 3855   0.133   2.717  12.851  0.1665  1.1030  0.4632
  251TMC3    C2 3856   0.050   2.822  12.889  0.1539  0.4002 -0.1888
  251TMC3    C3 3857   0.104   2.921  12.967 -0.3216  0.1912  0.0657
  251TMC3    C4 3858   0.271   2.709  12.878 -0.5915  0.2576  0.5397
  251TMC3    C5 3859   0.318   2.823  12.947  0.6029 -1.2826 -0.5840
  251TMC3    C6 3860   0.238   2.921  13.001  0.1576  0.0167 -0.2040
  251TMC3     C 3861   0.074   2.604  12.790  0.7157  0.1882 -0.0763
  251TMC3     O 3862   4.699   2.606  12.755 -0.1438  0.3336  0.4058
  251TMC3     H 3863   4.681   2.821  12.876  0.1121  2.0295 -0.0409
  251TMC3    H1 3864   0.336   2.633  12.836 -0.9207  0.7023 -0.7482
  251TMC3    H2 3865   0.273   3.002  13.064  1.6584 -1.4461  0.8702
  251TMC3    C7 3866   0.464   2.827  12.961  0.1902  0.0542  0.1438
  251TMC3    C8 3867   0.022   2.974  13.069  0.5596  0.1182  0.3554
  251TMC3    O1 3868   0.521   2.725  12.946 -1.0101  0.0032  0.0332
  251TMC3    O2 3869   4.676   2.898  13.102  0.2491  0.6295 -0.4374
  252TMC3    C1 3870   4.185   3.785   9.452 -0.2870 -0.0403  0.0295
  252TMC3    C2 3871   4.318   3.754   9.433  0.3811 -0.2250  0.6636
  252TMC3    C3 3872   4.365   3.632   9.456  1.1656  1.0528  0.2505
  252TMC3    C4 3873   4.095   3.685   9.498 -0.2670  0.1511 -0.1370
  252TMC3    C5 3874   4.141   3.560   9.522 -0.0553 -0.0752 -0.1830
  252TMC3    C6 3875   4.272   3.534   9.496  0.1990  0.4456 -0.0299
  252TMC3     C 3876   4.141   3.918   9.413 -0.1492 -0.1113 -0.1156
  252TMC3     O 3877   4.232   3.998   9.396 -0.7496 -0.0194 -0.3779
  252TMC3     H 3878   4.389   3.831   9.407 -1.4196  0.3107 -2.7417
  252TMC3    H1 3879   3.990   3.706   9.512  0.0161  2.1958 -1.1631
  252TMC3    H2 3880   4.313   3.438   9.526  0.0547  0.6306  0.7560
  252TMC3    C7 3881   4.045   3.457   9.569  0.0198 -0.1564  0.3613
  252TMC3    C8 3882   4.507   3.595   9.436  0.6166 -0.0993 -0.0156
  252TMC3    O1 3883   3.925   3.472   9.551  0.2295 -0.2228  0.4677
  252TMC3    O2 3884   4.576   3.656   9.352  0.2918  0.1786  0.6331
  253MPD2     C 3885   1.213   2.536  15.012  0.1753  0.1964  0.5281
  253MPD2    C1 3886   1.103   2.606  15.056  0.1245 -0.0991  0.5503
  253MPD2    C2 3887   1.079   2.617  15.188 -0.6376  0.4649  0.0236
  253MPD2    C3 3888   1.180   2.582  15.278  0.5643 -0.4144 -1.0163
  253MPD2    C4 3889   1.297   2.521  15.232 -0.4117  0.5599  0.2910
  253MPD2    C5 3890   1.310   2.504  15.101 -0.3023  0.3747 -0.0951
  253MPD2     H 3891   0.982   2.650  15.223 -1.4339  0.5223 -2.3015
  253MPD2    H1 3892   1.379   2.481  15.291 -0.4090 -0.6044 -0.4986
  253MPD2    H2 3893   1.224   2.498  14.911 -1.3536  0.1487  0.3882
  253MPD2    H3 3894   1.402   2.461  15.062  0.8344  0.0572  2.9299
  253MPD2     N 3895   1.158   2.605  15.418 -0.1565  0.4082  0.4595
  253MPD2    H5 3896   1.222   2.551  15.475 -1.8167 -0.4405  1.5355
  253MPD2    N1 3897   0.990   2.638  14.973  0.6692 -0.5003 -0.1091
  253MPD2    H7 3898   0.899   2.649  15.015  1.0397 -3.5821  1.5155
  254TMC3    C1 3899   1.036   2.677  15.615  0.7739  0.2953 -1.2341
  254TMC3    C2 3900   0.910   2.707  15.656  0.2434 -0.3180  0.7798
  254TMC3    C3 3901   0.842   2.639  15.749  1.1005 -0.7610 -0.0061
  254TMC3    C4 3902   1.110   2.584  15.682  0.8162 -0.3696  0.7933
  254TMC3    C5 3903   1.038   2.514  15.777 -0.0796 -0.6720 -0.4272
  254TMC3    C6 3904   0.908   2.547  15.818  0.0475  0.2444 -0.3196
  254TMC3     C 3905   1.072   2.696  15.473 -0.0098  0.6395 -0.1034
  254TMC3     O 3906   0.994   2.773  15.410  0.1054  0.2683  0.2904
  254TMC3     H 3907   0.855   2.777  15.594  1.2717 -1.8512 -1.8829
  254TMC3    H1 3908   1.213   2.570  15.650  0.5559 -0.3001 -0.0605
  254TMC3    H2 3909   0.843   2.492  15.885  0.2624  2.1482  1.4131
  254TMC3    C7 3910   1.087   2.401  15.855 -0.4868 -0.2059  0.3734
  254TMC3    C8 3911   0.709   2.679  15.790  0.2251  0.3852 -0.5104
  254TMC3    O1 3912   1.025   2.360  15.951  0.5176  0.1418 -0.3998
  254TMC3    O2 3913   0.666   2.625  15.887  0.5351  0.5805 -0.5755
  255MPD2     C 3914   3.475   1.219   9.976  0.0218 -0.3181 -0.0328
  255MPD2    C1 3915   3.548   1.246   9.863 -0.0545 -0.5291  0.4981
  255MPD2    C2 3916   3.690   1.246   9.868  0.2828 -0.2421 -0.0502
  255MPD2    C3 3917   3.751   1.231   9.986 -0.0754 -0.5339  0.3187
  255MPD2    C4 3918   3.678   1.222  10.099 -0.4190  0.1602  0.5547
  255MPD2    C5 3919   3.541   1.218  10.097 -0.0354  0.0897  0.3468
  255MPD2     H 3920   3.751   1.265   9.781  0.4936  0.0017  0.1480
  255MPD2    H1 3921   3.721   1.216  10.198  0.1419 -0.1770  0.2889
  255MPD2    H2 3922   3.367   1.229   9.976 -0.1995 -2.6442  0.3466
  255MPD2    H3 3923   3.492   1.217  10.193 -0.5806 -0.2908  0.0636
  255MPD2     N 3924   3.892   1.225   9.991 -0.7590  0.0448  0.1252
  255MPD2    H5 3925   3.936   1.258   9.906 -0.0757 -0.5526  0.2393
  255MPD2    N1 3926   3.480   1.255   9.741  0.0095 -0.0557 -0.1954
  255MPD2    H7 3927   3.382   1.230   9.740 -0.4807  1.8230  0.3427
  256TMC3    C1 3928   3.436   1.262   9.515  0.3024 -0.3097  0.7694
  256TMC3    C2 3929   3.473   1.321   9.395 -0.5955  0.2768  0.1981
  256TMC3    C3 3930   3.394   1.302   9.287  0.6342 -0.4479  0.2684
  256TMC3    C4 3931   3.326   1.184   9.528  0.4800  0.2307 -0.7151
  256TMC3    C5 3932   3.254   1.164   9.413 -0.2039  0.7979  0.0454
  256TMC3    C6 3933   3.283   1.226   9.288 -0.0267  0.1194  0.8179
  256TMC3     C 3934   3.533   1.278   9.619 -0.7580 -0.0627  0.2751
  256TMC3     O 3935   3.640   1.334   9.601 -1.0941  0.6711 -1.0265
  256TMC3     H 3936   3.564   1.378   9.387 -0.3224 -0.2052 -0.1338
  256TMC3    H1 3937   3.299   1.142   9.625 -0.0134 -1.3533 -1.5391
  256TMC3    H2 3938   3.234   1.200   9.195  2.1983  1.1912 -0.6628
  256TMC3    C7 3939   3.195   1.034   9.405  0.1729 -0.4133  1.0902
  256TMC3    C8 3940   3.445   1.332   9.152  0.3064  0.3730  0.0177
  256TMC3    O1 3941   3.203   0.956   9.504 -0.4213  0.1609 -0.4364
  256TMC3    O2 3942   3.369   1.334   9.053 -0.2208  0.1286  0.6411
  257MPD2     C 3943   3.004   2.532  12.740  0.3078 -0.2339 -0.3773
  257MPD2    C1 3944   3.139   2.487  12.755  0.0107 -0.2724 -0.8970
  257MPD2    C2 3945   3.160   2.372  12.836  0.0851 -0.6813  0.2497
  257MPD2    C3 3946   3.052   2.308  12.893  0.7086  0.0505 -0.2380
  257MPD2    C4 3947   2.925   2.354  12.873 -0.1501  0.3875  0.0151
  257MPD2    C5 3948   2.901   2.472  12.801  0.2575 -0.4446  0.5634
  257MPD2     H 3949   3.257   2.329  12.856  1.3103  1.5014 -1.0642
  257MPD2    H1 3950   2.841   2.322  12.934  0.3582 -0.2489  0.3835
  257MPD2    H2 3951   2.970   2.602  12.665  0.9400  0.9304  0.4237
  257MPD2    H3 3952   2.802   2.517  12.802  1.0912  1.3268  3.8020
  257MPD2     N 3953   3.072   2.186  12.965  0.1005  0.6569  0.2640
  257MPD2    H5 3954   3.165   2.150  12.981 -0.1782 -0.1343  0.1191
  257MPD2    N1 3955   3.241   2.560  12.684 -0.3338 -0.1738 -0.4940
  257MPD2    H7 3956   3.205   2.625  12.614 -0.9590 -2.2244 -2.0988
  258TMC3    C1 3957   3.023   2.000  13.089 -0.6283  0.8786 -0.6787
  258TMC3    C2 3958   3.107   1.931  13.001  0.5451 -0.5039  0.4102
  258TMC3    C3 3959   3.185   1.826  13.053  0.6215 -0.6112 -0.7615
  258TMC3    C4 3960   3.019   1.970  13.224 -0.7979  0.1094  0.1125
  258TMC3    C5 3961   3.115   1.879  13.271 -0.8806  0.4200 -0.4172
  258TMC3    C6 3962   3.200   1.814  13.186 -0.0104 -0.1993  0.8181
  258TMC3     C 3963   2.977   2.130  13.050  0.0967 -0.2000 -0.4887
  258TMC3     O 3964   2.870   2.165  13.103 -0.0393  0.8779 -0.5166
  258TMC3     H 3965   3.107   1.969  12.900 -2.1021  0.7740  0.8795
  258TMC3    H1 3966   2.962   2.032  13.291 -1.1485 -1.0941  0.9293
  258TMC3    H2 3967   3.263   1.733  13.222 -1.7575 -1.1730  1.6786
  258TMC3    C7 3968   3.141   1.859  13.407 -0.4715 -0.3668  0.1454
  258TMC3    C8 3969   3.274   1.755  12.962 -0.6039 -0.6862  0.1108
  258TMC3    O1 3970   3.051   1.906  13.477  0.0018 -0.0865  0.7203
  258TMC3    O2 3971   3.379   1.715  13.010  0.2797 -0.2476  0.2544
  259MPD2     C 3972   1.856   4.084   0.882 -0.1572  0.9419  0.3789
  259MPD2    C1 3973   1.965   4.008   0.848  0.4687  0.2102  0.1492
  259MPD2    C2 3974   2.014   4.000   0.722  0.5256  0.1671  0.0521
  259MPD2    C3 3975   1.949   4.068   0.625  0.1756 -0.0317  0.7848
  259MPD2    C4 3976   1.839   4.153   0.659 -1.0764  0.2586  0.6261
  259MPD2    C5 3977   1.784   4.149   0.784 -0.0278  0.1703 -0.4582
  259MPD2     H 3978   2.099   3.935   0.701 -1.3294 -1.9386 -1.0140
  259MPD2    H1 3979   1.780   4.207   0.585  1.4733  0.5884 -1.1509
  259MPD2    H2 3980   1.817   4.094   0.982  0.4397 -1.9158  0.8965
  259MPD2    H3 3981   1.711   4.228   0.801 -0.2689 -0.1297 -0.1088
  259MPD2     N 3982   2.012   4.060   0.498  0.0229  0.1255 -0.2447
  259MPD2    H5 3983   2.097   4.006   0.493 -0.4058 -0.5638 -0.0864
  259MPD2    N1 3984   2.023   3.937   0.958  0.3197  0.5241  0.0728
  259MPD2    H7 3985   1.970   3.932   1.044  0.6610  2.0122  0.3676
  260TMC3    C1 3986   2.087   4.120   0.287  0.2443  0.5143 -0.0264
  260TMC3    C2 3987   2.151   4.229   0.220  0.4261  0.5748  0.4940
  260TMC3    C3 3988   2.224   4.203   0.108  0.5973  0.6993  0.0980
  260TMC3    C4 3989   2.108   3.991   0.247  0.7199 -0.3801  0.5154
  260TMC3    C5 3990   2.175   3.975   0.129  0.2300  0.1773  0.6527
  260TMC3    C6 3991   2.227   4.077   0.056  0.3000 -0.8532  0.7925
  260TMC3     C 3992   1.996   4.146   0.394 -0.1765  0.1362 -0.2499
  260TMC3     O 3993   1.934   4.251   0.391 -0.7726 -0.3553  0.0319
  260TMC3     H 3994   2.155   4.329   0.261  0.5077  0.7672  0.0161
  260TMC3    H1 3995   2.052   3.909   0.293  1.7016 -0.7250  1.0965
  260TMC3    H2 3996   2.264   4.063  17.710 -2.0896  0.0921 -0.1850
  260TMC3    C7 3997   2.238   3.847   0.095  0.0477  0.4486  0.5275
  260TMC3    C8 3998   2.363   4.248   0.120 -0.0966 -0.0882  0.2269
  260TMC3    O1 3999   2.330   3.853   0.011 -0.1184 -0.7615  0.1226
  260TMC3    O2 4000   2.387   4.322   0.214  0.2985  0.2731  0.8062
  261MPD2     C 4001   4.368   1.997  11.751  0.6397  0.7753 -0.3201
  261MPD2    C1 4002   4.325   2.098  11.831 -0.2302 -0.1001  0.2258
  261MPD2    C2 4003   4.280   2.214  11.765 -0.1016  0.2864 -0.2600
  261MPD2    C3 4004   4.283   2.226  11.625 -0.3043  0.9542 -0.4473
  261MPD2    C4 4005   4.329   2.119  11.553 -0.1328  0.5856  0.3170
  261MPD2    C5 4006   4.374   2.003  11.613 -0.2145 -0.0064  0.3648
  261MPD2     H 4007   4.236   2.300  11.814 -0.7287 -0.5704  0.6677
  261MPD2    H1 4008   4.343   2.121  11.446 -1.7661 -1.4117  0.0564
  261MPD2    H2 4009   4.410   1.911  11.802  0.8977  0.0802 -1.7071
  261MPD2    H3 4010   4.416   1.935  11.539 -3.1154 -1.5989  0.1717
  261MPD2     N 4011   4.233   2.342  11.563 -0.0115 -0.3424  0.0231
  261MPD2    H5 4012   4.207   2.413  11.631  0.0512  0.1627 -0.4876
  261MPD2    N1 4013   4.332   2.098  11.970 -0.2309 -0.7783  0.5224
  261MPD2    H7 4014   4.361   2.012  12.015  1.1099 -0.4896  0.2047
  262TMC3    C1 4015   4.175   2.506  11.398  0.2528 -0.4100 -0.1146
  262TMC3    C2 4016   4.063   2.549  11.465 -0.0256 -0.5877  0.3747
  262TMC3    C3 4017   3.995   2.660  11.417 -0.0540  0.0495  0.5661
  262TMC3    C4 4018   4.235   2.575  11.297 -0.3598  0.1796  0.6790
  262TMC3    C5 4019   4.167   2.690  11.253 -0.3230  0.2683 -0.1517
  262TMC3    C6 4020   4.057   2.737  11.315 -0.0372  0.3702  0.0519
  262TMC3     C 4021   4.228   2.373  11.428  0.0829  0.0868 -0.3537
  262TMC3     O 4022   4.274   2.314  11.331 -0.3356 -0.1227 -0.2755
  262TMC3     H 4023   4.022   2.476  11.534 -0.5812  0.3958  1.0793
  262TMC3    H1 4024   4.326   2.539  11.250  0.6177  0.7698  2.1196
  262TMC3    H2 4025   4.015   2.830  11.280  0.5978  0.0028 -1.6808
  262TMC3    C7 4026   4.236   2.788  11.175  0.0066  0.1782 -0.3913
  262TMC3    C8 4027   3.946   2.754  11.517  0.1534 -0.5650 -0.5764
  262TMC3    O1 4028   4.283   2.759  11.064  0.1615 -0.0139  0.0472
  262TMC3    O2 4029   3.908   2.864  11.470  0.2563 -0.0150 -0.3522
  263MPD2     C 4030   0.437   1.334  11.237  0.4514  0.1374 -0.4875
  263MPD2    C1 4031   0.311   1.389  11.238  0.9740 -0.2817  0.3320
  263MPD2    C2 4032   0.303   1.521  11.230 -0.0647  0.1077  0.0001
  263MPD2    C3 4033   0.417   1.605  11.230 -0.6994  0.0474  0.0923
  263MPD2    C4 4034   0.542   1.544  11.225  0.4920 -0.8538 -1.0575
  263MPD2    C5 4035   0.547   1.407  11.229  0.0943  0.0719  0.6352
  263MPD2     H 4036   0.208   1.572  11.237 -0.6593 -0.2256 -5.4632
  263MPD2    H1 4037   0.628   1.595  11.184  2.0063 -0.8463  2.1163
  263MPD2    H2 4038   0.456   1.227  11.239  1.7258  0.4078  1.8215
  263MPD2    H3 4039   0.646   1.365  11.212  0.6382  2.0257 -0.9666
  263MPD2     N 4040   0.405   1.747  11.225  0.7170 -0.0773 -0.2219
  263MPD2    H5 4041   0.313   1.780  11.196  1.6726  1.2056 -1.7842
  263MPD2    N1 4042   0.195   1.303  11.251  0.0827 -0.7802 -0.1335
  263MPD2    H7 4043   0.202   1.204  11.229  0.0702 -1.2173  1.7776
  264TMC3    C1 4044   0.457   1.968  11.286  0.6403 -0.3447  0.3564
  264TMC3    C2 4045   0.484   2.054  11.388 -0.1670  0.1743  0.0353
  264TMC3    C3 4046   0.500   2.187  11.350 -1.0848 -0.3829  0.3404
  264TMC3    C4 4047   0.452   2.011  11.156  0.1633  0.1377 -1.2011
  264TMC3    C5 4048   0.464   2.143  11.125  0.2383  0.4150  0.3398
  264TMC3    C6 4049   0.492   2.237  11.218  0.4955 -0.4084  0.0031
  264TMC3     C 4050   0.489   1.831  11.292  0.0447 -0.2850  1.0575
  264TMC3     O 4051   0.570   1.800  11.380 -0.4442 -0.6056 -0.6340
  264TMC3     H 4052   0.486   2.022  11.492 -1.1620  0.0087 -0.0010
  264TMC3    H1 4053   0.442   1.934  11.080 -2.3104 -0.5792 -0.1472
  264TMC3    H2 4054   0.523   2.338  11.194 -0.0275 -0.2956 -0.1930
  264TMC3    C7 4055   0.519   2.160  10.991 -1.3032  0.0811 -0.0658
  264TMC3    C8 4056   0.560   2.275  11.450 -0.3079  0.4922  0.8188
  264TMC3    O1 4057   0.555   2.055  10.937  0.6886  0.4962 -0.4766
  264TMC3    O2 4058   0.594   2.388  11.409  0.1483  0.2579  0.7039
  265MPD2     C 4059   2.411   1.837  15.480 -0.1923 -0.9024  0.2412
  265MPD2    C1 4060   2.341   1.906  15.377  0.2868 -0.3753  0.2036
  265MPD2    C2 4061   2.368   1.882  15.238  0.1815  0.4857  0.4797
  265MPD2    C3 4062   2.470   1.791  15.208  0.1748  0.9545 -0.4086
  265MPD2    C4 4063   2.546   1.740  15.314  0.3396 -0.3548  0.5959
  265MPD2    C5 4064   2.514   1.755  15.441 -0.4868 -0.9262  0.6727
  265MPD2     H 4065   2.317   1.938  15.161  1.6036  0.7699 -0.2582
  265MPD2    H1 4066   2.643   1.694  15.298 -0.1045 -1.2860  0.6357
  265MPD2    H2 4067   2.406   1.840  15.588  1.6860 -0.2428  0.3047
  265MPD2    H3 4068   2.587   1.725  15.515  0.5530 -0.3644 -0.1231
  265MPD2     N 4069   2.521   1.769  15.076 -0.0236  0.2762  0.1685
  265MPD2    H5 4070   2.594   1.703  15.051  0.2571  0.6098  0.0980
  265MPD2    N1 4071   2.228   1.992  15.413 -0.4877 -0.1108  0.0101
  265MPD2    H7 4072   2.165   2.009  15.335 -3.1468 -0.5339  2.0504
  266TMC3    C1 4073   2.081   2.116  15.563  0.4508  0.6821  0.1605
  266TMC3    C2 4074   2.053   2.151  15.693 -0.3852 -0.8584 -0.5718
  266TMC3    C3 4075   1.975   2.256  15.716  0.4269  1.1249  0.3938
  266TMC3    C4 4076   2.011   2.170  15.460  0.4967  0.3131 -0.0453
  266TMC3    C5 4077   1.924   2.273  15.487 -0.2240  0.0264  0.5170
  266TMC3    C6 4078   1.903   2.323  15.617  0.1031  0.1766  0.6783
  266TMC3     C 4079   2.206   2.042  15.540 -0.4444  0.0240  0.2514
  266TMC3     O 4080   2.290   2.046  15.632  0.0789  0.0251 -0.6201
  266TMC3     H 4081   2.133   2.127  15.762 -1.7573 -2.0376  0.6019
  266TMC3    H1 4082   2.038   2.136  15.360  1.6946  0.4939  0.2071
  266TMC3    H2 4083   1.831   2.403  15.634  1.8578  1.7372  0.7998
  266TMC3    C7 4084   1.839   2.316  15.381  0.0022  0.5200  0.4779
  266TMC3    C8 4085   1.986   2.323  15.846  0.5263  0.5003 -0.3498
  266TMC3    O1 4086   1.791   2.428  15.393 -0.2844 -0.4706 -0.5528
  266TMC3    O2 4087   1.964   2.246  15.941  0.1012  0.1272 -0.4469
  267MPD2     C 4088   4.288   4.127   0.182  0.0817  0.0633  0.1509
  267MPD2    C1 4089   4.356   4.079   0.074  0.2048 -0.7762  0.5752
  267MPD2    C2 4090   4.305   4.101  17.706  0.6547 -0.2628  0.0884
  267MPD2    C3 4091   4.201   4.186  17.681 -0.1732  0.1614 -0.4485
  267MPD2    C4 4092   4.139   4.239   0.042  0.3312 -0.1524  0.0517
  267MPD2    C5 4093   4.177   4.207   0.166  0.2435 -0.2962 -0.0081
  267MPD2     H 4094   4.345   4.054  17.617  1.1249 -1.4572  0.9336
  267MPD2    H1 4095   4.056   4.309   0.038  1.1400  0.6783 -2.5670
  267MPD2    H2 4096   4.297   4.090   0.283 -0.2505 -0.5898 -0.0598
  267MPD2    H3 4097   4.121   4.248   0.250 -1.3020  1.7134 -2.0237
  267MPD2     N 4098   4.149   4.217  17.557 -0.4114 -0.8350  0.0921
  267MPD2    H5 4099   4.073   4.285  17.554 -0.5289 -0.8884  1.7853
  267MPD2    N1 4100   4.469   3.991   0.082 -0.4322  0.1233 -0.2984
  267MPD2    H7 4101   4.496   3.965   0.177 -0.2921  1.3325 -0.0109
  268TMC3    C1 4102   4.680   3.893   0.027  0.0765  0.2272 -0.6945
  268TMC3    C2 4103   0.052   3.907  17.702 -1.0421  0.5602 -0.4071
  268TMC3    C3 4104   0.168   3.840  17.725  0.0760 -0.1968  0.4743
  268TMC3    C4 4105   4.675   3.796   0.124  0.2300 -0.3928  0.0244
  268TMC3    C5 4106   0.054   3.732   0.149 -0.6050  0.1267 -0.2907
  268TMC3    C6 4107   0.167   3.750   0.072  0.2019 -0.2690 -0.0688
  268TMC3     C 4108   4.561   3.967  17.744 -0.2211 -0.2311 -0.4131
  268TMC3     O 4109   4.560   3.997  17.625 -1.0320 -0.4057 -0.1706
  268TMC3     H 4110   0.058   3.994  17.637  1.4497  1.4503  1.0196
  268TMC3    H1 4111   4.578   3.778   0.170 -0.8722  1.0562 -1.6992
  268TMC3    H2 4112   0.257   3.695   0.096  1.1620  0.7189 -1.4172
  268TMC3    C7 4113   0.075   3.632   0.253  0.1240  0.2292  0.2457
  268TMC3    C8 4114   0.286   3.877  17.650  0.2257  0.9339  0.3036
  268TMC3    O1 4115   0.158   3.544   0.247 -0.6373  0.2348  0.3890
  268TMC3    O2 4116   0.389   3.885  17.713 -0.1351  0.4553 -0.0517
  269MPD2     C 4117   0.142   2.787  15.305 -0.0543  0.0415 -0.0033
  269MPD2    C1 4118   0.084   2.792  15.427 -0.5541 -0.3235 -0.4620
  269MPD2    C2 4119   0.005   2.900  15.466 -0.3499 -0.3726  0.0692
  269MPD2    C3 4120   4.732   3.009  15.376  0.4279  1.2104 -0.0173
  269MPD2    C4 4121   0.030   2.991  15.247  0.4583 -0.1440 -0.2311
  269MPD2    C5 4122   0.120   2.894  15.218  0.2487  0.2358 -0.5155
  269MPD2     H 4123   4.688   2.907  15.558 -1.4391  3.5998 -0.8958
  269MPD2    H1 4124   0.005   3.065  15.172 -0.1639  0.8731  0.9688
  269MPD2    H2 4125   0.203   2.704  15.273  0.6083 -0.2900  2.0621
  269MPD2    H3 4126   0.163   2.892  15.119 -0.4299 -1.7065 -0.7624
  269MPD2     N 4127   4.663   3.127  15.419  0.0403  0.2445 -0.0882
  269MPD2    H5 4128   4.631   3.131  15.515  0.8162  0.9720  0.1407
  269MPD2    N1 4129   0.121   2.677  15.505 -0.2598  0.0340  0.5958
  269MPD2    H7 4130   0.194   2.618  15.466 -3.0110 -2.4192 -0.7765
  270TMC3    C1 4131   0.114   2.525  15.691 -0.0471 -0.1094 -0.4923
  270TMC3    C2 4132   0.029   2.423  15.711  1.1640  0.0161 -0.1419
  270TMC3    C3 4133   0.083   2.312  15.763  0.1384 -0.0433 -0.8596
  270TMC3    C4 4134   0.246   2.515  15.715  0.1818  0.1149  0.1160
  270TMC3    C5 4135   0.299   2.404  15.769 -0.0999  0.5701  0.4928
  270TMC3    C6 4136   0.213   2.300  15.795 -0.0716  0.6282  0.2698
  270TMC3     C 4137   0.061   2.646  15.626 -0.1045 -0.5940  0.3202
  270TMC3     O 4138   4.695   2.692  15.673 -0.1332 -0.6302  0.2730
  270TMC3     H 4139   4.667   2.449  15.683 -0.1981 -2.3652  2.5039
  270TMC3    H1 4140   0.310   2.597  15.683 -1.9658  1.9177  0.4406
  270TMC3    H2 4141   0.265   2.209  15.822  0.5512  1.4309  1.8284
  270TMC3    C7 4142   0.439   2.372  15.749 -0.3235  0.1688 -0.4312
  270TMC3    C8 4143   0.046   2.199  15.679 -0.2422 -0.3718  0.3426
  270TMC3    O1 4144   0.487   2.273  15.817  0.0219  0.4495  0.2607
  270TMC3    O2 4145   0.133   2.116  15.662 -0.0124  0.2765  0.0106
  271MPD2     C 4146   4.217   2.156  13.679 -0.2519  0.7148  0.6075
  271MPD2    C1 4147   4.170   2.196  13.805 -0.6477  0.0809  0.9156
  271MPD2    C2 4148   4.054   2.270  13.813  0.4122 -0.8462  0.0097
  271MPD2    C3 4149   3.972   2.297  13.708  0.9190 -0.1058  0.2710
  271MPD2    C4 4150   4.024   2.267  13.586 -0.1264  0.4744  0.5869
  271MPD2    C5 4151   4.146   2.202  13.568 -0.7074  0.4488 -0.2192
  271MPD2     H 4152   4.017   2.292  13.912  0.2268 -0.3893 -0.1618
  271MPD2    H1 4153   3.969   2.296  13.497  0.1333 -0.9952 -0.0455
  271MPD2    H2 4154   4.308   2.102  13.658 -1.5187 -2.1294  2.4888
  271MPD2    H3 4155   4.181   2.179  13.468  0.1830 -0.2676  0.2612
  271MPD2     N 4156   3.834   2.348  13.712 -0.5433  0.6737 -0.1219
  271MPD2    H5 4157   3.792   2.368  13.622 -0.2421  0.3486 -0.3328
  271MPD2    N1 4158   4.232   2.155  13.931 -0.1048  0.1589  0.7238
  271MPD2    H7 4159   4.193   2.199  14.013  2.1028 -2.4750  3.1789
  272TMC3    C1 4160   4.359   2.027  14.075 -0.0737 -1.1786 -0.6701
  272TMC3    C2 4161   4.478   1.964  14.087 -0.6363 -0.0392 -0.2513
  272TMC3    C3 4162   4.515   1.914  14.213  0.2247  0.8475 -0.9516
  272TMC3    C4 4163   4.273   2.037  14.179  0.6958  0.2912  0.0650
  272TMC3    C5 4164   4.313   1.996  14.304  0.2690  0.6428 -0.6782
  272TMC3    C6 4165   4.430   1.929  14.325  0.3670 -0.1530  0.0443
  272TMC3     C 4166   4.331   2.063  13.936 -0.2058  1.0072 -0.3659
  272TMC3     O 4167   4.383   2.008  13.843  0.5116  0.0500  0.2758
  272TMC3     H 4168   4.552   1.959  14.007  0.6551 -2.3556  1.0752
  272TMC3    H1 4169   4.169   2.068  14.166  1.3177  1.2603 -2.5804
  272TMC3    H2 4170   4.459   1.896  14.425  1.0677 -2.5870 -0.9537
  272TMC3    C7 4171   4.222   2.026  14.411  0.6361 -0.9010 -0.2529
  272TMC3    C8 4172   4.604   1.803  14.217  0.0085  0.0686 -0.0171
  272TMC3    O1 4173   4.102   2.038  14.382 -0.5725  0.1334  0.4733
  272TMC3    O2 4174   4.647   1.766  14.107 -0.1410  0.5172 -0.4653
  273MPD2     C 4175   1.079   0.403  11.916 -0.3525  0.2462 -0.0652
  273MPD2    C1 4176   1.119   0.484  11.812 -0.5987  0.9487 -0.3233
  273MPD2    C2 4177   1.059   0.476  11.691  0.1404 -0.1934  0.5913
  273MPD2    C3 4178   0.952   0.389  11.673 -0.4231  0.3249 -0.5092
  273MPD2    C4 4179   0.904   0.315  11.780  0.3180  1.0665 -0.0427
  273MPD2    C5 4180   0.970   0.322  11.902 -1.1020 -0.3607 -0.1887
  273MPD2     H 4181   1.081   0.527  11.598 -0.4412  2.2366  1.7899
  273MPD2    H1 4182   0.817   0.251  11.776  0.0149  1.5305 -0.7676
  273MPD2    H2 4183   1.129   0.413  12.011 -1.8584 -1.3525  0.8757
  273MPD2    H3 4184   0.935   0.273  11.992 -0.4923 -2.8515 -1.3232
  273MPD2     N 4185   0.880   0.370  11.549 -0.1138 -0.7915 -0.0998
  273MPD2    H5 4186   0.819   0.289  11.540  1.2282 -1.4427 -3.3537
  273MPD2    N1 4187   1.216   0.578  11.849  0.0837 -0.2050  0.4031
  273MPD2    H7 4188   1.243   0.568  11.946  2.3710  0.6281 -0.1486
  274TMC3    C1 4189   0.805   0.389  11.327 -0.0781 -0.1167  0.1564
  274TMC3    C2 4190   0.797   0.459  11.208  0.6582  0.0022 -0.3044
  274TMC3    C3 4191   0.689   0.457  11.133  0.2215 -0.1566  0.0704
  274TMC3    C4 4192   0.697   0.318  11.371 -0.5189  0.0479  0.0978
  274TMC3    C5 4193   0.582   0.325  11.296  0.4707  0.6163 -0.1702
  274TMC3    C6 4194   0.578   0.394  11.175 -0.7892 -0.7427 -0.2141
  274TMC3     C 4195   0.892   0.445  11.432  1.3121 -0.4796  0.7760
  274TMC3     O 4196   0.955   0.542  11.408  0.2207 -0.1429  0.4137
  274TMC3     H 4197   0.890   0.505  11.176  0.9123 -1.8031 -2.1143
  274TMC3    H1 4198   0.695   0.255  11.459 -2.0297 -0.5085 -0.3339
  274TMC3    H2 4199   0.481   0.413  11.130 -0.5234  2.6802  0.6588
  274TMC3    C7 4200   0.463   0.305  11.374  0.3148 -0.8215  1.2486
  274TMC3    C8 4201   0.665   0.571  11.036 -0.3804 -0.0079  0.2971
  274TMC3    O1 4202   0.432   0.197  11.419 -0.3361 -0.2428 -0.1706
  274TMC3    O2 4203   0.720   0.675  11.063  0.8530 -0.6303  0.1692
  275MPD2     C 4204   0.843   3.363  14.488 -0.3246  0.7978  0.8717
  275MPD2    C1 4205   0.708   3.394  14.505  0.2397  0.0254 -0.2604
  275MPD2    C2 4206   0.615   3.298  14.485  0.3953  0.0943  0.2653
  275MPD2    C3 4207   0.649   3.171  14.433 -1.0366 -0.1837  0.4142
  275MPD2    C4 4208   0.787   3.143  14.410  0.7938 -0.2038  0.4755
  275MPD2    C5 4209   0.878   3.237  14.443 -0.1707 -0.0992  0.1380
  275MPD2     H 4210   0.512   3.313  14.515 -0.4431 -1.8288 -1.6039
  275MPD2    H1 4211   0.819   3.048  14.369 -0.6984 -0.7671  0.6169
  275MPD2    H2 4212   0.916   3.441  14.509 -0.0677  0.4910  1.1307
  275MPD2    H3 4213   0.982   3.212  14.426 -0.4780 -1.9278  0.9122
  275MPD2     N 4214   0.556   3.065  14.418  0.3361  0.4490  0.7154
  275MPD2    H5 4215   0.596   2.972  14.404  0.6102  0.6894 -0.0905
  275MPD2    N1 4216   0.661   3.508  14.578  0.1462  0.0964 -0.0867
  275MPD2    H7 4217   0.559   3.507  14.581  0.2072  0.2378  2.0661
  276TMC3    C1 4218   0.675   3.627  14.775  0.0394  0.1184 -0.0513
  276TMC3    C2 4219   0.579   3.542  14.817  0.4909 -0.1236 -0.2038
  276TMC3    C3 4220   0.563   3.520  14.958  0.4463 -0.4815 -0.4303
  276TMC3    C4 4221   0.755   3.694  14.861  0.5747  0.2932 -0.3105
  276TMC3    C5 4222   0.752   3.661  14.997 -1.1951  0.8725 -0.0777
  276TMC3    C6 4223   0.661   3.567  15.043 -0.1814  0.2406 -0.7430
  276TMC3     C 4224   0.738   3.591  14.655  0.2912 -0.5627 -0.6886
  276TMC3     O 4225   0.857   3.606  14.656  0.9010 -0.4757 -0.2203
  276TMC3     H 4226   0.493   3.524  14.754 -2.3626  2.7664  2.8394
  276TMC3    H1 4227   0.824   3.772  14.830  1.9455 -0.6114  0.4784
  276TMC3    H2 4228   0.658   3.530  15.145 -1.3803 -0.7802 -1.1478
  276TMC3    C7 4229   0.852   3.707  15.088 -0.4528  0.7284 -0.3980
  276TMC3    C8 4230   0.489   3.398  14.994  0.1025 -0.2100  0.4403
  276TMC3    O1 4231   0.882   3.639  15.183  0.2820 -0.1067 -0.0594
  276TMC3    O2 4232   0.428   3.375  15.099  0.2779  0.2990 -0.3785
  277MPD2     C 4233   2.047   2.293  12.948 -0.1670 -0.1680  0.2326
  277MPD2    C1 4234   2.068   2.339  13.075  0.2241  0.3487 -0.1576
  277MPD2    C2 4235   2.007   2.271  13.179  0.3401  0.2408  0.2566
  277MPD2    C3 4236   1.931   2.153  13.153  0.4181  0.2036  0.7972
  277MPD2    C4 4237   1.916   2.121  13.017 -0.1550 -0.1039 -0.3611
  277MPD2    C5 4238   1.983   2.183  12.918 -0.3043 -0.3106  0.2900
  277MPD2     H 4239   2.017   2.313  13.278 -0.7867  0.2716  0.3600
  277MPD2    H1 4240   1.859   2.034  12.988 -0.7283  0.2598 -0.3395
  277MPD2    H2 4241   2.085   2.345  12.861 -1.1504 -0.4899 -0.3927
  277MPD2    H3 4242   1.971   2.150  12.816  0.5246 -0.2071  0.1617
  277MPD2     N 4243   1.869   2.084  13.261  0.1226  0.0598  0.7400
  277MPD2    H5 4244   1.898   2.119  13.351  3.2640  0.9413 -0.6275
  277MPD2    N1 4245   2.120   2.471  13.091  0.3116 -0.3466  0.3319
  277MPD2    H7 4246   2.135   2.530  13.010 -0.4644  3.6935  3.0991
  278TMC3    C1 4247   1.746   1.919  13.385 -0.3278  0.4005  0.1525
  278TMC3    C2 4248   1.697   1.797  13.387  0.1256  0.1813  0.5552
  278TMC3    C3 4249   1.612   1.764  13.492 -0.1715  0.0329 -0.5709
  278TMC3    C4 4250   1.724   2.020  13.481  0.4678  0.4148  0.9311
  278TMC3    C5 4251   1.636   1.987  13.583  0.4262  0.4315  0.0789
  278TMC3    C6 4252   1.587   1.858  13.593 -0.4478 -0.2803  0.2496
  278TMC3     C 4253   1.800   1.966  13.254 -0.0497  1.0211  0.7820
  278TMC3     O 4254   1.783   1.896  13.156  0.2048  0.1025  0.0411
  278TMC3     H 4255   1.718   1.727  13.306 -2.6556 -0.5817  0.4820
  278TMC3    H1 4256   1.777   2.115  13.492 -0.0763  0.9128 -0.6725
  278TMC3    H2 4257   1.510   1.831  13.665 -1.5698 -0.3248 -0.9626
  278TMC3    C7 4258   1.621   2.079  13.693  0.5599 -0.1606 -0.6241
  278TMC3    C8 4259   1.537   1.640  13.496 -0.1324  0.3451  0.4214
  278TMC3    O1 4260   1.709   2.163  13.715  0.6617  0.1126 -0.1315
  278TMC3    O2 4261   1.509   1.598  13.607  0.4444 -0.3258  0.0448
  279MPD2     C 4262   1.564   2.572   0.147  1.5219  0.2936  0.0923
  279MPD2    C1 4263   1.518   2.510   0.034 -0.3225 -0.1664  0.1561
  279MPD2    C2 4264   1.585   2.520  17.679 -1.3508  0.5248 -0.4109
  279MPD2    C3 4265   1.703   2.591  17.665  0.2010 -0.5575 -0.3998
  279MPD2    C4 4266   1.755   2.654   0.024  0.2653  0.4038  0.3170
  279MPD2    C5 4267   1.681   2.645   0.144  0.1234 -0.3267 -0.2088
  279MPD2     H 4268   1.538   2.481  17.589  0.4009 -0.9893 -0.6692
  279MPD2    H1 4269   1.840   2.719   0.011 -0.6089  1.2961 -0.8975
  279MPD2    H2 4270   1.504   2.577   0.237 -0.3367  1.1566 -1.1734
  279MPD2    H3 4271   1.712   2.701   0.231  2.5244 -0.2364 -1.1167
  279MPD2     N 4272   1.785   2.602  17.547  0.3164 -0.1454  0.5617
  279MPD2    H5 4273   1.872   2.655  17.553 -0.0728  0.3879  1.4086
  279MPD2    N1 4274   1.395   2.432   0.053 -0.2435  0.7796 -0.5060
  279MPD2    H7 4275   1.371   2.418   0.150  0.0189  1.2681 -0.3688
  280TMC3    C1 4276   1.221   2.284   0.002  0.6693 -0.0569  0.3015
  280TMC3    C2 4277   1.181   2.187  17.671  0.5720  0.8852  0.0509
  280TMC3    C3 4278   1.045   2.156  17.665  0.2716  0.1534 -0.4668
  280TMC3    C4 4279   1.124   2.350   0.075  0.5664  0.1716 -0.2974
  280TMC3    C5 4280   0.995   2.308   0.081  0.3793 -0.1091  0.3176
  280TMC3    C6 4281   0.954   2.208  17.751 -0.0318 -0.6212 -0.3707
  280TMC3     C 4282   1.335   2.360  17.716  0.4976 -0.0224  0.0002
  280TMC3     O 4283   1.375   2.321  17.608 -0.3550 -0.8115 -0.0795
  280TMC3     H 4284   1.242   2.139  17.595 -0.8121 -2.7070  1.2326
  280TMC3    H1 4285   1.138   2.441   0.134 -1.4574  0.2245  0.1017
  280TMC3    H2 4286   0.851   2.173  17.755 -1.5419  3.8146 -0.7114
  280TMC3    C7 4287   0.894   2.412   0.128 -0.8533  0.3563  0.4217
  280TMC3    C8 4288   1.009   2.034  17.586  0.0862  0.3986  0.3539
  280TMC3    O1 4289   0.924   2.474   0.225 -0.1753 -0.2270  0.0507
  280TMC3    O2 4290   0.907   1.982  17.631  0.0799  0.0776  0.2258
  281TMC3    C1 4291   0.859   2.569  13.195 -0.1849  0.0513 -0.0749
  281TMC3    C2 4292   0.897   2.668  13.109 -1.2099 -0.3299  0.2821
  281TMC3    C3 4293   0.937   2.631  12.983 -0.5494  0.1644 -0.1135
  281TMC3    C4 4294   0.865   2.439  13.156  0.0612  0.1282  0.5344
  281TMC3    C5 4295   0.896   2.407  13.028 -0.4472 -0.5025 -0.3641
  281TMC3    C6 4296   0.925   2.505  12.935  0.2238  0.0789  0.1392
  281TMC3     C 4297   0.771   2.597  13.308  0.3210 -0.5353  0.2355
  281TMC3     O 4298   0.740   2.504  13.382 -0.3291  0.3438 -0.2581
  281TMC3     H 4299   0.897   2.770  13.145 -0.1441  0.6265 -2.4672
  281TMC3    H1 4300   0.830   2.367  13.228  1.4961 -1.9146 -0.8016
  281TMC3    H2 4301   0.958   2.475  12.836 -1.4819  0.9342 -0.6759
  281TMC3    C7 4302   0.872   2.272  12.981 -0.0777  0.1755 -0.1415
  281TMC3    C8 4303   1.018   2.721  12.905  0.4387 -1.3105 -0.0659
  281TMC3    O1 4304   0.944   2.224  12.895 -0.3748  0.0400 -0.1489
  281TMC3    O2 4305   1.107   2.662  12.850  0.3732 -0.5554 -0.4832
  282MPD2     C 4306   2.196   4.447  14.871 -0.2062 -0.1134 -0.8549
  282MPD2    C1 4307   2.090   4.384  14.928 -0.0683 -0.2412  0.7150
  282MPD2    C2 4308   2.011   4.312  14.845  0.4025 -1.0621 -0.2022
  282MPD2    C3 4309   2.043   4.300  14.708  0.2020  0.0124  0.2446
  282MPD2    C4 4310   2.151   4.371  14.661  0.5896  0.1119  0.5513
  282MPD2    C5 4311   2.233   4.443  14.741 -0.6911 -0.2245  0.6938
  282MPD2     H 4312   1.926   4.260  14.887  0.4882 -2.1011 -1.3122
  282MPD2    H1 4313   2.174   4.371  14.555  2.3802 -2.2089  0.9169
  282MPD2    H2 4314   2.274   4.492  14.932  1.1998 -0.0604 -2.6626
  282MPD2    H3 4315   2.319   4.495  14.700 -0.4070 -0.2014  1.3143
  282MPD2     N 4316   1.967   4.205  14.631  0.2680 -0.1945  0.6993
  282MPD2    H5 4317   1.897   4.147  14.676  0.4547  0.5676  1.9637
  282MPD2    N1 4318   2.086   4.353  15.069 -0.4113 -0.0996 -0.4766
  282MPD2    H7 4319   2.008   4.296  15.099  0.4977 -1.2778 -0.3724
  283TMC3    C1 4320   2.136   4.381  15.299  0.1738  0.7124 -0.3530
  283TMC3    C2 4321   2.249   4.402  15.376 -0.0581 -0.2618 -0.1782
  283TMC3    C3 4322   2.240   4.395  15.516  0.5718 -0.7881  0.2930
  283TMC3    C4 4323   2.016   4.334  15.346  0.1823 -0.3962 -0.3018
  283TMC3    C5 4324   2.007   4.332  15.486 -0.6425  0.0817  0.1186
  283TMC3    C6 4325   2.118   4.359  15.568  0.1853  0.5467  0.0447
  283TMC3     C 4326   2.159   4.419  15.159 -0.3906 -0.1811 -0.1947
  283TMC3     O 4327   2.256   4.491  15.140 -0.1464 -0.2446 -0.0746
  283TMC3     H 4328   2.343   4.435  15.333 -0.1443 -1.3816 -1.2242
  283TMC3    H1 4329   1.933   4.317  15.279  0.2701 -0.7443 -0.3231
  283TMC3    H2 4330   2.104   4.365  15.675 -3.2082 -0.2418 -0.3675
  283TMC3    C7 4331   1.933   4.220  15.544 -0.2524 -0.1923  0.8959
  283TMC3    C8 4332   2.285   4.521  15.574 -0.3929 -0.1805  0.2255
  283TMC3    O1 4333   1.966   4.179  15.652  0.7113 -0.6738 -0.0679
  283TMC3    O2 4334   2.302   4.544  15.693 -0.6923  0.0090 -0.1126
  284MPD2     C 4335   0.252   3.537  11.960  0.5589  0.1850 -0.0114
  284MPD2    C1 4336   0.378   3.555  11.907  0.5287  0.3942 -0.1773
  284MPD2    C2 4337   0.480   3.499  11.982  0.4775  0.3813 -0.3660
  284MPD2    C3 4338   0.464   3.427  12.098 -0.2820 -1.0457 -0.7328
  284MPD2    C4 4339   0.331   3.404  12.144 -0.3161 -0.5246 -0.1635
  284MPD2    C5 4340   0.235   3.463  12.079 -0.2126 -0.1206 -0.1080
  284MPD2     H 4341   0.575   3.509  11.932  1.3591  0.2330  1.2623
  284MPD2    H1 4342   0.314   3.339  12.230  0.4528 -1.8325 -1.0032
  284MPD2    H2 4343   0.159   3.578  11.923 -0.9696 -1.1847  2.3063
  284MPD2    H3 4344   0.138   3.458  12.127 -0.2608  3.1653  0.1642
  284MPD2     N 4345   0.582   3.380  12.163 -0.4045 -0.0061  0.7515
  284MPD2    H5 4346   0.669   3.425  12.135 -0.6794  0.1369  0.1265
  284MPD2    N1 4347   0.412   3.631  11.792  0.1443 -0.0664 -0.4041
  284MPD2    H7 4348   0.509   3.643  11.768  0.2514 -0.8148 -0.3644
  285TMC3    C1 4349   0.397   3.726  11.580 -0.7622  0.6399  0.0885
  285TMC3    C2 4350   0.419   3.625  11.488 -0.7442  0.7423  0.2780
  285TMC3    C3 4351   0.532   3.622  11.413 -1.0721 -0.5223  0.0468
  285TMC3    C4 4352   0.501   3.810  11.608  0.7273 -1.0009  0.0762
  285TMC3    C5 4353   0.619   3.799  11.546 -0.0876 -0.4878  0.0036
  285TMC3    C6 4354   0.635   3.709  11.445  0.5291 -0.4553  0.4884
  285TMC3     C 4355   0.324   3.672  11.695 -1.2694 -0.2351  0.4794
  285TMC3     O 4356   0.199   3.668  11.694 -0.2237 -0.1814  0.4690
  285TMC3     H 4357   0.340   3.552  11.474  1.1362 -1.1286 -0.5058
  285TMC3    H1 4358   0.482   3.895  11.672 -0.9089 -1.7140  0.5544
  285TMC3    H2 4359   0.724   3.719  11.385 -0.3548  0.7669 -0.6080
  285TMC3    C7 4360   0.733   3.888  11.577  0.4726 -0.2939  0.1447
  285TMC3    C8 4361   0.572   3.494  11.355  0.2101 -0.0298 -0.0965
  285TMC3    O1 4362   0.820   3.905  11.488 -0.4607 -0.3782 -0.1937
  285TMC3    O2 4363   0.518   3.392  11.392  0.0312  0.0226  0.4701
  286MPD2     C 4364   0.818   2.064   1.678 -0.2095  0.8272  0.1068
  286MPD2    C1 4365   0.720   2.037   1.575  0.1441 -0.4984  0.6793
  286MPD2    C2 4366   0.759   1.953   1.470 -0.0703  0.6585 -0.2528
  286MPD2    C3 4367   0.873   1.876   1.483 -0.3145 -0.2042 -0.1540
  286MPD2    C4 4368   0.957   1.894   1.593  0.4859 -0.1032 -0.1417
  286MPD2    C5 4369   0.931   1.986   1.684 -0.3083 -0.4654 -0.8508
  286MPD2     H 4370   0.685   1.948   1.391  0.2157 -1.8935 -0.3623
  286MPD2    H1 4371   1.052   1.844   1.604  2.0633  3.0871  0.4780
  286MPD2    H2 4372   0.806   2.134   1.760  2.4232  1.7251 -0.2702
  286MPD2    H3 4373   0.994   2.004   1.771 -1.0146 -1.0502 -0.2120
  286MPD2     N 4374   0.911   1.775   1.390 -0.2831 -0.3759  0.1499
  286MPD2    H5 4375   1.004   1.740   1.409 -0.2704 -1.0727 -1.2117
  286MPD2    N1 4376   0.607   2.110   1.554  0.3067  0.4196 -0.2716
  286MPD2    H7 4377   0.552   2.091   1.471  2.0614 -0.5855 -1.2001
  287TMC3    C1 4378   0.901   1.623   1.217 -1.4772  0.0196 -1.0439
  287TMC3    C2 4379   0.853   1.596   1.091 -0.5620 -0.0982  0.1341
  287TMC3    C3 4380   0.928   1.510   1.016 -0.7489  0.5602  0.1399
  287TMC3    C4 4381   1.018   1.566   1.269  0.1573 -0.1873  0.2289
  287TMC3    C5 4382   1.086   1.483   1.191 -0.1502  0.1669 -0.2065
  287TMC3    C6 4383   1.042   1.451   1.063 -0.1044 -0.3929 -0.1674
  287TMC3     C 4384   0.838   1.721   1.294 -0.7632  0.8106  0.1893
  287TMC3     O 4385   0.727   1.755   1.260  0.0558 -0.0032 -0.1123
  287TMC3     H 4386   0.763   1.647   1.061 -0.0179  0.6190 -0.2888
  287TMC3    H1 4387   1.028   1.559   1.376  0.2760 -1.2998  0.1440
  287TMC3    H2 4388   1.096   1.387   0.995  1.3267  1.9926 -1.2733
  287TMC3    C7 4389   1.229   1.470   1.226  0.4285 -1.0793 -0.1236
  287TMC3    C8 4390   0.884   1.468   0.886  0.2183  0.1065  0.4180
  287TMC3    O1 4391   1.264   1.533   1.325  0.3088  0.0266 -0.0888
  287TMC3    O2 4392   0.894   1.351   0.855  0.0711  0.1718  0.1111
  288TMC3    C1 4393   2.631   1.059  14.178 -0.5235 -0.2537 -0.1555
  288TMC3    C2 4394   2.546   1.071  14.285 -0.5354  0.2006  0.1175
  288TMC3    C3 4395   2.555   1.199  14.335  0.2183  0.1525  0.0408
  288TMC3    C4 4396   2.723   1.154  14.130 -0.8613  0.1723 -0.5299
  288TMC3    C5 4397   2.712   1.275  14.190 -0.0634 -0.8412 -0.3821
  288TMC3    C6 4398   2.640   1.301  14.299  0.3001 -0.9913  0.3556
  288TMC3     C 4399   2.594   0.944  14.092  0.2061 -0.1548 -0.2557
  288TMC3     O 4400   2.485   0.885  14.104  0.7215  0.9496 -0.0191
  288TMC3     H 4401   2.481   0.992  14.320  1.6790 -2.1054 -0.9527
  288TMC3    H1 4402   2.785   1.134  14.044  0.2967  2.7153 -0.2982
  288TMC3    H2 4403   2.611   1.398  14.339 -3.7685 -1.5157 -1.3157
  288TMC3    C7 4404   2.826   1.368  14.162  0.3531  0.1167 -0.7421
  288TMC3    C8 4405   2.441   1.236  14.416  0.6506 -0.0428 -0.7960
  288TMC3    O1 4406   2.892   1.348  14.061 -0.3188 -0.5023 -0.1325
  288TMC3    O2 4407   2.391   1.348  14.404  0.6371  0.3619  0.1333
  289MPD2     C 4408   2.313   1.572  14.011  0.9777 -0.1012 -0.2126
  289MPD2    C1 4409   2.379   1.483  13.928  0.8308  0.1753  0.5511
  289MPD2    C2 4410   2.376   1.342  13.947 -0.6657  0.7868  0.3583
  289MPD2    C3 4411   2.279   1.298  14.035 -0.1103  0.5079  0.0028
  289MPD2    C4 4412   2.227   1.383  14.127 -0.6006  0.8646 -0.0101
  289MPD2    C5 4413   2.244   1.519  14.114 -0.1299 -0.3837  0.0880
  289MPD2     H 4414   2.442   1.279  13.889 -1.8568  1.7866 -2.0822
  289MPD2    H1 4415   2.154   1.345  14.198 -0.1745 -1.4929 -0.8628
  289MPD2    H2 4416   2.308   1.676  13.982 -1.6429  0.2067  1.2839
  289MPD2    H3 4417   2.198   1.588  14.185 -1.7501 -0.5357 -0.8032
  289MPD2     N 4418   2.256   1.160  14.058  0.2676  0.0904 -0.5760
  289MPD2    H5 4419   2.188   1.145  14.132 -0.3085  0.7571 -0.9673
  289MPD2    N1 4420   2.457   1.542  13.832  0.1134 -0.0297 -0.4065
  289MPD2    H7 4421   2.452   1.643  13.820 -1.5320 -0.4850 -3.6171
  290TMC3    C1 4422   2.195   0.942  13.994 -0.5194  0.2859 -0.0047
  290TMC3    C2 4423   2.063   0.963  14.017 -0.3459  0.1145  0.4055
  290TMC3    C3 4424   1.974   0.859  14.001  0.0388  0.4834  0.3453
  290TMC3    C4 4425   2.241   0.825  13.946 -0.4095 -0.4637  0.0975
  290TMC3    C5 4426   2.150   0.725  13.935 -0.3503 -0.0752 -0.8453
  290TMC3    C6 4427   2.018   0.736  13.972 -0.7162  0.3527 -0.8913
  290TMC3     C 4428   2.274   1.063  13.960 -0.5111 -0.4544 -0.4333
  290TMC3     O 4429   2.343   1.059  13.861 -0.4266 -0.6355 -0.0204
  290TMC3     H 4430   2.033   1.063  14.045 -1.8071 -0.3447  0.4627
  290TMC3    H1 4431   2.344   0.818  13.915 -0.1701 -0.2453  0.8552
  290TMC3    H2 4432   1.944   0.656  13.962 -0.4076 -0.1321  0.7512
  290TMC3    C7 4433   2.199   0.601  13.878  0.1260 -0.1361  0.5004
  290TMC3    C8 4434   1.838   0.894  13.963 -0.1287 -0.7771 -0.2585
  290TMC3    O1 4435   2.304   0.602  13.819  0.5974 -0.7480  0.4948
  290TMC3    O2 4436   1.753   0.806  13.956  0.0350 -0.0544 -0.3323
  291MPD2     C 4437   1.640   0.806   0.257  0.1822 -0.2915  0.3145
  291MPD2    C1 4438   1.652   0.682   0.184 -0.2276 -0.0307  0.3705
  291MPD2    C2 4439   1.772   0.653   0.118 -0.5390 -0.1575 -0.0797
  291MPD2    C3 4440   1.881   0.735   0.131  0.3729  0.2215 -0.2668
  291MPD2    C4 4441   1.872   0.843   0.209 -0.1007 -0.0815 -0.6561
  291MPD2    C5 4442   1.758   0.874   0.271  0.1601  0.9027 -0.9925
  291MPD2     H 4443   1.780   0.554   0.074  1.5947 -0.2880  0.6204
  291MPD2    H1 4444   1.962   0.904   0.210  0.1405 -0.4415 -0.1481
  291MPD2    H2 4445   1.553   0.846   0.307 -1.7087 -1.5565 -1.9769
  291MPD2    H3 4446   1.767   0.962   0.333  1.1991 -0.5837  0.9336
  291MPD2     N 4447   2.001   0.719   0.059  0.1549  0.0167  0.4049
  291MPD2    H5 4448   2.089   0.767   0.079  1.1747 -1.7190  0.0840
  291MPD2    N1 4449   1.543   0.590   0.167  0.6239 -0.3324  0.0806
  291MPD2    H7 4450   1.538   0.523   0.091  0.4581  1.4748 -1.4886
  292TMC3    C1 4451   1.333   0.505   0.205 -0.3231  0.2269  0.5989
  292TMC3    C2 4452   1.205   0.527   0.256  0.4114  0.4594 -0.1356
  292TMC3    C3 4453   1.108   0.429   0.251  0.6232  0.0250 -0.3329
  292TMC3    C4 4454   1.365   0.386   0.133 -0.0964  0.2948  0.4457
  292TMC3    C5 4455   1.263   0.294   0.122  0.5029  0.6772  0.0313
  292TMC3    C6 4456   1.138   0.304   0.189 -1.0348  0.1833 -0.7848
  292TMC3     C 4457   1.431   0.606   0.241  0.0974  0.3068  0.4678
  292TMC3     O 4458   1.428   0.646   0.356  0.2411  0.5851  0.4325
  292TMC3     H 4459   1.189   0.629   0.291  1.6916  0.9436 -0.9769
  292TMC3    H1 4460   1.458   0.372   0.079 -1.5138 -2.9454 -1.1789
  292TMC3    H2 4461   1.068   0.221   0.189  1.0199 -1.5578 -1.7042
  292TMC3    C7 4462   1.292   0.190   0.033 -0.0624 -0.1098 -0.2216
  292TMC3    C8 4463   1.002   0.441   0.357  0.4643 -0.0517  0.3601
  292TMC3    O1 4464   1.405   0.150   0.033  0.0959  0.6098  0.2258
  292TMC3    O2 4465   0.969   0.553   0.376  0.0417  0.3078  0.3592
  293MPD2     C 4466   3.496   2.210  12.242  0.2772 -0.0302  0.4849
  293MPD2    C1 4467   3.396   2.156  12.323  0.0528 -0.1903  0.6728
  293MPD2    C2 4468   3.430   2.145  12.459 -0.0822  0.1397  0.0935
  293MPD2    C3 4469   3.541   2.199  12.515 -0.0070 -0.0643 -0.3551
  293MPD2    C4 4470   3.643   2.239  12.426  0.3881  0.1889  0.0123
  293MPD2    C5 4471   3.617   2.240  12.288 -0.1119 -0.4688  0.5593
  293MPD2     H 4472   3.348   2.119  12.525  0.8043 -0.7887  0.8133
  293MPD2    H1 4473   3.741   2.275  12.456  0.6398 -0.5297  0.0658
  293MPD2    H2 4474   3.483   2.229  12.137 -2.6044 -1.5891  0.5442
  293MPD2    H3 4475   3.696   2.269  12.220 -1.0705  4.2539  1.4564
  293MPD2     N 4476   3.563   2.196  12.653  0.7092  0.4343 -0.7712
  293MPD2    H5 4477   3.480   2.183  12.710  0.8029  0.5197 -0.6148
  293MPD2    N1 4478   3.277   2.124  12.249 -0.2355 -0.3017  0.7395
  293MPD2    H7 4479   3.252   2.162  12.159  0.5345 -1.1050  0.1814
  294TMC3    C1 4480   3.048   2.041  12.242 -0.4939 -0.6807  0.5750
  294TMC3    C2 4481   2.979   1.928  12.268  0.4897  0.0895  0.1832
  294TMC3    C3 4482   2.885   1.886  12.182  0.4304  0.0832  0.1564
  294TMC3    C4 4483   3.016   2.118  12.132 -0.3310  0.2999 -0.5112
  294TMC3    C5 4484   2.896   2.083  12.073  1.0951 -0.8350 -0.0060
  294TMC3    C6 4485   2.831   1.962  12.088 -0.3227  0.0295 -0.0488
  294TMC3     C 4486   3.177   2.058  12.322 -0.6112 -0.4350 -1.1133
  294TMC3     O 4487   3.198   1.999  12.426 -0.2660 -0.3269 -0.6465
  294TMC3     H 4488   3.009   1.872  12.355  0.1904 -1.7727 -0.9058
  294TMC3    H1 4489   3.055   2.219  12.127  0.5785  0.0384  1.4556
  294TMC3    H2 4490   2.751   1.938  12.019 -1.4070  1.3550  0.7686
  294TMC3    C7 4491   2.852   2.162  11.971  0.3100 -0.7066  1.2153
  294TMC3    C8 4492   2.842   1.751  12.185  0.1663  0.2073 -1.2266
  294TMC3    O1 4493   2.735   2.182  11.942 -0.3310  0.3467 -0.6301
  294TMC3    O2 4494   2.859   1.699  12.295  0.2313 -0.8744 -0.5643
  295MPD2     C 4495   4.682   0.572   0.750  0.1120 -0.4385  0.1358
  295MPD2    C1 4496   4.571   0.621   0.810 -0.3690 -0.6911  0.3132
  295MPD2    C2 4497   4.513   0.552   0.910 -0.0099 -0.0309  0.0674
  295MPD2    C3 4498   4.561   0.430   0.952 -0.1835 -0.4923 -0.5425
  295MPD2    C4 4499   4.675   0.387   0.888 -0.1222  0.4234  0.2384
  295MPD2    C5 4500   4.739   0.454   0.786 -0.6537 -0.4851 -0.7011
  295MPD2     H 4501   4.418   0.581   0.954 -0.0102 -0.7212  0.5303
  295MPD2    H1 4502   4.715   0.290   0.916 -2.5303 -0.8106 -0.6541
  295MPD2    H2 4503   4.735   0.614   0.665  0.6944 -0.4770  0.4770
  295MPD2    H3 4504   0.096   0.422   0.748 -0.4628  0.0549 -0.6686
  295MPD2     N 4505   4.512   0.350   1.059  0.2855  0.1965  0.0679
  295MPD2    H5 4506   4.568   0.271   1.088 -0.2644 -1.1144 -2.4165
  295MPD2    N1 4507   4.496   0.714   0.738  0.3099 -0.3065 -0.5286
  295MPD2    H7 4508   4.407   0.734   0.781  0.6769 -0.3780  0.2659
  296TMC3    C1 4509   4.365   0.272   1.226 -0.3187  0.2705  0.5472
  296TMC3    C2 4510   4.237   0.258   1.270  0.5140  0.0994 -0.3790
  296TMC3    C3 4511   4.216   0.150   1.356  0.0331 -0.1820 -0.5540
  296TMC3    C4 4512   4.469   0.197   1.276  1.0991  0.6912 -0.4585
  296TMC3    C5 4513   4.434   0.083   1.348 -0.0910  0.5973  0.4342
  296TMC3    C6 4514   4.310   0.055   1.392  0.5498 -0.0466  0.1203
  296TMC3     C 4515   4.388   0.359   1.111  0.0718 -0.2863  0.1126
  296TMC3     O 4516   4.305   0.442   1.084  0.8987 -0.6354 -0.6141
  296TMC3     H 4517   4.152   0.317   1.237  1.2904 -0.0129 -2.5878
  296TMC3    H1 4518   4.572   0.217   1.246  0.8549 -0.6582 -2.2202
  296TMC3    H2 4519   4.288   4.728   1.475 -1.1955  1.1225  0.6210
  296TMC3    C7 4520   4.550   0.011   1.396 -0.1444  0.4335 -0.2373
  296TMC3    C8 4521   4.088   0.137   1.420 -0.3491 -0.5176 -0.3147
  296TMC3    O1 4522   4.655   0.073   1.405  0.3876  0.4961 -0.4530
  296TMC3    O2 4523   4.036   0.023   1.429 -0.5565 -0.6089 -0.0488
  297MPD2     C 4524   1.007   2.766  16.063  0.1098 -0.5715 -0.1575
  297MPD2    C1 4525   1.027   2.873  15.988  0.0423  0.3550 -0.0465
  297MPD2    C2 4526   1.156   2.898  15.944  0.3325  0.2114  0.6352
  297MPD2    C3 4527   1.257   2.812  15.965  0.3348  0.7893 -0.5563
  297MPD2    C4 4528   1.237   2.694  16.039 -0.6743 -0.7608 -0.1139
  297MPD2    C5 4529   1.109   2.674  16.087 -0.7791  0.1112 -0.8189
  297MPD2     H 4530   1.176   2.990  15.890  0.2649 -0.6533 -0.8509
  297MPD2    H1 4531   1.303   2.613  16.066 -1.4289 -1.4622 -0.3748
  297MPD2    H2 4532   0.903   2.740  16.080  0.4908 -0.8664  1.7330
  297MPD2    H3 4533   1.085   2.587  16.146 -3.0699  1.3819  0.1002
  297MPD2     N 4534   1.388   2.851  15.916 -0.5816  0.6334 -0.4709
  297MPD2    H5 4535   1.390   2.949  15.892  1.4498  0.2800 -1.7115
  297MPD2    N1 4536   0.936   2.962  15.941  0.5216  0.1744  0.5912
  297MPD2    H7 4537   0.967   3.033  15.875 -1.4996  0.6112  0.1162
  298TMC3    C1 4538   0.721   3.067  15.933  0.8723  0.3473  0.1432
  298TMC3    C2 4539   0.741   3.090  15.798  0.0128 -0.1493  0.2298
  298TMC3    C3 4540   0.649   3.158  15.727 -0.1307 -0.5342 -0.1345
  298TMC3    C4 4541   0.602   3.102  15.993  0.6291  0.5600 -0.2171
  298TMC3    C5 4542   0.513   3.166  15.917 -0.3246 -0.5421 -0.2223
  298TMC3    C6 4543   0.540   3.208  15.785 -0.3371 -0.9702 -0.1282
  298TMC3     C 4544   0.807   2.970  15.998  0.5161  0.1675  0.2643
  298TMC3     O 4545   0.747   2.903  16.086  0.4223  0.4453 -0.1472
  298TMC3     H 4546   0.816   3.044  15.735  0.5868  1.6163 -0.3679
  298TMC3    H1 4547   0.583   3.080  16.097  0.7702 -0.0142 -0.3136
  298TMC3    H2 4548   0.468   3.261  15.724 -0.2463 -1.1853 -0.4228
  298TMC3    C7 4549   0.402   3.223  15.991  0.1637 -0.5510 -0.5114
  298TMC3    C8 4550   0.666   3.190  15.592  0.2362 -0.3486 -0.2685
  298TMC3    O1 4551   0.422   3.261  16.105 -0.6050  0.1327 -0.8883
  298TMC3    O2 4552   0.564   3.188  15.526 -0.4952  0.1217 -0.4903
  299MPD2     C 4553   1.759   2.172  11.002  0.5996  0.3847  0.6649
  299MPD2    C1 4554   1.788   2.237  10.890 -0.3648 -0.6229  0.1495
  299MPD2    C2 4555   1.685   2.234  10.792 -0.0680 -0.3177 -0.2016
  299MPD2    C3 4556   1.569   2.154  10.803  0.3038 -0.5908 -0.5766
  299MPD2    C4 4557   1.567   2.067  10.911 -0.3129  0.5733 -0.0835
  299MPD2    C5 4558   1.660   2.079  11.007 -0.0397  0.1521  0.1462
  299MPD2     H 4559   1.703   2.295  10.704 -0.6668  0.3538  0.1439
  299MPD2    H1 4560   1.478   2.006  10.918 -0.3539  0.9665  2.5295
  299MPD2    H2 4561   1.820   2.175  11.091  2.1117  0.2731 -0.3759
  299MPD2    H3 4562   1.663   2.014  11.094 -0.0628  2.3175  1.7593
  299MPD2     N 4563   1.463   2.145  10.706 -0.2535 -0.0148 -0.2294
  299MPD2    H5 4564   1.393   2.072  10.718  0.3466 -0.2406  1.7910
  299MPD2    N1 4565   1.885   2.339  10.888  0.1955 -0.7770 -0.1195
  299MPD2    H7 4566   1.915   2.375  10.978  2.1994 -0.8064 -0.7751
  300TMC3    C1 4567   1.323   2.214  10.522  0.3360  0.3468  0.8177
  300TMC3    C2 4568   1.286   2.320  10.448 -0.4303 -0.4160 -0.2710
  300TMC3    C3 4569   1.165   2.376  10.464  0.5066 -0.2277 -0.3660
  300TMC3    C4 4570   1.220   2.149  10.589  0.7127  0.1186  0.0528
  300TMC3    C5 4571   1.095   2.212  10.604 -0.0825  0.1427 -0.5803
  300TMC3    C6 4572   1.064   2.328  10.535 -0.2331 -0.4510 -0.0656
  300TMC3     C 4573   1.453   2.230  10.593 -0.4337  0.3939 -0.2965
  300TMC3     O 4574   1.516   2.331  10.567 -0.0981 -0.1632  0.2469
  300TMC3     H 4575   1.363   2.365  10.385  0.0842 -0.8228  0.0644
  300TMC3    H1 4576   1.244   2.056  10.640  0.3648 -0.3080 -0.5619
  300TMC3    H2 4577   0.975   2.386  10.556  0.2176 -0.5290  2.0943
  300TMC3    C7 4578   1.017   2.161  10.713  0.1658  0.6441  0.7160
  300TMC3    C8 4579   1.141   2.507  10.417  0.0344  0.1675  0.2961
  300TMC3    O1 4580   1.027   2.039  10.736  0.0006 -0.1408  0.1704
  300TMC3    O2 4581   1.242   2.574  10.403  0.3864  0.1224 -0.1249
  301MPD2     C 4582   4.054   4.134   1.170  0.3014  1.1511 -0.1543
  301MPD2    C1 4583   3.940   4.066   1.148  0.1246 -0.2206 -0.3396
  301MPD2    C2 4584   3.944   3.927   1.126 -0.9227 -0.9823  0.2925
  301MPD2    C3 4585   4.063   3.859   1.145 -0.3518 -0.0721 -0.1631
  301MPD2    C4 4586   4.171   3.931   1.179  0.5486  0.1989 -0.1121
  301MPD2    C5 4587   4.165   4.064   1.196 -0.0928 -0.0363 -0.2101
  301MPD2     H 4588   3.856   3.870   1.100 -0.0826 -2.7639  1.4201
  301MPD2    H1 4589   4.263   3.884   1.211  1.4644  2.8596  1.1662
  301MPD2    H2 4590   4.052   4.240   1.192 -0.9925  1.2496 -0.7765
  301MPD2    H3 4591   4.246   4.118   1.244  0.8191  1.5331 -3.4824
  301MPD2     N 4592   4.069   3.720   1.140  0.0513  0.4059  0.1451
  301MPD2    H5 4593   3.981   3.679   1.113  1.3646 -2.3634  0.1255
  301MPD2    N1 4594   3.814   4.122   1.168 -0.2784 -0.1584  0.4500
  301MPD2    H7 4595   3.732   4.062   1.160 -1.2029  0.8778  2.2030
  302TMC3    C1 4596   4.137   3.499   1.147  0.6279  0.4529  0.0298
  302TMC3    C2 4597   4.204   3.407   1.220 -0.2929 -0.4807  0.0557
  302TMC3    C3 4598   4.172   3.271   1.204 -0.5385  0.2762  0.4015
  302TMC3    C4 4599   4.054   3.462   1.052 -0.5833  0.1606 -0.3083
  302TMC3    C5 4600   4.032   3.322   1.032 -0.1126 -0.2630 -0.1201
  302TMC3    C6 4601   4.082   3.228   1.111 -0.0862  0.1891 -0.2593
  302TMC3     C 4602   4.179   3.639   1.169  0.4091  0.3609 -0.9230
  302TMC3     O 4603   4.296   3.663   1.192 -0.1156  0.1773 -0.3273
  302TMC3     H 4604   4.280   3.439   1.290 -0.7621  1.3794 -0.2862
  302TMC3    H1 4605   4.018   3.536   0.982  1.5291  1.2474 -0.2677
  302TMC3    H2 4606   4.049   3.125   1.103 -2.1477  0.7374  1.0934
  302TMC3    C7 4607   3.949   3.284   0.926  1.2268  0.4425 -0.5094
  302TMC3    C8 4608   4.225   3.169   1.286  0.4950 -0.7970 -0.7281
  302TMC3    O1 4609   3.955   3.167   0.891 -0.0481 -0.1868  0.2667
  302TMC3    O2 4610   4.153   3.071   1.292  0.1608 -0.1209 -0.0892
  303MPD2     C 4611   3.964   1.414  10.377  0.2416 -0.4314 -0.1394
  303MPD2    C1 4612   3.847   1.462  10.319 -0.2554 -0.0017 -0.0639
  303MPD2    C2 4613   3.853   1.517  10.193 -0.0486 -0.2734  0.1804
  303MPD2    C3 4614   3.978   1.548  10.144 -0.3861 -0.0383  0.7297
  303MPD2    C4 4615   4.097   1.507  10.206  0.1503 -0.3485 -0.6629
  303MPD2    C5 4616   4.086   1.425  10.313 -0.3106  0.0784 -0.0680
  303MPD2     H 4617   3.765   1.551  10.141  0.1327  2.5286  1.7285
  303MPD2    H1 4618   4.194   1.509  10.158  1.6098  1.6163  2.3398
  303MPD2    H2 4619   3.966   1.362  10.472  1.6146  0.0042  0.0697
  303MPD2    H3 4620   4.178   1.386  10.356 -0.1995 -1.6341 -1.8639
  303MPD2     N 4621   3.985   1.619  10.022 -1.0999  0.5120  0.3166
  303MPD2    H5 4622   3.898   1.634   9.972 -0.5935  2.1195 -0.0937
  303MPD2    N1 4623   3.728   1.458  10.395 -0.7533  0.4183  0.3977
  303MPD2    H7 4624   3.733   1.400  10.478 -0.4250  1.7424  1.2885
  304TMC3    C1 4625   3.510   1.481  10.461  0.4835  0.4440  0.2347
  304TMC3    C2 4626   3.424   1.590  10.472 -0.1278 -0.0462 -1.1508
  304TMC3    C3 4627   3.294   1.561  10.487 -0.8418  0.2742  0.0818
  304TMC3    C4 4628   3.466   1.351  10.479 -1.3994  0.2014 -0.0443
  304TMC3    C5 4629   3.334   1.327  10.496 -0.3124 -0.7958 -0.3120
  304TMC3    C6 4630   3.246   1.430  10.506  0.0017 -0.3761 -0.0440
  304TMC3     C 4631   3.610   1.508  10.355 -0.4142 -0.2131  0.0100
  304TMC3     O 4632   3.587   1.591  10.268  0.2217  0.1738  0.0267
  304TMC3     H 4633   3.463   1.684  10.437  0.3067 -0.2626 -1.2496
  304TMC3    H1 4634   3.531   1.269  10.453 -0.0353  0.8261  1.3564
  304TMC3    H2 4635   3.137   1.428  10.507  0.0009 -0.3580 -0.1030
  304TMC3    C7 4636   3.285   1.214  10.419  0.6819  0.0648  0.6415
  304TMC3    C8 4637   3.220   1.629  10.384  0.1913  0.1799  0.5595
  304TMC3    O1 4638   3.350   1.112  10.428  0.0634 -0.1263  0.8429
  304TMC3    O2 4639   3.149   1.553  10.320 -0.1661 -0.0081  0.1279
  305MPD2     C 4640   1.908   3.870  13.743 -0.1000  0.0560  0.5528
  305MPD2    C1 4641   2.041   3.912  13.723  0.1487  0.2359  0.3871
  305MPD2    C2 4642   2.097   3.911  13.587  0.5393 -0.2554 -1.1569
  305MPD2    C3 4643   2.033   3.833  13.492  0.1758 -0.3252 -0.0455
  305MPD2    C4 4644   1.911   3.779  13.527  0.1453 -0.0643  0.1247
  305MPD2    C5 4645   1.839   3.806  13.639 -0.4925  0.2188 -0.0336
  305MPD2     H 4646   2.196   3.952  13.569  0.5496 -0.4510 -1.5344
  305MPD2    H1 4647   1.872   3.718  13.446  0.7242  0.5599 -0.6204
  305MPD2    H2 4648   1.847   3.878  13.833  0.6081  1.3038  0.9189
  305MPD2    H3 4649   1.745   3.758  13.663  0.4643 -0.9083  1.4983
  305MPD2     N 4650   2.085   3.809  13.366 -0.4325 -0.0052 -0.0574
  305MPD2    H5 4651   2.028   3.741  13.317 -0.2087 -0.4102  0.2400
  305MPD2    N1 4652   2.115   3.954  13.837 -0.2992 -0.1643 -0.2266
  305MPD2    H7 4653   2.067   3.951  13.927  0.7950  1.1581  0.3968
  306TMC3    C1 4654   2.293   4.007  13.973 -0.0979  0.3002  0.5370
  306TMC3    C2 4655   2.255   3.896  14.055  0.2450  0.9177 -0.0163
  306TMC3    C3 4656   2.286   3.895  14.186  0.2184  0.4136  0.0143
  306TMC3    C4 4657   2.378   4.102  14.015 -0.3325  0.1788  0.2502
  306TMC3    C5 4658   2.396   4.100  14.154  0.3146 -0.2783  0.0440
  306TMC3    C6 4659   2.360   4.000  14.239  0.7130  0.3410 -0.6973
  306TMC3     C 4660   2.241   4.007  13.838 -0.3364 -0.4330  0.2490
  306TMC3     O 4661   2.305   4.048  13.743  0.0253 -0.1092 -0.2927
  306TMC3     H 4662   2.182   3.823  14.023 -1.4517  1.8500  1.8022
  306TMC3    H1 4663   2.403   4.190  13.957 -1.2144  0.1055 -0.2388
  306TMC3    H2 4664   2.392   4.005  14.342 -0.1424  0.7173 -0.4487
  306TMC3    C7 4665   2.467   4.216  14.201 -0.3199 -0.2724  0.9172
  306TMC3    C8 4666   2.249   3.781  14.257  1.0698 -0.7337 -0.2666
  306TMC3    O1 4667   2.520   4.277  14.112  0.7099  0.2590 -0.0269
  306TMC3    O2 4668   2.170   3.698  14.207 -0.0790  0.1777 -0.2797
  307MPD2     C 4669   0.073   2.031   0.355  0.0728  0.1138 -0.0220
  307MPD2    C1 4670   0.069   2.168   0.389  0.8880 -0.6336  0.0925
  307MPD2    C2 4671   4.713   2.205   0.482 -0.0901 -0.1061  0.0929
  307MPD2    C3 4672   4.628   2.111   0.538  0.1883  0.0888 -0.2624
  307MPD2    C4 4673   4.648   1.975   0.516  0.5224  0.0147 -0.5531
  307MPD2    C5 4674   0.007   1.940   0.427 -0.1254 -0.3473 -0.5355
  307MPD2     H 4675   4.690   2.308   0.506  0.0804 -0.4496  1.7853
  307MPD2    H1 4676   4.590   1.905   0.574  1.2370  0.4836  0.7315
  307MPD2    H2 4677   0.154   1.997   0.290 -0.1161 -0.4006  0.0159
  307MPD2    H3 4678   0.040   1.837   0.416  0.1172 -0.4320  0.9831
  307MPD2     N 4679   4.513   2.163   0.605  0.1517 -0.0951  0.0316
  307MPD2    H5 4680   4.507   2.264   0.613  0.1420 -0.0907 -0.0360
  307MPD2    N1 4681   0.141   2.265   0.317  0.1129  0.0945  0.0702
  307MPD2    H7 4682   0.123   2.360   0.348 -2.3790 -0.1567 -0.5903
  308TMC3    C1 4683   4.102   2.135   0.831  0.2476 -0.5704  0.5433
  308TMC3    C2 4684   4.117   2.247   0.904 -0.4632  0.4961 -0.7282
  308TMC3    C3 4685   4.246   2.306   0.889  0.1697  0.4707  0.5147
  308TMC3    C4 4686   4.194   2.083   0.745 -0.1164 -0.0749  0.4772
  308TMC3    C5 4687   4.314   2.150   0.732  0.2344  0.1233 -0.4312
  308TMC3    C6 4688   4.341   2.266   0.805  0.4986  0.3313 -0.2864
  308TMC3     C 4689   3.974   2.112   0.769 -0.0970  0.4261  0.4811
  308TMC3     O 4690   3.926   2.004   0.751  0.0733 -0.3117  0.0340
  308TMC3     H 4691   4.046   2.288   0.974 -1.3796  0.0673 -1.4120
  308TMC3    H1 4692   4.173   1.993   0.688 -0.5664  1.1522 -1.2741
  308TMC3    H2 4693   4.443   2.302   0.799  0.7530 -0.0126  2.0656
  308TMC3    C7 4694   4.414   2.079   0.655  0.7867 -0.4352 -0.7900
  308TMC3    C8 4695   4.277   2.408   0.981  0.4200  0.1469  0.2575
  308TMC3    O1 4696   4.389   1.961   0.660  0.4737  0.3788 -0.7372
  308TMC3    O2 4697   4.208   2.413   1.086  0.0660 -0.4206 -0.6303
  309MPD2     C 4698   4.343   2.742  16.966 -0.2131 -0.2482  0.7154
  309MPD2    C1 4699   4.259   2.811  16.885  0.3047 -0.2066  0.2043
  309MPD2    C2 4700   4.138   2.859  16.929  0.1436  0.4422 -0.0644
  309MPD2    C3 4701   4.112   2.847  17.069  0.3502 -0.3024 -0.6769
  309MPD2    C4 4702   4.211   2.788  17.149  0.1228  0.1419 -0.5568
  309MPD2    C5 4703   4.326   2.737  17.095 -0.3451  0.5765  0.2636
  309MPD2     H 4704   4.072   2.922  16.869 -0.3929  1.3635  1.5009
  309MPD2    H1 4705   4.194   2.779  17.256  0.5526 -3.5062 -0.8181
  309MPD2    H2 4706   4.419   2.677  16.923  0.0331 -1.0852  2.4230
  309MPD2    H3 4707   4.399   2.691  17.160  0.3176  0.3132 -0.6770
  309MPD2     N 4708   3.986   2.873  17.133 -0.0470 -0.0695 -0.3109
  309MPD2    H5 4709   3.973   2.856  17.232  0.3333 -0.5213 -0.3394
  309MPD2    N1 4710   4.285   2.820  16.748  0.5643  0.1352 -0.1604
  309MPD2    H7 4711   4.213   2.867  16.694 -0.5965 -0.6301  0.7270
  310TMC3    C1 4712   4.378   2.807  16.543 -0.0652  0.3402 -0.0301
  310TMC3    C2 4713   4.284   2.898  16.506 -0.7243  0.0897 -0.1043
  310TMC3    C3 4714   4.258   2.908  16.369  0.4681 -0.4638  0.4314
  310TMC3    C4 4715   4.444   2.732  16.453  0.0407 -0.1483 -0.2337
  310TMC3    C5 4716   4.413   2.747  16.320 -0.0349 -0.0141 -0.2079
  310TMC3    C6 4717   4.315   2.828  16.281  0.3146  0.2200  0.4160
  310TMC3     C 4718   4.396   2.785  16.683  0.0471  0.3268 -0.1684
  310TMC3     O 4719   4.500   2.730  16.720 -0.0627  0.3691 -0.8168
  310TMC3     H 4720   4.243   2.974  16.572  0.1911 -1.7202  2.5047
  310TMC3    H1 4721   4.504   2.650  16.489  1.2772  0.4580 -0.9125
  310TMC3    H2 4722   4.291   2.828  16.175 -0.7842 -1.5978  0.6709
  310TMC3    C7 4723   4.464   2.642  16.224 -0.0827  0.0972  0.5050
  310TMC3    C8 4724   4.140   2.980  16.334  0.7571  0.2215 -0.3891
  310TMC3    O1 4725   4.400   2.615  16.124 -0.1469  0.4195  0.1032
  310TMC3    O2 4726   4.079   3.021  16.428  0.0341 -0.0121  0.4850
  311MPD2     C 4727   1.522   3.479  12.887  0.5186  0.1217 -0.1893
  311MPD2    C1 4728   1.533   3.611  12.891  0.4827  0.0888  0.2135
  311MPD2    C2 4729   1.430   3.685  12.942  0.1685 -0.4273  0.1948
  311MPD2    C3 4730   1.318   3.624  12.989 -0.0040  0.0889 -0.0424
  311MPD2    C4 4731   1.311   3.486  12.994  0.2171  0.5130  0.1189
  311MPD2    C5 4732   1.415   3.413  12.942 -0.1686 -0.3896 -0.6217
  311MPD2     H 4733   1.430   3.793  12.936 -0.1858 -0.5130 -1.2192
  311MPD2    H1 4734   1.231   3.432  13.044  2.6133 -1.7881  1.4697
  311MPD2    H2 4735   1.605   3.418  12.855 -0.4430 -0.4580 -1.6012
  311MPD2    H3 4736   1.412   3.305  12.954  0.0997 -0.3841 -0.5131
  311MPD2     N 4737   1.218   3.706  13.040  0.2206  0.4871 -0.1441
  311MPD2    H5 4738   1.247   3.803  13.049  0.9355  0.2540  0.0908
  311MPD2    N1 4739   1.643   3.685  12.839 -0.4398  0.8940 -0.8693
  311MPD2    H7 4740   1.640   3.785  12.852  0.7782  0.6868  1.1184
  312TMC3    C1 4741   1.019   3.755  13.147 -1.4634  0.0339 -0.0211
  312TMC3    C2 4742   0.884   3.763  13.130 -0.6704  0.1522 -0.8559
  312TMC3    C3 4743   0.816   3.855  13.210  0.4420  0.1936 -0.2636
  312TMC3    C4 4744   1.091   3.842  13.226 -0.2022  0.5562 -0.3452
  312TMC3    C5 4745   1.019   3.935  13.291  0.5468  0.2564  0.5697
  312TMC3    C6 4746   0.880   3.949  13.290  0.5616 -0.2622  0.1649
  312TMC3     C 4747   1.086   3.661  13.069 -0.5849 -0.5506  0.8061
  312TMC3     O 4748   1.023   3.564  13.022 -0.3503 -0.1745 -0.0929
  312TMC3     H 4749   0.831   3.689  13.072  2.1648 -1.9575 -0.7621
  312TMC3    H1 4750   1.195   3.823  13.250  0.1114  2.5609 -0.1324
  312TMC3    H2 4751   0.823   4.020  13.350 -0.0175 -0.4547 -0.1548
  312TMC3    C7 4752   1.092   4.002  13.399  0.6527 -0.3379 -0.5596
  312TMC3    C8 4753   0.670   3.853  13.194  0.1809  0.1109  0.0984
  312TMC3    O1 4754   1.214   4.027  13.385 -0.0165 -0.1402  0.6258
  312TMC3    O2 4755   0.623   3.744  13.159 -0.6409 -0.4039  0.8900
  313MPD2     C 4756   0.097   3.410  11.564 -0.5355 -0.5341  0.3099
  313MPD2    C1 4757   0.090   3.431  11.430 -0.0478  0.2734  0.3934
  313MPD2    C2 4758   0.141   3.344  11.340  0.0343 -0.0986 -0.4656
  313MPD2    C3 4759   0.221   3.236  11.384 -0.3806 -0.3442  0.2395
  313MPD2    C4 4760   0.229   3.213  11.522 -0.6928  0.4216  0.4819
  313MPD2    C5 4761   0.159   3.299  11.610 -0.4192  0.1370  1.2628
  313MPD2     H 4762   0.134   3.370  11.235  0.0749 -0.0049 -0.4452
  313MPD2    H1 4763   0.281   3.130  11.568 -0.3076 -0.1150 -0.9383
  313MPD2    H2 4764   0.056   3.478  11.637 -0.6470  1.1486 -1.3239
  313MPD2    H3 4765   0.167   3.290  11.718 -1.0510 -0.7366  1.2354
  313MPD2     N 4766   0.281   3.146  11.294  0.1919  0.0796 -0.5112
  313MPD2    H5 4767   0.253   3.157  11.197  0.5298  0.4995 -0.5623
  313MPD2    N1 4768   0.043   3.559  11.395 -0.1965 -0.6578  0.0546
  313MPD2    H7 4769   0.039   3.631  11.467  0.7514 -1.1825  0.6356
  314TMC3    C1 4770   4.732   3.718  11.231  0.3121 -0.3052 -0.4634
  314TMC3    C2 4771   0.112   3.772  11.277 -0.1524  0.4237 -0.0096
  314TMC3    C3 4772   0.196   3.826  11.178  0.0235  0.4113  0.0369
  314TMC3    C4 4773   4.700   3.728  11.101  0.2746 -0.2716  0.0606
  314TMC3    C5 4774   0.045   3.780  11.009 -0.5565 -0.2574 -0.4274
  314TMC3    C6 4775   0.163   3.830  11.051 -0.3940 -0.6937 -0.6272
  314TMC3     C 4776   4.715   3.583  11.278 -0.2356  0.0917  0.0189
  314TMC3     O 4777   4.645   3.504  11.212  0.1435 -0.1113 -0.0286
  314TMC3     H 4778   0.136   3.775  11.382  1.5804 -0.7834 -0.3632
  314TMC3    H1 4779   4.606   3.685  11.069  1.6407 -0.5067 -3.6847
  314TMC3    H2 4780   0.248   3.856  10.990 -0.8954 -0.5331 -1.2616
  314TMC3    C7 4781   0.032   3.744  10.867 -0.3242 -0.8869  0.7782
  314TMC3    C8 4782   0.326   3.881  11.212  0.6585  0.2206 -0.6216
  314TMC3    O1 4783   0.135   3.752  10.800 -0.1859  0.2643  0.3271
  314TMC3    O2 4784   0.419   3.868  11.135 -0.1895  0.1466  0.1220
  315MPD2     C 4785   0.236   2.186  16.973  0.3574 -0.2959  0.1051
  315MPD2    C1 4786   0.270   2.197  17.108  0.1416  0.0668 -0.1500
  315MPD2    C2 4787   0.246   2.319  17.162 -0.3310 -0.5617  0.2289
  315MPD2    C3 4788   0.211   2.430  17.101  0.4840 -0.0815 -0.2155
  315MPD2    C4 4789   0.172   2.416  16.964  0.8976 -0.1671  0.0652
  315MPD2    C5 4790   0.189   2.292  16.904  0.8548 -0.1052 -0.0752
  315MPD2     H 4791   0.270   2.322  17.268 -2.0932 -0.5419  0.6430
  315MPD2    H1 4792   0.128   2.496  16.907 -0.9326  0.4969  2.3846
  315MPD2    H2 4793   0.241   2.089  16.925  1.5871 -0.6377  0.9245
  315MPD2    H3 4794   0.145   2.267  16.808  1.0298  3.1416 -0.9908
  315MPD2     N 4795   0.223   2.547  17.173 -0.3293 -0.1240  0.6262
  315MPD2    H5 4796   0.246   2.545  17.271 -1.5762  0.4183  0.9344
  315MPD2    N1 4797   0.333   2.093  17.186  0.0738 -0.0786 -0.3431
  315MPD2    H7 4798   0.377   2.129  17.271 -0.0135  1.6581 -1.0440
  316TMC3    C1 4799   0.267   2.781  17.198  0.0587  0.1758  0.1455
  316TMC3    C2 4800   0.371   2.747  17.282  0.3254 -0.0082 -0.2369
  316TMC3    C3 4801   0.406   2.846  17.368 -0.1219  0.5471  0.3480
  316TMC3    C4 4802   0.224   2.906  17.165  0.4974  0.0528 -0.7465
  316TMC3    C5 4803   0.275   3.003  17.244  0.1066  0.2457 -0.1467
  316TMC3    C6 4804   0.364   2.972  17.347 -0.6217  0.1336  0.0698
  316TMC3     C 4805   0.222   2.671  17.112 -0.5080 -0.2268 -0.1901
  316TMC3     O 4806   0.209   2.694  16.994 -0.3268  0.3531 -0.3162
  316TMC3     H 4807   0.407   2.649  17.312  1.5679  0.2500 -0.8835
  316TMC3    H1 4808   0.143   2.923  17.094 -0.8182 -0.6889  0.5919
  316TMC3    H2 4809   0.401   3.037  17.425  0.0898  0.7097 -0.7525
  316TMC3    C7 4810   0.199   3.122  17.263  0.6959  0.3042  0.3692
  316TMC3    C8 4811   0.420   2.821  17.509 -0.0964  0.0367  0.1199
  316TMC3    O1 4812   0.180   3.150  17.379 -0.2553  0.1523 -0.5153
  316TMC3    O2 4813   0.340   2.878  17.582 -0.0653 -0.2888  0.3548
  317MPD2     C 4814   2.927   0.756  12.275  0.1346  0.3175  0.0849
  317MPD2    C1 4815   3.052   0.740  12.334  0.0105 -0.2887  0.9333
  317MPD2    C2 4816   3.065   0.742  12.467  0.1180  0.5361 -0.2058
  317MPD2    C3 4817   2.957   0.771  12.549  0.0565 -0.4124 -0.2249
  317MPD2    C4 4818   2.831   0.802  12.495 -0.0685  0.4384  0.3189
  317MPD2    C5 4819   2.824   0.791  12.355 -0.5903 -0.1881  0.2303
  317MPD2     H 4820   3.157   0.738  12.525  0.7459 -1.9529 -1.3739
  317MPD2    H1 4821   2.736   0.823  12.543 -0.3698  1.2533 -0.6143
  317MPD2    H2 4822   2.912   0.772  12.168 -0.8684  1.5747  0.4162
  317MPD2    H3 4823   2.727   0.810  12.310 -0.9808 -1.9593  0.3064
  317MPD2     N 4824   2.975   0.766  12.687  0.1417  0.4656 -0.7577
  317MPD2    H5 4825   3.065   0.728  12.717 -0.4052 -0.7699 -0.6536
  317MPD2    N1 4826   3.167   0.705  12.258 -0.7916 -0.0076  0.3172
  317MPD2    H7 4827   3.255   0.688  12.305  0.6032  1.5126 -1.7119
  318TMC3    C1 4828   2.928   0.742  12.922  0.1919 -0.3104  0.0734
  318TMC3    C2 4829   2.867   0.638  12.987 -0.0163  0.4831  0.1781
  318TMC3    C3 4830   2.930   0.567  13.084  0.2024 -0.0935  0.6838
  318TMC3    C4 4831   3.058   0.764  12.939 -0.1500  0.2809 -0.2052
  318TMC3    C5 4832   3.114   0.702  13.045 -0.2673  0.1949  0.3631
  318TMC3    C6 4833   3.051   0.612  13.123  0.1955  0.6199  0.0447
  318TMC3     C 4834   2.881   0.770  12.789  0.0482  0.1689  0.5784
  318TMC3     O 4835   2.756   0.766  12.786 -0.4098 -0.3686 -0.1470
  318TMC3     H 4836   2.768   0.615  12.950  0.3947 -1.2705  0.1573
  318TMC3    H1 4837   3.109   0.854  12.907 -2.1936  0.9958 -1.4352
  318TMC3    H2 4838   3.089   0.573  13.217 -0.2877  0.8498  0.3384
  318TMC3    C7 4839   3.251   0.747  13.072  0.5111  0.9036 -0.3872
  318TMC3    C8 4840   2.883   0.433  13.121  0.1045  0.2685  0.0173
  318TMC3    O1 4841   3.314   0.813  12.990 -0.3562  0.1097 -0.1113
  318TMC3    O2 4842   2.962   0.361  13.182  0.4678 -0.0512  0.1459
  319MPD2     C 4843   3.344   2.536  16.826  0.5035  0.1830  0.2484
  319MPD2    C1 4844   3.391   2.410  16.869 -0.5194 -0.4446  0.5090
  319MPD2    C2 4845   3.336   2.295  16.819  0.4812  0.1385  0.6750
  319MPD2    C3 4846   3.226   2.295  16.735  0.5309  0.5746 -0.5416
  319MPD2    C4 4847   3.175   2.420  16.696  0.1411  0.0242  1.2324
  319MPD2    C5 4848   3.246   2.535  16.729 -0.2545 -0.1276 -0.5306
  319MPD2     H 4849   3.383   2.198  16.836  3.6649  1.7481  1.0866
  319MPD2    H1 4850   3.093   2.431  16.627 -0.0772  1.3067  1.6891
  319MPD2    H2 4851   3.386   2.632  16.856  1.0464  0.0112  0.0334
  319MPD2    H3 4852   3.212   2.631  16.693 -0.4042 -0.3233 -0.9086
  319MPD2     N 4853   3.160   2.181  16.694  0.8284 -0.2287 -0.4368
  319MPD2    H5 4854   3.088   2.198  16.625  0.2817 -0.4602  0.0770
  319MPD2    N1 4855   3.480   2.399  16.976 -0.0489 -0.6568 -0.8771
  319MPD2    H7 4856   3.503   2.306  17.010  0.3638 -0.2038  0.0989
  320TMC3    C1 4857   3.111   1.962  16.639  0.0916  0.6078 -0.4540
  320TMC3    C2 4858   2.993   2.004  16.578 -0.8130  0.4833  1.1379
  320TMC3    C3 4859   2.950   1.930  16.470  0.2066  0.1034 -0.1334
  320TMC3    C4 4860   3.171   1.843  16.613  0.5125  0.5891 -0.1295
  320TMC3    C5 4861   3.116   1.764  16.519 -0.2763 -0.8542 -0.3843
  320TMC3    C6 4862   3.011   1.806  16.442  0.2580 -0.3384 -0.4680
  320TMC3     C 4863   3.177   2.049  16.732  0.3128  0.3170  0.1811
  320TMC3     O 4864   3.257   2.002  16.813 -0.3566 -0.3765 -0.0361
  320TMC3     H 4865   2.949   2.102  16.591 -3.8377 -0.7784  0.4704
  320TMC3    H1 4866   3.267   1.829  16.662  1.6601  2.2241 -1.8955
  320TMC3    H2 4867   2.979   1.747  16.357  1.8539 -1.3502 -0.3641
  320TMC3    C7 4868   3.175   1.634  16.505  1.0917  0.0063 -0.5697
  320TMC3    C8 4869   2.845   1.983  16.381 -0.0768 -0.1606  0.0738
  320TMC3    O1 4870   3.294   1.616  16.539  0.4671  0.6256  0.1168
  320TMC3    O2 4871   2.856   1.939  16.269  0.1845  0.2335 -0.7187
  321TMC3    C1 4872   3.590   2.460  17.173 -0.1203 -0.9153 -0.0308
  321TMC3    C2 4873   3.550   2.347  17.238 -0.2482 -0.4191 -0.0170
  321TMC3    C3 4874   3.591   2.338  17.369  0.9536 -0.2044 -0.0577
  321TMC3    C4 4875   3.671   2.559  17.222 -0.0201 -0.2356  0.0981
  321TMC3    C5 4876   3.725   2.543  17.347  0.1684 -0.8336 -0.0773
  321TMC3    C6 4877   3.673   2.441  17.424 -0.3670 -0.3130  0.5797
  321TMC3     C 4878   3.533   2.505  17.046 -0.5958 -0.2695 -0.1183
  321TMC3     O 4879   3.538   2.623  17.017 -0.0226  0.4709 -0.1280
  321TMC3     H 4880   3.503   2.265  17.186  0.7282 -0.7335 -0.4154
  321TMC3    H1 4881   3.721   2.629  17.157  0.3404  1.1152  1.8048
  321TMC3    H2 4882   3.680   2.435  17.532  2.1959  0.8241  0.4690
  321TMC3    C7 4883   3.870   2.563  17.363 -0.0103  0.1736 -0.6626
  321TMC3    C8 4884   3.635   2.213  17.428  0.0376  0.4596 -0.8559
  321TMC3    O1 4885   3.935   2.636  17.291 -0.1206  0.1895  0.0760
  321TMC3    O2 4886   3.730   2.225  17.502 -0.1177 -0.4741  0.2173
  322MPD2     C 4887   2.289   3.432  13.443  0.2733 -0.3132  0.2375
  322MPD2    C1 4888   2.338   3.353  13.543  0.1312 -0.0839  0.2643
  322MPD2    C2 4889   2.385   3.226  13.507  0.0369 -0.3213  0.7801
  322MPD2    C3 4890   2.400   3.189  13.377 -0.0938  0.0836 -0.5056
  322MPD2    C4 4891   2.351   3.262  13.279  0.0511 -0.5006  0.2912
  322MPD2    C5 4892   2.293   3.384  13.315  0.0670 -0.0223  0.1437
  322MPD2     H 4893   2.422   3.159  13.584 -1.3154 -0.1333  1.5855
  322MPD2    H1 4894   2.361   3.225  13.178 -3.4201 -1.8785  0.4510
  322MPD2    H2 4895   2.245   3.529  13.465  0.1952 -0.4108  0.5155
  322MPD2    H3 4896   2.263   3.453  13.236  1.9405 -0.9541 -1.3888
  322MPD2     N 4897   2.471   3.064  13.351 -0.1708  0.3586 -0.2541
  322MPD2    H5 4898   2.507   3.018  13.434 -0.1742 -1.9095 -1.5145
  322MPD2    N1 4899   2.331   3.405  13.677 -1.0592 -0.0157  0.1699
  322MPD2    H7 4900   2.281   3.492  13.693  1.8998  1.1374  3.1811
  323TMC3    C1 4901   2.355   3.412  13.919  0.6989 -0.2345 -0.2137
  323TMC3    C2 4902   2.423   3.524  13.925  0.0939 -0.4263  0.0124
  323TMC3    C3 4903   2.473   3.562  14.050  0.1596  0.3955 -0.7792
  323TMC3    C4 4904   2.348   3.326  14.027 -0.4422 -0.0035  0.0316
  323TMC3    C5 4905   2.396   3.363  14.151 -0.6082  0.1956  0.5888
  323TMC3    C6 4906   2.452   3.491  14.170  0.3420  0.5010  0.0693
  323TMC3     C 4907   2.371   3.338  13.798 -0.3514  0.4787  0.5622
  323TMC3     O 4908   2.410   3.222  13.803  0.5325  0.0996  0.3881
  323TMC3     H 4909   2.458   3.561  13.829  0.8140  0.9352  0.8000
  323TMC3    H1 4910   2.295   3.232  14.014  1.6214 -1.5272  2.6194
  323TMC3    H2 4911   2.500   3.516  14.264  1.6595  0.3712 -0.5666
  323TMC3    C7 4912   2.400   3.258  14.255  0.2537 -0.1207  0.0749
  323TMC3    C8 4913   2.558   3.673  14.050 -0.4683  0.0010  0.2126
  323TMC3    O1 4914   2.400   3.145  14.212 -0.1883  0.1768 -0.2060
  323TMC3    O2 4915   2.623   3.695  14.154 -0.7580  0.1205 -0.3687
  324MPD2     C 4916   4.366   4.532  14.242 -0.1117  0.2182 -0.2346
  324MPD2    C1 4917   4.327   4.599  14.356  0.4683 -0.2041  0.3553
  324MPD2    C2 4918   4.187   4.630  14.367 -0.7081 -0.4802 -0.3436
  324MPD2    C3 4919   4.093   4.597  14.271 -0.3337 -0.1857  0.3763
  324MPD2    C4 4920   4.135   4.519  14.166 -0.2751 -0.6545  0.1119
  324MPD2    C5 4921   4.265   4.490  14.147 -0.5678 -0.4276  0.3820
  324MPD2     H 4922   4.159   4.694  14.450 -0.1717  1.0901 -1.3665
  324MPD2    H1 4923   4.067   4.500  14.084 -1.2545  1.5134  0.4075
  324MPD2    H2 4924   4.470   4.501  14.240  0.8915  3.6709 -1.9268
  324MPD2    H3 4925   4.299   4.437  14.059  1.6517 -0.6890  1.4010
  324MPD2     N 4926   3.952   4.632  14.275 -0.2775  0.0345 -0.9108
  324MPD2    H5 4927   3.889   4.594  14.205  0.0350  0.3207 -1.3463
  324MPD2    N1 4928   4.418   4.629  14.458 -0.4524  0.3181 -0.1289
  324MPD2    H7 4929   4.381   4.677  14.540 -0.5402 -3.1636  1.8525
  325TMC3    C1 4930   3.761   0.018  14.340  0.5239  0.0038  0.8511
  325TMC3    C2 4931   3.690   4.688  14.246 -0.0877 -0.1893  0.1727
  325TMC3    C3 4932   3.563   4.736  14.220 -0.0212  0.2605 -0.3063
  325TMC3    C4 4933   3.711   0.134  14.399  0.1550  0.2354 -0.7333
  325TMC3    C5 4934   3.583   0.170  14.370 -0.6837  0.2705 -0.0154
  325TMC3    C6 4935   3.509   0.104  14.272 -0.2852 -0.0427  0.2542
  325TMC3     C 4936   3.899   4.732  14.357  0.5365 -0.0137  0.1553
  325TMC3     O 4937   3.956   0.060  14.444  0.1310  0.1149 -0.5722
  325TMC3     H 4938   3.718   4.592  14.206 -0.7585 -0.3248  0.0418
  325TMC3    H1 4939   3.766   0.181  14.480 -1.0411 -1.3174  0.9826
  325TMC3    H2 4940   3.408   0.124  14.238 -1.1887 -3.0083  1.2652
  325TMC3    C7 4941   3.520   0.260  14.458 -0.4881 -0.7338 -0.5123
  325TMC3    C8 4942   3.490   4.653  14.125 -0.3084  0.6909 -0.8023
  325TMC3    O1 4943   3.594   0.326  14.528  0.1222 -0.0642 -0.3547
  325TMC3    O2 4944   3.568   4.601  14.042  0.1709 -0.2996  0.7587
  326MPD2     C 4945   0.960   1.342  11.126  0.5543 -0.5239 -0.2391
  326MPD2    C1 4946   0.932   1.249  11.028  0.3542 -0.4456 -0.6570
  326MPD2    C2 4947   1.004   1.131  11.023 -0.2292 -0.2782  0.0108
  326MPD2    C3 4948   1.109   1.112  11.115 -0.0734  0.3571 -0.3222
  326MPD2    C4 4949   1.130   1.198  11.219 -0.5023 -0.2880 -0.4955
  326MPD2    C5 4950   1.050   1.309  11.223 -0.3086 -0.3120 -0.5107
  326MPD2     H 4951   0.990   1.069  10.935 -0.5461  0.5122 -0.4881
  326MPD2    H1 4952   1.194   1.172  11.302 -3.6554 -1.4059  1.6076
  326MPD2    H2 4953   0.908   1.434  11.148  3.0829  0.5648  1.2584
  326MPD2    H3 4954   1.070   1.370  11.311  1.0272 -0.9858 -0.3475
  326MPD2     N 4955   1.188   0.994  11.114 -0.3663  0.2529  0.0471
  326MPD2    H5 4956   1.272   0.995  11.170 -0.0931 -1.3917 -0.3522
  326MPD2    N1 4957   0.836   1.267  10.926 -0.1392  0.1579 -0.1519
  326MPD2    H7 4958   0.810   1.189  10.867  0.2789  0.5870 -0.9075
  327TMC3    C1 4959   0.659   1.370  10.820 -0.7746  0.0474 -0.8372
  327TMC3    C2 4960   0.573   1.476  10.841 -0.0420 -0.2577 -0.0661
  327TMC3    C3 4961   0.440   1.462  10.815 -0.3063  0.5232 -0.1569
  327TMC3    C4 4962   0.608   1.248  10.794 -0.0400 -0.6879  0.4773
  327TMC3    C5 4963   0.475   1.227  10.787  0.3402  0.5813  0.0962
  327TMC3    C6 4964   0.384   1.335  10.791 -0.5083 -0.9000 -0.0049
  327TMC3     C 4965   0.768   1.382  10.911  0.3597 -0.4149  0.3420
  327TMC3     O 4966   0.791   1.490  10.965 -0.0849  0.3592 -0.1681
  327TMC3     H 4967   0.606   1.575  10.870 -0.3832 -0.3610  0.6849
  327TMC3    H1 4968   0.686   1.174  10.775 -1.7582 -2.5269  0.5934
  327TMC3    H2 4969   0.278   1.323  10.774 -0.7760 -1.4502  2.0032
  327TMC3    C7 4970   0.440   1.106  10.718 -0.1092 -0.0601 -0.6078
  327TMC3    C8 4971   0.352   1.583  10.842  0.2379 -0.2148 -0.7666
  327TMC3    O1 4972   0.339   1.112  10.648 -0.2180  0.3001  0.3154
  327TMC3    O2 4973   0.407   1.692  10.838 -0.4900 -0.0304  0.7239
  328MPD2     C 4974   3.203   1.037  17.008  0.1011  0.0822 -0.4144
  328MPD2    C1 4975   3.083   0.967  16.980 -0.3800  0.5494  0.0086
  328MPD2    C2 4976   2.964   1.035  16.998 -0.4308 -0.7609  0.2772
  328MPD2    C3 4977   2.960   1.167  17.037 -0.3728 -0.0087  0.0117
  328MPD2    C4 4978   3.073   1.226  17.081 -1.0402  0.3948 -0.1842
  328MPD2    C5 4979   3.197   1.156  17.071  0.1217  0.0967  0.6387
  328MPD2     H 4980   2.871   0.998  16.957 -1.4009 -0.2106  1.9424
  328MPD2    H1 4981   3.073   1.324  17.127 -0.8145  0.1700  0.2982
  328MPD2    H2 4982   3.296   0.981  17.010  0.5224  0.7061 -3.1485
  328MPD2    H3 4983   3.292   1.200  17.099 -0.2386  0.4364  1.3172
  328MPD2     N 4984   2.838   1.236  17.046 -0.7151  0.0252 -0.1530
  328MPD2    H5 4985   2.848   1.334  17.073  0.4063 -0.1496  0.0790
  328MPD2    N1 4986   3.103   0.832  16.929 -0.5004  0.1629  0.8180
  328MPD2    H7 4987   3.196   0.791  16.933 -0.1006  0.9796 -0.2606
  329TMC3    C1 4988   3.034   0.613  16.872  0.1408 -0.3280  0.3708
  329TMC3    C2 4989   2.973   0.517  16.948 -0.6757  0.0008  0.4200
  329TMC3    C3 4990   2.971   0.390  16.892  0.0488 -0.4176  0.0178
  329TMC3    C4 4991   3.082   0.588  16.749  0.5203  0.5663  0.2240
  329TMC3    C5 4992   3.039   0.477  16.685  0.0545 -0.6229  0.2625
  329TMC3    C6 4993   2.988   0.374  16.754 -0.0778 -0.0015  0.4853
  329TMC3     C 4994   2.996   0.745  16.906 -1.0642  0.5516  0.4152
  329TMC3     O 4995   2.881   0.763  16.940 -0.6532  0.2273 -0.1041
  329TMC3     H 4996   2.958   0.540  17.052 -2.5644  0.2305  0.0960
  329TMC3    H1 4997   3.123   0.676  16.699  0.4076  0.1727 -0.5600
  329TMC3    H2 4998   2.968   0.280  16.702 -4.0663  0.3251  1.4157
  329TMC3    C7 4999   3.063   0.460  16.545 -0.0054  1.0630  0.1239
  329TMC3    C8 5000   2.884   0.290  16.957  0.0520 -0.7530 -0.3920
  329TMC3    O1 5001   3.025   0.354  16.496 -0.2016  0.6416 -0.0159
  329TMC3    O2 5002   2.883   0.178  16.915  0.1225  0.9762  0.2136
  330TMC3    C1 5003   0.602   0.022   9.623  0.8244  0.2414 -0.3187
  330TMC3    C2 5004   0.572   4.650   9.559  0.2375 -0.2921  0.1954
  330TMC3    C3 5005   0.679   4.566   9.532  0.0954  0.9638 -0.0063
  330TMC3    C4 5006   0.730   0.044   9.672  0.0755  0.3116  0.0988
  330TMC3    C5 5007   0.828   4.685   9.668 -0.1421  0.4520  1.0931
  330TMC3    C6 5008   0.804   4.576   9.580  0.5115 -0.1962  0.5447
  330TMC3     C 5009   0.497   0.127   9.653 -0.4529 -0.4533  0.3596
  330TMC3     O 5010   0.533   0.232   9.712 -0.7486 -0.3965 -0.2242
  330TMC3     H 5011   0.478   4.635   9.507 -0.8114  3.0503  1.1433
  330TMC3    H1 5012   0.740   0.131   9.737  0.5452  1.6968 -1.8211
  330TMC3    H2 5013   0.883   4.502   9.571 -0.3475 -0.7710 -2.3406
  330TMC3    C7 5014   0.955   4.704   9.741 -0.7940 -0.3684 -0.2082
  330TMC3    C8 5015   0.660   4.454   9.442 -0.3409 -0.3099  0.0053
  330TMC3    O1 5016   0.974   0.078   9.777  0.7659  0.2773  0.7118
  330TMC3    O2 5017   0.755   4.421   9.377  0.2785 -0.3728 -0.2187
  331MPD2     C 5018   3.814   3.844  13.174  0.0636 -0.4342 -0.0037
  331MPD2    C1 5019   3.881   3.873  13.058 -0.1264  0.3524  0.1902
  331MPD2    C2 5020   3.869   3.790  12.951 -0.3473 -0.8508 -1.0466
  331MPD2    C3 5021   3.799   3.671  12.960  0.0555  0.2399  0.6182
  331MPD2    C4 5022   3.726   3.652  13.081  0.1774 -0.1021  0.4494
  331MPD2    C5 5023   3.725   3.743  13.183 -0.3273 -0.1640  0.2357
  331MPD2     H 5024   3.907   3.816  12.853  0.7991  0.8434 -0.1507
  331MPD2    H1 5025   3.666   3.563  13.095  3.3317 -2.1325  1.0777
  331MPD2    H2 5026   3.827   3.907  13.262  0.0242 -0.9809  0.3894
  331MPD2    H3 5027   3.657   3.718  13.264  0.1580 -2.5757 -0.1123
  331MPD2     N 5028   3.809   3.582  12.850  0.5060 -0.4369  0.5935
  331MPD2    H5 5029   3.856   3.611  12.765  0.7905  0.7286  1.1411
  331MPD2    N1 5030   3.951   3.999  13.041 -0.1290 -0.0285 -0.3948
  331MPD2    H7 5031   3.944   4.067  13.116 -3.4769 -1.6140  0.7427
  332TMC3    C1 5032   3.766   3.407  12.710 -0.3633 -0.1323 -0.5005
  332TMC3    C2 5033   3.788   3.495  12.602 -0.5224 -0.1599 -0.7990
  332TMC3    C3 5034   3.873   3.454  12.505  0.1653  1.0372  0.0295
  332TMC3    C4 5035   3.807   3.279  12.700  0.2457  0.6488  1.1575
  332TMC3    C5 5036   3.889   3.242  12.599 -0.3151  0.1251 -0.2111
  332TMC3    C6 5037   3.932   3.333  12.505  0.8997  0.2874 -0.2645
  332TMC3     C 5038   3.743   3.463  12.838 -0.6039  0.9324  0.3200
  332TMC3     O 5039   3.682   3.400  12.926 -0.0739  0.6134 -0.0447
  332TMC3     H 5040   3.754   3.597  12.615 -0.1670 -0.2169  0.6178
  332TMC3    H1 5041   3.781   3.208  12.777  2.7292 -1.8648 -0.3093
  332TMC3    H2 5042   4.002   3.309  12.425  1.3151  0.5897  0.0090
  332TMC3    C7 5043   3.990   3.158  12.651 -0.1398 -0.4031  0.0748
  332TMC3    C8 5044   3.856   3.519  12.380 -0.2213  0.2988  0.1795
  332TMC3    O1 5045   3.952   3.050  12.701  0.0270 -0.0469 -0.3564
  332TMC3    O2 5046   3.953   3.523  12.305 -0.4385 -0.5927 -0.3583
  333MPD2     C 5047   3.698   4.402  10.910  0.1702  0.2861 -0.5511
  333MPD2    C1 5048   3.771   4.302  10.851 -0.4405  0.4176  0.4218
  333MPD2    C2 5049   3.778   4.183  10.914 -0.4980 -0.1915  0.2791
  333MPD2    C3 5050   3.720   4.161  11.039  0.4705  0.4899 -0.0431
  333MPD2    C4 5051   3.645   4.251  11.095  0.4014  0.4241 -0.2534
  333MPD2    C5 5052   3.626   4.367  11.025  0.2238  0.4196 -0.5423
  333MPD2     H 5053   3.828   4.098  10.868 -0.4481  0.2893 -0.5662
  333MPD2    H1 5054   3.585   4.231  11.182 -0.3090  2.2899 -0.2978
  333MPD2    H2 5055   3.697   4.499  10.862  2.1999 -0.0031 -1.1893
  333MPD2    H3 5056   3.568   4.443  11.075 -2.0940 -2.1758  0.7130
  333MPD2     N 5057   3.733   4.035  11.095 -0.1890 -0.1749 -0.0980
  333MPD2    H5 5058   3.812   3.984  11.056 -0.6655 -0.7125 -0.3561
  333MPD2    N1 5059   3.847   4.333  10.740 -0.3012  0.3898 -0.3644
  333MPD2    H7 5060   3.826   4.422  10.697  1.5313 -0.1661 -2.4343
  334TMC3    C1 5061   4.021   4.333  10.587 -0.0779 -0.2437  0.0208
  334TMC3    C2 5062   4.096   4.264  10.495 -0.5835 -0.6052  0.0921
  334TMC3    C3 5063   4.159   4.326  10.394 -0.5739  0.5239  0.3329
  334TMC3    C4 5064   4.013   4.468  10.582  0.1718  0.1689  0.1501
  334TMC3    C5 5065   4.076   4.529  10.477  0.0858 -0.2553 -0.2700
  334TMC3    C6 5066   4.144   4.460  10.377 -0.7294  0.1639  0.1273
  334TMC3     C 5067   3.954   4.255  10.692 -0.1042  0.8292  0.2453
  334TMC3     O 5068   4.008   4.146  10.722  0.4725  0.3210 -0.2369
  334TMC3     H 5069   4.122   4.161  10.518 -2.7617 -0.3514  3.5977
  334TMC3    H1 5070   3.967   4.523  10.663  1.6414  0.8977  0.4958
  334TMC3    H2 5071   4.181   4.506  10.286  0.5759  1.3232  1.2432
  334TMC3    C7 5072   4.083   4.674  10.481  0.4771  0.5633  0.4250
  334TMC3    C8 5073   4.244   4.246  10.318 -0.0339  0.0502  0.1050
  334TMC3    O1 5074   4.060   4.735  10.587 -0.0398 -0.2225  0.1718
  334TMC3    O2 5075   4.223   4.129  10.320 -0.1622 -1.0382  0.0495
  335TMC3    C1 5076   3.516   0.750   0.225 -0.4052 -0.1552  0.2450
  335TMC3    C2 5077   3.409   0.766   0.141 -0.5626 -0.0665 -0.2393
  335TMC3    C3 5078   3.427   0.856   0.037 -0.7276 -0.0779  0.1582
  335TMC3    C4 5079   3.645   0.802   0.206  0.0833  0.0270  0.5455
  335TMC3    C5 5080   3.658   0.891   0.105 -0.3506  0.1422 -0.6939
  335TMC3    C6 5081   3.550   0.920   0.022 -0.5058 -0.3175 -0.5982
  335TMC3     C 5082   3.484   0.658   0.335  0.1456 -0.3200  0.3640
  335TMC3     O 5083   3.376   0.602   0.322  0.1812 -0.1291  0.7229
  335TMC3     H 5084   3.311   0.721   0.158 -0.2782 -0.1325  1.1950
  335TMC3    H1 5085   3.721   0.764   0.274  1.3101  3.1728  0.9396
  335TMC3    H2 5086   3.576   0.962  17.681 -0.4769  1.0829  0.0152
  335TMC3    C7 5087   3.793   0.934   0.067 -0.9105 -0.3193 -0.2959
  335TMC3    C8 5088   3.348   0.849  17.672 -0.4797  0.1635  0.1948
  335TMC3    O1 5089   3.801   1.012  17.727  0.4348 -0.4182  0.5662
  335TMC3    O2 5090   3.315   0.956  17.618 -0.2769 -0.1147  0.3775
  336MPD2     C 5091   3.210   3.568  15.554  0.2449 -0.0064  0.8610
  336MPD2    C1 5092   3.105   3.512  15.619  0.8462 -0.0028 -0.3791
  336MPD2    C2 5093   3.116   3.377  15.647 -0.0406 -0.0170  0.0237
  336MPD2    C3 5094   3.231   3.307  15.625  0.0061 -0.5288  0.3522
  336MPD2    C4 5095   3.340   3.370  15.571  0.3159  0.6034  0.6267
  336MPD2    C5 5096   3.321   3.502  15.528  0.6350  0.2651  0.2160
  336MPD2     H 5097   3.028   3.343  15.702 -0.0637  1.9151  1.1741
  336MPD2    H1 5098   3.434   3.318  15.559  0.3192  1.2249 -1.9145
  336MPD2    H2 5099   3.200   3.670  15.516  0.4459  0.3881  1.8707
  336MPD2    H3 5100   3.402   3.546  15.472 -0.3451  0.9290 -0.6910
  336MPD2     N 5101   3.241   3.169  15.653  0.0351 -0.3114  0.1184
  336MPD2    H5 5102   3.329   3.121  15.635  0.1983 -0.2332  0.7352
  336MPD2    N1 5103   2.986   3.582  15.638 -0.8030 -0.4580 -0.1126
  336MPD2    H7 5104   2.911   3.526  15.678  0.5302 -2.4432 -0.3671
  337TMC3    C1 5105   2.840   3.760  15.660  0.2255  0.3153  0.6712
  337TMC3    C2 5106   2.744   3.663  15.658  0.3099 -0.1504 -0.1041
  337TMC3    C3 5107   2.630   3.686  15.732 -0.6155 -0.0437  0.3909
  337TMC3    C4 5108   2.820   3.882  15.717 -0.0327 -0.1066  0.0638
  337TMC3    C5 5109   2.722   3.893  15.804  0.3702 -0.0385  0.4799
  337TMC3    C6 5110   2.615   3.796  15.813  0.1437 -0.7491 -0.1219
  337TMC3     C 5111   2.970   3.718  15.634 -0.7092  0.8115  0.8769
  337TMC3     O 5112   3.059   3.803  15.637  0.4807  0.2436 -0.2596
  337TMC3     H 5113   2.755   3.573  15.598  1.2080 -0.0976 -0.0105
  337TMC3    H1 5114   2.883   3.968  15.698  1.5368 -1.1517  0.5260
  337TMC3    H2 5115   2.524   3.805  15.870  0.5239 -2.2560  0.7453
  337TMC3    C7 5116   2.694   4.030  15.847 -0.5343 -0.5443 -0.6320
  337TMC3    C8 5117   2.505   3.610  15.696 -0.5265 -0.1417 -0.3583
  337TMC3    O1 5118   2.773   4.126  15.833 -0.8056 -0.5095  0.1744
  337TMC3    O2 5119   2.406   3.624  15.768 -0.0702 -0.5820  0.0495
  338MPD2     C 5120   3.311   3.220   0.982  0.4734  0.6950 -0.0960
  338MPD2    C1 5121   3.246   3.163   0.869 -0.6244  0.1020  0.0741
  338MPD2    C2 5122   3.115   3.185   0.848  0.3047  0.0352  0.0006
  338MPD2    C3 5123   3.034   3.229   0.947 -0.2950 -0.5593 -0.5582
  338MPD2    C4 5124   3.086   3.280   1.066 -0.9908 -0.9364  0.3531
  338MPD2    C5 5125   3.225   3.278   1.078 -0.8966 -0.2823 -0.3417
  338MPD2     H 5126   3.078   3.153   0.752  1.2539  1.8671 -0.9762
  338MPD2    H1 5127   3.026   3.330   1.140 -0.3491  0.5941 -0.1648
  338MPD2    H2 5128   3.416   3.206   1.005  0.2129  0.1265  0.7674
  338MPD2    H3 5129   3.268   3.330   1.163 -0.7865  1.0206 -1.1975
  338MPD2     N 5130   2.897   3.226   0.921 -0.8351 -0.1280 -0.0627
  338MPD2    H5 5131   2.866   3.206   0.826  0.5284  0.4735 -0.6325
  338MPD2    N1 5132   3.315   3.089   0.769 -0.3202 -0.5062 -0.4778
  338MPD2    H7 5133   3.248   3.068   0.696  0.5789 -0.7098 -1.2410
  339TMC3    C1 5134   2.668   3.232   0.966 -0.4519  0.2559  0.6469
  339TMC3    C2 5135   2.630   3.101   0.988 -0.4996  0.7155 -0.0834
  339TMC3    C3 5136   2.548   3.051   0.888 -0.3094  0.3133  0.0390
  339TMC3    C4 5137   2.645   3.297   0.851  0.7530 -0.5497 -0.0458
  339TMC3    C5 5138   2.567   3.243   0.751  0.4471  0.4132 -0.1514
  339TMC3    C6 5139   2.522   3.117   0.766  0.0326 -0.1850 -0.0766
  339TMC3     C 5140   2.807   3.250   1.020 -0.1808 -0.2333 -0.7683
  339TMC3     O 5141   2.814   3.258   1.141  0.3659  0.6333 -0.2650
  339TMC3     H 5142   2.659   3.058   1.083  2.3415  0.8203 -0.9100
  339TMC3    H1 5143   2.681   3.397   0.832  1.1841 -0.8209 -0.6336
  339TMC3    H2 5144   2.464   3.060   0.694 -1.6353 -1.1673  2.0426
  339TMC3    C7 5145   2.598   3.284   0.617  0.1569  0.0986 -0.0223
  339TMC3    C8 5146   2.478   2.931   0.912  0.0963  0.7562  0.6324
  339TMC3    O1 5147   2.689   3.365   0.605 -0.6820  0.0832 -0.2000
  339TMC3    O2 5148   2.377   2.910   0.842  0.1765 -0.0465  0.7314
  340MPD2     C 5149   2.960   0.659   9.137  0.0603 -0.4584 -0.0047
  340MPD2    C1 5150   3.058   0.657   9.233  0.0391  0.6336 -0.3375
  340MPD2    C2 5151   3.107   0.773   9.288  0.2429 -0.2835 -0.0976
  340MPD2    C3 5152   3.077   0.892   9.230 -0.1441 -0.3639 -0.0349
  340MPD2    C4 5153   2.988   0.891   9.121  0.2809 -0.2116 -0.6517
  340MPD2    C5 5154   2.922   0.781   9.087  0.4277 -1.0322 -0.1114
  340MPD2     H 5155   3.170   0.770   9.376  0.9045  0.2272 -0.5555
  340MPD2    H1 5156   2.959   0.989   9.085  1.2980  0.7532  1.1606
  340MPD2    H2 5157   2.912   0.569   9.100 -3.2238  0.3516  2.3409
  340MPD2    H3 5158   2.845   0.791   9.011 -0.1449 -0.2805  0.5559
  340MPD2     N 5159   3.128   1.016   9.286  0.1361 -0.3348  0.1741
  340MPD2    H5 5160   3.099   1.095   9.229 -0.0912  0.3565  1.2652
  340MPD2    N1 5161   3.097   0.531   9.268 -0.2526  0.2732 -0.3882
  340MPD2    H7 5162   3.053   0.449   9.228 -0.4821  0.2381 -0.0663
  341TMC3    C1 5163   3.265   0.381   9.332 -0.7656  0.6907  0.0071
  341TMC3    C2 5164   3.173   0.283   9.342  0.0844  0.0639 -0.2165
  341TMC3    C3 5165   3.227   0.153   9.351  0.2485 -0.3407 -0.3138
  341TMC3    C4 5166   3.403   0.354   9.343  0.0323  0.6548 -0.3112
  341TMC3    C5 5167   3.450   0.227   9.358  0.4330 -0.7099  0.1480
  341TMC3    C6 5168   3.361   0.124   9.360  0.0838  0.6397  0.7977
  341TMC3     C 5169   3.229   0.516   9.312  0.0051 -0.2433 -0.3434
  341TMC3     O 5170   3.315   0.605   9.314  0.3409 -0.2630  0.5112
  341TMC3     H 5171   3.066   0.295   9.337  0.2176  2.0821  1.8763
  341TMC3    H1 5172   3.471   0.437   9.332 -0.9725  1.5887  0.5894
  341TMC3    H2 5173   3.394   0.022   9.375 -1.3699  0.0934  0.2761
  341TMC3    C7 5174   3.595   0.197   9.384 -1.0965  0.2047  0.1099
  341TMC3    C8 5175   3.134   0.059   9.395 -0.0164  0.3270 -0.0347
  341TMC3    O1 5176   3.651   0.295   9.439  0.0815 -0.0931 -0.2034
  341TMC3    O2 5177   3.051   0.094   9.480 -0.5675  0.6876 -0.2647
  342MPD2     C 5178   1.404   3.731  17.466 -0.0483 -0.7006  0.4003
  342MPD2    C1 5179   1.529   3.754  17.414 -0.6810  0.6251  0.8705
  342MPD2    C2 5180   1.562   3.886  17.381 -0.1904  0.7715  0.0704
  342MPD2    C3 5181   1.492   3.989  17.426  0.0204 -0.0003 -0.1455
  342MPD2    C4 5182   1.373   3.967  17.487 -0.2645  0.5214  0.1158
  342MPD2    C5 5183   1.329   3.840  17.504  0.8436 -0.1417 -0.4441
  342MPD2     H 5184   1.652   3.905  17.323 -0.7841  1.5491 -0.5948
  342MPD2    H1 5185   1.306   4.041  17.530 -1.4530  0.4003 -1.5443
  342MPD2    H2 5186   1.369   3.630  17.482  0.7646 -1.1240 -0.4949
  342MPD2    H3 5187   1.237   3.839  17.561  0.3020  0.2536 -1.3023
  342MPD2     N 5188   1.530   4.121  17.411  0.1080 -0.2923 -0.3246
  342MPD2    H5 5189   1.456   4.188  17.431 -0.2630  0.1181 -3.1199
  342MPD2    N1 5190   1.624   3.655  17.376  0.2103 -0.5304  0.3461
  342MPD2    H7 5191   1.709   3.696  17.339  0.2686  1.1123  2.2980
  343TMC3    C1 5192   1.694   3.436  17.317  0.1137  0.2232  0.1169
  343TMC3    C2 5193   1.763   3.474  17.201 -0.0043 -0.3444  0.3815
  343TMC3    C3 5194   1.816   3.377  17.120  0.2420 -0.0841  0.6940
  343TMC3    C4 5195   1.666   3.303  17.344 -0.3215 -0.4664  0.1643
  343TMC3    C5 5196   1.716   3.212  17.254 -0.2564 -0.9397 -0.0658
  343TMC3    C6 5197   1.798   3.243  17.143 -0.7770  0.4015  0.2846
  343TMC3     C 5198   1.600   3.521  17.385  0.4826  0.2355 -0.4911
  343TMC3     O 5199   1.497   3.467  17.414 -0.6741 -0.4683 -0.1731
  343TMC3     H 5200   1.761   3.580  17.179 -0.9820 -0.7377 -1.4517
  343TMC3    H1 5201   1.603   3.266  17.424  1.3560 -0.3746  1.5178
  343TMC3    H2 5202   1.850   3.162  17.094 -0.9309 -1.1282  2.6560
  343TMC3    C7 5203   1.658   3.082  17.233 -0.1871  0.2496  0.0487
  343TMC3    C8 5204   1.914   3.415  17.015  0.2177  0.0703 -0.1433
  343TMC3    O1 5205   1.669   3.023  17.127 -0.4568 -0.5265 -0.0866
  343TMC3    O2 5206   1.938   3.534  16.996 -0.3916  0.0590  0.0053
  344MPD2     C 5207   2.167   2.879  10.265 -0.1816  0.2682 -0.7188
  344MPD2    C1 5208   2.224   2.908  10.388  0.0936 -0.1942 -0.3019
  344MPD2    C2 5209   2.318   3.003  10.386 -0.9904  0.1425 -0.3392
  344MPD2    C3 5210   2.343   3.086  10.271  0.2652  0.0580 -0.4810
  344MPD2    C4 5211   2.273   3.060  10.152 -0.3715 -0.1805 -0.0992
  344MPD2    C5 5212   2.193   2.949  10.151  0.7710 -0.3146 -0.1085
  344MPD2     H 5213   2.361   3.021  10.484 -2.0343 -0.4801  0.2362
  344MPD2    H1 5214   2.292   3.120  10.064  1.4690 -0.9098 -0.1851
  344MPD2    H2 5215   2.104   2.790  10.263 -0.7347  0.6414 -0.0898
  344MPD2    H3 5216   2.132   2.925  10.065  1.2077  0.7795 -0.7178
  344MPD2     N 5217   2.447   3.179  10.265 -0.4452  0.2334 -0.1064
  344MPD2    H5 5218   2.441   3.238  10.183  0.0591 -0.3189 -0.5286
  344MPD2    N1 5219   2.182   2.851  10.510  0.1303 -0.6126  0.2994
  344MPD2    H7 5220   2.243   2.865  10.590 -0.0113  2.7249 -0.1486
  345TMC3    C1 5221   2.613   3.315  10.343 -0.2679  0.6160  0.1125
  345TMC3    C2 5222   2.665   3.382  10.454 -0.6146  0.1691  0.0925
  345TMC3    C3 5223   2.713   3.509  10.429 -0.0746  0.0411 -0.3745
  345TMC3    C4 5224   2.618   3.368  10.216  0.8371 -0.0862 -0.3700
  345TMC3    C5 5225   2.674   3.491  10.198 -0.4083 -0.0621 -0.1333
  345TMC3    C6 5226   2.724   3.565  10.301  0.2976 -0.1250  0.3296
  345TMC3     C 5227   2.541   3.197  10.361  0.6632 -0.9640 -0.6776
  345TMC3     O 5228   2.556   3.139  10.467 -0.0379 -0.7251  0.3113
  345TMC3     H 5229   2.659   3.334  10.551  0.9052  2.5253  1.3529
  345TMC3    H1 5230   2.588   3.306  10.132 -0.1845 -2.9428  2.1081
  345TMC3    H2 5231   2.760   3.667  10.285  2.9119 -1.0572  0.2671
  345TMC3    C7 5232   2.653   3.572  10.073 -0.3187  0.9676 -0.6352
  345TMC3    C8 5233   2.694   3.603  10.539  0.1341 -0.3570  0.4819
  345TMC3    O1 5234   2.724   3.671  10.057  0.1920  0.1323  0.3232
  345TMC3    O2 5235   2.728   3.718  10.503 -0.3479  0.1276  0.3103
  346MPD2     C 5236   2.407   4.597  13.884  0.8389 -0.0698  0.1535
  346MPD2    C1 5237   2.494   4.700  13.888 -0.2953 -0.0636 -0.0550
  346MPD2    C2 5238   2.499   0.043  14.003  0.5793 -0.2714 -0.5734
  346MPD2    C3 5239   2.442   0.003  14.121 -0.5926 -0.6743 -0.2110
  346MPD2    C4 5240   2.359   4.629  14.115 -0.4876 -0.5957 -0.0298
  346MPD2    C5 5241   2.341   4.558  13.999  0.0011 -0.8519 -0.4321
  346MPD2     H 5242   2.557   0.134  13.988  2.2360 -1.2862 -0.3184
  346MPD2    H1 5243   2.292   4.606  14.197 -0.6297  0.4708  0.1440
  346MPD2    H2 5244   2.392   4.547  13.789  1.3858  1.2071 -0.6058
  346MPD2    H3 5245   2.281   4.468  13.992  1.4479 -1.8553 -0.0054
  346MPD2     N 5246   2.480   0.074  14.234  0.0615  0.1329  1.0935
  346MPD2    H5 5247   2.532   0.160  14.217  0.7966 -0.8197 -1.4160
  346MPD2    N1 5248   2.583   4.737  13.784  0.5382 -0.2228  0.3100
  346MPD2    H7 5249   2.620   0.091  13.802 -0.5157  0.2125  0.2663
  347TMC3    C1 5250   2.526   0.113  14.461  0.6001 -0.1973  0.1555
  347TMC3    C2 5251   2.636   0.192  14.433 -0.1179  0.5082  0.1991
  347TMC3    C3 5252   2.724   0.215  14.535 -0.5342 -0.1642 -0.2183
  347TMC3    C4 5253   2.503   0.076  14.589 -0.1439  0.8793  0.2119
  347TMC3    C5 5254   2.594   0.099  14.689  0.2469  0.1001 -0.4003
  347TMC3    C6 5255   2.716   0.156  14.652  0.3797  0.0439  0.0307
  347TMC3     C 5256   2.440   0.052  14.361 -0.8994  0.0494 -0.7023
  347TMC3     O 5257   2.345   4.727  14.397  0.1430 -0.4413 -0.2519
  347TMC3     H 5258   2.648   0.241  14.337  0.1914 -0.1285 -0.0857
  347TMC3    H1 5259   2.413   0.022  14.614  1.8463 -1.2336  2.8931
  347TMC3    H2 5260   2.803   0.148  14.717 -0.8252 -1.1566  1.4923
  347TMC3    C7 5261   2.559   0.051  14.824 -0.6525  0.2798 -0.0618
  347TMC3    C8 5262   2.854   0.268  14.497 -0.3358  0.2581 -0.2210
  347TMC3    O1 5263   2.464   4.715  14.832 -0.3953 -0.1387  0.1445
  347TMC3    O2 5264   2.890   0.244  14.384 -0.7989 -0.2433  0.3319
  348MPD2     C 5265   1.271   4.428  12.278  0.2227 -0.3698 -0.0408
  348MPD2    C1 5266   1.359   4.533  12.268  0.2944  0.0778 -0.6602
  348MPD2    C2 5267   1.342   4.617  12.162 -0.6674  0.1882 -0.3343
  348MPD2    C3 5268   1.245   4.608  12.072 -0.5506  0.0643  0.1242
  348MPD2    C4 5269   1.163   4.500  12.073 -0.8728  0.2509  0.8969
  348MPD2    C5 5270   1.167   4.414  12.185 -0.1737 -1.3763 -0.2143
  348MPD2     H 5271   1.398   4.710  12.168  1.5200 -1.1843  0.4168
  348MPD2    H1 5272   1.089   4.482  11.996  1.4244  0.2864 -1.3251
  348MPD2    H2 5273   1.271   4.364  12.365  2.4571  0.6483  0.7027
  348MPD2    H3 5274   1.100   4.330  12.199 -3.0416  0.7954 -0.7777
  348MPD2     N 5275   1.242   4.697  11.960  0.1439 -1.1102 -0.2328
  348MPD2    H5 5276   1.299   0.042  11.961 -3.0647  1.0666 -1.3041
  348MPD2    N1 5277   1.473   4.558  12.353 -0.3098 -0.0974 -0.0128
  348MPD2    H7 5278   1.537   4.634  12.336 -0.9453  0.2055 -1.0880
  349TMC3    C1 5279   1.662   4.502  12.462 -1.5617 -0.0059  0.1984
  349TMC3    C2 5280   1.696   4.380  12.514 -0.0231  0.4719  0.2065
  349TMC3    C3 5281   1.739   4.282  12.433 -1.0691  0.2412 -0.2856
  349TMC3    C4 5282   1.700   4.529  12.333 -0.2241 -0.3190  0.0871
  349TMC3    C5 5283   1.744   4.425  12.256 -0.5221 -0.2160 -0.8190
  349TMC3    C6 5284   1.756   4.297  12.303  1.3848  0.3084 -0.0887
  349TMC3     C 5285   1.517   4.483  12.456 -0.5144  0.1901 -0.1211
  349TMC3     O 5286   1.472   4.380  12.506  0.0602 -0.0885  0.2271
  349TMC3     H 5287   1.687   4.362  12.621 -3.6168 -0.3092 -0.2446
  349TMC3    H1 5288   1.700   4.630  12.295 -0.4212 -0.3381  0.0355
  349TMC3    H2 5289   1.788   4.213  12.242  0.0221  0.6356 -1.2438
  349TMC3    C7 5290   1.725   4.434  12.115 -0.5443  0.2942  0.0653
  349TMC3    C8 5291   1.730   4.137  12.469 -0.0009  0.1559  0.4045
  349TMC3    O1 5292   1.684   4.334  12.054 -0.1339  0.6996  0.6285
  349TMC3    O2 5293   1.784   4.053  12.397 -0.6002 -0.4361 -0.3973
  350MPD2     C 5294   0.607   3.112  10.388 -0.2043  0.1262 -0.2096
  350MPD2    C1 5295   0.519   3.010  10.403  0.5154 -0.4992 -0.0952
  350MPD2    C2 5296   0.495   2.950  10.529  0.2647 -0.1859 -0.3121
  350MPD2    C3 5297   0.550   3.010  10.643 -0.4360 -0.3906  0.2281
  350MPD2    C4 5298   0.636   3.115  10.627 -0.7954  0.5232 -0.3811
  350MPD2    C5 5299   0.668   3.159  10.502  0.2398  0.1772  0.7331
  350MPD2     H 5300   0.431   2.864  10.534  0.1913 -0.1359 -0.3962
  350MPD2    H1 5301   0.687   3.164  10.709 -0.6825 -0.5310  0.1801
  350MPD2    H2 5302   0.620   3.167  10.295 -0.7229  1.8492  0.7388
  350MPD2    H3 5303   0.735   3.244  10.499 -1.8544  1.7802 -0.0824
  350MPD2     N 5304   0.517   2.971  10.772 -0.4344  0.1220  0.9598
  350MPD2    H5 5305   0.450   2.895  10.777  1.0935 -1.3240 -0.3932
  350MPD2    N1 5306   0.467   2.940  10.287 -0.2901 -0.1463 -0.5604
  350MPD2    H7 5307   0.414   2.855  10.301  0.4454 -0.5371 -0.1458
  351TMC3    C1 5308   0.359   2.918  10.086  0.6753  0.3616 -0.1319
  351TMC3    C2 5309   0.405   2.792  10.054  0.7111 -0.5061 -0.5281
  351TMC3    C3 5310   0.325   2.717   9.979 -0.6907  0.7626  0.3386
  351TMC3    C4 5311   0.258   2.977  10.010  0.3384  0.1987 -0.1180
  351TMC3    C5 5312   0.180   2.893   9.939  0.7672 -0.1136 -0.3771
  351TMC3    C6 5313   0.212   2.759   9.922 -0.2724  1.2128 -0.2371
  351TMC3     C 5314   0.435   2.998  10.166  0.1605  0.2599  1.0339
  351TMC3     O 5315   0.450   3.114  10.133  0.4804  0.0192 -0.9704
  351TMC3     H 5316   0.482   2.743  10.112 -0.8056 -1.1753  0.9330
  351TMC3    H1 5317   0.218   3.076  10.027 -0.1353 -0.0155  0.0154
  351TMC3    H2 5318   0.151   2.694   9.861  0.7474  0.9840 -1.0033
  351TMC3    C7 5319   0.058   2.944   9.878  0.1433  0.5295  0.2366
  351TMC3    C8 5320   0.370   2.575   9.953 -0.2727 -0.6559 -0.1718
  351TMC3    O1 5321   0.020   3.055   9.919  0.0763 -0.5753  0.2781
  351TMC3    O2 5322   0.287   2.488   9.937  0.2394  0.7496 -0.3407
  352MPD2     C 5323   3.337   0.297   1.343  0.5109 -0.4135 -0.3463
  352MPD2    C1 5324   3.257   0.216   1.255  0.0886  0.3101 -0.8941
  352MPD2    C2 5325   3.297   0.084   1.234  0.2749 -0.0510 -0.4572
  352MPD2    C3 5326   3.407   0.030   1.297 -0.0505  0.1378  0.2054
  352MPD2    C4 5327   3.478   0.110   1.385  0.8673 -0.5222  0.4005
  352MPD2    C5 5328   3.445   0.244   1.406 -0.3246  0.1027 -0.2936
  352MPD2     H 5329   3.249   0.015   1.165 -2.0630  1.6132 -0.4968
  352MPD2    H1 5330   3.571   0.079   1.432 -0.3529 -2.4459  1.5099
  352MPD2    H2 5331   3.326   0.405   1.345  1.2426 -0.4025  3.1156
  352MPD2    H3 5332   3.504   0.303   1.476 -1.4146 -0.0325  0.7507
  352MPD2     N 5333   3.455   4.638   1.272  0.1844 -0.1638  0.0325
  352MPD2    H5 5334   3.539   4.613   1.322 -0.1100  0.0573  0.6360
  352MPD2    N1 5335   3.158   0.287   1.179  0.4216 -0.4422 -0.3768
  352MPD2    H7 5336   3.126   0.375   1.218 -0.3713 -1.6787  1.7833
  353TMC3    C1 5337   3.453   4.400   1.209  0.1030  0.6577  0.0844
  353TMC3    C2 5338   3.588   4.393   1.233 -0.6927 -0.7246  0.0094
  353TMC3    C3 5339   3.639   4.267   1.234  0.2368  0.2225  0.1537
  353TMC3    C4 5340   3.369   4.297   1.194  0.1137  0.1078 -0.0339
  353TMC3    C5 5341   3.425   4.171   1.212  0.8503  0.5168 -0.6418
  353TMC3    C6 5342   3.557   4.155   1.237 -0.3132 -0.2160  0.2427
  353TMC3     C 5343   3.383   4.533   1.211 -0.0318  0.1805  0.9962
  353TMC3     O 5344   3.269   4.537   1.167 -0.1701 -0.0794  0.4572
  353TMC3     H 5345   3.655   4.476   1.254 -1.8251  0.1154  0.3265
  353TMC3    H1 5346   3.266   4.305   1.163 -0.9500 -2.7960  2.6861
  353TMC3    H2 5347   3.592   4.053   1.253  0.6347  0.0093 -0.4272
  353TMC3    C7 5348   3.351   4.056   1.188  0.4302  0.2626 -0.4476
  353TMC3    C8 5349   3.785   4.250   1.217 -0.1196 -0.4908 -0.4501
  353TMC3    O1 5350   3.412   3.957   1.157 -0.4936  0.1738 -0.4311
  353TMC3    O2 5351   3.854   4.346   1.246 -0.2544 -0.5186  0.1486
  354TMC3    C1 5352   0.322   0.751  13.292 -0.3238  0.4250 -0.1650
  354TMC3    C2 5353   0.324   0.884  13.308  0.8683 -0.0673 -0.3889
  354TMC3    C3 5354   0.336   0.962  13.202  0.1367  0.2566 -0.4731
  354TMC3    C4 5355   0.372   0.691  13.183  0.7159  0.4985  0.5515
  354TMC3    C5 5356   0.387   0.768  13.069 -0.1600 -0.1541 -0.3616
  354TMC3    C6 5357   0.377   0.906  13.079 -0.6218  0.1229  0.5240
  354TMC3     C 5358   0.286   0.666  13.409 -0.0935  0.4032 -0.4089
  354TMC3     O 5359   0.218   0.720  13.495 -0.0379 -0.7824 -0.6561
  354TMC3     H 5360   0.284   0.919  13.403  3.8914  1.1055  0.4351
  354TMC3    H1 5361   0.344   0.586  13.177  1.2213  0.5278 -2.6299
  354TMC3    H2 5362   0.394   0.964  12.989  0.1749 -0.8708  0.0393
  354TMC3    C7 5363   0.421   0.693  12.947 -0.4483 -0.6715 -0.5826
  354TMC3    C8 5364   0.299   1.102  13.222  0.6141  0.0724 -0.1432
  354TMC3    O1 5365   0.447   0.577  12.965 -0.2541  0.2133 -0.0813
  354TMC3    O2 5366   0.266   1.133  13.335 -0.0359 -0.7717  0.0221
  355MPD2     C 5367   0.588   1.550  11.614  0.6577  0.3611  0.0866
  355MPD2    C1 5368   0.721   1.562  11.589 -0.2166 -0.3180  0.1574
  355MPD2    C2 5369   0.810   1.522  11.687  0.2553 -0.8598  0.0882
  355MPD2    C3 5370   0.763   1.469  11.806  0.2047 -0.2181  1.2831
  355MPD2    C4 5371   0.631   1.451  11.826 -0.4730 -0.3098  0.0493
  355MPD2    C5 5372   0.546   1.484  11.725 -0.3919  0.1360  0.6387
  355MPD2     H 5373   0.914   1.550  11.677  0.5190 -1.4591  1.1022
  355MPD2    H1 5374   0.589   1.413  11.919 -3.1951  0.8438 -0.7102
  355MPD2    H2 5375   0.519   1.585  11.539  0.9955 -0.7024 -0.7176
  355MPD2    H3 5376   0.439   1.470  11.738 -0.2802  0.4566  2.0037
  355MPD2     N 5377   0.857   1.448  11.904  0.6540  0.3731 -0.4827
  355MPD2    H5 5378   0.952   1.461  11.870 -0.3113 -0.3861 -3.4945
  355MPD2    N1 5379   0.772   1.634  11.473 -0.3252  0.4884  0.8082
  355MPD2    H7 5380   0.702   1.692  11.429 -0.2871  1.5814  2.1914
  356TMC3    C1 5381   0.951   1.490  12.109  0.5672 -0.2624  0.7407
  356TMC3    C2 5382   1.059   1.502  12.033 -0.9545 -0.4967  0.3033
  356TMC3    C3 5383   1.108   1.624  12.004  0.7107  0.3700  0.3428
  356TMC3    C4 5384   0.903   1.591  12.192 -0.4351  0.7203  0.1241
  356TMC3    C5 5385   0.969   1.709  12.183  0.0013  0.1125  0.1792
  356TMC3    C6 5386   1.060   1.731  12.078  0.8346  0.5261  0.0028
  356TMC3     C 5387   0.834   1.437  12.038  0.1327  0.2706 -0.2862
  356TMC3     O 5388   0.729   1.451  12.098 -0.6714  0.0594  0.4925
  356TMC3     H 5389   1.085   1.416  11.972 -0.0128 -1.1717  1.6572
  356TMC3    H1 5390   0.821   1.580  12.262 -1.0789  1.6385 -0.4799
  356TMC3    H2 5391   1.083   1.832  12.047  1.7971  1.1909  2.8043
  356TMC3    C7 5392   0.945   1.811  12.289 -0.0692  0.4945 -0.3162
  356TMC3    C8 5393   1.136   1.651  11.866 -0.8981 -0.2564 -0.5686
  356TMC3    O1 5394   0.868   1.786  12.384  0.1597 -0.3435 -0.3118
  356TMC3    O2 5395   1.123   1.559  11.790 -0.6280 -0.4604  0.6048
  357MPD2     C 5396   4.340   1.371   0.774 -0.6248 -0.1681  0.7011
  357MPD2    C1 5397   4.411   1.256   0.799 -0.7916  0.1454  0.0071
  357MPD2    C2 5398   4.367   1.153   0.875  0.4049 -0.0587 -0.7977
  357MPD2    C3 5399   4.240   1.160   0.926 -0.0464 -0.4818  1.3084
  357MPD2    C4 5400   4.169   1.279   0.907 -0.5001 -0.0499  0.1941
  357MPD2    C5 5401   4.219   1.384   0.831 -0.5579  0.3241 -0.0157
  357MPD2     H 5402   4.434   1.070   0.895  0.6576  0.2451 -0.3650
  357MPD2    H1 5403   4.071   1.295   0.951  0.8538  1.2183  2.7601
  357MPD2    H2 5404   4.381   1.455   0.719 -0.1925 -0.4927  0.5346
  357MPD2    H3 5405   4.152   1.469   0.828 -2.1966 -1.0198 -1.0211
  357MPD2     N 5406   4.180   1.050   1.002 -0.0446  0.3918 -0.3601
  357MPD2    H5 5407   4.087   1.075   1.034 -0.0341 -0.3128  0.2288
  357MPD2    N1 5408   4.543   1.262   0.749 -0.2043 -0.0567  0.1865
  357MPD2    H7 5409   4.573   1.358   0.731 -1.9902  0.5750  0.5652
  358TMC3    C1 5410   0.010   1.209   0.659  0.7563 -0.0873 -0.0579
  358TMC3    C2 5411   0.060   1.127   0.561  0.6399 -0.3267  0.0870
  358TMC3    C3 5412   0.153   1.181   0.475 -0.4444 -0.5473  0.2724
  358TMC3    C4 5413   0.059   1.336   0.673 -0.4732  0.6019  0.8218
  358TMC3    C5 5414   0.143   1.385   0.581  0.1861 -0.1861  0.2530
  358TMC3    C6 5415   0.196   1.310   0.484 -0.3723  0.6796 -0.8337
  358TMC3     C 5416   4.629   1.161   0.720  0.3888 -0.0184 -0.4146
  358TMC3     O 5417   4.624   1.040   0.746  0.0516  0.3485  0.0482
  358TMC3     H 5418   0.005   1.039   0.529  0.0398 -0.3535  1.2122
  358TMC3    H1 5419   0.029   1.396   0.757 -0.0808  1.1015  0.6001
  358TMC3    H2 5420   0.266   1.350   0.412 -0.6485  1.4915 -0.6523
  358TMC3    C7 5421   0.195   1.520   0.613 -0.2168 -0.3211  0.7506
  358TMC3    C8 5422   0.193   1.107   0.360 -0.5084  0.3552  1.2827
  358TMC3    O1 5423   0.184   1.575   0.721  0.0651 -0.2447  0.3587
  358TMC3    O2 5424   0.248   1.176   0.279  0.1099 -0.4138 -0.1741
  359MPD2     C 5425   1.566   0.546  12.469 -0.8969  0.3913  0.9429
  359MPD2    C1 5426   1.477   0.528  12.372  0.2718 -0.0731 -1.0347
  359MPD2    C2 5427   1.368   0.437  12.382 -0.1174 -0.7607  0.1143
  359MPD2    C3 5428   1.372   0.349  12.487  0.5188  0.5793 -0.5261
  359MPD2    C4 5429   1.459   0.367  12.590 -0.0511 -0.1509  0.0818
  359MPD2    C5 5430   1.556   0.472  12.586 -0.0646 -0.7344  0.4224
  359MPD2     H 5431   1.291   0.434  12.305 -0.9057  0.9935  0.8222
  359MPD2    H1 5432   1.455   0.300  12.675  0.8800 -0.4662 -0.1163
  359MPD2    H2 5433   1.645   0.620  12.476 -0.2621 -0.1915 -0.0341
  359MPD2    H3 5434   1.630   0.487  12.664  0.2354  3.8650 -0.7298
  359MPD2     N 5435   1.291   0.232  12.495  0.1347 -0.1066 -0.1930
  359MPD2    H5 5436   1.323   0.169  12.568  0.1106 -0.2467 -0.3040
  359MPD2    N1 5437   1.496   0.599  12.252  0.3939 -1.0850  0.0687
  359MPD2    H7 5438   1.567   0.671  12.248 -1.2179  0.4612 -0.7945
  360TMC3    C1 5439   1.469   0.686  12.047 -0.3164 -0.7421 -0.4100
  360TMC3    C2 5440   1.597   0.679  12.000  0.3354  0.8963 -0.0706
  360TMC3    C3 5441   1.605   0.707  11.863  0.0675  0.7069  0.1753
  360TMC3    C4 5442   1.362   0.719  11.975 -0.1307  0.3572  0.2718
  360TMC3    C5 5443   1.376   0.732  11.844  0.1099  0.2896  0.3342
  360TMC3    C6 5444   1.500   0.744  11.783  1.1116 -0.2471 -0.1088
  360TMC3     C 5445   1.426   0.585  12.135  0.8306 -0.2482 -0.3192
  360TMC3     O 5446   1.328   0.515  12.106  0.2269 -0.1146 -0.1641
  360TMC3     H 5447   1.671   0.619  12.052 -0.6608 -1.4633 -1.3680
  360TMC3    H1 5448   1.266   0.722  12.027  0.1050 -0.7087  0.7623
  360TMC3    H2 5449   1.503   0.753  11.675 -0.2680  0.3264 -0.0962
  360TMC3    C7 5450   1.275   0.662  11.763  0.3654  0.4490  0.0897
  360TMC3    C8 5451   1.737   0.691  11.810 -0.2478 -0.2588  0.0212
  360TMC3    O1 5452   1.279   0.666  11.640  0.0803 -0.1452 -0.3818
  360TMC3    O2 5453   1.812   0.604  11.857  0.2520  0.8864  0.2501
  361MPD2     C 5454   2.615   4.193  16.669 -0.4097 -0.5373 -0.4233
  361MPD2    C1 5455   2.600   4.222  16.804  0.1251 -0.4897  0.6000
  361MPD2    C2 5456   2.647   4.123  16.897  0.4166 -0.1833  0.4993
  361MPD2    C3 5457   2.718   4.008  16.855  0.7074  0.3525  0.0405
  361MPD2    C4 5458   2.719   3.975  16.721 -0.0324 -0.7035  0.7125
  361MPD2    C5 5459   2.674   4.071  16.625 -0.3923 -0.0445 -0.3308
  361MPD2     H 5460   2.634   4.135  17.003  1.0670 -1.3234  0.7075
  361MPD2    H1 5461   2.764   3.880  16.694  4.4551  1.9275 -0.8684
  361MPD2    H2 5462   2.576   4.266  16.599  0.1839  0.2889  0.1107
  361MPD2    H3 5463   2.685   4.070  16.517 -3.1198 -1.5277 -0.5996
  361MPD2     N 5464   2.771   3.905  16.944 -0.0079  0.2624 -0.6066
  361MPD2    H5 5465   2.831   3.834  16.903  2.5633  1.2880  1.4001
  361MPD2    N1 5466   2.533   4.333  16.859 -0.0755  0.2372 -0.1042
  361MPD2    H7 5467   2.534   4.342  16.960 -1.9225 -1.3140  0.0615
  362TMC3    C1 5468   2.413   4.536  16.856  0.3552  0.5061 -0.2762
  362TMC3    C2 5469   2.351   4.514  16.977 -0.0809 -0.9082  0.2033
  362TMC3    C3 5470   2.248   4.590  17.008 -0.1122  0.0067 -0.6642
  362TMC3    C4 5471   2.384   4.644  16.775 -0.0216  0.1636 -0.7855
  362TMC3    C5 5472   2.273   4.713  16.811  0.0267 -0.2791 -0.1546
  362TMC3    C6 5473   2.202   4.693  16.927 -0.3689  0.4098  0.2484
  362TMC3     C 5474   2.482   4.435  16.784  0.3559  0.1830  0.6716
  362TMC3     O 5475   2.506   4.457  16.667  0.3245 -0.1871 -0.5347
  362TMC3     H 5476   2.374   4.429  17.040 -1.7196 -1.9574 -0.5864
  362TMC3    H1 5477   2.439   4.664  16.684  0.7550 -1.6705 -0.7206
  362TMC3    H2 5478   2.118   0.015  16.957 -0.5715  0.4360 -0.3753
  362TMC3    C7 5479   2.209   0.041  16.702 -0.5401 -0.5655  0.2682
  362TMC3    C8 5480   2.172   4.559  17.132  0.3749  0.4403  0.0364
  362TMC3    O1 5481   2.284   0.083  16.614  0.2923 -0.1793  0.0902
  362TMC3    O2 5482   2.209   4.474  17.212  0.6348 -0.4181  0.1294
  363TMC3    C1 5483   0.469   1.201   9.175 -0.1790 -0.3707 -0.3721
  363TMC3    C2 5484   0.584   1.132   9.213 -0.0300  0.1342 -0.2567
  363TMC3    C3 5485   0.676   1.199   9.291 -1.0531 -0.1460 -0.0692
  363TMC3    C4 5486   0.446   1.331   9.220 -0.1859 -0.5823 -0.5007
  363TMC3    C5 5487   0.541   1.389   9.301  0.6137  0.0276  0.4184
  363TMC3    C6 5488   0.647   1.322   9.354 -0.3906 -0.1253 -0.7354
  363TMC3     C 5489   0.376   1.133   9.089 -0.7483  0.1068 -0.0651
  363TMC3     O 5490   0.388   1.014   9.077  0.3120 -0.0809  0.2696
  363TMC3     H 5491   0.615   1.046   9.154 -1.5547 -0.6587  0.0952
  363TMC3    H1 5492   0.351   1.376   9.194 -0.4492 -1.5065 -1.1568
  363TMC3    H2 5493   0.711   1.360   9.432  0.3858  1.1894 -1.9971
  363TMC3    C7 5494   0.522   1.535   9.336 -1.2341  1.1756  0.2915
  363TMC3    C8 5495   0.792   1.120   9.324 -0.4503  0.5207 -0.5769
  363TMC3    O1 5496   0.412   1.581   9.318  0.2663 -0.7736 -0.6650
  363TMC3    O2 5497   0.770   1.000   9.326 -1.0660 -0.2356  0.6403
  364MPD2     C 5498   4.629   1.811  10.922 -0.0764 -0.4596 -0.9065
  364MPD2    C1 5499   0.006   1.863  10.869 -0.0360  1.1985 -0.8672
  364MPD2    C2 5500   0.119   1.781  10.859  0.5897 -0.0927 -0.0635
  364MPD2    C3 5501   0.117   1.646  10.892  0.1772  0.1886 -0.0169
  364MPD2    C4 5502   4.738   1.602  10.940  0.2751 -0.2493  0.1797
  364MPD2    C5 5503   4.627   1.681  10.957 -0.7331  0.1553  0.7365
  364MPD2     H 5504   0.213   1.825  10.828  1.7880 -1.6024  1.4246
  364MPD2    H1 5505   4.730   1.495  10.958 -0.2772 -0.5493 -1.8937
  364MPD2    H2 5506   4.544   1.875  10.939 -1.3088 -2.5690  0.8044
  364MPD2    H3 5507   4.538   1.638  11.002 -1.8989  0.7025 -1.0525
  364MPD2     N 5508   0.218   1.546  10.862  0.3804 -0.2206  0.3494
  364MPD2    H5 5509   0.189   1.450  10.878 -0.4167 -0.4151 -2.1305
  364MPD2    N1 5510   0.004   2.003  10.838  0.0900 -0.0994  0.0902
  364MPD2    H7 5511   4.653   2.048  10.835 -1.0797 -2.4200  0.3994
  365TMC3    C1 5512   0.091   2.203  10.745  0.5156  0.4237  0.7199
  365TMC3    C2 5513   0.203   2.284  10.735  0.3482 -0.0226  0.3385
  365TMC3    C3 5514   0.180   2.404  10.673 -0.7335  0.9321  0.0910
  365TMC3    C4 5515   4.701   2.240  10.723  0.2440  0.0941 -0.5477
  365TMC3    C5 5516   4.687   2.368  10.675 -0.1343 -0.6315  0.0809
  365TMC3    C6 5517   0.056   2.454  10.659 -0.0987 -0.3578 -0.2165
  365TMC3     C 5518   0.115   2.068  10.797 -0.0207  0.1917 -0.2280
  365TMC3     O 5519   0.228   2.036  10.796 -0.2734  0.1409  0.6238
  365TMC3     H 5520   0.303   2.252  10.761  0.0288 -2.3802 -1.3199
  365TMC3    H1 5521   4.613   2.179  10.740  0.8720 -0.3419  1.1443
  365TMC3    H2 5522   0.035   2.550  10.614 -2.3080  1.0824  3.9142
  365TMC3    C7 5523   4.561   2.416  10.628  0.4250 -0.1053  0.3689
  365TMC3    C8 5524   0.260   2.417  10.559 -0.2592  0.3773  0.5572
  365TMC3    O1 5525   4.552   2.536  10.614  0.3093 -0.3339  0.1005
  365TMC3    O2 5526   0.270   2.522  10.504 -0.1101 -0.4355  0.4858
  366MPD2     C 5527   2.979   1.836  15.331  0.0590 -0.3087  0.8757
  366MPD2    C1 5528   2.996   1.969  15.355 -0.0952  0.4856  0.8697
  366MPD2    C2 5529   3.094   2.032  15.283  1.2934 -0.5136 -0.6604
  366MPD2    C3 5530   3.174   1.971  15.192  0.3292 -0.3937  0.4283
  366MPD2    C4 5531   3.138   1.838  15.154 -0.8047  0.2638  0.2459
  366MPD2    C5 5532   3.053   1.776  15.234 -0.0072 -0.1572 -0.7837
  366MPD2     H 5533   3.107   2.140  15.284  0.2217 -0.3937  0.4184
  366MPD2    H1 5534   3.197   1.769  15.096 -0.2695 -0.2976  1.4574
  366MPD2    H2 5535   2.914   1.771  15.388 -3.4254  0.0885 -2.6891
  366MPD2    H3 5536   3.036   1.671  15.213  0.2770 -0.4961  0.6964
  366MPD2     N 5537   3.273   2.044  15.125  0.5142 -0.6385  0.5597
  366MPD2    H5 5538   3.301   2.135  15.160 -0.4015  0.4897 -1.7058
  366MPD2    N1 5539   2.924   2.020  15.467  0.5637  0.0286 -0.2717
  366MPD2    H7 5540   2.878   1.954  15.529 -0.2029  0.3038 -0.5427
  367TMC3    C1 5541   2.912   2.257  15.412  0.0812 -0.2848  0.0581
  367TMC3    C2 5542   3.009   2.350  15.419 -0.3934  0.3228  0.3357
  367TMC3    C3 5543   3.022   2.439  15.314  0.0118  0.3739 -0.3760
  367TMC3    C4 5544   2.839   2.237  15.298  0.1920 -0.0683 -0.0314
  367TMC3    C5 5545   2.844   2.339  15.206 -0.3212 -0.3293  0.2600
  367TMC3    C6 5546   2.938   2.440  15.208  1.1906  0.6736  0.0661
  367TMC3     C 5547   2.928   2.151  15.508 -0.6885 -0.1852 -0.2643
  367TMC3     O 5548   2.918   2.189  15.623  0.3436 -0.2675 -0.1037
  367TMC3     H 5549   3.078   2.340  15.502  2.1362 -1.3250 -1.9537
  367TMC3    H1 5550   2.760   2.163  15.299  2.3530 -2.3746  0.2595
  367TMC3    H2 5551   2.947   2.504  15.121  1.6070 -0.4774 -0.7519
  367TMC3    C7 5552   2.721   2.390  15.154 -0.0794  0.0049 -0.3199
  367TMC3    C8 5553   3.104   2.552  15.338 -0.0551  0.3247 -0.0536
  367TMC3    O1 5554   2.739   2.494  15.095 -0.0547  0.3903 -0.6828
  367TMC3    O2 5555   3.208   2.532  15.397 -0.4412  0.4792  0.2048
  368MPD2     C 5556   4.382   4.322  13.388  0.1420  0.6732  0.1709
  368MPD2    C1 5557   4.398   4.443  13.315 -0.3428 -0.1822  0.0413
  368MPD2    C2 5558   4.519   4.473  13.256 -0.2205  0.1546  0.1649
  368MPD2    C3 5559   4.633   4.392  13.281  0.4757  0.3420 -0.1851
  368MPD2    C4 5560   4.617   4.273  13.353 -0.0119  0.2710  1.1195
  368MPD2    C5 5561   4.492   4.241  13.404  0.3421 -0.0119 -0.3447
  368MPD2     H 5562   4.526   4.561  13.195 -0.2197 -0.2594 -0.4307
  368MPD2    H1 5563   4.694   4.199  13.372  0.9233  1.1055  0.5784
  368MPD2    H2 5564   4.290   4.290  13.435  1.0625  0.8287  2.0557
  368MPD2    H3 5565   4.477   4.148  13.458 -0.3944 -0.3364 -1.0952
  368MPD2     N 5566   0.015   4.406  13.209  0.0405  0.0871  0.3735
  368MPD2    H5 5567   0.089   4.341  13.233 -0.8467 -0.3538  1.9573
  368MPD2    N1 5568   4.280   4.523  13.286  0.7223  0.0258  0.3070
  368MPD2    H7 5569   4.194   4.479  13.319  1.7998 -2.3751 -0.0863
  369TMC3    C1 5570   4.147   4.695  13.210  0.6531  0.0331  0.5556
  369TMC3    C2 5571   4.129   0.080  13.154  0.8495  0.2491  0.6125
  369TMC3    C3 5572   4.002   0.119  13.101 -0.1714  0.3196  0.1180
  369TMC3    C4 5573   4.047   4.607  13.202 -1.1142  0.0327 -0.5053
  369TMC3    C5 5574   3.927   4.637  13.145 -0.4928 -0.4388  0.1526
  369TMC3    C6 5575   3.902   0.024  13.097  0.6954  0.1447  0.6612
  369TMC3     C 5576   4.279   4.650  13.239  0.1547  0.1012  0.3351
  369TMC3     O 5577   4.366   4.737  13.233  0.3097 -0.2444 -0.0124
  369TMC3     H 5578   4.207   0.153  13.172  0.6599  0.6146 -0.0533
  369TMC3    H1 5579   4.050   4.509  13.248  0.7160  1.2035  1.8937
  369TMC3    H2 5580   3.800   0.050  13.073  0.9658 -0.7817 -1.4541
  369TMC3    C7 5581   3.821   4.540  13.151 -0.0637 -0.1407  0.1030
  369TMC3    C8 5582   4.002   0.239  13.016  1.1612 -0.3212  0.8833
  369TMC3    O1 5583   3.839   4.440  13.221  0.0021  0.4180 -0.5156
  369TMC3    O2 5584   3.906   0.245  12.941  0.7055  0.6632  0.1166
  370TMC3    C1 5585   3.628   0.581  16.300  0.2409  0.6756 -0.0430
  370TMC3    C2 5586   3.546   0.521  16.397  0.3869 -0.2880 -0.5592
  370TMC3    C3 5587   3.444   0.437  16.361 -0.1975 -0.3736 -0.4027
  370TMC3    C4 5588   3.624   0.551  16.167  0.1810  0.4407 -0.1730
  370TMC3    C5 5589   3.533   0.446  16.142 -0.5355  0.3438  0.3150
  370TMC3    C6 5590   3.456   0.384  16.235 -0.0312 -0.2660  0.2066
  370TMC3     C 5591   3.755   0.631  16.344  0.1000 -0.2645 -0.2263
  370TMC3     O 5592   3.795   0.616  16.459 -0.2692 -0.1116 -0.2982
  370TMC3     H 5593   3.549   0.556  16.499 -1.2052 -0.3447 -0.5030
  370TMC3    H1 5594   3.701   0.579  16.096  1.8100  0.0778  1.4762
  370TMC3    H2 5595   3.393   0.299  16.210  1.7021 -1.9846  1.6536
  370TMC3    C7 5596   3.545   0.393  16.007 -0.6821  0.4535 -0.3029
  370TMC3    C8 5597   3.377   0.348  16.460  0.6451  0.6678  0.0587
  370TMC3    O1 5598   3.544   0.485  15.921  0.6333 -0.4668  0.7705
  370TMC3    O2 5599   3.322   0.243  16.428 -0.0464  0.3439  0.6200
  371TMC3    C1 5600   4.617   3.350  15.455 -0.2198 -0.6755 -0.6912
  371TMC3    C2 5601   4.505   3.326  15.541  0.2533 -0.3662 -0.4290
  371TMC3    C3 5602   4.461   3.425  15.626  0.4895  0.9219  0.9170
  371TMC3    C4 5603   4.686   3.464  15.463 -0.1512 -0.5513 -0.2621
  371TMC3    C5 5604   4.644   3.551  15.553 -0.1822  0.0823 -0.5578
  371TMC3    C6 5605   4.536   3.540  15.634 -0.4210 -0.3220 -0.1999
  371TMC3     C 5606   4.670   3.250  15.361 -0.1457 -0.5463  0.1111
  371TMC3     O 5607   4.737   3.280  15.264 -0.1887  0.0134 -0.1031
  371TMC3     H 5608   4.461   3.227  15.529 -0.6456  0.0330 -0.4427
  371TMC3    H1 5609   0.031   3.475  15.395  0.2125  0.7625  0.3945
  371TMC3    H2 5610   4.518   3.627  15.696 -0.4323 -0.7736  0.4301
  371TMC3    C7 5611   4.713   3.675  15.572  0.4921  0.3739  0.3436
  371TMC3    C8 5612   4.318   3.449  15.634  0.8824  0.8930  0.5824
  371TMC3    O1 5613   4.717   3.732  15.677  0.3747 -0.5742 -0.0089
  371TMC3    O2 5614   4.255   3.369  15.566  0.8455  0.3078 -0.0040
  372MPD2     C 5615   4.220   4.436  13.795  0.8371  0.0562 -0.3535
  372MPD2    C1 5616   4.321   4.345  13.763  0.1661  0.2446 -0.0567
  372MPD2    C2 5617   4.276   4.213  13.764 -0.5267 -0.3135  0.6163
  372MPD2    C3 5618   4.154   4.167  13.807  0.2459 -0.2105 -0.2578
  372MPD2    C4 5619   4.057   4.264  13.836  0.3722  0.8878  0.0089
  372MPD2    C5 5620   4.095   4.396  13.825  0.4808  0.0586 -0.5635
  372MPD2     H 5621   4.355   4.143  13.737  1.3324  0.9226  2.8402
  372MPD2    H1 5622   3.952   4.245  13.854  0.1307 -0.5293 -2.8271
  372MPD2    H2 5623   4.237   4.543  13.797 -1.1988  0.3588  0.8295
  372MPD2    H3 5624   4.030   4.482  13.836 -0.6806 -1.0445  1.0038
  372MPD2     N 5625   4.124   4.028  13.802 -0.9447  0.3224  0.4970
  372MPD2    H5 5626   4.200   3.963  13.786 -1.8482 -0.5294 -0.3534
  372MPD2    N1 5627   4.456   4.376  13.727 -0.0932 -0.7519  0.3509
  372MPD2    H7 5628   4.517   4.298  13.705  0.6676 -0.2547  0.6690
  373TMC3    C1 5629   4.017   3.825  13.825 -1.3488  0.6360  0.0241
  373TMC3    C2 5630   3.919   3.763  13.893 -0.4245 -0.7653 -0.8562
  373TMC3    C3 5631   3.936   3.629  13.916 -0.5270 -0.8362  0.1406
  373TMC3    C4 5632   4.122   3.760  13.771 -0.5788 -0.5630  0.0230
  373TMC3    C5 5633   4.127   3.623  13.780 -0.2312  0.4002  0.0918
  373TMC3    C6 5634   4.033   3.554  13.857  0.1938  0.1705  0.7385
  373TMC3     C 5635   4.004   3.973  13.836  0.1680  0.1095 -0.5068
  373TMC3     O 5636   3.898   4.024  13.864  0.1376 -0.2846  0.3311
  373TMC3     H 5637   3.838   3.819  13.938  1.1322  1.8319 -1.3222
  373TMC3    H1 5638   4.198   3.806  13.709 -2.3832 -0.5676 -2.2095
  373TMC3    H2 5639   4.029   3.448  13.880  3.5764 -0.4771 -1.7036
  373TMC3    C7 5640   4.235   3.558  13.712  0.4741 -0.5002 -0.1281
  373TMC3    C8 5641   3.844   3.574  14.011 -0.7286 -0.6275  0.2875
  373TMC3    O1 5642   4.308   3.626  13.640 -0.2813  0.3048  0.2744
  373TMC3    O2 5643   3.775   3.483  13.972  0.0650 -0.8400 -0.5176
  374TMC3    C1 5644   0.106   0.238  10.094 -0.4606  0.4609  0.1606
  374TMC3    C2 5645   0.210   0.165  10.045 -0.2758  0.5418  0.3999
  374TMC3    C3 5646   0.193   0.039   9.996  0.2977 -0.2008  0.0606
  374TMC3    C4 5647   4.714   0.196  10.080  0.1765  0.4599  0.9957
  374TMC3    C5 5648   4.700   0.078  10.009 -0.4276 -0.2695 -0.4503
  374TMC3    C6 5649   0.066   4.736   9.973  0.2211  0.1310 -0.7711
  374TMC3     C 5650   0.138   0.379  10.118 -0.0671  0.6004  0.9351
  374TMC3     O 5651   0.243   0.420  10.071 -0.0899  0.5543 -0.6082
  374TMC3     H 5652   0.308   0.208  10.061 -0.5523  1.5327 -0.5245
  374TMC3    H1 5653   4.633   0.265  10.098 -0.2695  0.3765 -0.7287
  374TMC3    H2 5654   0.054   4.636   9.931 -0.8870 -0.1198  0.1579
  374TMC3    C7 5655   4.564   0.027   9.992  0.7055  0.4644 -0.4569
  374TMC3    C8 5656   0.305   4.695   9.965  0.1528  0.0753 -0.1787
  374TMC3    O1 5657   4.474   0.108  10.013  0.3837 -0.4032 -0.7936
  374TMC3    O2 5658   0.282   4.588   9.912 -0.9560  0.2167  0.8181
  375MPD2     C 5659   0.226   0.539  17.423  0.9769  0.1023 -0.3088
  375MPD2    C1 5660   0.192   0.600  17.303 -0.1599  0.0404  0.0551
  375MPD2    C2 5661   0.268   0.571  17.193  0.5683 -0.4601 -0.1981
  375MPD2    C3 5662   0.370   0.474  17.188 -0.0432  0.2741  0.2822
  375MPD2    C4 5663   0.395   0.405  17.303  0.3257 -0.0956  0.1810
  375MPD2    C5 5664   0.331   0.448  17.419  0.1254 -0.1829 -0.3765
  375MPD2     H 5665   0.244   0.632  17.107  3.0913  2.5956  1.2730
  375MPD2    H1 5666   0.476   0.333  17.306  0.9116  0.5339 -0.3699
  375MPD2    H2 5667   0.181   0.555  17.520  1.5650 -0.3684  0.0395
  375MPD2    H3 5668   0.348   0.383  17.505  1.3644  0.3943 -0.1873
  375MPD2     N 5669   0.431   0.428  17.072 -0.5051 -0.2938  0.4058
  375MPD2    H5 5670   0.482   0.341  17.061  0.0312  0.0490  0.2234
  375MPD2    N1 5671   0.097   0.702  17.293  0.3299  0.3863 -0.6569
  375MPD2    H7 5672   0.076   0.736  17.200  1.0337  1.6373 -0.3571
  376TMC3    C1 5673   0.474   0.399  16.843  0.2366 -0.1129 -0.8645
  376TMC3    C2 5674   0.600   0.349  16.871 -0.7424 -0.5892  0.5838
  376TMC3    C3 5675   0.660   0.264  16.786  0.4547  0.6260  0.8653
  376TMC3    C4 5676   0.411   0.372  16.724  0.2243  0.3351 -0.4592
  376TMC3    C5 5677   0.476   0.288  16.633  0.1756  0.4928  0.3902
  376TMC3    C6 5678   0.593   0.230  16.669 -0.0171 -0.2530 -0.2686
  376TMC3     C 5679   0.407   0.479  16.948 -0.0043  0.3300 -0.0690
  376TMC3     O 5680   0.316   0.545  16.901  0.4582 -0.5531  0.2894
  376TMC3     H 5681   0.643   0.376  16.966  0.7618  1.0966 -0.5724
  376TMC3    H1 5682   0.320   0.428  16.704 -0.7467 -2.1556 -2.9404
  376TMC3    H2 5683   0.652   0.172  16.599 -0.3050  1.8697 -2.2572
  376TMC3    C7 5684   0.454   0.300  16.495  0.2988  0.9856 -0.7145
  376TMC3    C8 5685   0.793   0.308  16.749  0.2777  0.4197 -0.4050
  376TMC3    O1 5686   0.485   0.205  16.426 -0.6388 -0.3602 -0.5731
  376TMC3    O2 5687   0.805   0.346  16.635  0.1069 -0.5805 -0.1571
  377MPD2     C 5688   3.450   0.153  12.819  1.0442 -0.3058  0.5408
  377MPD2    C1 5689   3.364   0.164  12.709  0.6857 -0.1210 -0.2405
  377MPD2    C2 5690   3.229   0.159  12.727  0.0192  0.6775  0.2598
  377MPD2    C3 5691   3.172   0.127  12.850  0.0147 -0.5941  0.5506
  377MPD2    C4 5692   3.254   0.102  12.953  0.8203  0.6934  0.6766
  377MPD2    C5 5693   3.391   0.112  12.937 -0.1099  0.9834 -0.4120
  377MPD2     H 5694   3.169   0.159  12.637  2.2992 -1.2474 -1.2633
  377MPD2    H1 5695   3.216   0.040  13.033  2.2604 -0.4668  0.4583
  377MPD2    H2 5696   3.557   0.160  12.807  1.0692 -1.3693  0.1013
  377MPD2    H3 5697   3.455   0.092  13.022  1.0306  1.9930 -1.0416
  377MPD2     N 5698   3.031   0.100  12.866 -0.8252  0.0105  0.1994
  377MPD2    H5 5699   3.012   0.053  12.954 -1.2299  2.4124  1.3984
  377MPD2    N1 5700   3.429   0.154  12.590  0.0738 -0.2433  0.2273
  377MPD2    H7 5701   3.527   0.181  12.584  0.4482 -2.3098 -3.0820
  378TMC3    C1 5702   3.563   0.013  12.170  0.1174  0.2277 -0.0744
  378TMC3    C2 5703   3.460   0.050  12.252 -0.4117  0.1152 -0.2159
  378TMC3    C3 5704   3.481   0.051  12.389 -0.3126  0.5331  0.5586
  378TMC3    C4 5705   3.680   4.709  12.225 -0.4278  0.1009 -0.1973
  378TMC3    C5 5706   3.693   4.691  12.360 -0.4208  0.6838 -0.4161
  378TMC3    C6 5707   3.591   4.729  12.451 -0.7633  0.7236  0.1659
  378TMC3     C 5708   3.546   0.013  12.024  0.7158 -0.1935 -0.3588
  378TMC3     O 5709   3.434   0.049  11.988  0.0480  0.2593 -0.0943
  378TMC3     H 5710   3.376   0.104  12.211 -1.0649 -1.3429 -0.8068
  378TMC3    H1 5711   3.764   4.684  12.162 -0.0736 -0.1039  0.3614
  378TMC3    H2 5712   3.609   4.734  12.558 -2.5254  2.4284  0.4077
  378TMC3    C7 5713   3.826   4.654  12.417  0.2649 -0.1856 -0.7001
  378TMC3    C8 5714   3.380   0.104  12.474 -0.4702  0.3379  0.0763
  378TMC3    O1 5715   3.833   4.661  12.535  0.2535 -0.1355  0.0256
  378TMC3    O2 5716   3.265   0.106  12.431 -0.8051  0.3883  0.4999
  379MPD2     C 5717   3.772   3.130  16.021 -0.1297 -0.3482 -0.5132
  379MPD2    C1 5718   3.865   3.059  15.953  0.5620 -0.3867 -0.2170
  379MPD2    C2 5719   3.987   3.029  16.006 -0.0887 -0.7070  0.4138
  379MPD2    C3 5720   3.999   3.055  16.139 -0.3625  0.1010 -0.2573
  379MPD2    C4 5721   3.908   3.121  16.219 -0.1757 -0.4631  0.3921
  379MPD2    C5 5722   3.792   3.162  16.155 -0.3419 -0.4013 -0.5563
  379MPD2     H 5723   4.062   2.973  15.952 -0.2115  0.5754 -1.0674
  379MPD2    H1 5724   3.909   3.146  16.325 -1.0161  0.0554  0.2784
  379MPD2    H2 5725   3.684   3.170  15.972 -0.7377 -0.6961  0.2976
  379MPD2    H3 5726   3.708   3.211  16.202 -1.6711 -1.4821 -1.7782
  379MPD2     N 5727   4.121   3.004  16.199 -0.0062 -0.1237  0.6000
  379MPD2    H5 5728   4.195   2.966  16.140  0.5187  0.0165  1.1729
  379MPD2    N1 5729   3.836   3.029  15.815 -0.0532 -0.3679 -0.2175
  379MPD2    H7 5730   3.757   3.080  15.776 -2.1201 -1.7970  2.0936
  380TMC3    C1 5731   3.861   2.963  15.592  0.2700 -0.1394  0.0552
  380TMC3    C2 5732   3.924   2.879  15.501  0.5558 -0.2162 -0.0404
  380TMC3    C3 5733   3.867   2.863  15.378 -0.7795 -0.0335  0.7259
  380TMC3    C4 5734   3.739   3.021  15.567 -0.0156 -0.2246  0.5042
  380TMC3    C5 5735   3.684   3.001  15.444  0.0621 -0.1038 -0.2575
  380TMC3    C6 5736   3.747   2.931  15.346 -0.2852 -0.4848 -0.3361
  380TMC3     C 5737   3.908   2.953  15.730 -0.0081 -0.0228 -0.6382
  380TMC3     O 5738   3.995   2.873  15.752 -0.1345 -0.1947 -0.3610
  380TMC3     H 5739   4.017   2.827  15.522  1.4329  0.9441 -1.1004
  380TMC3    H1 5740   3.681   3.075  15.641 -0.7391 -0.2222 -0.0660
  380TMC3    H2 5741   3.696   2.914  15.252  1.6399 -1.4300 -1.2134
  380TMC3    C7 5742   3.541   3.024  15.433 -0.2470  0.2818  0.1247
  380TMC3    C8 5743   3.968   2.861  15.273 -0.1899  0.7518 -0.0052
  380TMC3    O1 5744   3.502   3.103  15.512  0.4352 -0.2480 -0.3128
  380TMC3    O2 5745   4.062   2.783  15.279  0.1681 -0.2752 -0.7555
  381TMC3    C1 5746   3.250   4.533  16.113 -1.0555 -1.0039  0.1614
  381TMC3    C2 5747   3.365   4.612  16.138  0.2126  0.3999 -0.7483
  381TMC3    C3 5748   3.381   4.651  16.267 -0.2623 -0.4154 -0.4194
  381TMC3    C4 5749   3.157   4.502  16.206 -0.3139  0.3918 -0.3075
  381TMC3    C5 5750   3.173   4.554  16.331 -0.8090 -0.3951  0.3491
  381TMC3    C6 5751   3.290   4.627  16.368  0.0356 -0.2576  0.1304
  381TMC3     C 5752   3.206   4.521  15.975  0.3396 -0.5191 -0.9540
  381TMC3     O 5753   3.084   4.511  15.959  0.4154 -0.2440 -0.0056
  381TMC3     H 5754   3.432   4.637  16.057 -2.2995  0.2069 -2.8798
  381TMC3    H1 5755   3.065   4.454  16.177  0.2642  0.3388 -2.0597
  381TMC3    H2 5756   3.303   4.642  16.475 -1.0366  0.4669  0.1554
  381TMC3    C7 5757   3.092   4.490  16.436 -0.6416  0.2659 -0.2153
  381TMC3    C8 5758   3.478   0.014  16.273 -0.6025  0.0535  1.0511
  381TMC3    O1 5759   3.017   4.397  16.403  0.4739 -0.0337 -0.3496
  381TMC3    O2 5760   3.503   0.064  16.165 -0.0831  0.0256 -0.0809
  382MPD2     C 5761   3.158   1.926  17.400  0.7560  0.5882  0.5273
  382MPD2    C1 5762   3.063   2.017  17.352 -0.2583  0.0138  0.3653
  382MPD2    C2 5763   2.931   1.980  17.354  0.3650  0.2523  0.1534
  382MPD2    C3 5764   2.888   1.856  17.394 -0.2388 -0.2192 -0.5233
  382MPD2    C4 5765   2.983   1.764  17.414  0.9123  0.4491 -0.5128
  382MPD2    C5 5766   3.121   1.799  17.422  0.7258  0.6465 -0.4197
  382MPD2     H 5767   2.849   2.049  17.335  0.7743  0.5790 -0.4351
  382MPD2    H1 5768   2.962   1.659  17.435  0.7245  0.4465 -0.7125
  382MPD2    H2 5769   3.261   1.958  17.414  0.3761  2.7431 -1.5391
  382MPD2    H3 5770   3.194   1.732  17.464  2.0414 -0.1088 -3.8948
  382MPD2     N 5771   2.748   1.817  17.400  0.1041  0.3600 -0.0961
  382MPD2    H5 5772   2.722   1.719  17.409  1.3603  0.0273 -0.1118
  382MPD2    N1 5773   3.085   2.150  17.307 -0.5287  0.9889  0.0601
  382MPD2    H7 5774   3.002   2.199  17.273 -0.3556  1.5754  0.4750
  383TMC3    C1 5775   2.517   1.844  17.428 -0.1946  0.2883  0.9993
  383TMC3    C2 5776   2.492   1.715  17.390 -0.4035 -0.8495 -0.5647
  383TMC3    C3 5777   2.368   1.671  17.418 -0.0209 -0.2016  0.0997
  383TMC3    C4 5778   2.424   1.934  17.479  0.0343  0.1935  0.3532
  383TMC3    C5 5779   2.305   1.879  17.512  0.2642 -0.3299  0.1456
  383TMC3    C6 5780   2.268   1.753  17.473 -0.3555 -0.0807  0.0822
  383TMC3     C 5781   2.648   1.901  17.419  0.4497  0.5443 -0.1819
  383TMC3     O 5782   2.658   2.020  17.440  0.5578  0.7927  0.3989
  383TMC3     H 5783   2.563   1.650  17.339 -0.2219 -0.2776 -1.0375
  383TMC3    H1 5784   2.440   2.041  17.481  2.0073 -0.0908 -0.0073
  383TMC3    H2 5785   2.174   1.715  17.510  0.1620 -2.2726 -0.8356
  383TMC3    C7 5786   2.203   1.961  17.574  0.7500  0.2296 -0.7900
  383TMC3    C8 5787   2.313   1.557  17.349 -0.0762  0.7871  0.6884
  383TMC3    O1 5788   2.090   1.912  17.580 -1.0488  0.0541  0.6116
  383TMC3    O2 5789   2.193   1.555  17.330 -0.3072 -0.7448 -0.3503
  384MPD2     C 5790   4.641   2.971  11.572  0.8002  0.0684  0.0383
  384MPD2    C1 5791   4.581   2.861  11.632  0.8183 -0.1422  0.7570
  384MPD2    C2 5792   4.583   2.733  11.568  0.4143 -0.1115 -0.5964
  384MPD2    C3 5793   4.649   2.725  11.452 -0.7736  0.3279  0.1268
  384MPD2    C4 5794   4.718   2.831  11.396  0.1156 -0.0414  0.0738
  384MPD2    C5 5795   4.706   2.951  11.458 -0.4633  0.6188  0.3058
  384MPD2     H 5796   4.540   2.646  11.616 -0.3113  0.4300 -0.2625
  384MPD2    H1 5797   0.042   2.822  11.308 -0.9500  1.1373 -0.8080
  384MPD2    H2 5798   4.644   3.067  11.623 -1.0074  0.5893 -0.8254
  384MPD2    H3 5799   0.016   3.042  11.427  0.9514  0.6835  2.6995
  384MPD2     N 5800   4.649   2.609  11.373  0.9792  0.1482 -0.7474
  384MPD2    H5 5801   4.698   2.606  11.284  1.0117 -1.5030 -0.6814
  384MPD2    N1 5802   4.548   2.884  11.771  0.1710  0.8673  0.2831
  384MPD2    H7 5803   4.603   2.952  11.823 -0.0657 -1.2438  3.3444
  385TMC3    C1 5804   4.666   2.381  11.341  0.2135 -0.9848  0.0923
  385TMC3    C2 5805   4.599   2.265  11.347 -0.0233  0.6407  0.5497
  385TMC3    C3 5806   4.671   2.145  11.352  0.5660  0.5443 -0.0398
  385TMC3    C4 5807   0.056   2.380  11.370  0.4444  0.5892  0.4450
  385TMC3    C5 5808   0.121   2.263  11.404 -0.1233  0.4142  0.5663
  385TMC3    C6 5809   0.063   2.140  11.383  0.3571  0.1145 -0.1512
  385TMC3     C 5810   4.603   2.486  11.413  0.0538 -0.3958  0.1342
  385TMC3     O 5811   4.545   2.449  11.516 -0.0137  0.1402  0.0260
  385TMC3     H 5812   4.493   2.265  11.325 -0.0557 -0.6260  0.6692
  385TMC3    H1 5813   0.100   2.480  11.371  1.6799  0.0474 -0.3334
  385TMC3    H2 5814   0.105   2.044  11.408 -0.1782 -0.6019 -2.0286
  385TMC3    C7 5815   0.197   2.260  11.528  0.2740  0.4811  0.3100
  385TMC3    C8 5816   4.604   2.029  11.301  0.5685  0.0389 -0.3220
  385TMC3    O1 5817   0.256   2.162  11.564  0.9719 -0.4129  0.2747
  385TMC3    O2 5818   4.673   1.926  11.311  0.8426  0.7163  0.2169
  386TMC3    C1 5819   4.622   0.013  11.603  0.5625 -0.2228  0.3529
  386TMC3    C2 5820   4.644   0.089  11.492 -0.1889 -0.1459 -0.0478
  386TMC3    C3 5821   4.555   0.192  11.468 -0.2248 -0.7261  0.0389
  386TMC3    C4 5822   4.513   0.034  11.685 -0.6402 -0.4505  0.1286
  386TMC3    C5 5823   4.426   0.138  11.661  0.4300 -0.0655  0.2844
  386TMC3    C6 5824   4.450   0.226  11.554 -0.5866  0.1487  0.6421
  386TMC3     C 5825   4.735   4.680  11.662  1.0843 -0.1966  0.0051
  386TMC3     O 5826   4.709   4.627  11.766  0.0722  0.4649  0.1620
  386TMC3     H 5827   4.714   0.062  11.414  0.4341 -1.2715  0.9142
  386TMC3    H1 5828   4.493   4.720  11.777  0.5009 -2.2290 -0.6730
  386TMC3    H2 5829   4.384   0.307  11.527 -2.0520 -1.0914  0.5181
  386TMC3    C7 5830   4.304   0.147  11.739 -0.4502 -0.8327  0.2910
  386TMC3    C8 5831   4.570   0.279  11.351  0.4473  0.8867 -0.2134
  386TMC3    O1 5832   4.312   0.115  11.859  0.9256  0.0153 -0.4547
  386TMC3    O2 5833   4.486   0.364  11.333  0.4747 -0.6222 -0.3602
  387MPD2     C 5834   2.369   0.207   9.446  0.4546  0.0251 -0.2559
  387MPD2    C1 5835   2.416   0.179   9.569  0.5824  0.3978 -0.3553
  387MPD2    C2 5836   2.400   0.050   9.619 -0.2018 -0.5146 -0.0023
  387MPD2    C3 5837   2.338   4.695   9.542 -0.0739 -0.1035 -0.3492
  387MPD2    C4 5838   2.297   4.724   9.411 -0.0776 -0.3318  0.0832
  387MPD2    C5 5839   2.316   0.113   9.368  0.1065  0.0673 -0.2257
  387MPD2     H 5840   2.443   0.020   9.714  0.5465 -0.1040 -0.2072
  387MPD2    H1 5841   2.247   4.648   9.354  1.4403 -1.7546  0.6241
  387MPD2    H2 5842   2.378   0.306   9.403 -1.7044  0.2183 -0.2427
  387MPD2    H3 5843   2.278   0.139   9.270  0.5620 -0.5268 -0.5588
  387MPD2     N 5844   2.332   4.571   9.597 -0.1149 -0.0827 -0.1002
  387MPD2    H5 5845   2.375   4.575   9.689  1.3098 -0.9542 -0.7309
  387MPD2    N1 5846   2.477   0.270   9.661  0.1559  0.2501 -0.2069
  387MPD2    H7 5847   2.510   0.224   9.746 -0.0362 -0.7528 -0.6688
  388TMC3    C1 5848   2.597   0.450   9.751  0.9288  0.1334 -0.1293
  388TMC3    C2 5849   2.564   0.567   9.808 -0.5005  0.5015 -0.4502
  388TMC3    C3 5850   2.620   0.606   9.923  0.3082 -0.4672  0.4119
  388TMC3    C4 5851   2.682   0.362   9.815  0.9800  0.5041  0.4378
  388TMC3    C5 5852   2.729   0.398   9.940  0.3660 -0.6851 -0.0655
  388TMC3    C6 5853   2.699   0.516   9.995 -0.4735 -0.4983  0.2322
  388TMC3     C 5854   2.500   0.403   9.650  0.3426  0.8296  0.3221
  388TMC3     O 5855   2.446   0.486   9.577  0.9107  0.3718 -0.3296
  388TMC3     H 5856   2.497   0.633   9.753 -2.3823 -0.8417  0.2283
  388TMC3    H1 5857   2.683   0.263   9.773  0.6259 -0.2350  2.1688
  388TMC3    H2 5858   2.722   0.531  10.100 -0.0685  0.6469 -0.0072
  388TMC3    C7 5859   2.765   0.289  10.039  0.3430  0.2633 -0.2414
  388TMC3    C8 5860   2.567   0.726   9.979 -1.0591 -0.1873 -0.2114
  388TMC3    O1 5861   2.763   0.314  10.158 -0.5316 -0.4325 -0.4282
  388TMC3    O2 5862   2.530   0.812   9.895  0.3081  0.1508  0.3857
  389MPD2     C 5863   1.681   3.307  10.813  0.3735 -0.4018 -0.2013
  389MPD2    C1 5864   1.571   3.219  10.802  0.2835  0.4008  0.4799
  389MPD2    C2 5865   1.533   3.137  10.911 -0.0724 -0.1369  0.4431
  389MPD2    C3 5866   1.614   3.138  11.021 -0.3869 -0.3469  0.2126
  389MPD2    C4 5867   1.716   3.228  11.033  0.2461  0.4869  0.6438
  389MPD2    C5 5868   1.748   3.313  10.931 -0.2512 -0.0763 -0.6865
  389MPD2     H 5869   1.456   3.062  10.898 -1.4694  1.3437  0.2398
  389MPD2    H1 5870   1.765   3.224  11.129  1.4888 -5.4514 -0.1933
  389MPD2    H2 5871   1.706   3.376  10.734 -0.6925  0.2675  0.0466
  389MPD2    H3 5872   1.832   3.379  10.947  1.0743 -2.2148  1.1171
  389MPD2     N 5873   1.588   3.055  11.128 -0.5630 -0.0347  0.4558
  389MPD2    H5 5874   1.641   3.071  11.213  0.5415 -1.3336  0.0068
  389MPD2    N1 5875   1.500   3.227  10.677 -0.4907 -0.4920  0.5728
  389MPD2    H7 5876   1.536   3.295  10.610 -0.9830 -0.4476  0.3516
  390TMC3    C1 5877   1.489   2.904  11.264 -0.0873 -0.3034  0.5047
  390TMC3    C2 5878   1.437   2.783  11.287 -0.7601 -0.3537  0.4309
  390TMC3    C3 5879   1.377   2.765  11.412 -0.4532 -0.5909 -0.5920
  390TMC3    C4 5880   1.480   3.008  11.350  0.0831 -0.1563 -0.7405
  390TMC3    C5 5881   1.418   2.982  11.466  0.4747 -0.4924 -0.1086
  390TMC3    C6 5882   1.368   2.860  11.504 -0.2830  0.8006 -0.3961
  390TMC3     C 5883   1.500   2.951  11.131 -0.4307 -0.2471 -0.2731
  390TMC3     O 5884   1.425   2.894  11.053  0.5328  0.2262  0.1870
  390TMC3     H 5885   1.428   2.714  11.203  1.7718  0.5704 -0.6136
  390TMC3    H1 5886   1.504   3.113  11.335  0.7590 -0.0093  1.3734
  390TMC3    H2 5887   1.318   2.842  11.598  2.3863  2.1891  1.2923
  390TMC3    C7 5888   1.424   3.085  11.571  0.5345  0.4038  0.5578
  390TMC3    C8 5889   1.313   2.637  11.419 -0.1116 -0.1197 -0.2797
  390TMC3    O1 5890   1.490   3.184  11.549  0.4392 -0.2300  0.0651
  390TMC3    O2 5891   1.292   2.578  11.317 -0.0688 -0.5387 -0.7234
  391MPD2     C 5892   0.792   4.599  11.339 -0.0101  0.1702  0.1353
  391MPD2    C1 5893   0.883   4.694  11.307  0.4075 -0.6821  0.2554
  391MPD2    C2 5894   0.906   4.731  11.176 -0.6699 -0.2473  0.2190
  391MPD2    C3 5895   0.856   4.643  11.076  0.4536 -0.3623  1.0273
  391MPD2    C4 5896   0.773   4.539  11.108  0.3380 -0.3708 -0.4054
  391MPD2    C5 5897   0.753   4.512  11.242  0.0478 -0.1364  0.5216
  391MPD2     H 5898   0.973   0.070  11.144 -0.3895 -0.7878 -0.5236
  391MPD2    H1 5899   0.733   4.469  11.036 -2.0481 -0.7703  1.3001
  391MPD2    H2 5900   0.766   4.576  11.442  0.3245 -2.1339 -0.2835
  391MPD2    H3 5901   0.688   4.430  11.269  0.6604 -0.2575  1.6419
  391MPD2     N 5902   0.902   4.660  10.940  0.6219 -0.0897 -0.3693
  391MPD2    H5 5903   0.962   0.000  10.923 -0.2536  0.6851  0.1432
  391MPD2    N1 5904   0.950   0.020  11.416 -0.4294  0.0227  0.9213
  391MPD2    H7 5905   0.902   0.002  11.504 -1.4867  1.6686  0.6734
  392TMC3    C1 5906   0.924   4.637  10.718 -1.1425 -0.5581 -0.4657
  392TMC3    C2 5907   0.847   4.634  10.600  0.1069 -0.3940 -0.6643
  392TMC3    C3 5908   0.911   4.661  10.482 -0.0635 -0.4502  0.4294
  392TMC3    C4 5909   1.057   4.665  10.719  0.2000 -0.0455  0.4703
  392TMC3    C5 5910   1.116   4.682  10.593 -0.0273  1.1267 -0.2848
  392TMC3    C6 5911   1.044   4.684  10.473 -0.1525  0.2806  0.4674
  392TMC3     C 5912   0.872   4.578  10.833 -0.1583  0.2030  0.2528
  392TMC3     O 5913   0.777   4.501  10.818  0.3236 -0.2297  0.3845
  392TMC3     H 5914   0.746   4.600  10.616  0.7149 -2.0239 -0.2385
  392TMC3    H1 5915   1.116   4.660  10.810  0.3224 -1.3566  0.3067
  392TMC3    H2 5916   1.072   4.736  10.381 -0.0051 -0.4508  0.0982
  392TMC3    C7 5917   1.250   4.735  10.583 -0.3666 -0.0114 -0.0927
  392TMC3    C8 5918   0.814   4.685  10.375  0.3227 -0.0397  0.0183
  392TMC3    O1 5919   1.307   0.019  10.689 -0.5321  0.3572  0.3371
  392TMC3    O2 5920   0.704   4.736  10.405  0.1939  0.3925  0.1486
  393TMC3    C1 5921   4.197   2.541  10.768  0.3526 -0.7473  1.1004
  393TMC3    C2 5922   4.086   2.479  10.806 -0.2748 -0.4615  0.2921
  393TMC3    C3 5923   4.092   2.398  10.916 -0.3267  0.5083 -0.2011
  393TMC3    C4 5924   4.315   2.533  10.840  0.4479  0.4013 -0.3841
  393TMC3    C5 5925   4.320   2.454  10.948 -0.2633  0.4922 -0.6370
  393TMC3    C6 5926   4.206   2.388  10.991  0.6635 -0.3107  0.7847
  393TMC3     C 5927   4.173   2.662  10.689  0.0358  0.1053  0.3050
  393TMC3     O 5928   4.069   2.676  10.626  0.1921  0.3329 -0.0614
  393TMC3     H 5929   3.993   2.483  10.750  1.2490  3.1559 -2.0460
  393TMC3    H1 5930   4.403   2.582  10.799  0.8550  0.2743  0.3412
  393TMC3    H2 5931   4.202   2.330  11.083  1.8629 -1.9604 -0.2221
  393TMC3    C7 5932   4.443   2.392  10.982  0.1057 -1.1201  0.4460
  393TMC3    C8 5933   3.973   2.341  10.981 -0.0486  0.3675 -0.5502
  393TMC3    O1 5934   4.448   2.283  11.035 -0.0055 -0.5180 -0.1146
  393TMC3    O2 5935   3.994   2.275  11.081 -0.6901  0.2484  0.2533
  394TMC3    C1 5936   1.328   3.182  10.507 -0.0313  0.2833 -0.2728
  394TMC3    C2 5937   1.191   3.184  10.480  0.0616  0.0401 -0.4579
  394TMC3    C3 5938   1.155   3.223  10.361 -0.2801 -0.1342 -0.6653
  394TMC3    C4 5939   1.414   3.229  10.408  0.2372  0.5454 -0.0028
  394TMC3    C5 5940   1.368   3.266  10.283  0.3447 -0.4226  0.3129
  394TMC3    C6 5941   1.231   3.272  10.260 -0.1027  0.1532  1.0630
  394TMC3     C 5942   1.375   3.176  10.648  0.7585  0.0607  0.2654
  394TMC3     O 5943   1.293   3.125  10.721  0.0361  0.0435  0.0140
  394TMC3     H 5944   1.115   3.168  10.554  0.1739 -1.0669 -0.5910
  394TMC3    H1 5945   1.523   3.226  10.416  0.1762 -2.0419 -0.1738
  394TMC3    H2 5946   1.193   3.283  10.159  0.9017 -0.0431  0.6632
  394TMC3    C7 5947   1.458   3.286  10.168 -0.0567  0.1371 -0.4754
  394TMC3    C8 5948   1.042   3.133  10.318 -0.7515 -0.2773 -0.1203
  394TMC3    O1 5949   1.439   3.386  10.100  0.3031  0.1588 -0.6591
  394TMC3    O2 5950   0.980   3.174  10.220  0.1597  0.6907  0.2805
  395TMC3    C1 5951   0.926   0.054  14.564  1.0336 -0.5768  0.1992
  395TMC3    C2 5952   0.814   0.134  14.538 -0.5394  0.0739 -0.9782
  395TMC3    C3 5953   0.824   0.270  14.532  0.0254 -0.4678  0.7124
  395TMC3    C4 5954   1.047   0.110  14.588 -0.3076 -0.2202  0.1203
  395TMC3    C5 5955   1.049   0.245  14.576 -0.2225 -0.8942  0.2644
  395TMC3    C6 5956   0.939   0.332  14.557  0.3787  0.3623  0.4419
  395TMC3     C 5957   0.891   4.691  14.666 -0.9138  0.2860  0.6182
  395TMC3     O 5958   0.952   4.696  14.768  0.2092  0.0359  0.3895
  395TMC3     H 5959   0.722   0.097  14.494 -0.4753 -0.3398 -0.7613
  395TMC3    H1 5960   1.134   0.050  14.612 -0.4862  0.2325  1.8940
  395TMC3    H2 5961   0.944   0.440  14.572  1.8555  0.5663 -1.5696
  395TMC3    C7 5962   1.176   0.304  14.608  0.7625 -1.2256  0.3603
  395TMC3    C8 5963   0.718   0.335  14.609 -0.3540  0.0737  0.3147
  395TMC3    O1 5964   1.174   0.396  14.687 -0.0722 -0.0988  0.0791
  395TMC3    O2 5965   0.731   0.453  14.633  0.0653 -0.6809  0.4448
  396MPD2     C 5966   1.026   1.439  16.899  0.4086 -0.3103  0.6190
  396MPD2    C1 5967   1.149   1.491  16.935  0.1008  0.3761 -0.6721
  396MPD2    C2 5968   1.202   1.588  16.859 -0.1296 -0.1906  0.4326
  396MPD2    C3 5969   1.146   1.640  16.741  0.6278 -0.0713  0.1515
  396MPD2    C4 5970   1.036   1.576  16.698  0.9303 -0.6563  0.2273
  396MPD2    C5 5971   0.977   1.477  16.779 -0.3670  0.5475 -0.1297
  396MPD2     H 5972   1.293   1.636  16.894 -1.1859  0.3793  2.4232
  396MPD2    H1 5973   0.987   1.606  16.606  0.2646 -0.5999  0.5977
  396MPD2    H2 5974   0.975   1.362  16.955  0.6384 -1.3512 -0.5815
  396MPD2    H3 5975   0.885   1.430  16.744 -0.4250 -0.4603  1.3642
  396MPD2     N 5976   1.226   1.743  16.682  0.1971  0.4043  0.0418
  396MPD2    H5 5977   1.312   1.776  16.724  0.8930  0.7266 -1.6244
  396MPD2    N1 5978   1.204   1.451  17.058  0.4182 -0.4140  0.5878
  396MPD2    H7 5979   1.148   1.390  17.116 -1.0162 -0.6125 -1.0000
  397TMC3    C1 5980   1.357   1.439  17.247 -0.2784  0.3386 -1.1840
  397TMC3    C2 5981   1.495   1.418  17.250  0.3346  0.5930 -0.5811
  397TMC3    C3 5982   1.543   1.290  17.289  0.3805  0.5126  0.2254
  397TMC3    C4 5983   1.271   1.348  17.302 -0.6483 -0.3045 -0.3476
  397TMC3    C5 5984   1.327   1.241  17.358  0.1591 -0.5745  0.0205
  397TMC3    C6 5985   1.457   1.203  17.344 -0.5980 -0.2996  0.2625
  397TMC3     C 5986   1.322   1.492  17.116 -0.7712 -0.1966  0.0169
  397TMC3     O 5987   1.414   1.549  17.059 -0.0251 -0.0366 -0.1111
  397TMC3     H 5988   1.565   1.493  17.215  1.4122  0.5059  1.3761
  397TMC3    H1 5989   1.165   1.366  17.302 -0.5864  0.0424  0.4893
  397TMC3    H2 5990   1.492   1.110  17.386 -0.6887  0.3463  1.7762
  397TMC3    C7 5991   1.244   1.118  17.360 -0.2144 -0.3860  0.0113
  397TMC3    C8 5992   1.683   1.257  17.308  0.3799 -0.7722  0.1452
  397TMC3    O1 5993   1.294   1.022  17.313  0.1935 -0.9129  0.3993
  397TMC3    O2 5994   1.709   1.197  17.413  0.2818 -0.1894  0.5536
  398MPD2     C 5995   3.904   3.116   0.296  0.2054 -0.2086  0.0460
  398MPD2    C1 5996   3.936   3.024   0.393 -1.2336 -0.1138 -0.0420
  398MPD2    C2 5997   4.019   3.055   0.498  0.1312  0.1992  0.2943
  398MPD2    C3 5998   4.097   3.173   0.487  0.7348 -0.4083 -0.1826
  398MPD2    C4 5999   4.081   3.257   0.380 -0.4991 -1.0382 -0.2392
  398MPD2    C5 6000   3.983   3.230   0.289  0.4629 -0.9753  0.0559
  398MPD2     H 6001   4.034   2.989   0.582 -0.1819 -0.9986 -0.5868
  398MPD2    H1 6002   4.135   3.350   0.372 -0.2990 -1.1498 -0.1910
  398MPD2    H2 6003   3.834   3.092   0.218 -0.0659 -1.2693  0.6092
  398MPD2    H3 6004   3.952   3.306   0.217  0.5319 -0.1124  0.9344
  398MPD2     N 6005   4.189   3.202   0.592 -0.3587  0.4847 -0.0973
  398MPD2    H5 6006   4.206   3.122   0.652  1.1203  0.0606 -1.0651
  398MPD2    N1 6007   3.866   2.903   0.399  0.0168 -0.2466 -0.8121
  398MPD2    H7 6008   3.863   2.845   0.482  2.1253  0.2815 -0.3766
  399TMC3    C1 6009   3.759   2.702   0.324 -0.3812 -0.2244  0.2281
  399TMC3    C2 6010   3.851   2.617   0.378  0.0325  1.1277  0.0635
  399TMC3    C3 6011   3.820   2.485   0.372  0.0389  0.1707  0.2480
  399TMC3    C4 6012   3.647   2.657   0.261 -0.2294 -0.3404  0.5032
  399TMC3    C5 6013   3.623   2.524   0.249 -0.4343  0.1991 -0.2287
  399TMC3    C6 6014   3.709   2.438   0.307 -0.0067 -0.0395  0.4254
  399TMC3     C 6015   3.796   2.839   0.295 -0.2702 -0.3402 -0.2683
  399TMC3     O 6016   3.787   2.881   0.179 -0.0728 -0.3494 -0.0365
  399TMC3     H 6017   3.943   2.649   0.426  0.7043 -1.5818  0.5849
  399TMC3    H1 6018   3.595   2.735   0.206  1.3536  1.1188  1.0768
  399TMC3    H2 6019   3.683   2.334   0.320  0.1845 -0.2933 -1.2426
  399TMC3    C7 6020   3.517   2.471   0.163  0.0421  0.1553  0.2327
  399TMC3    C8 6021   3.934   2.401   0.376 -0.6032 -0.4168  0.5903
  399TMC3    O1 6022   3.495   2.356   0.183  0.5881 -0.2687 -0.5622
  399TMC3    O2 6023   4.044   2.452   0.387  0.3788 -0.3397 -0.1188
  400TMC3    C1 6024   2.629   1.283  17.002 -0.1665 -0.1072  0.0044
  400TMC3    C2 6025   2.555   1.261  16.888 -0.2905 -0.4883  0.1515
  400TMC3    C3 6026   2.476   1.369  16.843  1.0410  0.1494  0.2888
  400TMC3    C4 6027   2.635   1.411  17.058  0.3136 -0.5319  0.4731
  400TMC3    C5 6028   2.563   1.507  16.998 -0.1703 -0.6237  0.2010
  400TMC3    C6 6029   2.482   1.496  16.893 -0.3040 -0.4195  0.0972
  400TMC3     C 6030   2.715   1.175  17.039 -0.4583  0.3134  0.4538
  400TMC3     O 6031   2.683   1.058  17.026 -0.4277  0.4671  0.0436
  400TMC3     H 6032   2.544   1.167  16.835 -1.8502 -0.3369  0.2012
  400TMC3    H1 6033   2.704   1.430  17.139 -2.3471 -0.0705  2.6404
  400TMC3    H2 6034   2.435   1.580  16.843 -0.1347 -0.2397  0.2395
  400TMC3    C7 6035   2.564   1.638  17.052 -0.2775  0.3310  0.0775
  400TMC3    C8 6036   2.427   1.366  16.705  0.0444  0.5179 -0.2518
  400TMC3    O1 6037   2.665   1.666  17.113 -0.2456  0.2531 -0.1734
  400TMC3    O2 6038   2.411   1.479  16.657 -0.2210  0.0171  0.7149
  401MPD2     C 6039   0.470   4.179   1.033 -0.3838 -0.4886 -0.3376
  401MPD2    C1 6040   0.604   4.138   1.014  0.0079  0.2231  0.4617
  401MPD2    C2 6041   0.622   4.008   0.988  0.0464 -0.0108  0.0783
  401MPD2    C3 6042   0.518   3.912   0.968 -0.2390 -0.7252  0.3107
  401MPD2    C4 6043   0.385   3.956   0.989  0.4766 -0.6916 -0.8484
  401MPD2    C5 6044   0.368   4.093   1.016  0.5336 -0.4620 -0.7787
  401MPD2     H 6045   0.724   3.973   0.975 -0.4957 -1.4049 -0.3995
  401MPD2    H1 6046   0.296   3.896   0.974 -0.3909  0.7625 -1.5362
  401MPD2    H2 6047   0.434   4.278   1.059 -0.2213 -0.8038  1.0703
  401MPD2    H3 6048   0.268   4.133   1.029  0.2206 -2.2340  2.1698
  401MPD2     N 6049   0.551   3.786   0.917  0.1164  0.0430  0.0061
  401MPD2    H5 6050   0.649   3.765   0.900  0.1355 -1.1904  1.7138
  401MPD2    N1 6051   0.707   4.220   1.016  0.0894  0.0010 -0.2649
  401MPD2    H7 6052   0.798   4.176   1.003  0.7778  1.5396 -0.8026
  402TMC3    C1 6053   0.517   3.574   0.840  0.2425 -0.5677  0.1488
  402TMC3    C2 6054   0.643   3.533   0.887 -0.5945 -0.0015  0.2290
  402TMC3    C3 6055   0.709   3.442   0.817  0.5993 -0.1115  0.2987
  402TMC3    C4 6056   0.464   3.519   0.727  0.9276 -0.3051 -0.3316
  402TMC3    C5 6057   0.534   3.418   0.670  0.7856 -0.2113  0.2273
  402TMC3    C6 6058   0.657   3.379   0.709  0.5785  0.1802  0.0623
  402TMC3     C 6059   0.457   3.688   0.888 -0.1888  0.7317 -0.7302
  402TMC3     O 6060   0.335   3.705   0.875 -0.2297 -0.5213  0.0267
  402TMC3     H 6061   0.675   3.579   0.980 -2.3214  0.0788  0.7765
  402TMC3    H1 6062   0.371   3.557   0.687 -0.3988 -2.6266  0.5692
  402TMC3    H2 6063   0.720   3.306   0.660  1.3170  0.2785  0.8577
  402TMC3    C7 6064   0.476   3.356   0.551  0.0834  0.2861  0.1960
  402TMC3    C8 6065   0.810   3.365   0.893  0.2036  0.5817 -0.2490
  402TMC3    O1 6066   0.369   3.406   0.519  0.2760  0.3040  0.3886
  402TMC3    O2 6067   0.859   3.271   0.838  0.7940 -0.0072  0.5756
  403MPD2     C 6068   4.197   2.288  13.079 -0.2075 -0.9850 -0.3308
  403MPD2    C1 6069   4.096   2.350  13.153  0.3748  0.3613  1.0761
  403MPD2    C2 6070   4.130   2.418  13.272  0.1149  0.3256 -0.3244
  403MPD2    C3 6071   4.266   2.435  13.315  0.5127  0.7006  0.1080
  403MPD2    C4 6072   4.362   2.381  13.239  0.3545 -0.5751  0.3231
  403MPD2    C5 6073   4.327   2.308  13.128 -0.5139 -0.0214  0.0919
  403MPD2     H 6074   4.049   2.468  13.324  0.6446  2.5410 -1.6698
  403MPD2    H1 6075   4.465   2.411  13.252  0.2466  1.6060 -3.6375
  403MPD2    H2 6076   4.177   2.227  12.993 -1.1774  0.0128 -0.8156
  403MPD2    H3 6077   4.405   2.265  13.066 -1.7655 -1.2894 -0.6234
  403MPD2     N 6078   4.300   2.483  13.445  0.5089 -0.2261 -0.8597
  403MPD2    H5 6079   4.398   2.481  13.470  0.2702  2.2821  0.3155
  403MPD2    N1 6080   3.966   2.331  13.099 -0.0271  0.1518 -0.1110
  403MPD2    H7 6081   3.954   2.306  13.001 -1.0026 -1.6726  0.4723
  404TMC3    C1 6082   3.733   2.338  13.073  0.2663 -0.1690  0.3728
  404TMC3    C2 6083   3.620   2.301  13.132 -0.2130 -0.4675 -0.8468
  404TMC3    C3 6084   3.531   2.215  13.059  0.3307  0.3480  0.6789
  404TMC3    C4 6085   3.755   2.306  12.944 -0.0014 -1.2647  0.2020
  404TMC3    C5 6086   3.649   2.256  12.872  0.6174 -0.2359  0.5480
  404TMC3    C6 6087   3.537   2.205  12.924 -0.4999 -0.3888  0.0829
  404TMC3     C 6088   3.845   2.357  13.161 -0.0423 -0.0057 -0.1670
  404TMC3     O 6089   3.826   2.376  13.277  0.4471 -0.1073  0.0209
  404TMC3     H 6090   3.591   2.321  13.235 -0.6460 -0.2930 -1.0015
  404TMC3    H1 6091   3.840   2.342  12.888 -0.5737 -4.2679 -2.6077
  404TMC3    H2 6092   3.477   2.130  12.873 -0.4867  0.5011 -1.2468
  404TMC3    C7 6093   3.670   2.249  12.729 -0.0998 -0.0126 -0.6156
  404TMC3    C8 6094   3.410   2.156  13.123 -0.3310 -0.0045  0.1714
  404TMC3    O1 6095   3.774   2.292  12.690  0.3153 -0.3240 -0.1396
  404TMC3    O2 6096   3.323   2.124  13.040  0.1764  0.0565  0.2658
  405MPD2     C 6097   4.270   3.351  14.424 -0.1141 -0.1883 -0.7325
  405MPD2    C1 6098   4.226   3.217  14.438  0.4336 -0.4195  0.3364
  405MPD2    C2 6099   4.091   3.197  14.434  0.3072  0.2014  0.8469
  405MPD2    C3 6100   4.004   3.301  14.407  0.5547 -0.4790 -0.1664
  405MPD2    C4 6101   4.047   3.425  14.388 -0.2733  0.0458 -0.7586
  405MPD2    C5 6102   4.178   3.452  14.401 -0.5984  0.2393 -0.5128
  405MPD2     H 6103   4.058   3.095  14.448 -1.4696  0.5876 -0.5857
  405MPD2    H1 6104   3.993   3.517  14.368  0.3565  0.4952 -0.4008
  405MPD2    H2 6105   4.375   3.381  14.420  0.1762 -1.1484 -0.3657
  405MPD2    H3 6106   4.217   3.553  14.398  1.5198 -0.5132  2.0610
  405MPD2     N 6107   3.870   3.259  14.385 -0.2322 -0.2825 -0.0431
  405MPD2    H5 6108   3.845   3.161  14.392  2.3117 -0.8886  0.5069
  405MPD2    N1 6109   4.321   3.113  14.465 -0.0998  0.5047 -0.2357
  405MPD2    H7 6110   4.420   3.125  14.447  0.3840  0.4242  2.4004
  406TMC3    C1 6111   3.486   3.156  14.398  0.3357  0.0800  0.2388
  406TMC3    C2 6112   3.500   3.051  14.314  0.1833 -0.4649 -0.7488
  406TMC3    C3 6113   3.586   3.066  14.213 -0.0753 -0.4140  0.4813
  406TMC3    C4 6114   3.557   3.270  14.394 -0.6760  0.2639  0.7313
  406TMC3    C5 6115   3.650   3.278  14.292 -0.2426 -0.0989  1.0177
  406TMC3    C6 6116   3.675   3.166  14.216 -0.1931  0.3049  0.2291
  406TMC3     C 6117   3.432   3.123  14.526 -0.5788 -0.6938  0.0757
  406TMC3     O 6118   3.465   3.009  14.560  0.1699 -0.3375 -0.0850
  406TMC3     H 6119   3.438   2.963  14.325 -0.3448 -0.3549 -2.8887
  406TMC3    H1 6120   3.542   3.358  14.456 -0.1105 -0.2658  1.6154
  406TMC3    H2 6121   3.752   3.169  14.140 -1.9615 -2.7859 -1.7055
  406TMC3    C7 6122   3.772   3.348  14.343  0.0871 -0.2878  0.3552
  406TMC3    C8 6123   3.637   2.937  14.151 -0.3215 -0.1244  0.9640
  406TMC3    O1 6124   3.757   3.466  14.374 -0.8238 -0.7441  0.1618
  406TMC3    O2 6125   3.556   2.851  14.120 -0.8846 -0.2779 -0.1178
  407MPD2     C 6126   1.860   4.032   9.347 -0.0133  0.5669 -0.0605
  407MPD2    C1 6127   1.973   4.026   9.419 -0.5515 -0.1505  0.3226
  407MPD2    C2 6128   1.990   4.123   9.522  0.1347  0.2028  0.7089
  407MPD2    C3 6129   1.894   4.210   9.564 -0.0635  0.3083  0.6578
  407MPD2    C4 6130   1.782   4.209   9.484  0.1489 -0.1059  0.0220
  407MPD2    C5 6131   1.770   4.127   9.378 -0.4649 -0.1816 -0.0606
  407MPD2     H 6132   2.082   4.126   9.579  0.0999 -0.1052  0.7798
  407MPD2    H1 6133   1.701   4.278   9.506  1.4680  1.2418  0.6444
  407MPD2    H2 6134   1.853   3.968   9.259  2.0179 -1.7090  1.4346
  407MPD2    H3 6135   1.684   4.133   9.312 -0.9091  2.3341  0.7512
  407MPD2     N 6136   1.905   4.303   9.670 -0.2871  0.0679 -0.0307
  407MPD2    H5 6137   1.819   4.355   9.685 -0.8846 -1.0242  0.4159
  407MPD2    N1 6138   2.072   3.927   9.412 -0.4304  0.1989  0.6839
  407MPD2    H7 6139   2.158   3.940   9.465 -0.3027  1.6284  0.1130
  408TMC3    C1 6140   2.200   3.751   9.324 -0.3341  0.1872  0.0939
  408TMC3    C2 6141   2.314   3.830   9.319 -0.0954  0.6014  0.7749
  408TMC3    C3 6142   2.435   3.760   9.309  0.0267 -0.3801  0.2019
  408TMC3    C4 6143   2.201   3.614   9.314  0.1594  0.3752 -0.0144
  408TMC3    C5 6144   2.326   3.551   9.299  0.6874 -0.0044  0.3421
  408TMC3    C6 6145   2.441   3.622   9.296 -0.1309  0.8385  0.2170
  408TMC3     C 6146   2.069   3.820   9.327 -0.0223 -0.0495  0.0459
  408TMC3     O 6147   1.971   3.756   9.290  0.0274 -0.2361 -0.2624
  408TMC3     H 6148   2.309   3.939   9.319  2.1252  0.7019  0.3924
  408TMC3    H1 6149   2.104   3.565   9.314 -0.4756  1.6495  1.4224
  408TMC3    H2 6150   2.537   3.573   9.281 -0.7859 -0.7286  1.2310
  408TMC3    C7 6151   2.323   3.403   9.312  0.0492 -1.2187  0.0219
  408TMC3    C8 6152   2.564   3.825   9.325 -0.5134 -0.3348 -0.0079
  408TMC3    O1 6153   2.212   3.343   9.314 -0.1772  0.0866 -0.2204
  408TMC3    O2 6154   2.661   3.755   9.355  0.3960  0.3614  0.3842
  409MPD2     C 6155   1.346   0.683  16.769  0.3315 -0.5625 -0.1261
  409MPD2    C1 6156   1.450   0.652  16.849 -0.1604  0.4961  0.2394
  409MPD2    C2 6157   1.569   0.722  16.853  0.1539 -0.4440  0.2974
  409MPD2    C3 6158   1.587   0.824  16.764  0.5880  0.1894 -0.2195
  409MPD2    C4 6159   1.485   0.855  16.673 -0.5766 -0.6733 -0.3579
  409MPD2    C5 6160   1.362   0.788  16.684  0.7689  0.7590 -0.0901
  409MPD2     H 6161   1.659   0.689  16.904 -0.7798  0.7595  2.6660
  409MPD2    H1 6162   1.489   0.942  16.609 -2.1635 -1.1809 -1.1280
  409MPD2    H2 6163   1.254   0.625  16.768 -0.2413  0.3510 -1.9229
  409MPD2    H3 6164   1.281   0.796  16.613  1.0112  1.0203 -0.3338
  409MPD2     N 6165   1.702   0.902  16.767 -0.2318  1.0959 -0.1947
  409MPD2    H5 6166   1.708   0.971  16.692 -1.0351 -0.2060 -1.4541
  409MPD2    N1 6167   1.445   0.549  16.942  0.0268  0.5720  0.3207
  409MPD2    H7 6168   1.524   0.522  17.000 -0.9335  0.4898  1.5858
  410TMC3    C1 6169   1.916   0.972  16.802  0.0211  0.7287 -0.1085
  410TMC3    C2 6170   1.993   1.032  16.900 -0.1484  0.7762 -0.9569
  410TMC3    C3 6171   2.080   1.134  16.853  0.5719 -0.6488  0.2231
  410TMC3    C4 6172   1.926   1.006  16.671 -0.9159 -0.4074  1.0691
  410TMC3    C5 6173   1.998   1.109  16.634  0.4342 -0.0381  0.0841
  410TMC3    C6 6174   2.076   1.178  16.721 -0.0858  0.0891  0.3216
  410TMC3     C 6175   1.811   0.893  16.847 -0.3469  0.2780 -0.0894
  410TMC3     O 6176   1.819   0.841  16.957  0.2171  0.4023 -0.1230
  410TMC3     H 6177   1.982   1.015  17.007  0.2063  1.8964 -0.7450
  410TMC3    H1 6178   1.865   0.961  16.594  2.3801 -0.8008 -1.3360
  410TMC3    H2 6179   2.135   1.261  16.686  1.2460 -0.6850  0.7271
  410TMC3    C7 6180   2.024   1.126  16.490  0.0470  0.3160  0.2074
  410TMC3    C8 6181   2.169   1.203  16.945  0.3018  0.4986 -0.1697
  410TMC3    O1 6182   1.988   1.033  16.418  0.0864 -0.2419 -0.0354
  410TMC3    O2 6183   2.187   1.322  16.931  0.1875  0.4539 -0.0280
  411MPD2     C 6184   2.039   1.012  14.452 -0.2879  0.3689  0.5481
  411MPD2    C1 6185   1.903   1.023  14.481 -0.3802 -0.0216  0.5824
  411MPD2    C2 6186   1.822   0.911  14.462 -0.3600 -0.4970 -0.7254
  411MPD2    C3 6187   1.877   0.787  14.420 -0.1576 -0.4180 -0.4660
  411MPD2    C4 6188   2.016   0.786  14.394 -0.1557 -0.0937 -0.0369
  411MPD2    C5 6189   2.091   0.899  14.399 -0.0773 -0.7865  0.6245
  411MPD2     H 6190   1.721   0.914  14.503  0.1598  0.7652  0.4590
  411MPD2    H1 6191   2.069   0.707  14.343  1.6678  1.3835 -0.4406
  411MPD2    H2 6192   2.102   1.100  14.444  0.7888 -0.5862 -1.3639
  411MPD2    H3 6193   2.197   0.890  14.377 -0.2711 -0.1677 -0.5671
  411MPD2     N 6194   1.804   0.662  14.407  0.1685 -0.3846  0.4923
  411MPD2    H5 6195   1.866   0.584  14.388  0.1480 -0.9106  2.6096
  411MPD2    N1 6196   1.836   1.143  14.517 -0.8173 -0.2647 -0.1714
  411MPD2    H7 6197   1.739   1.142  14.547 -0.9345 -2.1756 -0.6180
  412TMC3    C1 6198   1.620   0.531  14.336 -0.4506 -0.6807  0.2607
  412TMC3    C2 6199   1.487   0.506  14.342  0.1807  0.5542 -0.5019
  412TMC3    C3 6200   1.434   0.423  14.251 -0.1990 -0.9970 -0.2894
  412TMC3    C4 6201   1.706   0.475  14.236  0.0071  0.8169 -0.4007
  412TMC3    C5 6202   1.653   0.380  14.152  0.5019 -0.3439 -0.5494
  412TMC3    C6 6203   1.510   0.358  14.156 -0.3043  0.3061  0.1331
  412TMC3     C 6204   1.670   0.640  14.417  0.5904  0.1796 -0.2848
  412TMC3     O 6205   1.581   0.708  14.464 -0.5564  0.0301  0.0578
  412TMC3     H 6206   1.420   0.557  14.410 -0.5384  0.7089 -1.3296
  412TMC3    H1 6207   1.812   0.497  14.229  0.2900 -0.1896  0.5976
  412TMC3    H2 6208   1.455   0.299  14.084 -1.3360  2.2890 -0.7286
  412TMC3    C7 6209   1.708   0.354  14.019  0.3108 -0.3072  0.5212
  412TMC3    C8 6210   1.303   0.451  14.209 -0.7705 -0.1781  0.1088
  412TMC3    O1 6211   1.717   0.233  13.994  0.3840 -0.0652  0.2270
  412TMC3    O2 6212   1.216   0.448  14.294 -0.2208  0.2453  1.1972
  413MPD2     C 6213   2.984   4.253  15.557  0.3283  0.0154  0.1059
  413MPD2    C1 6214   2.979   4.298  15.428 -0.2432 -0.8989 -0.5519
  413MPD2    C2 6215   3.098   4.339  15.374 -0.2756  0.9028  0.6890
  413MPD2    C3 6216   3.217   4.336  15.441  0.3409 -0.5880 -0.3134
  413MPD2    C4 6217   3.222   4.295  15.575  0.1031  1.1988 -0.4287
  413MPD2    C5 6218   3.105   4.246  15.627  0.4403 -0.4848  0.1929
  413MPD2     H 6219   3.099   4.361  15.268 -0.1435  2.7918  1.0766
  413MPD2    H1 6220   3.311   4.289  15.637 -1.8350  0.8755  2.3554
  413MPD2    H2 6221   2.895   4.206  15.597 -0.4884  1.5644  0.1140
  413MPD2    H3 6222   3.095   4.210  15.729 -0.2288  0.2222  0.3805
  413MPD2     N 6223   3.334   4.350  15.360  0.4446  0.5073  0.5428
  413MPD2    H5 6224   3.312   4.391  15.270 -2.5709 -1.8011  0.2078
  413MPD2    N1 6225   2.852   4.290  15.362  0.8351  0.7227 -0.1123
  413MPD2    H7 6226   2.775   4.256  15.419  0.9607 -1.1056 -1.0485
  414TMC3    C1 6227   3.550   4.332  15.298  0.7250  0.0630 -0.5293
  414TMC3    C2 6228   3.647   4.234  15.320  0.5410  0.2608  0.1279
  414TMC3    C3 6229   3.655   4.130  15.230  0.7670 -0.4972  0.1360
  414TMC3    C4 6230   3.492   4.352  15.177  0.4859  0.4571 -0.2184
  414TMC3    C5 6231   3.508   4.245  15.089  0.1255 -0.7096 -0.5208
  414TMC3    C6 6232   3.571   4.136  15.126 -0.3296 -0.3314  0.2809
  414TMC3     C 6233   3.460   4.344  15.407  0.8157 -0.2985  0.4371
  414TMC3     O 6234   3.503   4.323  15.519 -0.1909  0.5969 -0.5957
  414TMC3     H 6235   3.687   4.220  15.420 -0.3915 -1.3750  0.2871
  414TMC3    H1 6236   3.428   4.436  15.150  0.4916 -0.5768 -3.4435
  414TMC3    H2 6237   3.580   4.057  15.052 -0.4834  0.9360 -1.0880
  414TMC3    C7 6238   3.390   4.227  14.997 -0.1698  0.4848 -0.1406
  414TMC3    C8 6239   3.746   4.014  15.231  1.0109  0.1915  0.2144
  414TMC3    O1 6240   3.284   4.264  15.049 -0.0724 -0.1665  0.4477
  414TMC3    O2 6241   3.720   3.927  15.145 -0.9177  0.2668  0.2370
  415TMC3    C1 6242   4.093   1.724   9.845 -0.2125  0.2686 -0.0926
  415TMC3    C2 6243   4.190   1.813   9.803 -0.0077  1.0721  0.4783
  415TMC3    C3 6244   4.189   1.852   9.667 -0.1476  0.0297  0.2977
  415TMC3    C4 6245   4.006   1.664   9.761 -0.4098 -0.1700 -0.4232
  415TMC3    C5 6246   4.014   1.704   9.631 -0.6729  0.4573 -0.3519
  415TMC3    C6 6247   4.104   1.791   9.578  0.4543 -0.2531 -0.3693
  415TMC3     C 6248   4.097   1.692   9.981  0.5717  0.7866 -0.7836
  415TMC3     O 6249   4.190   1.731  10.049 -0.1534 -0.0292  0.1185
  415TMC3     H 6250   4.264   1.852   9.872  0.9703  1.6366 -0.8663
  415TMC3    H1 6251   3.940   1.582   9.787 -0.8469  0.8799  1.8252
  415TMC3    H2 6252   4.102   1.819   9.473  3.2487 -2.0047 -0.8709
  415TMC3    C7 6253   3.923   1.646   9.534  0.3301  0.6616  0.1774
  415TMC3    C8 6254   4.275   1.956   9.611 -0.3506 -0.3809  0.2783
  415TMC3    O1 6255   3.965   1.650   9.421  0.6445 -0.4591  0.5715
  415TMC3    O2 6256   4.293   1.961   9.488  0.7172  0.1226  0.2290
  416MPD2     C 6257   0.060   0.558  11.579 -0.4242  0.6015  0.5783
  416MPD2    C1 6258   0.133   0.647  11.505 -0.5118 -0.0458 -0.0916
  416MPD2    C2 6259   0.250   0.601  11.442 -0.0979 -0.2996 -0.0379
  416MPD2    C3 6260   0.283   0.471  11.451 -0.3869 -0.0792  0.1167
  416MPD2    C4 6261   0.208   0.379  11.526  0.0154 -0.0326 -0.1678
  416MPD2    C5 6262   0.088   0.421  11.577 -0.0577 -0.2385  0.0324
  416MPD2     H 6263   0.306   0.664  11.373 -1.5230 -1.6057 -2.3992
  416MPD2    H1 6264   0.221   0.272  11.525  0.9478  0.0844 -0.9057
  416MPD2    H2 6265   4.711   0.590  11.633 -1.6515 -3.4607  0.9342
  416MPD2    H3 6266   0.021   0.347  11.619  1.0996 -0.2964  1.8048
  416MPD2     N 6267   0.406   0.430  11.390  0.0374 -0.3416 -0.1947
  416MPD2    H5 6268   0.449   0.503  11.334 -2.3615  1.2269 -0.0305
  416MPD2    N1 6269   0.078   0.774  11.500  0.0482  0.5279  0.5076
  416MPD2    H7 6270   4.728   0.790  11.544  0.0722 -1.7083  1.3369
  417TMC3    C1 6271   0.046   1.005  11.441  0.0102  0.4480 -0.2407
  417TMC3    C2 6272   4.725   1.029  11.559  0.4254 -0.2103 -0.5391
  417TMC3    C3 6273   4.660   1.145  11.567 -0.3872 -0.4816 -0.3407
  417TMC3    C4 6274   0.057   1.098  11.342  0.1804  1.1867  0.3010
  417TMC3    C5 6275   0.001   1.225  11.355  0.1534  0.6127 -0.5014
  417TMC3    C6 6276   4.663   1.241  11.466 -0.3131  0.5164 -0.1289
  417TMC3     C 6277   0.113   0.875  11.414  0.3085 -0.6891  0.2141
  417TMC3     O 6278   0.201   0.875  11.332  0.3671 -0.1195  0.2995
  417TMC3     H 6279   4.721   0.961  11.642  0.4856 -0.4932 -0.7675
  417TMC3    H1 6280   0.114   1.060  11.258 -0.8982  1.5893 -0.6147
  417TMC3    H2 6281   4.620   1.337  11.490  0.3090  1.2437 -1.8983
  417TMC3    C7 6282   0.076   1.344  11.308 -0.2608  0.8489  0.3394
  417TMC3    C8 6283   4.611   1.188  11.698  0.5380 -0.3636 -0.2083
  417TMC3    O1 6284   0.035   1.453  11.346  0.6574  0.0633 -0.0598
  417TMC3    O2 6285   4.621   1.308  11.727  0.7784  0.2763 -0.2860
  418TMC3    C1 6286   4.545   3.248   0.493  0.2126  0.0857 -0.2084
  418TMC3    C2 6287   4.440   3.334   0.529 -0.3927  0.1326 -0.2995
  418TMC3    C3 6288   4.376   3.306   0.648  1.0749 -0.4283 -0.1735
  418TMC3    C4 6289   4.578   3.142   0.565  0.1366 -0.1182 -0.1230
  418TMC3    C5 6290   4.527   3.128   0.692 -0.5683 -0.0217 -0.2952
  418TMC3    C6 6291   4.420   3.206   0.729  0.4795  0.2854  0.1918
  418TMC3     C 6292   4.583   3.250   0.344 -0.5731  0.2044 -0.4273
  418TMC3     O 6293   4.508   3.306   0.267  0.2552 -0.2076  0.3645
  418TMC3     H 6294   4.401   3.407   0.458  0.2785  0.8293  0.0474
  418TMC3    H1 6295   4.665   3.085   0.533 -0.9831 -2.1921  0.4733
  418TMC3    H2 6296   4.367   3.185   0.822 -0.9859 -0.0150 -0.7047
  418TMC3    C7 6297   4.531   2.985   0.730  0.4004  0.4620 -0.0574
  418TMC3    C8 6298   4.234   3.330   0.623 -0.2126  0.4158  0.6828
  418TMC3    O1 6299   4.511   2.899   0.645  0.3234 -0.6987  0.4149
  418TMC3    O2 6300   4.204   3.435   0.567  0.8586 -0.0134 -0.1355
  419MPD2     C 6301   3.379   0.970  11.761 -0.4260  0.0532 -0.3125
  419MPD2    C1 6302   3.259   1.035  11.787 -0.1361 -0.1441  0.3470
  419MPD2    C2 6303   3.220   1.057  11.913 -0.1616  0.2461  0.2179
  419MPD2    C3 6304   3.305   1.034  12.017  1.0469  0.0011 -0.5972
  419MPD2    C4 6305   3.425   0.972  11.996  0.4908  0.4523  0.5171
  419MPD2    C5 6306   3.461   0.935  11.866  0.1796 -0.0329  0.9129
  419MPD2     H 6307   3.126   1.108  11.933 -0.6846 -0.3295 -0.7656
  419MPD2    H1 6308   3.488   0.947  12.080  0.5096  2.4140  1.0638
  419MPD2    H2 6309   3.415   0.950  11.661  0.8450  0.5738  0.0423
  419MPD2    H3 6310   3.555   0.882  11.852 -0.4392 -0.3296 -2.0682
  419MPD2     N 6311   3.262   1.061  12.143 -0.4784  0.1838  0.6104
  419MPD2    H5 6312   3.183   1.124  12.135 -0.5632  0.1550  1.2316
  419MPD2    N1 6313   3.180   1.095  11.683  0.5144  0.1764 -0.0335
  419MPD2    H7 6314   3.085   1.116  11.714  0.3229  1.0654 -1.2332
  420TMC3    C1 6315   3.219   1.063  12.373  0.5194  0.3497  0.6060
  420TMC3    C2 6316   3.089   1.097  12.355 -0.4020 -0.2259  0.1215
  420TMC3    C3 6317   3.008   1.130  12.458 -0.3074  0.1979 -0.9147
  420TMC3    C4 6318   3.273   1.075  12.503 -0.6273 -0.5827 -0.9318
  420TMC3    C5 6319   3.186   1.107  12.599 -0.4708 -0.3226 -0.4456
  420TMC3    C6 6320   3.053   1.132  12.585  0.5303  0.0779  0.4707
  420TMC3     C 6321   3.302   1.007  12.264  0.1603 -0.4685  0.0314
  420TMC3     O 6322   3.394   0.934  12.300 -0.0034 -0.1508 -0.2060
  420TMC3     H 6323   3.044   1.098  12.256  0.4499  1.6455 -0.2464
  420TMC3    H1 6324   3.364   1.023  12.529 -0.2642  0.2112 -0.6341
  420TMC3    H2 6325   2.988   1.171  12.662 -0.9787 -1.7558  0.1454
  420TMC3    C7 6326   3.244   1.128  12.728  0.0288  0.3770  0.7258
  420TMC3    C8 6327   2.876   1.190  12.430 -0.8392  0.1308 -0.2596
  420TMC3    O1 6328   3.174   1.142  12.825 -0.9166 -0.0478 -0.5902
  420TMC3    O2 6329   2.870   1.277  12.345 -0.4188 -0.5159  0.4531
  421TMC3    C1 6330   4.282   2.549  13.659 -0.0219  0.4115 -0.5403
  421TMC3    C2 6331   4.236   2.634  13.757 -1.1105 -0.0386  0.4279
  421TMC3    C3 6332   4.306   2.655  13.874  0.2373 -0.0680 -0.3670
  421TMC3    C4 6333   4.389   2.472  13.691  0.0201 -0.0008 -1.4264
  421TMC3    C5 6334   4.453   2.488  13.812  0.4559 -0.2978 -0.0336
  421TMC3    C6 6335   4.414   2.586  13.899  0.8554 -0.3235  0.7844
  421TMC3     C 6336   4.212   2.541  13.532 -0.4213  0.1056  0.3746
  421TMC3     O 6337   4.097   2.570  13.518  0.1102 -0.1200  0.1339
  421TMC3     H 6338   4.150   2.692  13.723 -1.5383 -0.5644  0.6197
  421TMC3    H1 6339   4.445   2.419  13.614  0.3266 -0.6034 -0.7812
  421TMC3    H2 6340   4.469   2.605  13.991  2.8957 -0.3635 -0.4250
  421TMC3    C7 6341   4.571   2.418  13.856  0.3687  0.6016 -0.0213
  421TMC3    C8 6342   4.309   2.784  13.930  0.1490 -0.7463 -0.5360
  421TMC3    O1 6343   4.620   2.463  13.958  0.4028 -0.2315 -0.4260
  421TMC3    O2 6344   4.423   2.824  13.960  0.3947 -0.0126  0.1482
  422TMC3    C1 6345   1.984   3.817  12.550 -0.1603 -0.4252  0.4993
  422TMC3    C2 6346   2.003   3.933  12.618  0.1265  0.5765  0.4891
  422TMC3    C3 6347   1.925   3.952  12.733  0.3141 -0.5379 -0.6175
  422TMC3    C4 6348   1.913   3.706  12.597  0.0941 -0.8086  0.2147
  422TMC3    C5 6349   1.842   3.730  12.715 -0.3438  0.0361 -0.1623
  422TMC3    C6 6350   1.853   3.846  12.784  0.2631 -0.5358 -0.0325
  422TMC3     C 6351   2.063   3.808  12.424 -0.2300 -0.1601  0.4490
  422TMC3     O 6352   2.120   3.909  12.383 -0.0948  1.0035  0.6573
  422TMC3     H 6353   2.063   4.016  12.585 -1.5289  1.1619 -1.0338
  422TMC3    H1 6354   1.895   3.614  12.543 -0.4200 -0.3377 -0.4076
  422TMC3    H2 6355   1.819   3.859  12.886 -1.8772  0.8105 -0.9167
  422TMC3    C7 6356   1.741   3.632  12.754 -0.0253 -0.1931 -0.1542
  422TMC3    C8 6357   1.917   4.095  12.773 -0.1514  0.7313  0.1021
  422TMC3    O1 6358   1.753   3.520  12.709 -0.3850  0.3350  0.5540
  422TMC3    O2 6359   1.999   4.167  12.716  0.6026  0.3612 -0.0235
  423MPD2     C 6360   2.676   0.265   0.472  0.2227 -0.4134  0.0535
  423MPD2    C1 6361   2.801   0.224   0.520 -0.0052  0.3031  0.4280
  423MPD2    C2 6362   2.899   0.167   0.432 -0.3151 -0.6527 -0.4283
  423MPD2    C3 6363   2.863   0.161   0.295 -0.2564  0.0262 -0.3088
  423MPD2    C4 6364   2.736   0.193   0.250 -0.0462  0.8462 -0.2523
  423MPD2    C5 6365   2.645   0.252   0.340 -0.3274 -0.5446 -0.5380
  423MPD2     H 6366   2.994   0.131   0.470  0.6430  0.4039 -1.8230
  423MPD2    H1 6367   2.708   0.167   0.148 -1.3036 -0.9479  0.5651
  423MPD2    H2 6368   2.596   0.314   0.527  0.0284 -0.1604 -0.4519
  423MPD2    H3 6369   2.547   0.277   0.301 -0.3666 -0.3583 -0.3221
  423MPD2     N 6370   2.942   0.098   0.192 -0.3428 -0.4549  0.1189
  423MPD2    H5 6371   2.907   0.087   0.097  3.9422  0.5458 -1.5893
  423MPD2    N1 6372   2.829   0.246   0.660  0.3152 -0.1525  0.1914
  423MPD2    H7 6373   2.916   0.210   0.698 -0.4039 -0.7412  1.2684
  424TMC3    C1 6374   2.815   0.333   0.868  0.2353 -0.6416  1.1433
  424TMC3    C2 6375   2.937   0.285   0.900  0.6088  0.8284 -0.3568
  424TMC3    C3 6376   2.995   0.328   1.014 -0.3340  0.7283 -0.6037
  424TMC3    C4 6377   2.747   0.417   0.956 -0.6419  0.2073 -0.1940
  424TMC3    C5 6378   2.799   0.448   1.080 -0.3095 -0.6721  0.6547
  424TMC3    C6 6379   2.929   0.397   1.110 -0.0812  0.3464 -0.5366
  424TMC3     C 6380   2.741   0.301   0.749  0.4883  0.2897  0.1499
  424TMC3     O 6381   2.619   0.301   0.750 -0.0275  0.3702 -0.2827
  424TMC3     H 6382   3.003   0.249   0.822  0.0927 -2.6968  0.8276
  424TMC3    H1 6383   2.648   0.451   0.928 -0.2973  1.0320 -0.4154
  424TMC3    H2 6384   2.973   0.423   1.206  0.7544  1.3391 -1.1963
  424TMC3    C7 6385   2.715   0.440   1.195  0.1020  0.1292 -0.2252
  424TMC3    C8 6386   3.101   0.241   1.060 -0.0211 -0.3930  0.7606
  424TMC3    O1 6387   2.769   0.413   1.299  0.4442 -0.3579 -0.0727
  424TMC3    O2 6388   3.124   0.149   0.988 -0.4884  0.1355  0.0534
  425MPD2     C 6389   2.156   4.334  16.679 -0.3069 -0.3186 -0.2621
  425MPD2    C1 6390   2.162   4.251  16.786 -0.5939  0.4607 -0.1034
  425MPD2    C2 6391   2.069   4.263  16.883 -0.0410  0.3846  0.1425
  425MPD2    C3 6392   1.967   4.346  16.872  0.3880  0.5602 -0.4164
  425MPD2    C4 6393   1.960   4.430  16.766  0.5455  0.2156 -0.2680
  425MPD2    C5 6394   2.061   4.428  16.672  0.2938  0.0786 -0.3864
  425MPD2     H 6395   2.073   4.194  16.966  2.7700 -1.7612 -1.7517
  425MPD2    H1 6396   1.885   4.507  16.756  1.3961  0.9156 -1.3859
  425MPD2    H2 6397   2.229   4.324  16.600  1.0102  2.7586  0.5779
  425MPD2    H3 6398   2.049   4.496  16.588 -2.4567 -1.9079 -1.6166
  425MPD2     N 6399   1.869   4.340  16.972  0.7763 -0.0666  0.5867
  425MPD2    H5 6400   1.868   4.262  17.037  1.8548 -1.2874 -0.8747
  425MPD2    N1 6401   2.256   4.143  16.781  0.4851 -0.4063  0.0554
  425MPD2    H7 6402   2.311   4.119  16.699  1.9725 -0.9917  1.2256
  426TMC3    C1 6403   2.359   3.939  16.849  0.2035 -0.6348  0.2602
  426TMC3    C2 6404   2.374   3.909  16.716  0.2633  0.1688 -0.3211
  426TMC3    C3 6405   2.434   3.787  16.684 -0.4268  0.2842 -0.7767
  426TMC3    C4 6406   2.402   3.852  16.947 -0.7802  0.0671  0.2164
  426TMC3    C5 6407   2.456   3.730  16.909 -0.1238 -0.0944  0.7586
  426TMC3    C6 6408   2.475   3.698  16.778  0.1192  0.3783  0.3310
  426TMC3     C 6409   2.283   4.062  16.888 -0.1463 -0.3165  0.6458
  426TMC3     O 6410   2.251   4.077  17.004 -0.0707 -0.6735 -0.1187
  426TMC3     H 6411   2.336   3.975  16.638  1.1103  0.3583 -0.5748
  426TMC3    H1 6412   2.385   3.874  17.052 -2.4631 -0.0861 -0.0341
  426TMC3    H2 6413   2.521   3.607  16.743  0.2002  0.6881 -0.3716
  426TMC3    C7 6414   2.451   3.617  17.002  0.0794  0.0926  0.0749
  426TMC3    C8 6415   2.406   3.736  16.546 -0.1211  0.4721  0.8069
  426TMC3    O1 6416   2.473   3.512  16.946 -0.3187 -0.0554 -0.7222
  426TMC3    O2 6417   2.437   3.617  16.534 -0.6377 -0.2772  0.0410
  427MPD2     C 6418   0.769   1.015  14.847  0.8114  0.0712 -0.1735
  427MPD2    C1 6419   0.767   1.080  14.967  0.2140  0.3153  0.4858
  427MPD2    C2 6420   0.663   1.158  15.000  0.0696  0.0507  0.4508
  427MPD2    C3 6421   0.568   1.203  14.910  0.6031  0.1657 -0.2622
  427MPD2    C4 6422   0.573   1.139  14.785 -0.0042 -0.2105 -0.1589
  427MPD2    C5 6423   0.677   1.050  14.751  0.2219  0.1008 -1.0974
  427MPD2     H 6424   0.649   1.196  15.101  2.1309 -0.3241  0.8758
  427MPD2    H1 6425   0.513   1.169  14.700  0.5012 -0.5816 -0.6523
  427MPD2    H2 6426   0.845   0.943  14.817  0.0136 -1.3914  1.3150
  427MPD2    H3 6427   0.670   1.009  14.651 -0.7635 -2.9399  0.2545
  427MPD2     N 6428   0.471   1.306  14.920 -0.1118  0.1081 -0.0647
  427MPD2    H5 6429   0.390   1.309  14.859  0.7250  2.2504 -1.0590
  427MPD2    N1 6430   0.859   1.038  15.066  0.0172  0.2366  0.3769
  427MPD2    H7 6431   0.835   1.057  15.162 -0.2159 -1.7758  0.7173
  428TMC3    C1 6432   1.038   0.945  15.176  0.3767  0.3980  0.2229
  428TMC3    C2 6433   0.957   0.913  15.277  0.4063 -0.1385  1.2448
  428TMC3    C3 6434   1.010   0.902  15.403  0.1992 -0.1713  0.3158
  428TMC3    C4 6435   1.170   0.961  15.195 -0.0525 -0.2509 -0.3765
  428TMC3    C5 6436   1.223   0.947  15.320 -0.2711  0.3989  0.8490
  428TMC3    C6 6437   1.143   0.924  15.429 -0.2393 -0.4225  0.0715
  428TMC3     C 6438   0.977   0.966  15.048 -0.3411 -0.2693  0.7450
  428TMC3     O 6439   1.037   0.948  14.941  0.5099 -0.5652  0.2161
  428TMC3     H 6440   0.851   0.894  15.265 -0.1618  2.9749  1.3204
  428TMC3    H1 6441   1.222   1.007  15.111  1.1059 -0.8451  0.0073
  428TMC3    H2 6442   1.191   0.924  15.526  2.7609  0.6553 -1.3978
  428TMC3    C7 6443   1.358   0.996  15.345  0.5443  0.2433  0.0355
  428TMC3    C8 6444   0.930   0.830  15.508  0.2159  0.2283  0.0808
  428TMC3    O1 6445   1.381   1.033  15.460  0.9370 -0.2672  0.3686
  428TMC3    O2 6446   0.980   0.825  15.620  1.0890  0.2104 -0.4007
  429MPD2     C 6447   1.338   1.530  17.584 -0.2629  0.3387  0.2808
  429MPD2    C1 6448   1.469   1.504  17.577  0.3327 -0.1283  0.6248
  429MPD2    C2 6449   1.552   1.589  17.510  0.7496 -0.3369  0.3341
  429MPD2    C3 6450   1.499   1.700  17.449  0.2499  0.1246  0.6691
  429MPD2    C4 6451   1.364   1.734  17.466  0.1221  0.3874  0.7842
  429MPD2    C5 6452   1.286   1.652  17.543 -0.2173 -0.5476  0.2676
  429MPD2     H 6453   1.659   1.575  17.504  0.7641 -0.8114  1.5580
  429MPD2    H1 6454   1.325   1.824  17.420  0.2712  0.0658  0.0244
  429MPD2    H2 6455   1.273   1.468  17.644 -0.1273  0.3306  0.4202
  429MPD2    H3 6456   1.182   1.678  17.564 -0.1188 -1.1160  1.4832
  429MPD2     N 6457   1.586   1.782  17.378 -0.0868  0.4504  0.0105
  429MPD2    H5 6458   1.679   1.744  17.363  0.1077  0.5991  0.8214
  429MPD2    N1 6459   1.523   1.393  17.638  0.2238  0.0099  0.6571
  429MPD2    H7 6460   1.620   1.380  17.610  0.0544 -0.2904  0.2128
  430TMC3    C1 6461   1.656   1.980  17.259 -0.1847  0.0141  0.7595
  430TMC3    C2 6462   1.632   2.057  17.151 -0.7310 -0.1202  0.6609
  430TMC3    C3 6463   1.736   2.113  17.084  0.2857 -0.8041  0.3649
  430TMC3    C4 6464   1.781   1.963  17.313  0.3585  1.0698  0.3206
  430TMC3    C5 6465   1.888   2.030  17.254  0.2079 -0.3066 -0.0226
  430TMC3    C6 6466   1.864   2.114  17.140 -0.1146  0.2561  0.2318
  430TMC3     C 6467   1.550   1.902  17.315  0.6744  0.6305  0.4029
  430TMC3     O 6468   1.438   1.943  17.278  0.1987 -0.8294 -0.0789
  430TMC3     H 6469   1.530   2.062  17.115 -1.5296 -2.8160  2.5161
  430TMC3    H1 6470   1.804   1.901  17.400 -1.6954  0.7976  0.6757
  430TMC3    H2 6471   1.947   2.149  17.079 -1.0042  2.6426  0.3932
  430TMC3    C7 6472   2.012   1.954  17.253  0.4280 -0.6452 -0.4758
  430TMC3    C8 6473   1.735   2.094  16.947  0.0732  0.6232 -0.5943
  430TMC3    O1 6474   1.998   1.836  17.277 -0.2801 -0.2702 -0.5428
  430TMC3    O2 6475   1.813   2.162  16.885  0.1196  0.0691  0.6738
  431MPD2     C 6476   2.770   1.480  12.107 -0.3101 -0.9382  0.6448
  431MPD2    C1 6477   2.820   1.572  12.019  0.2349 -0.7017  0.4476
  431MPD2    C2 6478   2.845   1.527  11.888  0.2132  0.3990 -0.0047
  431MPD2    C3 6479   2.844   1.396  11.859  0.3223  0.1061  0.7225
  431MPD2    C4 6480   2.798   1.303  11.955 -0.3246 -0.1116 -0.3010
  431MPD2    C5 6481   2.758   1.352  12.071 -0.4961 -0.5514 -0.2220
  431MPD2     H 6482   2.895   1.604  11.830  0.7295 -0.9226 -1.3087
  431MPD2    H1 6483   2.797   1.196  11.937 -0.0558 -0.1481 -0.0938
  431MPD2    H2 6484   2.740   1.501  12.209  0.7570  0.7809  0.5997
  431MPD2    H3 6485   2.714   1.279  12.138 -0.7432 -1.0611 -0.9355
  431MPD2     N 6486   2.855   1.346  11.726  0.6780  0.2003 -0.4722
  431MPD2    H5 6487   2.835   1.247  11.715  0.7351 -0.0546  1.8587
  431MPD2    N1 6488   2.838   1.707  12.058 -0.2365  0.9779 -0.1543
  431MPD2    H7 6489   2.860   1.767  11.979 -2.3967 -0.1609 -1.6206
  432TMC3    C1 6490   2.942   1.335  11.504 -0.4780 -0.7495 -0.4609
  432TMC3    C2 6491   2.987   1.420  11.405 -0.1483  0.1224  0.0639
  432TMC3    C3 6492   3.090   1.375  11.328 -0.0544  0.3459  0.1763
  432TMC3    C4 6493   3.002   1.217  11.545 -0.0903  0.0411  0.0006
  432TMC3    C5 6494   3.112   1.185  11.476 -0.0188  0.1026  0.7315
  432TMC3    C6 6495   3.148   1.256  11.366 -0.0089 -0.1436 -0.3450
  432TMC3     C 6496   2.894   1.416  11.618 -0.0692 -0.5606 -0.4543
  432TMC3     O 6497   2.907   1.538  11.603  0.5388  0.3059  0.7613
  432TMC3     H 6498   2.938   1.512  11.375  1.4514  0.2814 -2.0392
  432TMC3    H1 6499   2.960   1.145  11.615 -0.9494 -0.5168 -1.0936
  432TMC3    H2 6500   3.230   1.209  11.312 -0.5403 -0.2766 -1.0326
  432TMC3    C7 6501   3.207   1.100  11.547 -0.2982  0.4213  0.3219
  432TMC3    C8 6502   3.161   1.485  11.270  0.3269 -0.5565  0.2181
  432TMC3    O1 6503   3.303   1.071  11.477  0.1591  0.2916 -0.1382
  432TMC3    O2 6504   3.093   1.582  11.235  0.7188 -0.8181 -0.5615
  433MPD2     C 6505   2.195   0.152  10.713  0.5319  0.0082 -0.1320
  433MPD2    C1 6506   2.078   0.138  10.786 -0.5008 -0.7000  0.1096
  433MPD2    C2 6507   2.068   0.189  10.921  0.5394  1.0205  0.7709
  433MPD2    C3 6508   2.185   0.244  10.978  1.2630 -0.8489  0.0067
  433MPD2    C4 6509   2.296   0.268  10.900 -0.2486  0.2130  0.5910
  433MPD2    C5 6510   2.299   0.221  10.771 -0.1437  0.5077 -0.0478
  433MPD2     H 6511   1.979   0.177  10.982  0.6535  1.0507  0.9431
  433MPD2    H1 6512   2.391   0.297  10.942  0.1702 -1.6510  0.9511
  433MPD2    H2 6513   2.195   0.124  10.608 -1.5344  2.5340 -0.8188
  433MPD2    H3 6514   2.383   0.221  10.702 -2.0254  0.2661 -2.3243
  433MPD2     N 6515   2.186   0.270  11.118 -0.7496 -0.4848 -0.4921
  433MPD2    H5 6516   2.102   0.231  11.161 -1.9806  1.9428 -0.7131
  433MPD2    N1 6517   1.974   0.067  10.713 -0.9111  0.4717 -0.7868
  433MPD2    H7 6518   1.997   0.041  10.618 -1.1681 -0.0819 -0.6929
  434TMC3    C1 6519   1.775   4.667  10.698 -1.3353 -0.7873 -0.4323
  434TMC3    C2 6520   1.716   4.576  10.785 -0.1476 -0.7595 -0.3812
  434TMC3    C3 6521   1.686   4.448  10.741  0.7067  0.2281  0.7495
  434TMC3    C4 6522   1.792   4.643  10.566  0.3351  0.0953 -0.1863
  434TMC3    C5 6523   1.744   4.519  10.530 -0.1807 -0.0529  0.1512
  434TMC3    C6 6524   1.701   4.414  10.613 -0.1535 -0.3359  0.1934
  434TMC3     C 6525   1.849   0.037  10.768 -0.2234  0.0681  0.2956
  434TMC3     O 6526   1.813   0.064  10.883 -0.5279 -0.9346  0.5138
  434TMC3     H 6527   1.701   4.600  10.889 -1.8044 -1.8578 -0.3756
  434TMC3    H1 6528   1.779   4.724  10.495 -2.5466  0.5610  0.9111
  434TMC3    H2 6529   1.690   4.308  10.592  1.0192 -0.7853  1.7892
  434TMC3    C7 6530   1.738   4.487  10.389  0.3540  1.4558  0.1267
  434TMC3    C8 6531   1.699   4.342  10.844 -0.8362 -0.5522  0.1623
  434TMC3    O1 6532   1.837   4.519  10.323 -0.2587  0.3726  0.4831
  434TMC3    O2 6533   1.750   4.383  10.949  0.4673  0.3934 -0.0174
  435MPD2     C 6534   3.734   0.544  15.457  0.3860  0.1183 -0.2843
  435MPD2    C1 6535   3.721   0.560  15.594 -0.4907 -0.1876  0.5602
  435MPD2    C2 6536   3.816   0.502  15.679  0.0475  0.0737 -0.4469
  435MPD2    C3 6537   3.917   0.419  15.626  0.5386  0.6551  0.5232
  435MPD2    C4 6538   3.917   0.390  15.493 -0.9429  0.0673 -0.0229
  435MPD2    C5 6539   3.836   0.462  15.410 -0.3893  0.0805 -0.0673
  435MPD2     H 6540   3.807   0.498  15.787 -0.2483 -2.0745 -0.5523
  435MPD2    H1 6541   3.985   0.320  15.447  0.2282  1.4446 -0.3805
  435MPD2    H2 6542   3.668   0.605  15.396 -2.0940 -0.2523  2.0075
  435MPD2    H3 6543   3.837   0.430  15.307  1.3244 -0.5041  0.1161
  435MPD2     N 6544   4.004   0.359  15.714  0.0265 -0.1187 -0.0382
  435MPD2    H5 6545   3.982   0.373  15.812 -1.2462  3.1525 -0.7887
  435MPD2    N1 6546   3.623   0.638  15.656 -0.3668 -0.2722  0.1873
  435MPD2    H7 6547   3.616   0.624  15.756  2.5236 -0.5938  0.3586
  436TMC3    C1 6548   3.455   0.859  15.937 -0.5331  0.4921 -0.6016
  436TMC3    C2 6549   3.530   0.817  15.831 -0.2836 -0.5032  0.1448
  436TMC3    C3 6550   3.471   0.811  15.708 -0.8726 -0.4603  0.1874
  436TMC3    C4 6551   3.323   0.887  15.921  0.5965  0.3547 -0.4905
  436TMC3    C5 6552   3.273   0.886  15.794 -0.0684  0.0260  0.3476
  436TMC3    C6 6553   3.341   0.842  15.682  0.4363  0.0726 -0.0177
  436TMC3     C 6554   3.523   0.865  16.067  0.0614 -0.5278  0.5821
  436TMC3     O 6555   3.646   0.856  16.061  0.6747  0.1198 -0.5798
  436TMC3     H 6556   3.637   0.800  15.837 -0.2076 -0.1908 -0.2735
  436TMC3    H1 6557   3.259   0.903  16.007 -0.6319 -1.9898 -0.9835
  436TMC3    H2 6558   3.292   0.852  15.586  0.1729  0.5806  0.1641
  436TMC3    C7 6559   3.131   0.878  15.787 -0.4199 -0.4106 -0.1530
  436TMC3    C8 6560   3.529   0.724  15.605 -0.1380  0.1257  0.0586
  436TMC3    O1 6561   3.065   0.957  15.851  0.5783 -0.3699 -0.1363
  436TMC3    O2 6562   3.494   0.732  15.490  0.4727  0.2332 -0.4967
  437TMC3    C1 6563   2.702   2.787  11.766  0.6459 -0.4985  0.0665
  437TMC3    C2 6564   2.648   2.764  11.639 -0.6692 -0.3217 -0.0783
  437TMC3    C3 6565   2.724   2.776  11.526  0.2694 -0.3475  0.9062
  437TMC3    C4 6566   2.835   2.815  11.776 -0.0803 -0.1889  0.0975
  437TMC3    C5 6567   2.908   2.828  11.658  0.1688  0.6729  0.5595
  437TMC3    C6 6568   2.854   2.819  11.533 -0.5277 -0.1523 -1.3797
  437TMC3     C 6569   2.619   2.775  11.893 -0.0552 -0.3220  0.1247
  437TMC3     O 6570   2.502   2.733  11.880 -0.2155  0.4203  0.1233
  437TMC3     H 6571   2.540   2.750  11.633 -0.7875 -0.1351  1.5344
  437TMC3    H1 6572   2.877   2.841  11.872  1.1496 -1.8085  0.0216
  437TMC3    H2 6573   2.916   2.834  11.445  0.3332  0.3777 -0.6719
  437TMC3    C7 6574   3.048   2.806  11.659 -0.1436 -0.5328  0.7897
  437TMC3    C8 6575   2.686   2.719  11.403  0.0264 -0.0295  0.5676
  437TMC3    O1 6576   3.110   2.837  11.561  0.3289 -0.5274 -0.3803
  437TMC3    O2 6577   2.734   2.774  11.305 -0.8367 -0.4672 -0.2888
  438MPD2     C 6578   4.509   3.163  16.527  0.1810  0.0405  0.2698
  438MPD2    C1 6579   4.618   3.113  16.596  0.3354  0.1221 -0.1554
  438MPD2    C2 6580   4.608   3.094  16.727  0.1206  0.1421  0.4552
  438MPD2    C3 6581   4.499   3.122  16.802  0.5882 -0.1554 -0.1084
  438MPD2    C4 6582   4.391   3.182  16.733 -0.6130  0.0434 -0.3959
  438MPD2    C5 6583   4.404   3.202  16.597  0.1173  0.2522 -0.2461
  438MPD2     H 6584   4.694   3.050  16.776 -0.1687 -0.2301  0.6354
  438MPD2    H1 6585   4.304   3.206  16.793  1.3106  2.5609  1.4029
  438MPD2    H2 6586   4.509   3.168  16.419 -0.0981  1.3661  0.3285
  438MPD2    H3 6587   4.319   3.242  16.543 -0.9825  0.0528  1.3134
  438MPD2     N 6588   4.480   3.078  16.938 -0.0225  0.5162  0.3680
  438MPD2    H5 6589   4.399   3.118  16.985  0.1938 -0.4279  1.5368
  438MPD2    N1 6590   4.733   3.062  16.532  0.3173 -0.7961  0.4417
  438MPD2    H7 6591   0.055   3.007  16.590  1.0703 -1.3180 -0.8535
  439TMC3    C1 6592   0.142   2.985  16.362 -0.1550  0.2060 -0.5004
  439TMC3    C2 6593   0.146   2.929  16.235  0.8827 -0.4997  0.1317
  439TMC3    C3 6594   0.251   2.843  16.222  0.5378 -0.7596  0.0294
  439TMC3    C4 6595   0.218   2.933  16.473 -0.2065 -0.2263 -0.1055
  439TMC3    C5 6596   0.291   2.822  16.453 -0.6257 -0.0759  0.5140
  439TMC3    C6 6597   0.322   2.789  16.324  0.0978  0.1804  0.2631
  439TMC3     C 6598   0.017   3.056  16.395 -0.0138  0.6441 -0.6987
  439TMC3     O 6599   4.689   3.083  16.293  0.3728 -0.4825  0.2673
  439TMC3     H 6600   0.081   2.964  16.155 -0.0279  1.6265  1.7933
  439TMC3    H1 6601   0.230   2.984  16.567 -0.1659  1.0135 -0.7807
  439TMC3    H2 6602   0.400   2.717  16.303  0.3688 -0.0620  2.1122
  439TMC3    C7 6603   0.395   2.797  16.545 -0.4118 -0.1745 -0.6726
  439TMC3    C8 6604   0.314   2.804  16.089 -0.3154  0.2340  0.5347
  439TMC3    O1 6605   0.494   2.741  16.505  0.2461 -0.1149 -0.5911
  439TMC3    O2 6606   0.404   2.719  16.095  0.5733  0.0723 -0.0727
  440MPD2     C 6607   3.391   3.674  14.775  0.2620  0.1392 -0.0617
  440MPD2    C1 6608   3.478   3.738  14.866  0.0692  0.6604  0.6410
  440MPD2    C2 6609   3.618   3.722  14.854 -0.0847 -1.1601 -0.2302
  440MPD2    C3 6610   3.663   3.666  14.734  0.1967  0.2459 -0.9815
  440MPD2    C4 6611   3.579   3.608  14.645 -0.7315  0.4438  0.3464
  440MPD2    C5 6612   3.450   3.609  14.668  0.5370 -0.4955 -0.0181
  440MPD2     H 6613   3.679   3.773  14.927 -0.0901 -0.0539 -1.0126
  440MPD2    H1 6614   3.620   3.556  14.559 -0.3885  0.2247  0.6454
  440MPD2    H2 6615   3.285   3.674  14.795  0.2978 -0.1402  0.1190
  440MPD2    H3 6616   3.381   3.570  14.594  0.0350 -0.2778  0.3327
  440MPD2     N 6617   3.801   3.657  14.695 -0.0435  0.3674 -0.5149
  440MPD2    H5 6618   3.818   3.595  14.617 -0.0311 -0.4694  0.1583
  440MPD2    N1 6619   3.431   3.786  14.992  0.3069  0.5321 -0.0776
  440MPD2    H7 6620   3.495   3.798  15.071 -0.5090  1.1247  0.4879
  441TMC3    C1 6621   4.045   3.667  14.729 -0.2321 -0.1124 -1.2156
  441TMC3    C2 6622   4.144   3.756  14.775  0.1117  0.4010 -0.2118
  441TMC3    C3 6623   4.262   3.707  14.824  0.2676 -0.0443 -0.2442
  441TMC3    C4 6624   4.067   3.533  14.735 -0.2233 -1.1804 -0.3549
  441TMC3    C5 6625   4.187   3.492  14.785 -0.5948  0.3794  0.4256
  441TMC3    C6 6626   4.288   3.575  14.826 -0.5118  0.4688  0.6563
  441TMC3     C 6627   3.909   3.709  14.767  0.2456 -0.8628  0.0494
  441TMC3     O 6628   3.906   3.792  14.858  0.0696  0.0165  0.0458
  441TMC3     H 6629   4.120   3.862  14.771  0.4733  0.4153 -2.1334
  441TMC3    H1 6630   3.993   3.461  14.705  0.0440 -1.7637  0.3786
  441TMC3    H2 6631   4.376   3.529  14.869 -0.4267  0.3125  0.3160
  441TMC3    C7 6632   4.210   3.349  14.790 -0.2967  0.1889  0.1660
  441TMC3    C8 6633   4.262   3.743  14.966  0.4098  0.0412  0.6644
  441TMC3    O1 6634   4.327   3.307  14.772 -0.3046  0.1121 -0.4540
  441TMC3    O2 6635   4.353   3.694  15.034 -0.3813  0.3811  0.5932
  442MPD2     C 6636   2.008   3.609  16.004  0.4755  0.0439  0.3380
  442MPD2    C1 6637   1.975   3.513  16.097 -0.2765 -0.1129 -0.1965
  442MPD2    C2 6638   1.944   3.382  16.071 -0.0743  0.0735  0.8057
  442MPD2    C3 6639   1.930   3.358  15.931 -0.0155  0.7581 -1.3415
  442MPD2    C4 6640   1.963   3.451  15.836  0.0219  0.4901  0.0779
  442MPD2    C5 6641   2.005   3.575  15.871  0.2893 -0.5092 -0.9026
  442MPD2     H 6642   1.921   3.319  16.157  2.4839  0.9938  2.1666
  442MPD2    H1 6643   1.946   3.414  15.736  1.6450  2.3563 -0.8738
  442MPD2    H2 6644   2.028   3.712  16.030 -0.5562  0.4102 -0.2936
  442MPD2    H3 6645   2.019   3.648  15.792 -0.7549 -0.3128 -0.8998
  442MPD2     N 6646   1.874   3.238  15.884  0.0735 -0.4348  0.6522
  442MPD2    H5 6647   1.880   3.221  15.784 -0.1471  0.5210  0.4769
  442MPD2    N1 6648   1.965   3.548  16.229 -0.1246  0.0152 -0.2050
  442MPD2    H7 6649   1.942   3.471  16.291 -0.2671 -1.2063 -1.7730
  443TMC3    C1 6650   1.979   3.663  16.437  0.1103  0.0718  0.1469
  443TMC3    C2 6651   1.998   3.783  16.501 -0.2829  0.0397  0.4730
  443TMC3    C3 6652   1.953   3.790  16.625 -0.2570  0.0790 -0.0283
  443TMC3    C4 6653   1.901   3.566  16.493 -0.2784 -0.2483 -0.5798
  443TMC3    C5 6654   1.862   3.581  16.622 -0.2328 -0.2551  0.1152
  443TMC3    C6 6655   1.877   3.697  16.691 -0.5403  0.3167  0.1410
  443TMC3     C 6656   1.995   3.668  16.296 -0.4976  0.2905 -0.0122
  443TMC3     O 6657   2.020   3.775  16.245  0.0901  0.6824  0.1891
  443TMC3     H 6658   2.059   3.864  16.462 -0.8725 -0.7479 -2.0838
  443TMC3    H1 6659   1.874   3.476  16.440  0.1888  0.3331 -1.8063
  443TMC3    H2 6660   1.846   3.721  16.792 -1.8612  0.2146 -0.2298
  443TMC3    C7 6661   1.752   3.494  16.666  0.4438 -0.1312  0.4077
  443TMC3    C8 6662   1.974   3.903  16.703 -0.0258 -0.1985 -0.4391
  443TMC3    O1 6663   1.727   3.393  16.597 -0.0048  0.4301 -0.4521
  443TMC3    O2 6664   2.045   3.883  16.799  0.1173  0.3503  0.8226
  444MPD2     C 6665   2.128   3.439  16.812 -0.5301  0.5162 -0.2041
  444MPD2    C1 6666   2.044   3.329  16.827 -0.2617  0.9059 -0.1016
  444MPD2    C2 6667   2.054   3.218  16.752  0.1559 -0.0528 -0.4829
  444MPD2    C3 6668   2.161   3.207  16.664 -0.6430  0.0836 -0.9209
  444MPD2    C4 6669   2.253   3.311  16.654 -0.1659 -0.2419 -0.5153
  444MPD2    C5 6670   2.228   3.427  16.716  0.6900 -0.3312 -0.0662
  444MPD2     H 6671   1.979   3.140  16.762 -0.6072  0.8964  1.2095
  444MPD2    H1 6672   2.347   3.306  16.599  1.4367 -1.2290  2.3135
  444MPD2    H2 6673   2.140   3.523  16.879 -0.9798 -0.7020  1.4258
  444MPD2    H3 6674   2.300   3.506  16.697 -0.7590  0.9827 -0.1223
  444MPD2     N 6675   2.167   3.096  16.574  0.1848  0.1481 -0.1191
  444MPD2    H5 6676   2.101   3.019  16.575 -2.8279  2.7274 -0.2251
  444MPD2    N1 6677   1.952   3.314  16.933  0.2001 -0.1217 -0.9066
  444MPD2    H7 6678   1.896   3.230  16.941 -1.5489  1.1243 -0.1126
  445TMC3    C1 6679   2.276   2.937  16.422 -0.1623 -0.6859 -0.1954
  445TMC3    C2 6680   2.219   2.830  16.491  0.4110 -0.1559 -0.2620
  445TMC3    C3 6681   2.266   2.704  16.464 -0.1355 -0.0744 -0.3191
  445TMC3    C4 6682   2.362   2.918  16.316  0.2443 -0.3876 -0.2958
  445TMC3    C5 6683   2.404   2.783  16.294  0.2979 -1.0806  0.5956
  445TMC3    C6 6684   2.355   2.673  16.364 -0.1299 -0.2264  0.4281
  445TMC3     C 6685   2.266   3.073  16.478  0.1022 -0.0608 -0.7646
  445TMC3     O 6686   2.344   3.150  16.421 -0.0054 -0.2091  0.2385
  445TMC3     H 6687   2.180   2.847  16.590  0.0613 -1.9065 -0.1095
  445TMC3    H1 6688   2.397   3.001  16.257 -3.0595  0.8780 -0.4902
  445TMC3    H2 6689   2.378   2.575  16.323 -0.5156  0.6820 -2.0004
  445TMC3    C7 6690   2.512   2.769  16.204 -0.4275  0.2957  0.0179
  445TMC3    C8 6691   2.232   2.604  16.561 -0.1980 -0.6603 -0.5501
  445TMC3    O1 6692   2.522   2.853  16.114 -0.4496 -0.4671  0.6067
  445TMC3    O2 6693   2.125   2.606  16.622  0.2865 -0.8200 -0.1344
  446MPD2     C 6694   1.474   4.260  11.420 -0.2848 -0.2783 -0.2808
  446MPD2    C1 6695   1.475   4.277  11.288  0.3545 -0.2009 -0.5750
  446MPD2    C2 6696   1.583   4.341  11.229  0.5259 -0.0921  0.0016
  446MPD2    C3 6697   1.692   4.389  11.299 -0.7463  0.4504  0.2481
  446MPD2    C4 6698   1.683   4.376  11.439  0.1249 -0.1981 -0.1159
  446MPD2    C5 6699   1.576   4.311  11.497  0.2647  0.0689 -0.1200
  446MPD2     H 6700   1.574   4.355  11.122 -0.6230 -0.3009  0.0717
  446MPD2    H1 6701   1.756   4.427  11.501 -0.0592 -0.0042 -0.0615
  446MPD2    H2 6702   1.407   4.192  11.471 -0.3776 -1.1590 -1.5944
  446MPD2    H3 6703   1.569   4.296  11.604  2.2837  0.2883  0.0400
  446MPD2     N 6704   1.807   4.430  11.226  0.3206 -0.3049 -0.0122
  446MPD2    H5 6705   1.806   4.424  11.124 -0.5934 -0.0161 -0.0220
  446MPD2    N1 6706   1.369   4.227  11.204 -0.0612 -0.7919  0.2487
  446MPD2    H7 6707   1.377   4.254  11.107  0.7995 -1.9198  0.0083
  447TMC3    C1 6708   2.038   4.491  11.183 -0.6440  0.8954 -0.0561
  447TMC3    C2 6709   2.023   4.502  11.049  0.3589 -0.2936 -0.0671
  447TMC3    C3 6710   2.140   4.519  10.965  0.1480  0.1247  0.4257
  447TMC3    C4 6711   2.162   4.501  11.239  0.2791  0.4475  0.2467
  447TMC3    C5 6712   2.269   4.526  11.159  0.8600  0.0435 -0.2190
  447TMC3    C6 6713   2.267   4.527  11.024 -0.2542 -0.2074  0.8429
  447TMC3     C 6714   1.928   4.474  11.281 -0.4050 -0.5652 -0.2926
  447TMC3     O 6715   1.947   4.487  11.403  0.3149  0.5078  0.0428
  447TMC3     H 6716   1.928   4.502  10.995  1.1698  1.7410 -1.5211
  447TMC3    H1 6717   2.164   4.492  11.347 -1.2064 -1.3767  0.1279
  447TMC3    H2 6718   2.359   4.547  10.971 -0.4776 -1.7304 -0.1046
  447TMC3    C7 6719   2.406   4.537  11.214  0.2411 -0.3908  0.9554
  447TMC3    C8 6720   2.124   4.510  10.823 -0.1368  0.3021  0.3114
  447TMC3    O1 6721   2.500   4.509  11.142 -0.3579 -0.7134  0.2754
  447TMC3    O2 6722   2.020   4.476  10.769 -0.7107  0.4306  0.6823
  448TMC3    C1 6723   0.118   4.646  16.973  0.2074 -0.1317  0.5394
  448TMC3    C2 6724   0.073   4.565  16.871  0.7042  0.0878  0.2353
  448TMC3    C3 6725   0.116   4.434  16.868 -0.0444 -0.1739 -0.4253
  448TMC3    C4 6726   0.193   4.600  17.075  0.2537  0.3252  0.5613
  448TMC3    C5 6727   0.225   4.467  17.071  0.2686 -0.2845  0.4815
  448TMC3    C6 6728   0.184   4.379  16.972 -0.2704  0.4987  0.2322
  448TMC3     C 6729   0.098   0.049  16.959  0.2842  0.4372 -0.2731
  448TMC3     O 6730   0.162   0.123  17.032  0.1792 -0.1303  0.3698
  448TMC3     H 6731   0.035   4.615  16.782 -1.7229 -1.0464  0.6608
  448TMC3    H1 6732   0.231   4.662  17.155 -1.4096 -0.7425  2.1586
  448TMC3    H2 6733   0.229   4.281  16.961 -0.1557  0.2817  2.5718
  448TMC3    C7 6734   0.294   4.413  17.180 -0.0853  0.3305  0.4982
  448TMC3    C8 6735   0.070   4.339  16.765 -0.0727  0.5759 -0.2112
  448TMC3    O1 6736   0.347   4.496  17.255 -0.3714 -0.0974  0.2685
  448TMC3    O2 6737   0.126   4.229  16.759 -0.3182 -0.6252  0.7440
  449MPD2     C 6738   1.706   2.913  14.014  0.1800  0.1485  0.5979
  449MPD2    C1 6739   1.603   3.000  13.990  0.1545 -0.1439  0.0747
  449MPD2    C2 6740   1.473   2.958  13.980 -0.4775 -0.5086  0.0514
  449MPD2    C3 6741   1.442   2.825  14.004 -0.2639 -0.2798 -0.9301
  449MPD2    C4 6742   1.547   2.739  14.030  0.2874 -0.4256 -1.2576
  449MPD2    C5 6743   1.677   2.784  14.033 -0.2262  0.1768 -0.1434
  449MPD2     H 6744   1.389   3.026  13.964 -0.8780 -0.9258  0.3959
  449MPD2    H1 6745   1.536   2.633  14.052  0.0234 -0.1626 -0.1403
  449MPD2    H2 6746   1.807   2.950  14.032 -0.9598  3.2551  0.6306
  449MPD2    H3 6747   1.755   2.714  14.061 -0.2409 -0.8653 -2.7246
  449MPD2     N 6748   1.311   2.792  13.990  0.1234 -0.2847 -0.8811
  449MPD2    H5 6749   1.254   2.864  13.947  1.5923  2.2304  1.3160
  449MPD2    N1 6750   1.630   3.141  13.981 -0.5443  0.2259 -0.2681
  449MPD2    H7 6751   1.547   3.195  13.961 -0.7452  0.5881  1.5367
  450TMC3    C1 6752   1.713   3.337  13.924 -0.1689  0.3081 -0.3194
  450TMC3    C2 6753   1.771   3.370  13.807 -0.1849 -0.2817 -0.4296
  450TMC3    C3 6754   1.692   3.436  13.716  0.6376  0.1346 -0.0719
  450TMC3    C4 6755   1.593   3.388  13.965  0.5439 -0.1109 -0.2481
  450TMC3    C5 6756   1.515   3.463  13.875 -0.0507 -0.8576  0.8286
  450TMC3    C6 6757   1.559   3.476  13.746 -0.0126  0.1060 -0.8646
  450TMC3     C 6758   1.748   3.206  13.981 -0.1806 -0.1443  0.3807
  450TMC3     O 6759   1.861   3.163  13.979  0.1508  0.2797 -0.2355
  450TMC3     H 6760   1.863   3.329  13.767  0.3961  0.1279  0.4817
  450TMC3    H1 6761   1.553   3.371  14.064  0.9275  1.3510  0.1445
  450TMC3    H2 6762   1.494   3.537  13.684 -0.2797  0.3540 -0.3393
  450TMC3    C7 6763   1.387   3.392  13.887 -0.6486 -0.0106 -0.4757
  450TMC3    C8 6764   1.722   3.455  13.575 -0.3718  0.4780 -0.2586
  450TMC3    O1 6765   1.398   3.275  13.918  0.0547 -0.3119  0.2493
  450TMC3    O2 6766   1.647   3.533  13.516  0.6449 -0.0611  0.2826
  451MPD2     C 6767   2.285   1.347   0.866  0.1013  0.3285  0.0036
  451MPD2    C1 6768   2.352   1.411   0.776 -0.4644  0.3251  0.1329
  451MPD2    C2 6769   2.418   1.346   0.673  0.1715  0.1327 -0.2495
  451MPD2    C3 6770   2.418   1.208   0.667  0.1998 -0.5149  0.1158
  451MPD2    C4 6771   2.361   1.149   0.771  0.0454  0.1761  0.6852
  451MPD2    C5 6772   2.284   1.214   0.863  0.0555 -0.2817 -0.0580
  451MPD2     H 6773   2.468   1.406   0.598  1.0871  1.8906  1.7849
  451MPD2    H1 6774   2.362   1.042   0.787 -3.0322  0.4150  2.2629
  451MPD2    H2 6775   2.219   1.392   0.939 -0.4653  0.8184 -0.8036
  451MPD2    H3 6776   2.232   1.153   0.936 -0.4664  2.4643  1.8977
  451MPD2     N 6777   2.493   1.132   0.575 -0.4798 -0.1455  0.6619
  451MPD2    H5 6778   2.483   1.031   0.567 -1.0524 -0.0796  0.5014
  451MPD2    N1 6779   2.353   1.551   0.786  0.0259 -0.4505  0.1948
  451MPD2    H7 6780   2.298   1.583   0.865 -0.7178  0.4237 -0.6747
  452TMC3    C1 6781   2.670   1.093   0.426 -0.5599 -0.3199  0.5294
  452TMC3    C2 6782   2.605   0.981   0.376  0.2009 -0.2778  0.2500
  452TMC3    C3 6783   2.666   0.906   0.281  0.1734  0.2552 -0.7176
  452TMC3    C4 6784   2.779   1.143   0.361 -0.5119 -0.5855  0.7352
  452TMC3    C5 6785   2.843   1.058   0.269 -0.1053 -0.3431 -0.2631
  452TMC3    C6 6786   2.788   0.941   0.227  0.1250 -0.5297  0.2832
  452TMC3     C 6787   2.597   1.187   0.503 -0.1932 -0.8872  0.2699
  452TMC3     O 6788   2.650   1.296   0.513  0.3651  0.3780 -0.5808
  452TMC3     H 6789   2.516   0.932   0.414  0.1057 -0.8996 -0.7864
  452TMC3    H1 6790   2.842   1.221   0.402  0.7142 -0.6496 -1.0186
  452TMC3    H2 6791   2.835   0.884   0.149 -0.9199 -2.7520  1.2905
  452TMC3    C7 6792   2.955   1.111   0.191 -0.5931  0.0839 -1.1569
  452TMC3    C8 6793   2.608   0.779   0.233  0.4069 -0.1245  0.3163
  452TMC3    O1 6794   3.014   1.037   0.111 -0.7096 -0.6861  0.3907
  452TMC3    O2 6795   2.504   0.749   0.282 -0.2541 -0.1704 -0.7299
  453TMC3    C1 6796   4.070   3.571  11.950 -0.6483 -0.5253  0.3086
  453TMC3    C2 6797   4.036   3.441  11.993  0.2606 -0.4140  0.6125
  453TMC3    C3 6798   4.004   3.351  11.898  0.1226  0.4372 -0.7112
  453TMC3    C4 6799   4.042   3.610  11.823  0.1491  0.1936  0.1775
  453TMC3    C5 6800   4.002   3.517  11.731  0.3100 -0.4551  0.0464
  453TMC3    C6 6801   3.981   3.384  11.767  0.1925 -0.5968 -0.0034
  453TMC3     C 6802   4.183   3.625  12.014 -0.2674 -0.0152 -0.0730
  453TMC3     O 6803   4.264   3.679  11.936 -0.4349 -0.2416 -0.4635
  453TMC3     H 6804   4.052   3.407  12.095 -0.4445 -1.0040  0.5232
  453TMC3    H1 6805   4.071   3.708  11.788  1.1646 -0.2731 -0.2647
  453TMC3    H2 6806   3.951   3.309  11.695 -1.7399  1.5445 -1.3993
  453TMC3    C7 6807   4.016   3.560  11.592 -0.6205 -0.7027  0.2676
  453TMC3    C8 6808   3.957   3.226  11.943  0.1006  0.0305 -0.2891
  453TMC3    O1 6809   4.007   3.680  11.578  0.0943  0.7902  0.0731
  453TMC3    O2 6810   3.886   3.218  12.044  0.0577 -0.2733 -0.2089
  454MPD2     C 6811   2.768   2.819  15.574  0.4475  0.6268 -0.2238
  454MPD2    C1 6812   2.668   2.758  15.647 -0.2224  0.6560 -0.4898
  454MPD2    C2 6813   2.569   2.845  15.698 -0.1498  0.2352 -0.5671
  454MPD2    C3 6814   2.562   2.981  15.661 -0.7473  0.0875 -0.8040
  454MPD2    C4 6815   2.657   3.035  15.575  0.2366  0.4638 -0.5809
  454MPD2    C5 6816   2.759   2.952  15.535 -0.0090  0.1077  0.5017
  454MPD2     H 6817   2.485   2.793  15.744  0.4540  0.6029  0.9532
  454MPD2    H1 6818   2.650   3.140  15.552  4.3648  1.3338  2.1810
  454MPD2    H2 6819   2.848   2.767  15.523  0.8801  0.5142  0.5787
  454MPD2    H3 6820   2.835   2.999  15.474 -0.5465  2.5575  1.6931
  454MPD2     N 6821   2.452   3.056  15.712  0.3216 -0.4949  0.2775
  454MPD2    H5 6822   2.384   2.995  15.754  0.9438 -1.3949 -0.0262
  454MPD2    N1 6823   2.652   2.622  15.667 -0.3284  0.0210 -0.5341
  454MPD2    H7 6824   2.573   2.582  15.717  0.9256 -0.4260  1.0690
  455TMC3    C1 6825   2.325   3.239  15.797  0.4178  0.6892 -0.7760
  455TMC3    C2 6826   2.371   3.316  15.898 -0.1169 -0.5782 -0.4749
  455TMC3    C3 6827   2.303   3.298  16.016 -0.5550 -0.5886 -0.4739
  455TMC3    C4 6828   2.227   3.150  15.811  0.4810 -0.2030  1.0680
  455TMC3    C5 6829   2.182   3.110  15.934  0.5443 -0.5691 -0.2372
  455TMC3    C6 6830   2.214   3.193  16.038  0.2182 -0.3467  0.2686
  455TMC3     C 6831   2.443   3.188  15.727 -0.6070  0.1203 -0.5304
  455TMC3     O 6832   2.539   3.257  15.707 -0.2962 -0.6151 -0.0551
  455TMC3     H 6833   2.446   3.391  15.874  0.6803 -0.5029  2.2868
  455TMC3    H1 6834   2.204   3.095  15.720  1.0764  0.7605  0.3255
  455TMC3    H2 6835   2.189   3.175  16.142 -1.7514  0.8833  0.0020
  455TMC3    C7 6836   2.188   2.966  15.936 -0.3566  0.4217 -0.1557
  455TMC3    C8 6837   2.320   3.401  16.117  0.0518  0.2201  0.2597
  455TMC3    O1 6838   2.236   2.909  15.838 -0.1343  0.3912  0.5885
  455TMC3    O2 6839   2.307   3.375  16.237  0.9078 -0.3265 -0.2473
  456MPD2     C 6840   0.070   3.269  15.849 -0.7576 -0.1012  0.4593
  456MPD2    C1 6841   0.162   3.265  15.945  0.1011 -0.1309 -0.1502
  456MPD2    C2 6842   0.129   3.317  16.072  0.5181 -0.2555 -0.4318
  456MPD2    C3 6843   4.738   3.353  16.100  0.6804 -0.2727 -0.2397
  456MPD2    C4 6844   4.641   3.350  16.002  0.3738  0.0740 -0.0974
  456MPD2    C5 6845   4.679   3.300  15.880 -0.0989 -0.0924 -0.2181
  456MPD2     H 6846   0.202   3.315  16.152 -0.0677 -0.5533  0.0873
  456MPD2    H1 6847   4.535   3.368  16.016  0.1549 -1.0836 -0.2653
  456MPD2    H2 6848   0.087   3.231  15.750 -3.0694  1.5001 -0.5572
  456MPD2    H3 6849   4.598   3.280  15.812  0.7828 -0.1163 -1.2532
  456MPD2     N 6850   4.708   3.407  16.235  0.2308  0.8244  0.2381
  456MPD2    H5 6851   0.051   3.411  16.295  2.3957  0.9321 -2.7524
  456MPD2    N1 6852   0.293   3.239  15.909 -0.4062  0.3635  0.0058
  456MPD2    H7 6853   0.311   3.219  15.811  0.0522  0.2924  0.1026
  457TMC3    C1 6854   4.607   3.554  16.402 -0.3896 -0.6955  0.3308
  457TMC3    C2 6855   4.566   3.682  16.422  0.2410  0.6557 -0.4577
  457TMC3    C3 6856   4.606   3.731  16.544  0.6625  0.0690 -0.2433
  457TMC3    C4 6857   4.663   3.476  16.502 -0.9269  0.7859 -0.1139
  457TMC3    C5 6858   4.671   3.531  16.625 -0.2402  0.4139 -0.2621
  457TMC3    C6 6859   4.649   3.662  16.647  0.4911 -0.5109  0.0880
  457TMC3     C 6860   4.597   3.493  16.262 -0.1395 -0.0685  0.2224
  457TMC3     O 6861   4.521   3.541  16.175 -0.6019 -0.0844 -0.2060
  457TMC3     H 6862   4.524   3.744  16.344 -0.6234 -0.1132 -0.5993
  457TMC3    H1 6863   4.684   3.370  16.488 -1.5389  0.6588 -0.0465
  457TMC3    H2 6864   4.668   3.711  16.742  2.1600  0.0503 -0.5499
  457TMC3    C7 6865   4.715   3.448  16.732  0.1084 -0.3279 -0.2603
  457TMC3    C8 6866   4.650   3.871  16.544 -0.2073 -0.1591  0.3285
  457TMC3    O1 6867   0.060   3.364  16.718  0.2351  0.2074 -0.4346
  457TMC3    O2 6868   0.019   3.889  16.604 -0.4798 -0.2140  0.2185
  458MPD2     C 6869   3.499   2.708  11.893 -0.1923  0.0667  0.0573
  458MPD2    C1 6870   3.402   2.697  11.992 -0.2182 -0.6962  0.1690
  458MPD2    C2 6871   3.270   2.701  11.950  1.0170 -0.1361  0.6180
  458MPD2    C3 6872   3.231   2.732  11.815 -0.1121  0.4911 -0.1034
  458MPD2    C4 6873   3.335   2.761  11.721 -0.0239 -0.4965 -0.4054
  458MPD2    C5 6874   3.469   2.749  11.765 -0.0714 -0.6231  0.2906
  458MPD2     H 6875   3.190   2.679  12.020  0.5945  0.1434  0.2258
  458MPD2    H1 6876   3.325   2.797  11.620 -0.3498  1.1653  0.2055
  458MPD2    H2 6877   3.605   2.709  11.917 -0.1765 -1.8385  0.0705
  458MPD2    H3 6878   3.542   2.753  11.685 -0.5792  1.0516 -0.0968
  458MPD2     N 6879   3.096   2.763  11.780  0.4475 -0.3159  0.1658
  458MPD2    H5 6880   3.034   2.725  11.850  0.6144 -0.6042  0.1562
  458MPD2    N1 6881   3.450   2.666  12.123  0.1194  0.7139  0.0096
  458MPD2    H7 6882   3.551   2.665  12.126  0.0890 -0.6517  0.3919
  459TMC3    C1 6883   3.461   2.631  12.352 -0.2768 -0.0106  0.7036
  459TMC3    C2 6884   3.599   2.609  12.348 -0.0485 -0.2195  0.0358
  459TMC3    C3 6885   3.661   2.595  12.468  0.5386  0.3691 -1.0768
  459TMC3    C4 6886   3.389   2.624  12.468 -0.3307 -1.0467 -0.3665
  459TMC3    C5 6887   3.455   2.604  12.587 -0.8372  0.4398  0.0163
  459TMC3    C6 6888   3.591   2.600  12.589  0.3913  0.0843  0.2177
  459TMC3     C 6889   3.377   2.653  12.237 -0.0918 -0.1139  0.2363
  459TMC3     O 6890   3.252   2.642  12.244  0.4346 -0.2276 -0.2348
  459TMC3     H 6891   3.653   2.597  12.254 -2.7446  1.1287 -1.6973
  459TMC3    H1 6892   3.281   2.631  12.460 -0.2789 -2.5550 -2.3739
  459TMC3    H2 6893   3.644   2.584  12.682 -1.1136 -0.6459  0.9423
  459TMC3    C7 6894   3.380   2.546  12.694  0.3670  0.4578  0.3366
  459TMC3    C8 6895   3.804   2.557  12.460  1.0158  0.4697 -0.1331
  459TMC3    O1 6896   3.446   2.487  12.779  0.0141 -0.1427 -0.4517
  459TMC3    O2 6897   3.845   2.562  12.347 -0.0685 -0.0118 -0.1198
  460MPD2     C 6898   2.403   4.579  10.593 -1.0804 -0.1019 -0.8867
  460MPD2    C1 6899   2.270   4.554  10.631 -0.5410  0.4707  1.0623
  460MPD2    C2 6900   2.170   4.541  10.536 -0.1231  0.3294  0.4918
  460MPD2    C3 6901   2.213   4.543  10.401  0.3843 -0.2861  0.1260
  460MPD2    C4 6902   2.344   4.562  10.368  0.3390  0.3575  0.4566
  460MPD2    C5 6903   2.438   4.579  10.461 -0.2600  0.2519  0.9869
  460MPD2     H 6904   2.067   4.525  10.566 -0.4312  0.0097 -0.7410
  460MPD2    H1 6905   2.380   4.563  10.266 -0.6533 -0.3627  0.0971
  460MPD2    H2 6906   2.485   4.578  10.663 -2.7405 -1.0877  1.0363
  460MPD2    H3 6907   2.537   4.616  10.433 -0.0751 -1.6507 -0.8874
  460MPD2     N 6908   2.115   4.515  10.295  0.4830  0.1532 -0.2786
  460MPD2    H5 6909   2.022   4.484  10.321  2.4047 -2.4018  3.6175
  460MPD2    N1 6910   2.247   4.549  10.765  0.3407  0.2917 -0.2240
  460MPD2    H7 6911   2.325   4.574  10.825 -1.9842  2.1005  2.0884
  461TMC3    C1 6912   2.041   4.484  10.068  0.4375  0.4586  0.4321
  461TMC3    C2 6913   2.079   4.408   9.960 -0.1076 -0.0693  0.4885
  461TMC3    C3 6914   1.991   4.414   9.854 -0.3249  0.0820 -0.0816
  461TMC3    C4 6915   1.948   4.587  10.060  0.0625  0.2811 -0.0253
  461TMC3    C5 6916   1.878   4.599   9.944 -0.2840 -0.2011  0.1085
  461TMC3    C6 6917   1.894   4.506   9.844 -0.4833  0.5914 -0.1085
  461TMC3     C 6918   2.148   4.485  10.162 -0.3080  0.4903  0.0552
  461TMC3     O 6919   2.258   4.478  10.110 -0.0987  0.5350 -0.0959
  461TMC3     H 6920   2.146   4.324   9.972  3.0436  2.6496  1.9313
  461TMC3    H1 6921   1.924   4.648  10.146 -1.3742  1.3686 -1.1971
  461TMC3    H2 6922   1.845   4.521   9.748 -0.4402 -0.9422 -0.3767
  461TMC3    C7 6923   1.817   4.726   9.905  0.2573 -0.5869 -0.9799
  461TMC3    C8 6924   2.017   4.312   9.751  0.1292 -0.3400 -0.1399
  461TMC3    O1 6925   1.728   4.724   9.819  0.0206 -0.1272  0.1555
  461TMC3    O2 6926   2.117   4.239   9.756 -0.6002 -0.6341  0.1961
  462TMC3    C1 6927   2.351   0.758  17.605  0.5439  0.3286 -0.0260
  462TMC3    C2 6928   2.398   0.653  17.532  0.5409 -0.4915 -0.7981
  462TMC3    C3 6929   2.310   0.550  17.502 -0.0245 -0.4141 -0.1313
  462TMC3    C4 6930   2.222   0.757  17.657 -0.2667 -0.2127  0.2130
  462TMC3    C5 6931   2.141   0.645  17.633  0.1664  0.3071  0.0558
  462TMC3    C6 6932   2.181   0.539  17.559 -0.2874 -0.3317 -0.1244
  462TMC3     C 6933   2.449   0.869  17.630  0.3137  0.0607  0.0503
  462TMC3     O 6934   2.553   0.856  17.569  0.6495 -0.1919  0.0273
  462TMC3     H 6935   2.503   0.635  17.512  0.8213  0.0327  0.2178
  462TMC3    H1 6936   2.197   0.851  17.704  1.2400 -0.5073  1.6037
  462TMC3    H2 6937   2.106   0.468  17.525  0.4881 -0.2442 -2.0234
  462TMC3    C7 6938   2.015   0.634  17.705 -0.1269 -0.3319 -0.4467
  462TMC3    C8 6939   2.352   0.437  17.429  0.5287  0.3742 -0.3447
  462TMC3    O1 6940   1.936   0.542  17.682 -0.0198 -0.3776  0.0641
  462TMC3    O2 6941   2.305   0.332  17.473  0.7026  0.5067 -0.3513
  463MPD2     C 6942   3.775   3.407   1.415  0.1859  0.3568 -0.8053
  463MPD2    C1 6943   3.758   3.547   1.425  0.3091  0.0035 -0.1897
  463MPD2    C2 6944   3.869   3.625   1.456  0.0289 -0.3781  0.2319
  463MPD2    C3 6945   3.990   3.566   1.474  0.0622  0.4357 -0.1727
  463MPD2    C4 6946   4.004   3.430   1.477 -0.2244  0.3760  0.0887
  463MPD2    C5 6947   3.900   3.351   1.444 -0.4633 -0.2789  0.1344
  463MPD2     H 6948   3.861   3.733   1.456 -0.0311 -0.3788  1.4531
  463MPD2    H1 6949   4.106   3.393   1.488 -0.9171 -2.0568 -1.6068
  463MPD2    H2 6950   3.697   3.332   1.405  1.5523 -1.1475 -0.0854
  463MPD2    H3 6951   3.926   3.248   1.427 -2.7911 -0.8840  0.2511
  463MPD2     N 6952   4.112   3.639   1.489 -0.6478 -0.4977 -0.3329
  463MPD2    H5 6953   4.198   3.585   1.492 -0.2007  0.3318  1.9171
  463MPD2    N1 6954   3.635   3.615   1.413  0.3489 -0.3011  0.4378
  463MPD2    H7 6955   3.641   3.710   1.447  0.4174  0.9059 -2.9260
  464TMC3    C1 6956   3.400   3.625   1.435 -0.2505 -0.2493  0.5997
  464TMC3    C2 6957   3.401   3.764   1.445  0.7248 -0.1903 -0.2317
  464TMC3    C3 6958   3.285   3.834   1.467 -0.8557 -0.2086 -0.7349
  464TMC3    C4 6959   3.277   3.563   1.436  0.0253 -0.3131 -0.2805
  464TMC3    C5 6960   3.165   3.635   1.446  0.3769  0.4611 -0.3625
  464TMC3    C6 6961   3.167   3.772   1.468  1.4882 -0.4926  0.5782
  464TMC3     C 6962   3.514   3.554   1.397 -0.2710 -0.6417  0.3257
  464TMC3     O 6963   3.498   3.436   1.358  0.5260  0.3792 -0.2396
  464TMC3     H 6964   3.492   3.820   1.427  0.2714  0.1799 -1.4372
  464TMC3    H1 6965   3.264   3.458   1.413  1.7976 -0.7875  0.9057
  464TMC3    H2 6966   3.072   3.817   1.492  0.7665 -1.1394 -1.0996
  464TMC3    C7 6967   3.051   3.563   1.500 -0.5310  0.2943 -0.0335
  464TMC3    C8 6968   3.283   3.970   1.517  0.2848  0.2044  0.0991
  464TMC3    O1 6969   3.073   3.460   1.555  0.5277  0.8206  0.1043
  464TMC3    O2 6970   3.176   4.028   1.522  0.6098  0.3427 -0.2512
  465MPD2     C 6971   4.300   3.767  16.925  0.7514  0.5315 -0.6582
  465MPD2    C1 6972   4.230   3.654  16.926 -0.1334  0.1648 -0.0762
  465MPD2    C2 6973   4.190   3.595  16.806  0.7469 -0.0324  0.5363
  465MPD2    C3 6974   4.212   3.657  16.685 -0.1171 -0.0781 -0.1473
  465MPD2    C4 6975   4.279   3.775  16.685  0.4352  0.1289  0.3845
  465MPD2    C5 6976   4.331   3.828  16.802 -0.3789 -0.1831 -0.3120
  465MPD2     H 6977   4.123   3.510  16.808  2.5469 -1.5003 -1.8691
  465MPD2    H1 6978   4.303   3.828  16.593  0.6950  2.8045  2.0053
  465MPD2    H2 6979   4.343   3.796  17.020  1.6208  0.6948 -1.1066
  465MPD2    H3 6980   4.379   3.925  16.807 -1.4177  0.3250 -0.2801
  465MPD2     N 6981   4.153   3.605  16.564  0.0680 -0.5188  0.6620
  465MPD2    H5 6982   4.098   3.521  16.564  1.5934 -1.5321 -0.7596
  465MPD2    N1 6983   4.174   3.595  17.042  0.5123  0.5521  0.3223
  465MPD2    H7 6984   4.127   3.505  17.034 -0.9312  1.1189  2.3868
  466TMC3    C1 6985   3.868   3.533  16.329  1.0430  0.2244 -0.1171
  466TMC3    C2 6986   3.840   3.632  16.241  0.4351  0.0668 -0.4496
  466TMC3    C3 6987   3.938   3.702  16.183 -0.2215  0.1915 -0.1773
  466TMC3    C4 6988   3.989   3.511  16.377 -0.6086  0.0437  0.0302
  466TMC3    C5 6989   4.087   3.600  16.333  0.1229 -0.5544  0.0243
  466TMC3    C6 6990   4.065   3.676  16.221 -0.4373 -0.3696  0.0579
  466TMC3     C 6991   3.754   3.457  16.391 -0.0436 -0.1951 -0.8337
  466TMC3     O 6992   3.770   3.434  16.511 -0.5079  0.2999  0.3738
  466TMC3     H 6993   3.739   3.643  16.203 -1.1261 -1.0180  3.3422
  466TMC3    H1 6994   4.004   3.444  16.461  0.9692  0.7851  0.3354
  466TMC3    H2 6995   4.146   3.738  16.182 -1.2320 -0.1192 -1.1781
  466TMC3    C7 6996   4.169   3.659  16.433 -0.8701  0.4748  0.1518
  466TMC3    C8 6997   3.917   3.839  16.146 -0.2031 -0.2623 -0.0785
  466TMC3    O1 6998   4.233   3.760  16.398 -0.4811 -0.1777 -0.0363
  466TMC3    O2 6999   4.001   3.908  16.091 -0.0364 -0.3785 -0.1688
  467TMC3    C1 7000   0.371   1.649  13.559  0.1107 -0.1932 -0.1728
  467TMC3    C2 7001   0.437   1.715  13.458  0.3953  0.9436  0.3768
  467TMC3    C3 7002   0.361   1.800  13.384 -0.5234  0.0459 -0.9366
  467TMC3    C4 7003   0.238   1.670  13.582 -0.2877 -0.4087  0.1396
  467TMC3    C5 7004   0.166   1.747  13.490  0.2557  0.4159 -0.2645
  467TMC3    C6 7005   0.230   1.823  13.391  0.0887 -0.3969 -0.0418
  467TMC3     C 7006   0.460   1.627  13.673 -0.1538  0.8170  0.4164
  467TMC3     O 7007   0.566   1.691  13.678  0.0160  0.2942 -0.0327
  467TMC3     H 7008   0.545   1.720  13.447  0.2266 -1.0806 -2.3196
  467TMC3    H1 7009   0.184   1.611  13.655 -0.1453  1.0779  1.4481
  467TMC3    H2 7010   0.183   1.887  13.317 -0.9016 -2.1875 -0.9789
  467TMC3    C7 7011   0.017   1.739  13.498  0.0093  0.3010  0.5568
  467TMC3    C8 7012   0.428   1.877  13.275  0.0391 -0.5026 -0.0152
  467TMC3    O1 7013   4.709   1.665  13.584  0.0815 -0.0687  1.0609
  467TMC3    O2 7014   0.386   1.993  13.256  0.0148  0.0321  0.1374
  468MPD2     C 7015   4.227   0.384  10.273  0.1002 -0.3120 -0.6035
  468MPD2    C1 7016   4.210   0.339  10.404 -0.1151  0.5944  0.2076
  468MPD2    C2 7017   4.169   0.214  10.434 -0.2047 -0.3671  0.5377
  468MPD2    C3 7018   4.152   0.128  10.337  0.3125  0.3031 -0.5568
  468MPD2    C4 7019   4.177   0.162  10.200 -0.0288  0.3649  0.5835
  468MPD2    C5 7020   4.213   0.293  10.167 -0.1196  0.1328 -0.0224
  468MPD2     H 7021   4.137   0.199  10.537 -0.4832  0.6752  0.6031
  468MPD2    H1 7022   4.154   0.083  10.130 -0.1546  0.0472  0.9796
  468MPD2    H2 7023   4.257   0.485  10.247  0.6444 -0.3636 -0.1944
  468MPD2    H3 7024   4.223   0.325  10.064  2.2303 -0.7987 -0.0698
  468MPD2     N 7025   4.117   4.733  10.357 -0.3453  0.0569 -0.0082
  468MPD2    H5 7026   4.112   4.674  10.275 -2.1510 -0.5855  0.5462
  468MPD2    N1 7027   4.228   0.426  10.509  0.2367  0.0316 -0.1064
  468MPD2    H7 7028   4.196   0.391  10.599 -1.9530 -0.2081 -0.9775
  469TMC3    C1 7029   4.298   0.613  10.623 -0.5258  0.5012 -0.6417
  469TMC3    C2 7030   4.412   0.618  10.696 -0.1808 -0.5995 -0.2975
  469TMC3    C3 7031   4.396   0.654  10.827 -0.2987 -1.2557  0.6897
  469TMC3    C4 7032   4.172   0.628  10.676  0.3075  0.7878 -0.5825
  469TMC3    C5 7033   4.162   0.658  10.808  0.6122 -0.4605  0.2690
  469TMC3    C6 7034   4.275   0.682  10.888  0.5663  0.3527 -0.4608
  469TMC3     C 7035   4.307   0.534  10.497 -0.5520 -0.0264 -0.8058
  469TMC3     O 7036   4.393   0.563  10.421 -0.7188 -0.2379  0.6059
  469TMC3     H 7037   4.503   0.592  10.643  0.0178 -0.2124 -0.1444
  469TMC3    H1 7038   4.087   0.604  10.614 -0.3094  0.5609  0.3585
  469TMC3    H2 7039   4.270   0.723  10.988  1.9132 -1.0039  0.1746
  469TMC3    C7 7040   4.035   0.633  10.870  0.7336 -0.2792  0.2640
  469TMC3    C8 7041   4.499   0.617  10.930 -0.8419  0.1651  0.4922
  469TMC3    O1 7042   3.936   0.629  10.796  0.8621 -0.2468 -0.4976
  469TMC3    O2 7043   4.455   0.624  11.043 -0.3626  0.3006 -0.5152
  470TMC3    C1 7044   1.194   0.699   0.897 -0.3570  0.3439  0.1506
  470TMC3    C2 7045   1.217   0.811   0.822  0.1041  0.8429 -0.2984
  470TMC3    C3 7046   1.344   0.849   0.806  0.2923  0.8331  0.1170
  470TMC3    C4 7047   1.295   0.626   0.951  0.5292  0.2377 -0.0769
  470TMC3    C5 7048   1.421   0.674   0.945 -0.6330  0.1106 -0.2499
  470TMC3    C6 7049   1.446   0.780   0.865  0.1152 -0.6683  0.2133
  470TMC3     C 7050   1.062   0.690   0.966 -0.3447  0.2166 -0.0378
  470TMC3     O 7051   1.062   0.658   1.088 -0.5760 -0.2769 -0.6444
  470TMC3     H 7052   1.146   0.887   0.792  0.3743  0.4313 -1.9898
  470TMC3    H1 7053   1.269   0.548   1.022 -0.5896 -0.6178 -1.4164
  470TMC3    H2 7054   1.548   0.817   0.872  0.1262 -0.9876  1.8740
  470TMC3    C7 7055   1.518   0.622   1.038  0.3348  0.3755 -0.4176
  470TMC3    C8 7056   1.367   0.991   0.765 -0.0717  0.0017  0.6554
  470TMC3    O1 7057   1.635   0.654   1.027 -0.1347 -0.1855  0.0448
  470TMC3    O2 7058   1.268   1.060   0.783 -0.2065 -0.2418  0.2919
  471MPD2     C 7059   1.621   1.801  16.540  0.3464 -0.3126 -0.1058
  471MPD2    C1 7060   1.695   1.916  16.552 -0.3849 -0.5782  0.1136
  471MPD2    C2 7061   1.705   1.981  16.673  0.5296  0.3722  0.2810
  471MPD2    C3 7062   1.644   1.926  16.782  0.2974  0.0991  0.0292
  471MPD2    C4 7063   1.564   1.814  16.772 -0.2418 -0.6347 -0.5726
  471MPD2    C5 7064   1.556   1.750  16.646  0.6291  0.1842 -0.4076
  471MPD2     H 7065   1.769   2.069  16.675  2.0467 -0.7569  1.4687
  471MPD2    H1 7066   1.511   1.772  16.856  0.9735  0.4235  0.7257
  471MPD2    H2 7067   1.607   1.748  16.446 -1.7752  0.7509 -0.3944
  471MPD2    H3 7068   1.508   1.654  16.642  4.8115 -1.9149 -0.4793
  471MPD2     N 7069   1.653   1.986  16.914  0.0477  0.8325 -1.0472
  471MPD2    H5 7070   1.593   1.959  16.991 -0.0370  1.6217 -0.8285
  471MPD2    N1 7071   1.760   1.970  16.444  0.1182  0.4310  0.3545
  471MPD2    H7 7072   1.840   2.032  16.451 -0.2012  1.0216 -1.0374
  472TMC3    C1 7073   1.810   1.993  16.212 -0.2234  0.4895 -0.1928
  472TMC3    C2 7074   1.748   1.977  16.098 -0.7614  0.7112  0.5235
  472TMC3    C3 7075   1.802   1.883  16.015 -0.1937 -0.2458  0.3880
  472TMC3    C4 7076   1.935   1.950  16.236 -0.2163 -0.2774 -0.1702
  472TMC3    C5 7077   1.985   1.853  16.156 -0.1415 -0.1998 -0.3329
  472TMC3    C6 7078   1.926   1.821  16.036  0.8624  0.5855 -0.5298
  472TMC3     C 7079   1.719   1.951  16.315  0.0699 -0.4757 -0.1024
  472TMC3     O 7080   1.612   1.902  16.277  0.6745  0.1680 -0.1438
  472TMC3     H 7081   1.646   2.011  16.083 -0.4904  0.4379 -2.0064
  472TMC3    H1 7082   1.988   1.950  16.331 -0.1783 -3.2511 -0.1878
  472TMC3    H2 7083   1.956   1.746  15.963  0.2377  0.4386 -0.6374
  472TMC3    C7 7084   2.030   1.736  16.222 -0.5150 -0.3767  0.0890
  472TMC3    C8 7085   1.699   1.806  15.954 -0.3034  0.4400  0.5323
  472TMC3    O1 7086   2.030   1.734  16.344  0.1279 -0.4973 -0.1288
  472TMC3    O2 7087   1.713   1.749  15.846  0.0304  0.1029  0.0591
  473MPD2     C 7088   1.387   3.860  14.011  0.7493  0.7729  0.1883
  473MPD2    C1 7089   1.449   3.939  13.914 -0.8372  0.1579 -0.6046
  473MPD2    C2 7090   1.527   4.046  13.941 -0.2850  0.1636 -0.0960
  473MPD2    C3 7091   1.534   4.093  14.074 -0.3120 -0.1276 -0.5308
  473MPD2    C4 7092   1.462   4.021  14.169  0.2031 -0.4364  0.1988
  473MPD2    C5 7093   1.385   3.913  14.139 -0.2665 -0.4293  0.1235
  473MPD2     H 7094   1.585   4.097  13.865  2.4322 -2.5843  0.0946
  473MPD2    H1 7095   1.460   4.059  14.270 -0.6947 -0.2706  0.1201
  473MPD2    H2 7096   1.332   3.769  13.990 -0.0895  1.6039 -1.2381
  473MPD2    H3 7097   1.328   3.862  14.216 -2.6872  1.7462 -0.1912
  473MPD2     N 7098   1.596   4.219  14.105  0.1656 -0.0402  0.2580
  473MPD2    H5 7099   1.607   4.237  14.205 -1.3358 -1.1056  0.6032
  473MPD2    N1 7100   1.434   3.911  13.776  0.5453  0.1343 -0.2073
  473MPD2    H7 7101   1.479   3.983  13.720 -1.0720 -0.5454 -2.4091
  474TMC3    C1 7102   1.711   4.422  14.078  0.5872 -0.4900 -0.1592
  474TMC3    C2 7103   1.796   4.496  14.005 -0.4607  0.1705  0.3639
  474TMC3    C3 7104   1.860   4.602  14.069  0.4016 -0.5388  0.4877
  474TMC3    C4 7105   1.664   4.455  14.206  0.0255  0.1700 -0.2076
  474TMC3    C5 7106   1.730   4.554  14.265 -1.0491  0.0103  0.1733
  474TMC3    C6 7107   1.832   4.631  14.199  0.0363 -0.4437  0.2259
  474TMC3     C 7108   1.640   4.312  14.012 -0.5856  0.0967  0.3503
  474TMC3     O 7109   1.630   4.318  13.889 -0.5254 -0.2363 -1.0432
  474TMC3     H 7110   1.802   4.489  13.897 -1.5359  0.6226  0.2712
  474TMC3    H1 7111   1.580   4.408  14.256 -0.3298  0.1486 -0.8291
  474TMC3    H2 7112   1.862   4.730  14.231  0.0137  0.2768 -1.9727
  474TMC3    C7 7113   1.712   4.577  14.402  0.1455 -0.3070 -0.8859
  474TMC3    C8 7114   1.957   4.665  13.992  0.6449 -0.3470  0.4885
  474TMC3    O1 7115   1.621   4.512  14.449  0.6247  0.4027 -0.5280
  474TMC3    O2 7116   1.993   4.602  13.894  0.0928 -0.3673 -0.0524
  475MPD2     C 7117   0.207   2.400  11.086  0.2206  0.0707  0.3430
  475MPD2    C1 7118   0.165   2.529  11.058  0.1969  0.1432  0.0328
  475MPD2    C2 7119   0.036   2.560  11.016  0.0470  0.0723 -0.1696
  475MPD2    C3 7120   4.684   2.452  11.006  0.3383  0.0768 -0.3611
  475MPD2    C4 7121   4.728   2.328  11.042  0.2862  0.6122 -0.7786
  475MPD2    C5 7122   0.123   2.299  11.074  0.9028  0.3795  0.4576
  475MPD2     H 7123   0.017   2.658  10.974  0.2844  0.1307 -0.1447
  475MPD2    H1 7124   4.660   2.245  11.057  1.2530  0.2868  1.7187
  475MPD2    H2 7125   0.310   2.378  11.114  0.5706  1.1883 -0.0772
  475MPD2    H3 7126   0.154   2.196  11.091 -2.3215 -0.6818 -0.0234
  475MPD2     N 7127   4.546   2.477  10.980 -0.7670  0.3197 -1.1904
  475MPD2    H5 7128   4.524   2.574  10.960  0.1681  0.6357 -0.6550
  475MPD2    N1 7129   0.262   2.635  11.060 -0.1378 -0.0054  0.0127
  475MPD2    H7 7130   0.218   2.725  11.041 -1.0550 -0.1408  1.5607
  476TMC3    C1 7131   0.449   2.757  11.118 -0.2730 -0.6546 -0.5466
  476TMC3    C2 7132   0.502   2.816  11.006  0.1521 -0.4521  0.6761
  476TMC3    C3 7133   0.510   2.957  11.004  0.5275 -0.0668  0.1935
  476TMC3    C4 7134   0.382   2.827  11.210  0.1654 -0.1923 -0.4857
  476TMC3    C5 7135   0.399   2.961  11.211 -0.5143 -0.2896 -0.1616
  476TMC3    C6 7136   0.458   3.028  11.108  0.4900  0.0212  0.1559
  476TMC3     C 7137   0.398   2.625  11.095 -0.0096 -0.3980  0.0615
  476TMC3     O 7138   0.476   2.535  11.080  0.4204 -0.1744  0.2558
  476TMC3     H 7139   0.537   2.748  10.929 -1.1768 -0.0975 -0.2402
  476TMC3    H1 7140   0.326   2.774  11.286  0.3539  0.6071  0.2074
  476TMC3    H2 7141   0.457   3.136  11.114  1.1890  0.1007 -1.0746
  476TMC3    C7 7142   0.352   3.034  11.325 -0.2344 -0.2871 -0.1069
  476TMC3    C8 7143   0.548   3.034  10.887 -0.9630 -0.1462  0.4240
  476TMC3    O1 7144   0.358   2.965  11.425 -0.5581  0.3592 -0.0055
  476TMC3    O2 7145   0.575   3.152  10.909 -0.2054 -0.7702  0.4392
  477MPD2     C 7146   2.276   3.600  11.312  0.2294  0.6580 -0.2500
  477MPD2    C1 7147   2.236   3.623  11.443 -1.1750  0.3005 -0.4422
  477MPD2    C2 7148   2.329   3.590  11.541  0.6869  0.2872 -0.1929
  477MPD2    C3 7149   2.453   3.542  11.507  0.8970 -0.0081 -0.8156
  477MPD2    C4 7150   2.488   3.516  11.376  0.4081 -0.2208 -0.2433
  477MPD2    C5 7151   2.394   3.541  11.285 -0.0719 -0.1984 -0.1891
  477MPD2     H 7152   2.315   3.618  11.645  0.4580 -0.8387  0.0769
  477MPD2    H1 7153   2.576   3.453  11.365 -0.5135 -1.5250  0.0541
  477MPD2    H2 7154   2.202   3.630  11.238 -0.7626 -2.4078 -0.4721
  477MPD2    H3 7155   2.409   3.509  11.182  1.3283  0.2806 -0.1344
  477MPD2     N 7156   2.539   3.516  11.615  0.0028  0.5230  0.3088
  477MPD2    H5 7157   2.494   3.526  11.706 -1.5982  2.2757 -0.6904
  477MPD2    N1 7158   2.125   3.705  11.472 -0.8418 -0.5169  0.2581
  477MPD2    H7 7159   2.066   3.731  11.394 -1.6257 -0.3160  0.9164
  478TMC3    C1 7160   1.988   3.871  11.562  0.0441  0.4094  0.2098
  478TMC3    C2 7161   1.992   3.972  11.658  0.7713  0.8927 -0.3023
  478TMC3    C3 7162   1.957   4.102  11.626  0.7538  0.4481 -0.6885
  478TMC3    C4 7163   1.960   3.906  11.428 -0.1501  0.5550  0.2944
  478TMC3    C5 7164   1.916   4.033  11.404 -0.6935  0.4974 -0.6837
  478TMC3    C6 7165   1.915   4.134  11.498  0.1153 -0.4357 -0.4700
  478TMC3     C 7166   2.078   3.755  11.586  0.2316  0.4569 -0.4633
  478TMC3     O 7167   2.115   3.738  11.700 -0.4378 -0.6225  0.1076
  478TMC3     H 7168   2.022   3.944  11.758  0.1964 -0.0587 -0.3992
  478TMC3    H1 7169   1.956   3.824  11.357  1.7873  1.1422 -0.5021
  478TMC3    H2 7170   1.883   4.231  11.462  1.5181 -0.2543 -1.2461
  478TMC3    C7 7171   1.880   4.077  11.266 -0.8404  0.6788  0.3088
  478TMC3    C8 7172   1.982   4.208  11.723 -0.0907 -0.3779  0.6819
  478TMC3    O1 7173   1.954   4.154  11.200 -0.2727  0.5816 -0.6076
  478TMC3    O2 7174   1.992   4.163  11.838 -0.6686 -0.1331  0.4649
  479MPD2     C 7175   1.599   1.078  15.098 -0.3005 -0.1789 -0.5315
  479MPD2    C1 7176   1.551   1.076  15.222 -0.0222 -0.3906  0.3724
  479MPD2    C2 7177   1.618   1.146  15.322 -0.4387  0.5952  0.4182
  479MPD2    C3 7178   1.721   1.235  15.299 -0.8699  0.0157  0.0156
  479MPD2    C4 7179   1.773   1.227  15.172  0.3981  0.2885  0.5943
  479MPD2    C5 7180   1.718   1.146  15.077  0.1497  0.3109 -0.1687
  479MPD2     H 7181   1.578   1.127  15.421  0.8514  0.3922  0.8956
  479MPD2    H1 7182   1.853   1.294  15.143 -0.7317  1.5297  0.3617
  479MPD2    H2 7183   1.547   1.022  15.021  2.0412  0.9232 -2.8977
  479MPD2    H3 7184   1.745   1.167  14.974 -1.7001  1.3817 -0.4334
  479MPD2     N 7185   1.775   1.329  15.392 -0.2123  0.2960 -1.0684
  479MPD2    H5 7186   1.869   1.355  15.363 -0.3987  1.0624 -0.9895
  479MPD2    N1 7187   1.430   1.009  15.231 -0.0589 -0.0826 -0.0044
  479MPD2    H7 7188   1.399   0.962  15.147  0.2330  0.0840 -0.2080
  480TMC3    C1 7189   1.420   1.302  15.693  0.1703 -0.3256  0.1121
  480TMC3    C2 7190   1.326   1.307  15.594 -0.0005  0.1764  0.0228
  480TMC3    C3 7191   1.359   1.367  15.477  0.1201  0.1987  0.3498
  480TMC3    C4 7192   1.550   1.324  15.666  0.6080 -0.4874 -0.1017
  480TMC3    C5 7193   1.583   1.359  15.534 -0.1611 -0.5851 -0.1373
  480TMC3    C6 7194   1.487   1.391  15.437  0.7953  0.5900  0.2387
  480TMC3     C 7195   1.391   1.230  15.816  0.2511  0.1134  0.4749
  480TMC3     O 7196   1.489   1.182  15.873  0.2789  0.2781  0.1521
  480TMC3     H 7197   1.220   1.288  15.607  0.0067 -0.6679 -1.0842
  480TMC3    H1 7198   1.631   1.304  15.736  0.6764 -0.5212 -0.1903
  480TMC3    H2 7199   1.525   1.417  15.339  2.4480 -1.5274  0.2922
  480TMC3    C7 7200   1.726   1.371  15.512  0.7264  0.2461 -0.5974
  480TMC3    C8 7201   1.247   1.384  15.374  0.1148 -0.2521  0.1926
  480TMC3    O1 7202   1.792   1.419  15.600 -0.2707 -0.2380 -0.1843
  480TMC3    O2 7203   1.130   1.374  15.405  0.5994 -0.7461  0.2067
  481MPD2     C 7204   3.567   1.315  13.923  0.5666  0.0719  0.0480
  481MPD2    C1 7205   3.515   1.187  13.915 -0.8959 -0.1570 -0.2976
  481MPD2    C2 7206   3.451   1.134  14.028 -0.3805 -0.1353 -0.4999
  481MPD2    C3 7207   3.455   1.208  14.147  0.5339 -0.1357 -0.0318
  481MPD2    C4 7208   3.490   1.337  14.150  0.0758 -0.4944  0.0780
  481MPD2    C5 7209   3.558   1.387  14.038 -0.6276  0.2829  0.1144
  481MPD2     H 7210   3.404   1.037  14.027  1.6679 -1.1588  2.8256
  481MPD2    H1 7211   3.488   1.405  14.235  1.3812 -0.9991  0.5105
  481MPD2    H2 7212   3.616   1.365  13.841  2.5503 -0.3579  0.9893
  481MPD2    H3 7213   3.589   1.491  14.034 -0.8650  0.3456 -0.0637
  481MPD2     N 7214   3.420   1.153  14.274 -0.2268 -0.1578  0.2795
  481MPD2    H5 7215   3.416   1.214  14.355  0.8522 -2.1593  1.8097
  481MPD2    N1 7216   3.519   1.123  13.787  0.2646 -0.5318 -0.2727
  481MPD2    H7 7217   3.558   1.169  13.706  1.3416 -2.5535 -0.9121
  482TMC3    C1 7218   3.429   0.988  13.610  0.0915 -0.5368  0.4616
  482TMC3    C2 7219   3.308   0.932  13.579 -0.1698 -0.4225  0.5095
  482TMC3    C3 7220   3.249   0.988  13.472 -1.0576 -0.3030  0.3448
  482TMC3    C4 7221   3.497   1.071  13.524 -0.2957 -0.5142 -0.9229
  482TMC3    C5 7222   3.439   1.116  13.412  0.8165  0.1604 -0.4847
  482TMC3    C6 7223   3.304   1.085  13.391  0.5532 -0.3903 -0.1196
  482TMC3     C 7224   3.453   1.002  13.757  0.2262  0.0162 -0.2310
  482TMC3     O 7225   3.413   0.914  13.832  0.3389  0.0206 -0.2157
  482TMC3     H 7226   3.258   0.872  13.653 -1.0262  0.9342  1.0252
  482TMC3    H1 7227   3.601   1.096  13.538 -0.4015 -0.6525  0.0923
  482TMC3    H2 7228   3.248   1.128  13.310  0.6335  1.7358  0.9551
  482TMC3    C7 7229   3.526   1.171  13.311  0.2531 -0.1001 -0.2920
  482TMC3    C8 7230   3.106   0.979  13.455  0.2043  0.9194  0.1143
  482TMC3    O1 7231   3.645   1.183  13.328 -0.1648 -0.5339 -0.0279
  482TMC3    O2 7232   3.042   1.061  13.397 -0.8061 -0.4839  0.5181
  483TMC3    C1 7233   0.832   4.414   1.006 -0.7408 -0.0982 -0.0866
  483TMC3    C2 7234   0.832   4.540   0.956 -0.0683 -0.3763 -0.1418
  483TMC3    C3 7235   0.952   4.593   0.919  0.1742 -0.0773  0.1100
  483TMC3    C4 7236   0.940   4.344   1.035 -0.7154  0.8451  0.2035
  483TMC3    C5 7237   1.060   4.407   1.005 -0.1767 -0.6617  0.0761
  483TMC3    C6 7238   1.065   4.524   0.939  0.2280 -0.1037 -0.3699
  483TMC3     C 7239   0.700   4.362   1.014 -0.1484 -0.0945 -0.4898
  483TMC3     O 7240   0.606   4.431   0.975 -0.3686 -0.3895  0.3644
  483TMC3     H 7241   0.741   4.599   0.943 -0.1057 -0.1807  1.0331
  483TMC3    H1 7242   0.940   4.249   1.088  0.9029  0.2943 -0.7710
  483TMC3    H2 7243   1.160   4.562   0.903  0.7391 -2.1143 -1.1287
  483TMC3    C7 7244   1.184   4.331   1.015  0.6940  0.5244  0.9762
  483TMC3    C8 7245   0.963   4.700   0.820 -0.2090 -0.7132  0.2079
  483TMC3    O1 7246   1.167   4.214   1.038  0.0452  0.1699  0.4315
  483TMC3    O2 7247   1.049   4.684   0.736  0.0702 -0.1691 -0.4915
  484MPD2     C 7248   4.081   2.489  12.697 -0.5188 -0.0354  0.1604
  484MPD2    C1 7249   4.018   2.538  12.583  0.2366 -0.3822  0.8497
  484MPD2    C2 7250   4.100   2.570  12.473 -0.3020  0.6715  0.1955
  484MPD2    C3 7251   4.237   2.572  12.483  1.6925 -0.5691  0.1693
  484MPD2    C4 7252   4.296   2.542  12.602  0.2302 -0.5409 -0.2319
  484MPD2    C5 7253   4.221   2.493  12.707 -0.3642 -0.6334 -0.5581
  484MPD2     H 7254   4.059   2.579  12.373  3.0399 -2.5461 -1.4786
  484MPD2    H1 7255   4.404   2.544  12.611  0.2807 -1.8549 -0.5673
  484MPD2    H2 7256   4.023   2.465  12.786  1.2666  0.9874  1.5959
  484MPD2    H3 7257   4.261   2.472  12.805 -2.2052  3.3908  1.0516
  484MPD2     N 7258   4.327   2.602  12.376  0.1137 -0.1487 -0.4374
  484MPD2    H5 7259   4.426   2.591  12.394 -0.2315 -0.3729  1.3249
  484MPD2    N1 7260   3.877   2.535  12.576  0.0075 -0.8900 -0.0010
  484MPD2    H7 7261   3.827   2.518  12.663  1.5187  0.0535  1.0699
  485TMC3    C1 7262   4.405   2.679  12.167 -0.9066  0.2060 -0.5511
  485TMC3    C2 7263   4.533   2.650  12.205  0.0427  0.2354  0.3251
  485TMC3    C3 7264   4.634   2.708  12.133 -0.4298 -0.1282 -0.3172
  485TMC3    C4 7265   4.381   2.761  12.059 -0.5061 -0.5257  0.7685
  485TMC3    C5 7266   4.478   2.817  11.989  0.2992  0.4725 -0.3419
  485TMC3    C6 7267   4.607   2.795  12.029 -0.3359  0.3322  0.2341
  485TMC3     C 7268   4.293   2.637  12.251 -0.2261 -0.3334 -0.7604
  485TMC3     O 7269   4.184   2.658  12.196  0.3432  0.6292  0.6238
  485TMC3     H 7270   4.547   2.575  12.282  1.4741 -0.2192 -0.3766
  485TMC3    H1 7271   4.279   2.759  12.022 -0.0365 -2.2207 -0.4518
  485TMC3    H2 7272   4.686   2.829  11.963  1.5295 -0.4263  2.0908
  485TMC3    C7 7273   4.456   2.809  11.844 -0.7420  0.2814  0.3976
  485TMC3    C8 7274   0.001   2.619  12.121  0.5379  0.7514  0.3913
  485TMC3    O1 7275   4.374   2.726  11.805  0.0208 -0.4308  0.1036
  485TMC3    O2 7276   0.012   2.551  12.223 -0.1519 -0.0649  0.2342
  486MPD2     C 7277   0.581   1.396  12.645  0.7426  0.1448  0.0207
  486MPD2    C1 7278   0.693   1.435  12.567 -0.3106 -0.0942 -0.0926
  486MPD2    C2 7279   0.713   1.573  12.539  0.6479 -0.5910  0.5302
  486MPD2    C3 7280   0.624   1.665  12.585  0.6454 -0.4736  0.0530
  486MPD2    C4 7281   0.525   1.623  12.675 -0.4608  0.4228  0.1631
  486MPD2    C5 7282   0.506   1.492  12.702  0.4964 -0.1724  0.5029
  486MPD2     H 7283   0.802   1.593  12.480  0.6728 -0.5246  0.5908
  486MPD2    H1 7284   0.449   1.690  12.713  0.6416  1.0228  1.2856
  486MPD2    H2 7285   0.562   1.295  12.678 -1.2115  0.4341 -0.2223
  486MPD2    H3 7286   0.431   1.454  12.770 -0.8300  2.3007  0.4556
  486MPD2     N 7287   0.642   1.801  12.557 -0.1981  0.3300  0.4658
  486MPD2    H5 7288   0.722   1.827  12.499  0.0022 -0.3676  0.4248
  486MPD2    N1 7289   0.779   1.332  12.509  0.1139 -0.8251  0.0866
  486MPD2    H7 7290   0.741   1.239  12.500 -1.1879 -0.3317  0.5663
  487TMC3    C1 7291   0.953   1.223  12.407 -0.3960 -0.5939 -0.5160
  487TMC3    C2 7292   0.851   1.148  12.346  0.1159  0.6540  0.1247
  487TMC3    C3 7293   0.853   1.016  12.378  0.3613 -0.3328  0.2279
  487TMC3    C4 7294   1.051   1.165  12.480  0.1140 -0.1857 -0.0561
  487TMC3    C5 7295   1.053   1.032  12.507 -0.1611 -0.0090  0.3658
  487TMC3    C6 7296   0.959   0.956  12.445 -0.0072  0.1204  0.0069
  487TMC3     C 7297   0.906   1.346  12.467 -0.3937 -0.3904 -0.3997
  487TMC3     O 7298   0.976   1.441  12.470  0.0759 -0.0944  0.4976
  487TMC3     H 7299   0.775   1.193  12.282 -1.0682 -0.0674  1.0102
  487TMC3    H1 7300   1.122   1.223  12.537  0.8503  0.5212 -1.6880
  487TMC3    H2 7301   0.951   0.856  12.486 -0.7198  0.0460 -0.3035
  487TMC3    C7 7302   1.127   0.985  12.622 -0.1276 -0.0723 -0.1218
  487TMC3    C8 7303   0.723   0.982  12.433  0.0803 -0.7493 -0.1898
  487TMC3    O1 7304   1.134   1.062  12.719 -0.2487 -0.7095 -0.2799
  487TMC3    O2 7305   0.667   1.063  12.508  0.0497  0.1169 -0.3993
  488MPD2     C 7306   1.226   3.312  16.014  0.7005  0.1284 -0.7465
  488MPD2    C1 7307   1.318   3.298  16.114 -0.7467 -0.0487  0.5525
  488MPD2    C2 7308   1.285   3.225  16.228  0.4076 -0.6299 -0.3247
  488MPD2    C3 7309   1.161   3.165  16.249  0.7629 -0.0295  0.4321
  488MPD2    C4 7310   1.068   3.183  16.149 -0.1570  0.2187  0.6197
  488MPD2    C5 7311   1.101   3.265  16.040 -0.3587 -0.4116  0.3794
  488MPD2     H 7312   1.353   3.233  16.313 -0.6333  1.8667  0.2675
  488MPD2    H1 7313   0.968   3.143  16.159  0.2863 -0.7271  1.1975
  488MPD2    H2 7314   1.237   3.348  15.912 -3.3967  0.0969 -1.2194
  488MPD2    H3 7315   1.019   3.282  15.971  0.7161 -1.2767 -1.0898
  488MPD2     N 7316   1.124   3.098  16.370 -0.5663  0.3781 -0.4178
  488MPD2    H5 7317   1.201   3.081  16.435 -0.0468  0.1726 -1.0877
  488MPD2    N1 7318   1.435   3.375  16.109 -0.6312 -0.0467  0.5368
  488MPD2    H7 7319   1.495   3.375  16.191 -0.7774 -0.4103  0.6448
  489TMC3    C1 7320   1.011   3.020  16.542 -0.1712 -0.0000  0.1369
  489TMC3    C2 7321   1.138   3.029  16.604 -0.2278 -0.0112  0.3374
  489TMC3    C3 7322   1.145   3.095  16.722  0.0673 -0.5349  0.9187
  489TMC3    C4 7323   0.901   3.070  16.604  0.2953  0.2725 -0.5632
  489TMC3    C5 7324   0.916   3.134  16.721 -0.5723  0.6898 -0.3792
  489TMC3    C6 7325   1.039   3.142  16.793  0.2131  0.4879  0.8498
  489TMC3     C 7326   1.004   3.041  16.401  0.3463 -0.1193  0.8026
  489TMC3     O 7327   0.895   3.044  16.342  0.2968  0.1813  0.5686
  489TMC3     H 7328   1.222   2.975  16.562  1.1150  1.1318  1.5773
  489TMC3    H1 7329   0.803   3.048  16.565  1.5766 -1.1960 -2.9599
  489TMC3    H2 7330   1.038   3.204  16.881  1.1610 -0.3086  1.4138
  489TMC3    C7 7331   0.791   3.179  16.778  0.1675 -0.7142  0.2578
  489TMC3    C8 7332   1.267   3.177  16.726 -0.1609  0.2621 -0.1709
  489TMC3    O1 7333   0.715   3.218  16.695  0.0039 -0.0263  0.3874
  489TMC3    O2 7334   1.332   3.175  16.622 -0.7643 -0.8857  0.0725
  490MPD2     C 7335   2.206   2.851  16.884 -0.1290  0.0612  0.3993
  490MPD2    C1 7336   2.146   2.890  17.004 -0.1388 -0.2370  0.0410
  490MPD2    C2 7337   2.225   2.968  17.084  0.3746 -0.2556 -0.1600
  490MPD2    C3 7338   2.344   3.019  17.045  0.2087  0.2171  0.3870
  490MPD2    C4 7339   2.390   3.000  16.914 -0.2450  0.0587  0.0068
  490MPD2    C5 7340   2.323   2.908  16.838 -0.0749  0.2652 -0.5819
  490MPD2     H 7341   2.191   2.992  17.184 -2.0133  0.7608 -1.2099
  490MPD2    H1 7342   2.483   3.040  16.874  0.0898  0.4147  1.1137
  490MPD2    H2 7343   2.154   2.785  16.817 -0.1219  2.6306 -2.1356
  490MPD2    H3 7344   2.348   2.878  16.737  0.0822  1.1809 -0.8114
  490MPD2     N 7345   2.422   3.109  17.133  0.4224 -0.2232 -0.0419
  490MPD2    H5 7346   2.503   3.158  17.097 -0.6139  1.7034  0.2169
  490MPD2    N1 7347   2.025   2.832  17.036  0.0873 -0.0809 -0.5140
  490MPD2    H7 7348   1.986   2.756  16.982  0.5813 -1.7880  1.5401
  491TMC3    C1 7349   1.852   2.770  17.179  0.1856 -0.2233 -0.3605
  491TMC3    C2 7350   1.865   2.718  17.304  0.2936 -0.0996 -0.2218
  491TMC3    C3 7351   1.842   2.590  17.327  0.4498  0.8381  0.3800
  491TMC3    C4 7352   1.816   2.691  17.072  0.3149 -0.2680  0.4168
  491TMC3    C5 7353   1.789   2.564  17.096 -0.4941 -0.4110  0.4072
  491TMC3    C6 7354   1.805   2.516  17.223  0.2502  0.0206  0.7534
  491TMC3     C 7355   1.951   2.873  17.144 -0.0984  0.6040  0.4069
  491TMC3     O 7356   1.978   2.966  17.217 -0.3578  0.3832  0.0511
  491TMC3     H 7357   1.891   2.783  17.388 -0.0049  3.2551 -2.7264
  491TMC3    H1 7358   1.781   2.746  16.985 -1.6653 -0.9012  0.8373
  491TMC3    H2 7359   1.786   2.411  17.244 -3.2043  0.2662 -1.1405
  491TMC3    C7 7360   1.677   2.516  17.030  0.5364 -0.2486  0.1360
  491TMC3    C8 7361   1.747   2.553  17.430  0.2317 -0.4975  0.2740
  491TMC3    O1 7362   1.681   2.514  16.910  0.6285  0.2875  0.1442
  491TMC3    O2 7363   1.660   2.472  17.403  0.1508  0.3014  0.0938
  492MPD2     C 7364   2.283   2.810  11.280 -0.1615  0.2009  0.4598
  492MPD2    C1 7365   2.187   2.708  11.254 -0.0318  0.0977 -0.3443
  492MPD2    C2 7366   2.149   2.621  11.355 -0.3999 -0.0464 -0.0461
  492MPD2    C3 7367   2.185   2.636  11.488  0.3364 -0.1919 -0.1795
  492MPD2    C4 7368   2.257   2.758  11.512 -0.2623 -0.4329  0.3713
  492MPD2    C5 7369   2.307   2.835  11.409 -0.2695  0.2357  0.2443
  492MPD2     H 7370   2.111   2.526  11.319  1.0101 -1.2668  1.6986
  492MPD2    H1 7371   2.292   2.782  11.612  0.9770 -0.6152 -0.0153
  492MPD2    H2 7372   2.328   2.879  11.209  0.0079  0.8844  1.2317
  492MPD2    H3 7373   2.375   2.915  11.436 -0.0276  0.8715 -2.2031
  492MPD2     N 7374   2.150   2.552  11.595 -0.6010  0.6775 -0.0605
  492MPD2    H5 7375   2.190   2.580  11.684 -0.7811  1.9456 -0.3750
  492MPD2    N1 7376   2.157   2.669  11.119 -0.8735  0.0733 -0.1814
  492MPD2    H7 7377   2.095   2.590  11.107 -0.0286 -0.8439  1.4842
  493TMC3    C1 7378   2.137   2.683  10.892  0.1865 -0.5611  0.7646
  493TMC3    C2 7379   2.154   2.752  10.770 -0.2059  0.9349  0.0630
  493TMC3    C3 7380   2.078   2.715  10.663  0.6864  0.2027  0.4442
  493TMC3    C4 7381   2.067   2.562  10.893 -0.3003  0.0844 -0.8259
  493TMC3    C5 7382   1.993   2.529  10.780  0.3789 -0.3909 -0.0973
  493TMC3    C6 7383   2.006   2.591  10.666 -0.1356  0.2235  0.2721
  493TMC3     C 7384   2.202   2.735  11.006 -0.3700  0.1453 -0.4585
  493TMC3     O 7385   2.236   2.850  10.993 -0.1254 -0.3197  0.1816
  493TMC3     H 7386   2.192   2.853  10.757  0.2438  0.5206 -1.8971
  493TMC3    H1 7387   2.080   2.489  10.971  1.3412  3.1688  1.7705
  493TMC3    H2 7388   1.954   2.566  10.574  0.0098  0.4210  0.1352
  493TMC3    C7 7389   1.924   2.394  10.773  0.0581  0.4192  0.3279
  493TMC3    C8 7390   2.073   2.775  10.531  0.8950  0.2419  0.1854
  493TMC3    O1 7391   1.925   2.352  10.656 -0.2045  0.0449 -0.4690
  493TMC3    O2 7392   1.996   2.733  10.449  0.2738  0.7825  0.3077
  494TMC3    C1 7393   2.725   4.548   0.643  0.3130  0.2634 -0.6618
  494TMC3    C2 7394   2.736   4.411   0.638  0.4572  0.8142 -0.0960
  494TMC3    C3 7395   2.675   4.351   0.533 -0.0045  0.0855  0.0655
  494TMC3    C4 7396   2.656   4.621   0.550 -0.3530 -0.2970 -0.0550
  494TMC3    C5 7397   2.591   4.555   0.450 -0.6151  0.3911  0.4952
  494TMC3    C6 7398   2.597   4.415   0.444 -0.0174  0.5405 -0.1704
  494TMC3     C 7399   2.751   4.607   0.775 -0.2459 -0.1193 -0.0581
  494TMC3     O 7400   2.853   4.573   0.837 -0.1233 -0.1334 -0.6128
  494TMC3     H 7401   2.780   4.353   0.718  0.6531  1.1448  0.0362
  494TMC3    H1 7402   2.667   4.729   0.547 -0.1332 -0.3667 -2.1810
  494TMC3    H2 7403   2.552   4.368   0.357  1.8683 -2.3512  0.4096
  494TMC3    C7 7404   2.601   4.621   0.320 -0.0938 -0.3828 -0.1693
  494TMC3    C8 7405   2.710   4.217   0.516  0.6884  0.3339 -0.5386
  494TMC3    O1 7406   2.713   4.599   0.270 -0.2322  0.3382  0.3392
  494TMC3    O2 7407   2.805   4.184   0.586  0.0458 -0.4783 -0.0791
  495TMC3    C1 7408   1.778   1.356  14.530 -0.3777 -0.5996 -0.4088
  495TMC3    C2 7409   1.715   1.416  14.420  0.4993  0.0275  0.3888
  495TMC3    C3 7410   1.579   1.448  14.434  0.5459 -0.1586  0.1901
  495TMC3    C4 7411   1.703   1.320  14.646  0.2785  1.0592  0.6909
  495TMC3    C5 7412   1.581   1.362  14.652 -0.3726 -0.2412  0.3977
  495TMC3    C6 7413   1.507   1.419  14.547 -0.0660  0.2695 -0.5905
  495TMC3     C 7414   1.888   1.270  14.504 -0.0417 -0.1922 -0.3980
  495TMC3     O 7415   1.981   1.296  14.425 -0.6807  0.0131  0.1276
  495TMC3     H 7416   1.769   1.449  14.332 -1.1594 -0.3109 -0.7525
  495TMC3    H1 7417   1.756   1.268  14.725 -0.9248 -0.7198  0.3252
  495TMC3    H2 7418   1.404   1.449  14.563  0.1337 -0.8050  2.6655
  495TMC3    C7 7419   1.523   1.361  14.783 -0.0407 -0.8246  0.2639
  495TMC3    C8 7420   1.508   1.448  14.308  0.5359 -0.1051  0.3258
  495TMC3    O1 7421   1.606   1.362  14.874  0.3681 -0.1910  0.0151
  495TMC3    O2 7422   1.574   1.406  14.214 -1.1488  0.0013 -0.6228
  496MPD2     C 7423   3.700   2.092  15.254  0.9517  0.1393  0.0920
  496MPD2    C1 7424   3.673   1.950  15.249  0.4349  0.4568 -0.1085
  496MPD2    C2 7425   3.573   1.896  15.327 -0.7017 -0.3335  0.1407
  496MPD2    C3 7426   3.496   1.971  15.408 -0.5684 -0.1796 -0.1064
  496MPD2    C4 7427   3.536   2.107  15.422  0.2863 -0.0161 -0.5509
  496MPD2    C5 7428   3.642   2.164  15.360  0.2476 -0.3802 -0.2473
  496MPD2     H 7429   3.565   1.788  15.335 -0.2213 -0.3086  1.0674
  496MPD2    H1 7430   3.488   2.159  15.504 -2.3130 -1.9817 -0.8211
  496MPD2    H2 7431   3.784   2.144  15.209 -0.7166  1.4622 -1.5226
  496MPD2    H3 7432   3.684   2.262  15.381  1.3374 -0.2848 -2.8671
  496MPD2     N 7433   3.377   1.913  15.465 -0.5297  0.7482  0.3480
  496MPD2    H5 7434   3.331   1.978  15.530  0.2117 -1.7085  3.3251
  496MPD2    N1 7435   3.745   1.861  15.161  0.0906  0.5994  0.0347
  496MPD2    H7 7436   3.721   1.763  15.168 -1.7413  1.0551  0.1470
  497TMC3    C1 7437   3.234   1.738  15.558  0.2621  0.4925 -0.1297
  497TMC3    C2 7438   3.158   1.631  15.530 -0.4027  0.2394  0.4519
  497TMC3    C3 7439   3.064   1.597  15.625  0.3120  0.3496  0.6717
  497TMC3    C4 7440   3.247   1.797  15.683 -0.2366  0.4721  0.3287
  497TMC3    C5 7441   3.145   1.767  15.771  0.0964  0.3279 -0.0370
  497TMC3    C6 7442   3.062   1.658  15.747 -0.1344  0.3973  0.3378
  497TMC3     C 7443   3.337   1.780  15.460 -0.3087 -0.7008  0.7005
  497TMC3     O 7444   3.367   1.694  15.378 -0.0100  0.3433  0.0559
  497TMC3     H 7445   3.157   1.577  15.436 -0.7198  0.1471  0.5050
  497TMC3    H1 7446   3.320   1.877  15.690  0.4264 -0.4309  3.5148
  497TMC3    H2 7447   2.984   1.642  15.821 -0.3480  1.9031  0.4562
  497TMC3    C7 7448   3.156   1.821  15.907  0.5061 -0.4255 -0.4613
  497TMC3    C8 7449   2.945   1.524  15.592 -0.2377 -0.4681 -0.0473
  497TMC3    O1 7450   3.078   1.777  15.993 -0.5165 -0.0424 -0.2539
  497TMC3    O2 7451   2.850   1.531  15.667  0.7031 -0.4557 -1.1964
  498MPD2     C 7452   4.533   2.396   9.620  0.6593 -0.5523 -0.0829
  498MPD2    C1 7453   4.447   2.387   9.732 -0.2159  0.3085 -0.1658
  498MPD2    C2 7454   4.372   2.272   9.750  0.9137  0.2898  0.4182
  498MPD2    C3 7455   4.395   2.159   9.668  0.2712 -0.3959 -0.5673
  498MPD2    C4 7456   4.478   2.171   9.559  0.3092 -0.3074 -0.4728
  498MPD2    C5 7457   4.538   2.292   9.534 -0.2110 -0.7947  0.2218
  498MPD2     H 7458   4.312   2.258   9.839 -1.4472 -0.8854 -1.3585
  498MPD2    H1 7459   4.503   2.086   9.497 -3.1899 -2.1010  0.6063
  498MPD2    H2 7460   4.584   2.489   9.600 -1.5267  1.0540  1.8206
  498MPD2    H3 7461   4.597   2.293   9.443 -2.2833  4.0334 -1.1205
  498MPD2     N 7462   4.318   2.045   9.705  0.0422  0.5469  0.3165
  498MPD2    H5 7463   4.270   2.034   9.793 -2.4089 -1.3949 -1.2545
  498MPD2    N1 7464   4.431   2.503   9.813 -0.7990  0.1083 -0.2536
  498MPD2    H7 7465   4.360   2.505   9.886 -2.0672 -1.0617 -1.4443
  499TMC3    C1 7466   4.505   2.688   9.949 -0.3170 -0.2742 -0.0786
  499TMC3    C2 7467   4.595   2.714  10.049  0.3181  0.6787 -0.2351
  499TMC3    C3 7468   4.567   2.817  10.130  0.7721 -0.4625 -0.5805
  499TMC3    C4 7469   4.412   2.779   9.909  0.2993 -0.3278  0.0289
  499TMC3    C5 7470   4.387   2.882   9.994 -0.5786 -0.0043  0.3495
  499TMC3    C6 7471   4.457   2.905  10.109  0.3905  0.7663  0.4931
  499TMC3     C 7472   4.536   2.591   9.840  0.5866  0.0481 -0.6729
  499TMC3     O 7473   4.651   2.570   9.813 -0.2251  0.2681 -0.4172
  499TMC3     H 7474   4.683   2.655  10.072  0.0363  0.3881  0.1050
  499TMC3    H1 7475   4.355   2.753   9.821  1.1055 -0.6264 -0.4102
  499TMC3    H2 7476   4.421   2.980  10.179 -1.8687  0.1231  0.0271
  499TMC3    C7 7477   4.297   2.988   9.956  0.4725 -0.2840  0.1842
  499TMC3    C8 7478   4.652   2.837  10.240  0.5643  0.2161  0.3726
  499TMC3    O1 7479   4.337   3.101   9.972 -0.3750 -0.0453 -0.0573
  499TMC3    O2 7480   0.007   2.762  10.257 -0.4659 -0.0384 -0.1926
  500MPD2     C 7481   0.883   3.536  10.628  0.3060 -0.8626  0.0548
  500MPD2    C1 7482   0.887   3.567  10.493 -1.0564  0.0357 -0.4791
  500MPD2    C2 7483   0.776   3.567  10.414 -0.5124  0.0982 -0.4373
  500MPD2    C3 7484   0.657   3.513  10.459  0.0655  0.2193  0.0024
  500MPD2    C4 7485   0.651   3.487  10.593  0.4748 -0.1101  0.7808
  500MPD2    C5 7486   0.761   3.494  10.678  0.1218 -0.4583  0.6333
  500MPD2     H 7487   0.783   3.593  10.309  0.9583  2.7119  0.3193
  500MPD2    H1 7488   0.552   3.467  10.631  0.3847  1.3168  1.3011
  500MPD2    H2 7489   0.967   3.556  10.694 -0.5545  3.1254 -0.0665
  500MPD2    H3 7490   0.751   3.483  10.786 -3.2814  0.5111  0.4147
  500MPD2     N 7491   0.541   3.498  10.382  0.3469  0.3504 -0.2479
  500MPD2    H5 7492   0.464   3.457  10.434 -0.6585  0.5676 -1.5951
  500MPD2    N1 7493   1.002   3.619  10.435  0.2596  0.0785  0.6610
  500MPD2    H7 7494   0.997   3.646  10.337  0.8828 -1.0236  0.3292
  501TMC3    C1 7495   1.239   3.653  10.419 -0.0993 -0.3833 -0.1170
  501TMC3    C2 7496   1.239   3.772  10.347  0.4267  0.7045  0.1573
  501TMC3    C3 7497   1.344   3.809  10.271  0.0877 -0.0956  0.5817
  501TMC3    C4 7498   1.352   3.577  10.427  0.2161 -0.5699  0.0173
  501TMC3    C5 7499   1.454   3.611  10.350 -0.1297 -0.6882 -0.3158
  501TMC3    C6 7500   1.452   3.727  10.272  0.8092  0.0750 -0.1182
  501TMC3     C 7501   1.127   3.597  10.493 -0.2431  0.2453  0.2915
  501TMC3     O 7502   1.155   3.508  10.572 -0.5001  0.1798  0.2646
  501TMC3     H 7503   1.164   3.849  10.347 -0.2779  0.0099  2.5871
  501TMC3    H1 7504   1.355   3.488  10.489  0.1611 -3.1571 -3.6890
  501TMC3    H2 7505   1.544   3.769  10.233  0.3586 -0.0160 -1.2814
  501TMC3    C7 7506   1.575   3.541  10.395 -0.1730  0.5027  0.3486
  501TMC3    C8 7507   1.390   3.946  10.290  0.0348 -0.8495  0.2741
  501TMC3    O1 7508   1.570   3.475  10.499  0.5606  0.1699  0.0417
  501TMC3    O2 7509   1.363   4.006  10.394  0.0758 -0.0240 -0.3805
  502TMC3    C1 7510   0.870   2.621  14.778  0.5525  0.6907 -0.1969
  502TMC3    C2 7511   0.823   2.709  14.686  0.3523 -0.7973  0.0563
  502TMC3    C3 7512   0.691   2.709  14.653 -0.0688 -0.3474  0.2448
  502TMC3    C4 7513   0.799   2.518  14.832 -0.4126 -0.0229  0.5060
  502TMC3    C5 7514   0.673   2.502  14.781  0.4694  0.7186 -0.1306
  502TMC3    C6 7515   0.617   2.602  14.696  0.0857  0.3758 -0.4688
  502TMC3     C 7516   0.996   2.648  14.837  0.1626  0.6844 -0.2120
  502TMC3     O 7517   1.094   2.681  14.769 -0.1854 -0.1584 -0.1078
  502TMC3     H 7518   0.885   2.791  14.652  0.8763 -0.7412  1.1482
  502TMC3    H1 7519   0.843   2.438  14.890 -0.6953 -0.8857 -0.4779
  502TMC3    H2 7520   0.522   2.589  14.644 -0.0574  1.0800 -0.3762
  502TMC3    C7 7521   0.575   2.414  14.847 -0.7759  0.2133  0.2337
  502TMC3    C8 7522   0.638   2.838  14.675 -0.3657 -0.2481 -0.3826
  502TMC3    O1 7523   0.469   2.396  14.788  0.1499  0.2196  0.0206
  502TMC3    O2 7524   0.717   2.922  14.641 -0.0540  0.1216  0.2242
  503MPD2     C 7525   2.947   3.200  17.028 -0.1151  0.0896  0.0248
  503MPD2    C1 7526   3.012   3.257  17.134 -0.6151  0.6627 -0.7203
  503MPD2    C2 7527   3.140   3.214  17.178  0.0530  0.2532 -0.2257
  503MPD2    C3 7528   3.196   3.105  17.115  0.3247  0.0145 -0.1204
  503MPD2    C4 7529   3.127   3.038  17.010  0.0494  0.1502  0.1117
  503MPD2    C5 7530   3.010   3.090  16.964 -0.4669  0.2921 -0.4089
  503MPD2     H 7531   3.190   3.262  17.261 -2.7169 -0.0427  1.5933
  503MPD2    H1 7532   3.162   2.944  16.969  0.5855  1.5198 -2.5414
  503MPD2    H2 7533   2.850   3.237  16.998  1.3654  1.8751 -2.4636
  503MPD2    H3 7534   2.947   3.042  16.890  0.2335  0.9314 -1.4218
  503MPD2     N 7535   3.318   3.059  17.168 -0.2461  0.0056 -0.0738
  503MPD2    H5 7536   3.355   3.088  17.259  0.7227 -1.4433 -0.0103
  503MPD2    N1 7537   2.966   3.378  17.192  0.0627  0.5229 -0.3191
  503MPD2    H7 7538   3.031   3.420  17.258  1.6698 -0.4529 -1.2746
  504TMC3    C1 7539   3.534   2.956  17.178 -0.0733 -0.9302 -0.1861
  504TMC3    C2 7540   3.544   3.013  17.304  0.9261 -0.2185 -0.3313
  504TMC3    C3 7541   3.673   3.031  17.351  0.2868 -0.5106 -0.2660
  504TMC3    C4 7542   3.645   2.939  17.100 -0.4689 -0.1831  0.7549
  504TMC3    C5 7543   3.772   2.963  17.151 -0.5476  0.3067 -0.3990
  504TMC3    C6 7544   3.790   3.003  17.284  0.2546  0.1058 -0.6213
  504TMC3     C 7545   3.402   2.963  17.110  0.3052 -0.0494 -0.2273
  504TMC3     O 7546   3.392   2.924  16.999 -0.1694  0.2851  0.6090
  504TMC3     H 7547   3.461   3.033  17.370  0.2802 -2.2231 -0.5377
  504TMC3    H1 7548   3.636   2.905  16.998 -0.6748  0.0694  0.6908
  504TMC3    H2 7549   3.884   3.007  17.337 -0.0246  0.4319 -0.1527
  504TMC3    C7 7550   3.880   2.926  17.065 -0.2385  0.0168  0.5821
  504TMC3    C8 7551   3.680   3.132  17.455 -0.1464 -0.6529 -1.3675
  504TMC3    O1 7552   3.854   2.927  16.947  0.4770 -0.0655  0.3945
  504TMC3    O2 7553   3.747   3.234  17.441  0.2788 -0.7133 -0.5406
  505MPD2     C 7554   3.144   1.971  10.029 -0.8160 -0.0873  0.0345
  505MPD2    C1 7555   3.125   1.839  10.027 -0.0175  0.3115 -0.0799
  505MPD2    C2 7556   3.157   1.766  10.143 -0.2045 -0.7608 -0.0809
  505MPD2    C3 7557   3.214   1.834  10.252  0.2788  0.3593 -0.6173
  505MPD2    C4 7558   3.225   1.966  10.256 -0.8811  0.5387 -0.3125
  505MPD2    C5 7559   3.196   2.029  10.140  0.3303 -0.3687 -0.4454
  505MPD2     H 7560   3.146   1.658  10.134  0.3391 -0.8621  0.4611
  505MPD2    H1 7561   3.280   2.016  10.334  0.4728 -1.9328  0.3214
  505MPD2    H2 7562   3.119   2.028   9.940  1.4318  0.9474  0.0414
  505MPD2    H3 7563   3.226   2.133  10.130 -2.9450  0.5627 -0.6311
  505MPD2     N 7564   3.244   1.765  10.373  0.8180  0.1278 -0.2629
  505MPD2    H5 7565   3.280   1.813  10.455  0.9351 -0.5418  0.0747
  505MPD2    N1 7566   3.070   1.781   9.912  0.1912 -0.2198  0.0247
  505MPD2    H7 7567   3.062   1.838   9.829 -1.5373  0.6513  0.7854
  506TMC3    C1 7568   2.975   1.620   9.770 -0.0930  0.2133  0.6065
  506TMC3    C2 7569   3.062   1.656   9.669  0.0058  0.4595 -0.0704
  506TMC3    C3 7570   3.083   1.564   9.563 -0.3012  0.2172  0.3600
  506TMC3    C4 7571   2.920   1.493   9.782 -0.4173 -0.1233 -0.4397
  506TMC3    C5 7572   2.953   1.396   9.690 -0.2009  0.2416 -0.1752
  506TMC3    C6 7573   3.032   1.434   9.586 -0.7410 -0.1869 -0.4944
  506TMC3     C 7574   3.029   1.650   9.899 -0.0378  0.8593  0.0627
  506TMC3     O 7575   3.053   1.549   9.967  0.3201 -0.0221  0.0523
  506TMC3     H 7576   3.115   1.751   9.666  0.9666 -0.1314 -1.8489
  506TMC3    H1 7577   2.863   1.468   9.870  0.5522 -0.9126 -0.0275
  506TMC3    H2 7578   3.057   1.362   9.509 -1.4416 -1.1000  0.1353
  506TMC3    C7 7579   3.013   1.278   9.759 -0.5740  0.1430 -0.1422
  506TMC3    C8 7580   3.191   1.581   9.474 -0.7680  0.6206  0.2650
  506TMC3    O1 7581   3.050   1.184   9.692 -0.0701  0.0726  0.9160
  506TMC3    O2 7582   3.172   1.536   9.363 -0.5687  0.1498 -0.0100
  507TMC3    C1 7583   4.410   2.671  14.575 -0.4908  0.0157 -0.2500
  507TMC3    C2 7584   4.406   2.612  14.456 -0.5080  1.0007  0.6150
  507TMC3    C3 7585   4.388   2.690  14.350  0.4606 -0.0593  0.0161
  507TMC3    C4 7586   4.392   2.805  14.595 -0.6100 -0.5750  0.3430
  507TMC3    C5 7587   4.394   2.886  14.487  0.0832  0.3645 -0.4998
  507TMC3    C6 7588   4.387   2.828  14.364 -0.6765  0.5093  0.3457
  507TMC3     C 7589   4.323   2.601  14.668  0.1902 -0.4152  0.0341
  507TMC3     O 7590   4.364   2.495  14.706 -0.1708 -0.5837 -0.1377
  507TMC3     H 7591   4.384   2.506  14.449  0.2233  0.8115  1.2715
  507TMC3    H1 7592   4.366   2.849  14.691  1.1978 -0.4440  0.7687
  507TMC3    H2 7593   4.390   2.893  14.278 -0.1377  1.1567  0.8471
  507TMC3    C7 7594   4.291   2.977  14.496 -0.3345 -0.8790 -0.4300
  507TMC3    C8 7595   4.296   2.645  14.248 -0.1035  0.4507  0.3029
  507TMC3    O1 7596   4.181   2.919  14.515 -0.9015 -0.3078  0.6397
  507TMC3    O2 7597   4.316   2.544  14.181  0.2985  0.2853 -0.2626
  508MPD2     C 7598   0.441   0.392  16.213 -0.0772 -0.0152  0.8281
  508MPD2    C1 7599   0.406   0.474  16.321  0.1274  0.1349 -0.2821
  508MPD2    C2 7600   0.391   0.612  16.300  0.1256  0.8310 -0.0388
  508MPD2    C3 7601   0.407   0.673  16.174  0.0203  0.5109 -0.4343
  508MPD2    C4 7602   0.432   0.587  16.068  0.4558 -0.1609 -0.3340
  508MPD2    C5 7603   0.456   0.453  16.086  0.3067 -0.9510  0.0641
  508MPD2     H 7604   0.374   0.681  16.381 -1.2349  1.4018 -0.8023
  508MPD2    H1 7605   0.447   0.629  15.969  0.4846  0.6690  0.0255
  508MPD2    H2 7606   0.452   0.284  16.222  1.2549  0.0200 -0.3727
  508MPD2    H3 7607   0.480   0.382  16.008  0.4538 -2.0533  1.1185
  508MPD2     N 7608   0.391   0.812  16.164  0.0112 -0.3720 -0.5400
  508MPD2    H5 7609   0.373   0.876  16.240 -2.2594 -2.0538  0.3171
  508MPD2    N1 7610   0.413   0.424  16.459 -0.1518 -0.6858  1.1146
  508MPD2    H7 7611   0.404   0.498  16.529  1.4445  0.0896  0.5040
  509TMC3    C1 7612   0.348   1.207  15.925  0.1851 -0.1972 -0.2024
  509TMC3    C2 7613   0.443   1.271  15.998  0.2507 -0.6834  0.1503
  509TMC3    C3 7614   0.489   1.211  16.106  0.2972  0.1372  0.5516
  509TMC3    C4 7615   0.329   1.078  15.937 -0.3207  0.0351 -0.0595
  509TMC3    C5 7616   0.380   1.018  16.046 -0.5807  0.0956 -0.4491
  509TMC3    C6 7617   0.464   1.080  16.132 -0.0319 -0.3823 -0.3479
  509TMC3     C 7618   0.276   1.275  15.821 -0.8132 -0.1200 -0.3245
  509TMC3     O 7619   0.258   1.201  15.725 -0.1509 -0.1481 -0.1863
  509TMC3     H 7620   0.467   1.375  15.976  0.7024 -1.0199 -0.9359
  509TMC3    H1 7621   0.268   1.022  15.868  1.8372  0.0555 -1.9998
  509TMC3    H2 7622   0.507   1.027  16.216 -2.0106 -0.2505  0.7518
  509TMC3    C7 7623   0.399   0.873  16.044 -0.4284  0.5608 -0.1332
  509TMC3    C8 7624   0.595   1.276  16.175 -0.7673 -0.5964 -1.0117
  509TMC3    O1 7625   0.420   0.839  15.931 -0.1357 -0.8129 -0.0355
  509TMC3    O2 7626   0.596   1.265  16.300 -0.3388 -0.0507 -0.1745
  510MPD2     C 7627   2.695   1.785  14.155  0.3352  0.7729 -0.3363
  510MPD2    C1 7628   2.745   1.826  14.275 -0.1930  0.8734 -0.7667
  510MPD2    C2 7629   2.858   1.913  14.272  0.3147 -0.7924  0.5271
  510MPD2    C3 7630   2.938   1.913  14.160 -0.2685 -0.7942 -0.2703
  510MPD2    C4 7631   2.893   1.842  14.047  0.4008 -0.5528  0.4342
  510MPD2    C5 7632   2.774   1.784  14.047  0.4267 -0.0258  0.0028
  510MPD2     H 7633   2.890   1.970  14.358  0.6488  0.8548 -0.6986
  510MPD2    H1 7634   2.947   1.847  13.953  3.0383  1.9523  2.0899
  510MPD2    H2 7635   2.602   1.729  14.148  0.6811  0.1183  0.2392
  510MPD2    H3 7636   2.738   1.728  13.962 -0.1869 -2.6379  1.9871
  510MPD2     N 7637   3.058   1.983  14.157  0.1958 -0.2984  0.5252
  510MPD2    H5 7638   3.096   2.013  14.246  0.2684  4.0287 -0.9532
  510MPD2    N1 7639   2.659   1.805  14.389  0.6992 -0.0584  0.1964
  510MPD2    H7 7640   2.585   1.738  14.372  0.2693  0.4969 -0.0867
  511TMC3    C1 7641   2.587   1.773  14.615 -0.5153  0.8401 -0.3822
  511TMC3    C2 7642   2.548   1.837  14.729 -0.9339  0.6214  0.6350
  511TMC3    C3 7643   2.510   1.763  14.841  0.1768 -0.4642  0.5232
  511TMC3    C4 7644   2.588   1.637  14.614  0.0889 -0.4808 -0.6257
  511TMC3    C5 7645   2.564   1.573  14.726  0.3921  0.1349 -0.1579
  511TMC3    C6 7646   2.519   1.630  14.839  0.4875 -0.4103  0.1016
  511TMC3     C 7647   2.670   1.844  14.518 -0.6324  0.3322 -0.6820
  511TMC3     O 7648   2.736   1.940  14.561  0.0393 -0.1732  0.1236
  511TMC3     H 7649   2.549   1.945  14.738  1.2642  0.5059  1.7200
  511TMC3    H1 7650   2.624   1.589  14.524 -0.1708  1.0121 -1.5165
  511TMC3    H2 7651   2.479   1.570  14.920 -2.6950  3.3610  1.3439
  511TMC3    C7 7652   2.614   1.435  14.720  0.8058 -0.2398  0.7247
  511TMC3    C8 7653   2.467   1.828  14.961 -0.0499  0.1308 -0.5294
  511TMC3    O1 7654   2.706   1.412  14.640  0.0557  0.0683 -0.0536
  511TMC3    O2 7655   2.390   1.915  14.948  0.0240  0.3804 -0.0695
  512TMC3    C1 7656   1.382   1.238  12.664  0.4490 -0.6742 -0.1140
  512TMC3    C2 7657   1.393   1.234  12.796  0.2403  0.4183 -0.0827
  512TMC3    C3 7658   1.457   1.131  12.857  0.4656  0.2874  0.2954
  512TMC3    C4 7659   1.446   1.142  12.586 -0.0860 -0.8177  0.0039
  512TMC3    C5 7660   1.518   1.041  12.647  0.3408 -0.2073 -0.8495
  512TMC3    C6 7661   1.517   1.028  12.784 -0.3214  0.6296 -0.7827
  512TMC3     C 7662   1.358   1.364  12.598 -0.1991  0.1593 -0.2547
  512TMC3     O 7663   1.329   1.361  12.481 -0.4817  0.6080 -1.1253
  512TMC3     H 7664   1.337   1.306  12.856 -0.0289 -0.3478  0.5794
  512TMC3    H1 7665   1.441   1.159  12.479 -2.2045 -0.1203  0.2045
  512TMC3    H2 7666   1.557   0.949  12.847  1.2290  1.2892 -0.9589
  512TMC3    C7 7667   1.627   0.972  12.577  0.5962 -0.0297  0.8145
  512TMC3    C8 7668   1.428   1.119  13.001  0.2675 -0.1250  0.4748
  512TMC3    O1 7669   1.654   1.010  12.464  0.1075  0.1612  0.5747
  512TMC3    O2 7670   1.417   1.011  13.053  0.4084 -0.5453 -0.5490
  513MPD2     C 7671   4.374   2.190  12.736 -0.4745  0.7010  0.3295
  513MPD2    C1 7672   4.264   2.109  12.727  0.0540  0.1740  0.3145
  513MPD2    C2 7673   4.258   2.004  12.812 -0.7503  0.3526 -0.0476
  513MPD2    C3 7674   4.366   1.970  12.894  0.0154 -0.6460 -0.4691
  513MPD2    C4 7675   4.476   2.049  12.902 -0.0752 -0.2772  0.4059
  513MPD2    C5 7676   4.479   2.162  12.825 -0.1895  0.0738  0.4077
  513MPD2     H 7677   4.172   1.937  12.808 -0.3841 -0.0669 -0.9198
  513MPD2    H1 7678   4.563   2.031  12.964 -0.4737  1.1884  1.3965
  513MPD2    H2 7679   4.383   2.275  12.670 -0.1357 -1.8171 -2.8503
  513MPD2    H3 7680   4.563   2.229  12.837  0.9068 -1.0660 -0.9426
  513MPD2     N 7681   4.360   1.840  12.948  0.4971  0.1870 -0.9689
  513MPD2    H5 7682   4.270   1.794  12.937  1.6691 -2.4278  0.3388
  513MPD2    N1 7683   4.162   2.135  12.629 -0.2356 -0.0812  0.0213
  513MPD2    H7 7684   4.189   2.190  12.549 -2.3749  2.6660  1.2051
  514TMC3    C1 7685   3.955   2.085  12.521 -0.4390  0.5840 -0.1488
  514TMC3    C2 7686   3.995   2.131  12.394 -0.5177 -0.3068  0.7921
  514TMC3    C3 7687   3.928   2.086  12.283 -0.2255 -0.0953  0.3356
  514TMC3    C4 7688   3.857   1.990  12.524 -0.4746 -0.1721 -0.4579
  514TMC3    C5 7689   3.810   1.933  12.411 -0.8700 -0.0622  0.8960
  514TMC3    C6 7690   3.844   1.977  12.285  0.0501 -0.5375 -0.3608
  514TMC3     C 7691   4.033   2.097  12.639  0.4518  0.1259  0.3221
  514TMC3     O 7692   3.985   2.046  12.738 -0.2428 -0.0379 -0.7198
  514TMC3     H 7693   4.073   2.205  12.400 -2.1623  1.6506 -2.1550
  514TMC3    H1 7694   3.809   1.979  12.620 -1.6802  2.5258 -0.7406
  514TMC3    H2 7695   3.787   1.949  12.198  0.0975  0.1970 -0.6298
  514TMC3    C7 7696   3.798   1.783  12.425  0.1565 -0.5786  0.2969
  514TMC3    C8 7697   3.947   2.157  12.164  0.2112  0.7864  0.2376
  514TMC3    O1 7698   3.754   1.715  12.335 -0.3340  0.3123  0.3554
  514TMC3    O2 7699   3.986   2.271  12.167 -0.1278  0.0261 -0.9099
  515MPD2     C 7700   1.945   3.210  14.323  0.4134 -0.8590 -0.3839
  515MPD2    C1 7701   1.891   3.110  14.405 -0.2463 -0.5221 -0.2864
  515MPD2    C2 7702   1.951   3.091  14.528  0.2801 -0.1150 -0.7274
  515MPD2    C3 7703   2.061   3.159  14.572 -0.1507  0.2216  0.2301
  515MPD2    C4 7704   2.116   3.255  14.486 -0.2911  0.0079  0.1065
  515MPD2    C5 7705   2.052   3.282  14.365  0.5708 -0.0551  0.0615
  515MPD2     H 7706   1.912   3.008  14.585  0.2214 -0.8843 -1.8975
  515MPD2    H1 7707   2.195   3.326  14.508  2.1768 -1.8560 -2.4857
  515MPD2    H2 7708   1.904   3.237  14.226 -1.2637 -1.6923  0.0884
  515MPD2    H3 7709   2.096   3.360  14.305 -0.9879  0.3987 -0.4945
  515MPD2     N 7710   2.134   3.126  14.690  0.4308  0.2431  0.0496
  515MPD2    H5 7711   2.216   3.181  14.711 -0.3568  1.2647  0.4618
  515MPD2    N1 7712   1.786   3.039  14.354  0.5169  0.2895 -0.1581
  515MPD2    H7 7713   1.750   3.073  14.266  2.7064 -2.7902 -2.2575
  516TMC3    C1 7714   1.595   2.895  14.350  0.5701 -0.6050  0.3669
  516TMC3    C2 7715   1.506   2.986  14.304  0.0314  0.3332  0.8255
  516TMC3    C3 7716   1.374   2.970  14.308 -0.6341 -0.8047  0.3202
  516TMC3    C4 7717   1.553   2.783  14.408  0.4651  0.2726  0.2001
  516TMC3    C5 7718   1.417   2.761  14.393 -0.6720  0.1939 -0.2023
  516TMC3    C6 7719   1.327   2.846  14.339  0.0484  0.3011  0.5549
  516TMC3     C 7720   1.715   2.939  14.413  0.3315  0.4592 -0.0461
  516TMC3     O 7721   1.723   2.905  14.531  0.5199  0.1755  0.1487
  516TMC3     H 7722   1.550   3.082  14.277 -0.3620  0.4695  0.6709
  516TMC3    H1 7723   1.624   2.720  14.460  1.7447  0.6487 -1.0942
  516TMC3    H2 7724   1.221   2.826  14.351 -0.1522  1.7688  1.1566
  516TMC3    C7 7725   1.385   2.628  14.452  1.0322 -0.5999 -0.5080
  516TMC3    C8 7726   1.277   3.076  14.283  0.4594 -0.8477  0.0598
  516TMC3    O1 7727   1.479   2.550  14.471 -0.1892 -0.7256 -0.0092
  516TMC3    O2 7728   1.157   3.050  14.301  0.6503  0.0246 -0.3761
  517MPD2     C 7729   1.154   4.675  17.359 -0.0174 -0.6317 -0.0272
  517MPD2    C1 7730   1.266   4.666  17.440  0.2275 -0.3478  0.9101
  517MPD2    C2 7731   1.281   0.000  17.556  0.4512  0.6148 -0.7499
  517MPD2    C3 7732   1.171   0.075  17.598  0.2396  0.5733 -0.5528
  517MPD2    C4 7733   1.056   0.076  17.527 -0.1653 -0.2357  0.2045
  517MPD2    C5 7734   1.050   0.014  17.406  0.3846 -0.2142  0.2820
  517MPD2     H 7735   1.369   4.720  17.616  0.7527  1.4406 -0.9194
  517MPD2    H1 7736   0.981   0.146  17.562 -1.6752 -1.8481  0.1737
  517MPD2    H2 7737   1.133   4.623  17.266 -2.0699 -0.9890  0.6325
  517MPD2    H3 7738   0.957   0.014  17.352  0.2386 -0.4215  0.5332
  517MPD2     N 7739   1.179   0.154  17.714  0.5935 -0.1683  0.0406
  517MPD2    H5 7740   1.106   0.222  17.735 -1.1825 -1.6807 -1.2609
  517MPD2    N1 7741   1.380   4.593  17.400 -0.2312 -0.3312  0.7173
  517MPD2    H7 7742   1.456   4.574  17.464 -0.4583 -1.2398  0.7216
  518TMC3    C1 7743   1.513   4.475  17.251  0.5159  0.4125 -0.0958
  518TMC3    C2 7744   1.543   4.384  17.351  0.9529  0.7082 -0.4519
  518TMC3    C3 7745   1.653   4.306  17.325  0.3563  0.8365  0.1071
  518TMC3    C4 7746   1.580   4.479  17.135 -0.6736  0.3821 -0.0103
  518TMC3    C5 7747   1.692   4.402  17.116  0.5794  0.7454 -0.5649
  518TMC3    C6 7748   1.733   4.322  17.217  0.7658  0.2925  0.8306
  518TMC3     C 7749   1.391   4.551  17.268 -0.2577  0.6690  0.1958
  518TMC3     O 7750   1.337   4.604  17.173  0.1601  0.3169  0.0438
  518TMC3     H 7751   1.486   4.382  17.443  3.9314 -1.0950  1.3226
  518TMC3    H1 7752   1.545   4.541  17.054 -3.2760  1.0725  1.6378
  518TMC3    H2 7753   1.828   4.270  17.205  0.9049  0.5169  0.9567
  518TMC3    C7 7754   1.770   4.432  16.999  0.3328  0.5273  0.5338
  518TMC3    C8 7755   1.650   4.168  17.363  0.8951 -0.4990 -0.1052
  518TMC3    O1 7756   1.734   4.525  16.929  0.0071 -0.0210 -0.3945
  518TMC3    O2 7757   1.750   4.105  17.327  0.4035 -0.6500 -0.2217
  519MPD2     C 7758   3.151   2.315  14.439 -1.1625  0.4636 -0.2750
  519MPD2    C1 7759   3.088   2.309  14.320 -0.2282 -0.0176  0.1091
  519MPD2    C2 7760   3.156   2.343  14.205 -0.4265 -0.3126 -0.1064
  519MPD2    C3 7761   3.295   2.363  14.209 -0.1660 -0.1249  0.6296
  519MPD2    C4 7762   3.355   2.341  14.326 -0.6305 -0.3756  0.7332
  519MPD2    C5 7763   3.289   2.325  14.441  0.5321  0.0039  0.3279
  519MPD2     H 7764   3.105   2.353  14.110  0.4005 -5.2411 -1.0900
  519MPD2    H1 7765   3.460   2.368  14.332 -0.6147 -0.3922  0.5093
  519MPD2    H2 7766   3.091   2.297  14.527  1.9876 -2.0613  1.3689
  519MPD2    H3 7767   3.338   2.321  14.538  1.1053  1.9363  0.1088
  519MPD2     N 7768   3.381   2.409  14.102  0.4529  1.1306 -0.7515
  519MPD2    H5 7769   3.480   2.400  14.122  0.1411  0.2672  0.4505
  519MPD2    N1 7770   2.948   2.299  14.324 -0.8642 -0.8110  0.2920
  519MPD2    H7 7771   2.916   2.289  14.420  3.2281  1.6788  1.9331
  520TMC3    C1 7772   3.427   2.492  13.884  0.1048 -0.3210  0.1638
  520TMC3    C2 7773   3.376   2.505  13.756 -0.2297 -0.4240 -0.0663
  520TMC3    C3 7774   3.458   2.480  13.651  1.0151  0.1935 -0.1553
  520TMC3    C4 7775   3.553   2.459  13.910  0.5343  0.2461 -0.7823
  520TMC3    C5 7776   3.631   2.420  13.802 -0.5123 -0.2199  0.1674
  520TMC3    C6 7777   3.590   2.438  13.669  0.0744  0.0692 -0.3032
  520TMC3     C 7778   3.332   2.457  13.990 -0.4062 -0.3729  0.3655
  520TMC3     O 7779   3.214   2.461  13.957 -0.4847 -0.8643 -0.6598
  520TMC3     H 7780   3.269   2.510  13.740 -0.3486 -0.7137  0.6567
  520TMC3    H1 7781   3.594   2.443  14.009  2.7138  0.9369 -1.5639
  520TMC3    H2 7782   3.659   2.423  13.588 -0.0478 -0.2228 -0.3531
  520TMC3    C7 7783   3.760   2.363  13.826 -0.1179 -0.1082 -0.2351
  520TMC3    C8 7784   3.419   2.476  13.514  0.1851  0.1212  1.0739
  520TMC3    O1 7785   3.785   2.331  13.944  0.5604  0.1778 -0.3287
  520TMC3    O2 7786   3.510   2.464  13.430 -0.2269 -0.4612 -0.4664
  521MPD2     C 7787   4.093   0.865   0.260 -0.3248 -0.4430 -0.5395
  521MPD2    C1 7788   4.025   0.915   0.149  0.1050 -0.2201  0.0310
  521MPD2    C2 7789   4.091   0.931   0.025  0.2194  0.3345  0.4778
  521MPD2    C3 7790   4.219   0.893   0.009 -1.4691 -0.6299 -0.1364
  521MPD2    C4 7791   4.285   0.836   0.121 -0.3159 -0.1011 -0.1118
  521MPD2    C5 7792   4.225   0.829   0.247 -0.6524 -0.3848 -0.0926
  521MPD2     H 7793   4.030   0.958  17.695 -1.3456  1.0887  1.8217
  521MPD2    H1 7794   4.390   0.810   0.118 -0.0716  1.1987 -2.4088
  521MPD2    H2 7795   4.047   0.831   0.352 -0.7905  1.3032 -0.1296
  521MPD2    H3 7796   4.271   0.773   0.327  0.5144 -2.4135 -2.1664
  521MPD2     N 7797   4.273   0.898  17.638 -0.9160 -0.2337 -0.0469
  521MPD2    H5 7798   4.239   0.967  17.572 -0.7285 -1.0473 -0.9956
  521MPD2    N1 7799   3.884   0.926   0.170 -0.5198  0.4636 -0.2978
  521MPD2    H7 7800   3.845   0.916   0.263 -0.9454  0.9692 -0.4201
  522TMC3    C1 7801   4.440   0.863  17.479 -0.6387  0.6248  0.5640
  522TMC3    C2 7802   4.545   0.777  17.447  0.5795 -0.1192 -0.7243
  522TMC3    C3 7803   4.646   0.817  17.370  0.2515 -0.2137 -0.1924
  522TMC3    C4 7804   4.445   0.994  17.446  0.1854  0.4216  0.6792
  522TMC3    C5 7805   4.554   1.031  17.371  0.1623  0.2216  0.4657
  522TMC3    C6 7806   4.657   0.948  17.332 -0.4389 -0.6864 -0.0636
  522TMC3     C 7807   4.377   0.816  17.600  0.0615 -0.3844  0.0307
  522TMC3     O 7808   4.420   0.719  17.663 -0.4853 -0.0287 -0.3404
  522TMC3     H 7809   4.533   0.673  17.473 -0.6406  0.8463  2.6043
  522TMC3    H1 7810   4.370   1.064  17.481 -0.9813 -0.9892  0.9961
  522TMC3    H2 7811   0.009   0.985  17.286 -0.8411  1.0120  0.4952
  522TMC3    C7 7812   4.567   1.175  17.336  0.3264  0.3613 -0.2695
  522TMC3    C8 7813   0.030   0.750  17.403  0.0492  0.2177 -0.3712
  522TMC3    O1 7814   4.682   1.207  17.310 -0.7831  0.5025  0.8498
  522TMC3    O2 7815   0.035   0.724  17.522 -0.2953 -0.2901 -0.1992
  523MPD2     C 7816   1.863   0.312  10.054 -0.6284  0.5130 -0.6021
  523MPD2    C1 7817   1.809   0.222   9.972 -0.8104 -0.3624 -0.4320
  523MPD2    C2 7818   1.702   0.259   9.896 -0.4854 -0.3150  0.9914
  523MPD2    C3 7819   1.661   0.390   9.903  0.2107 -0.0673  0.8018
  523MPD2    C4 7820   1.720   0.482   9.986  0.0557  0.4147 -0.2245
  523MPD2    C5 7821   1.828   0.448  10.060  0.5086 -0.2643 -0.2225
  523MPD2     H 7822   1.658   0.183   9.833 -0.2809 -0.1137  0.6064
  523MPD2    H1 7823   1.686   0.585   9.993  1.2551  0.7777  0.1492
  523MPD2    H2 7824   1.940   0.269  10.118 -0.9168  0.9757  0.0544
  523MPD2    H3 7825   1.872   0.519  10.130  0.3836  0.9710 -1.3929
  523MPD2     N 7826   1.556   0.447   9.833  0.0135 -0.2390 -0.0120
  523MPD2    H5 7827   1.539   0.547   9.834 -1.7848 -0.5508  0.8118
  523MPD2    N1 7828   1.864   0.095   9.980  0.2079 -0.4526  0.0123
  523MPD2    H7 7829   1.946   0.079  10.037  1.4063  2.3049 -0.9130
  524TMC3    C1 7830   1.356   0.460   9.704  0.2986 -0.4724 -0.1339
  524TMC3    C2 7831   1.237   0.400   9.677  0.4723 -0.0518 -0.3913
  524TMC3    C3 7832   1.166   0.448   9.568  0.4630 -0.4338  0.4022
  524TMC3    C4 7833   1.390   0.587   9.654  0.1580  0.1079  0.2871
  524TMC3    C5 7834   1.299   0.641   9.560  0.0281 -0.0469  0.7083
  524TMC3    C6 7835   1.193   0.566   9.510  0.4073 -0.2056 -0.8047
  524TMC3     C 7836   1.452   0.378   9.779  0.0105 -0.0598 -0.0789
  524TMC3     O 7837   1.434   0.259   9.771 -0.2225 -0.0442 -0.2339
  524TMC3     H 7838   1.221   0.298   9.708 -1.2658  0.6189  0.9812
  524TMC3    H1 7839   1.484   0.636   9.672 -0.5588  1.0925  1.3003
  524TMC3    H2 7840   1.149   0.589   9.414 -1.4494 -0.1015  0.0713
  524TMC3    C7 7841   1.322   0.778   9.524  0.4492 -0.0941  0.6417
  524TMC3    C8 7842   1.081   0.370   9.486  0.4178 -0.1924  0.0119
  524TMC3    O1 7843   1.416   0.835   9.580  0.3325  0.1039  0.2523
  524TMC3    O2 7844   1.001   0.434   9.417  0.3101  0.3636  0.0803
  525MPD2     C 7845   0.182   2.132  14.450 -0.4281 -0.3213  0.2503
  525MPD2    C1 7846   0.260   2.217  14.527  0.6511 -0.0203  0.4008
  525MPD2    C2 7847   0.313   2.323  14.467  0.4444 -0.5809 -0.7648
  525MPD2    C3 7848   0.274   2.370  14.340 -0.5230  0.5559 -0.2800
  525MPD2    C4 7849   0.188   2.282  14.272  0.1262  0.8863  0.1827
  525MPD2    C5 7850   0.142   2.167  14.324  0.2540 -0.0775  0.7712
  525MPD2     H 7851   0.378   2.383  14.530  1.4993 -1.2461 -1.2316
  525MPD2    H1 7852   0.148   2.311  14.176 -2.7219  2.1989  1.7931
  525MPD2    H2 7853   0.153   2.031  14.474 -2.1298 -0.0884 -0.7762
  525MPD2    H3 7854   0.083   2.098  14.265  0.3010 -0.7050  1.4545
  525MPD2     N 7855   0.290   2.500  14.289  0.4222  0.0700  0.3851
  525MPD2    H5 7856   0.220   2.540  14.226 -0.0541  1.6143  1.8595
  525MPD2    N1 7857   0.291   2.184  14.661 -0.1141 -0.8839 -0.0277
  525MPD2    H7 7858   0.369   2.225  14.712 -3.1505 -0.9483  4.7334
  526TMC3    C1 7859   0.265   2.071  14.871  0.0266 -0.5072  0.2577
  526TMC3    C2 7860   0.176   2.037  14.971  0.2348 -0.0054  0.2338
  526TMC3    C3 7861   0.232   1.995  15.086 -0.5063  0.3683 -0.0313
  526TMC3    C4 7862   0.395   2.027  14.866 -0.1996 -0.1229 -0.1976
  526TMC3    C5 7863   0.434   1.976  14.981 -0.5030 -0.4820  0.7389
  526TMC3    C6 7864   0.358   1.967  15.097  0.3488  0.1927  0.1532
  526TMC3     C 7865   0.197   2.112  14.743  0.1438 -0.0077 -0.4583
  526TMC3     O 7866   0.094   2.062  14.709  0.3715  0.2517  0.0620
  526TMC3     H 7867   0.075   2.073  14.957 -0.0014 -0.3452  1.0810
  526TMC3    H1 7868   0.460   2.036  14.780  0.6163  1.7367  0.6012
  526TMC3    H2 7869   0.405   1.951  15.193  0.0879  0.6593  0.3545
  526TMC3    C7 7870   0.553   1.904  14.988  0.5943  0.0597  0.0555
  526TMC3    C8 7871   0.158   1.994  15.210  0.5113 -0.2994  0.2531
  526TMC3    O1 7872   0.631   1.933  15.078 -0.0013 -0.2378  0.1613
  526TMC3    O2 7873   0.212   1.967  15.316  0.7872 -0.5954 -0.0565
  527MPD2     C 7874   2.268   0.429   1.438  0.7552  0.2184  0.2901
  527MPD2    C1 7875   2.240   0.413   1.303  0.0126 -0.3458 -0.5721
  527MPD2    C2 7876   2.345   0.435   1.215 -0.3018  0.2503  0.2321
  527MPD2    C3 7877   2.476   0.450   1.257 -0.2174  0.0580 -0.3454
  527MPD2    C4 7878   2.501   0.469   1.392  0.6700 -0.0194 -0.3175
  527MPD2    C5 7879   2.395   0.454   1.477  0.1056 -0.6770 -0.7834
  527MPD2     H 7880   2.324   0.419   1.109 -0.8810 -0.4719  0.4536
  527MPD2    H1 7881   2.598   0.484   1.437  0.1841  1.0972  0.3670
  527MPD2    H2 7882   2.189   0.442   1.512 -0.5430 -0.4739 -0.9821
  527MPD2    H3 7883   2.407   0.469   1.584 -0.4707 -1.9263 -0.5440
  527MPD2     N 7884   2.583   0.451   1.160  0.1773 -0.2909 -0.0606
  527MPD2    H5 7885   2.557   0.466   1.063  3.2033  0.3395 -0.7763
  527MPD2    N1 7886   2.115   0.390   1.248  0.3782 -1.3230  0.0530
  527MPD2    H7 7887   2.099   0.403   1.149 -0.5517 -1.4257  0.1905
  528TMC3    C1 7888   1.896   0.310   1.230 -0.0712 -0.3615 -0.1138
  528TMC3    C2 7889   1.882   0.370   1.109 -0.0142 -0.5743  0.4167
  528TMC3    C3 7890   1.771   0.337   1.033  0.5612 -0.2831 -0.3901
  528TMC3    C4 7891   1.813   0.211   1.276  0.0313 -0.2038 -0.0613
  528TMC3    C5 7892   1.716   0.174   1.195 -0.0467 -0.3443 -0.1707
  528TMC3    C6 7893   1.689   0.241   1.082  0.1780  0.5854  0.6982
  528TMC3     C 7894   2.009   0.344   1.318  0.0196 -0.2432  0.1739
  528TMC3     O 7895   2.005   0.321   1.437 -0.5289  0.1908  0.3774
  528TMC3     H 7896   1.949   0.443   1.065 -0.1696 -0.5782  0.1718
  528TMC3    H1 7897   1.835   0.160   1.370  0.9137 -0.7952 -0.5941
  528TMC3    H2 7898   1.615   0.212   1.009 -0.1741  0.1190  1.2385
  528TMC3    C7 7899   1.630   0.070   1.241 -0.1418 -0.1954 -0.1117
  528TMC3    C8 7900   1.794   0.353   0.893 -1.1008  0.4081 -0.2090
  528TMC3    O1 7901   1.524   0.059   1.181  0.0801  0.4808  0.1277
  528TMC3    O2 7902   1.909   0.373   0.852  0.3236  0.1926 -0.2953
  529MPD2     C 7903   4.696   3.552   0.754  0.5755 -0.6909  0.1851
  529MPD2    C1 7904   0.039   3.484   0.673 -0.1196 -0.9299  0.1970
  529MPD2    C2 7905   0.047   3.509   0.534  0.3667 -0.7648  0.8392
  529MPD2    C3 7906   4.719   3.615   0.481  0.0230 -0.7272 -0.4590
  529MPD2    C4 7907   4.628   3.682   0.562 -0.6939  0.3192 -0.1957
  529MPD2    C5 7908   4.624   3.652   0.698  0.3177 -0.5285  0.1886
  529MPD2     H 7909   0.115   3.451   0.473 -0.0967 -0.7118  0.2702
  529MPD2    H1 7910   4.570   3.763   0.520  0.3757  0.3384 -1.6667
  529MPD2    H2 7911   4.683   3.538   0.861 -3.2111  0.6184 -0.1090
  529MPD2    H3 7912   4.553   3.700   0.765 -0.0564  0.5085 -0.9611
  529MPD2     N 7913   4.728   3.668   0.351 -0.6405 -0.0865  0.1920
  529MPD2    H5 7914   4.679   3.754   0.331  0.5300  0.3345 -0.8856
  529MPD2    N1 7915   0.118   3.387   0.730 -0.2402  0.0773 -0.0698
  529MPD2    H7 7916   0.160   3.315   0.672  1.0678  1.0027 -0.2835
  530TMC3    C1 7917   0.225   3.247   0.885 -0.1412 -0.1500  0.0497
  530TMC3    C2 7918   0.324   3.256   0.977  0.2427 -0.3173 -0.0797
  530TMC3    C3 7919   0.363   3.139   1.032  0.6616  0.3933 -0.1570
  530TMC3    C4 7920   0.179   3.129   0.827 -0.6543 -0.1856 -0.5978
  530TMC3    C5 7921   0.228   3.016   0.883  0.2163  0.3584  0.7353
  530TMC3    C6 7922   0.316   3.022   0.989  0.5702 -0.0286 -0.0962
  530TMC3     C 7923   0.148   3.373   0.863  0.4106  0.3584  0.3357
  530TMC3     O 7924   0.132   3.450   0.960 -0.3164 -0.3408  0.0575
  530TMC3     H 7925   0.355   3.351   1.017 -0.4388 -0.5974  1.1034
  530TMC3    H1 7926   0.094   3.125   0.760 -0.5397  1.1678 -0.8186
  530TMC3    H2 7927   0.345   2.937   1.049  0.4146 -0.7300 -1.0052
  530TMC3    C7 7928   0.152   2.901   0.853  0.7202  0.3500 -0.3349
  530TMC3    C8 7929   0.479   3.139   1.111 -0.0565  0.6349 -0.5157
  530TMC3    O1 7930   0.104   2.894   0.743 -0.0227  0.4560 -0.3732
  530TMC3    O2 7931   0.490   3.243   1.174 -0.3109  0.2313 -0.8353
  531MPD2     C 7932   3.912   1.366  12.683  0.1616  0.2898  0.4079
  531MPD2    C1 7933   3.974   1.476  12.737  0.2035 -0.5246  0.4953
  531MPD2    C2 7934   3.938   1.596  12.696 -0.6610 -0.1144  0.7588
  531MPD2    C3 7935   3.865   1.607  12.584  0.5656  0.1340 -0.6910
  531MPD2    C4 7936   3.816   1.497  12.516  0.1731 -1.4974 -0.8356
  531MPD2    C5 7937   3.835   1.377  12.570 -0.0561 -0.0999 -0.5859
  531MPD2     H 7938   3.970   1.693  12.732 -1.5629 -0.4411  2.4514
  531MPD2    H1 7939   3.758   1.501  12.425 -1.6804 -1.4351  0.3270
  531MPD2    H2 7940   3.931   1.264  12.713  0.4364  0.2606  0.1393
  531MPD2    H3 7941   3.805   1.286  12.521  1.9014 -1.2058  0.2495
  531MPD2     N 7942   3.853   1.740  12.542 -0.0282  0.2477  0.2797
  531MPD2    H5 7943   3.887   1.812  12.605  0.3739  0.5589 -0.2992
  531MPD2    N1 7944   4.059   1.459  12.843  0.4837 -0.3704 -0.1615
  531MPD2    H7 7945   4.080   1.363  12.868 -1.1472 -0.6872 -0.0059
  532TMC3    C1 7946   4.221   1.517  13.016  0.3110  0.4383 -0.5062
  532TMC3    C2 7947   4.281   1.633  13.066 -0.7198  0.1271 -0.7366
  532TMC3    C3 7948   4.415   1.646  13.058  0.3648 -0.0948 -0.7085
  532TMC3    C4 7949   4.300   1.412  12.990 -0.0181  0.2026 -0.6824
  532TMC3    C5 7950   4.438   1.432  12.997 -0.3133  0.2335 -0.0474
  532TMC3    C6 7951   4.498   1.550  13.027 -0.0406  0.5357  0.6125
  532TMC3     C 7952   4.105   1.559  12.933  0.0609  0.5483 -0.5253
  532TMC3     O 7953   4.082   1.680  12.933  0.8906 -0.2448 -0.0131
  532TMC3     H 7954   4.226   1.712  13.115  0.9060  0.5171  0.4510
  532TMC3    H1 7955   4.254   1.321  12.953  2.2141 -2.2033  2.5082
  532TMC3    H2 7956   4.606   1.552  13.035  0.0638  0.4194 -0.7179
  532TMC3    C7 7957   4.512   1.309  13.003  0.5422  0.0479 -1.0863
  532TMC3    C8 7958   4.465   1.772  13.007 -0.2016 -0.3572 -0.2235
  532TMC3    O1 7959   4.494   1.233  12.913  0.2585 -0.2440 -0.2982
  532TMC3    O2 7960   4.581   1.800  13.023 -0.0630  0.2264  0.0550
  533TMC3    C1 7961   0.319   2.727  14.348 -1.0436  0.4473 -0.4165
  533TMC3    C2 7962   0.397   2.841  14.366  0.4686  0.3017 -0.6596
  533TMC3    C3 7963   0.354   2.955  14.431  0.1078 -0.7256  0.0587
  533TMC3    C4 7964   0.181   2.734  14.388 -0.7940 -0.0401 -0.8964
  533TMC3    C5 7965   0.142   2.848  14.458 -0.1234  0.0941  0.4850
  533TMC3    C6 7966   0.226   2.961  14.477 -0.8202  0.2348  0.6977
  533TMC3     C 7967   0.367   2.591  14.360  0.2288 -0.2865 -1.1099
  533TMC3     O 7968   0.479   2.571  14.410  0.7337 -0.1061  0.5335
  533TMC3     H 7969   0.503   2.839  14.340  0.8999  2.2837  1.0113
  533TMC3    H1 7970   0.114   2.649  14.393 -0.8467  0.0075 -0.8184
  533TMC3    H2 7971   0.183   3.053  14.515 -0.6811  0.4654  0.2973
  533TMC3    C7 7972   0.036   2.825  14.552  0.1543 -0.1717  0.6570
  533TMC3    C8 7973   0.424   3.081  14.434 -0.4444 -0.1807 -0.5365
  533TMC3    O1 7974   0.017   2.708  14.579 -0.0772  0.1462 -0.6814
  533TMC3    O2 7975   0.362   3.183  14.462  0.0911 -0.2141 -0.5011
  534MPD2     C 7976   2.787   3.494   1.592 -0.0026 -0.2868  0.0323
  534MPD2    C1 7977   2.812   3.581   1.487 -0.4976 -0.7957 -0.5866
  534MPD2    C2 7978   2.701   3.624   1.411 -0.2649  0.2610 -0.1750
  534MPD2    C3 7979   2.573   3.586   1.446 -0.3171  0.2503  0.7762
  534MPD2    C4 7980   2.560   3.506   1.559  0.3649 -0.2448  0.3443
  534MPD2    C5 7981   2.666   3.465   1.638 -0.3525  0.1451 -0.2676
  534MPD2     H 7982   2.713   3.693   1.329 -0.7965  1.7748  1.0155
  534MPD2    H1 7983   2.462   3.474   1.591  0.1665  0.4385  0.4280
  534MPD2    H2 7984   2.860   3.454   1.662  0.3216  0.7603  0.2883
  534MPD2    H3 7985   2.656   3.405   1.728 -0.4852 -0.1072 -0.4504
  534MPD2     N 7986   2.457   3.614   1.368 -0.1329  0.1826  0.2601
  534MPD2    H5 7987   2.371   3.565   1.390 -0.3298  0.9443  1.1705
  534MPD2    N1 7988   2.934   3.622   1.455  0.1526  0.1886  0.4324
  534MPD2    H7 7989   2.941   3.677   1.370  0.0152  0.8151  0.8234
  535TMC3    C1 7990   2.321   3.686   1.196 -0.3056 -0.0955 -0.5081
  535TMC3    C2 7991   2.234   3.576   1.211 -0.5156 -0.3092  0.0633
  535TMC3    C3 7992   2.102   3.584   1.168 -0.4172  0.0062  0.6383
  535TMC3    C4 7993   2.287   3.794   1.117 -0.4190 -0.5747  0.3705
  535TMC3    C5 7994   2.156   3.791   1.071 -0.1957  0.4171 -0.7067
  535TMC3    C6 7995   2.061   3.702   1.112  0.0771 -0.5948  0.2916
  535TMC3     C 7996   2.447   3.689   1.260  0.5484 -0.1755  0.5957
  535TMC3     O 7997   2.529   3.767   1.213  0.0196 -0.3886 -0.0255
  535TMC3     H 7998   2.278   3.486   1.252 -1.1570 -0.4121  0.5209
  535TMC3    H1 7999   2.359   3.869   1.088 -1.4364  0.4841  0.5916
  535TMC3    H2 8000   1.956   3.714   1.089  0.5031  0.1314 -1.2713
  535TMC3    C7 8001   2.137   3.867   0.952 -0.8554 -0.3296 -0.2888
  535TMC3    C8 8002   2.012   3.477   1.188  0.5469  0.0475 -0.0609
  535TMC3    O1 8003   2.241   3.892   0.887  0.3669  0.2350  0.3222
  535TMC3    O2 8004   1.935   3.461   1.094  0.4197 -0.2911 -0.5335
  536MPD2     C 8005   1.355   1.987  15.923  0.2361  0.2043 -0.3562
  536MPD2    C1 8006   1.311   2.079  16.021  0.4325 -0.2746  0.0170
  536MPD2    C2 8007   1.259   2.198  15.971  0.1873 -0.2806 -0.2677
  536MPD2    C3 8008   1.262   2.228  15.839  0.0075 -0.5033  0.0352
  536MPD2    C4 8009   1.313   2.143  15.742 -0.0960 -0.3337 -0.0221
  536MPD2    C5 8010   1.352   2.018  15.791  0.5002 -0.9579 -0.3179
  536MPD2     H 8011   1.225   2.277  16.036 -3.3241 -3.5406  1.8251
  536MPD2    H1 8012   1.338   2.167  15.640 -3.8847 -2.2674 -1.4311
  536MPD2    H2 8013   1.394   1.893  15.959  0.9859 -0.0508 -1.8387
  536MPD2    H3 8014   1.391   1.945  15.721  1.9892  0.9058 -1.4103
  536MPD2     N 8015   1.200   2.348  15.793 -0.2544 -0.0993 -0.5575
  536MPD2    H5 8016   1.227   2.375  15.698 -0.4013  0.3632 -0.4690
  536MPD2    N1 8017   1.321   2.046  16.160  0.3654  0.6242  0.1273
  536MPD2    H7 8018   1.343   1.951  16.186  0.2900  0.3637 -0.7732
  537TMC3    C1 8019   1.330   2.077  16.385  0.2259 -0.0894 -0.9305
  537TMC3    C2 8020   1.349   2.163  16.490 -0.0083  0.6705  0.2194
  537TMC3    C3 8021   1.360   2.113  16.612  0.2594  0.5155 -0.5677
  537TMC3    C4 8022   1.287   1.951  16.402  0.2866  0.0586  0.7299
  537TMC3    C5 8023   1.278   1.905  16.531  0.3949 -0.3658  1.1896
  537TMC3    C6 8024   1.325   1.981  16.634 -0.3055 -0.3522 -0.1372
  537TMC3     C 8025   1.310   2.141  16.256 -0.3101  0.5695  0.4518
  537TMC3     O 8026   1.301   2.259  16.256 -0.0600 -0.1924 -0.2071
  537TMC3     H 8027   1.410   2.250  16.468 -0.9850  1.8166  2.0560
  537TMC3    H1 8028   1.262   1.878  16.325  1.3797 -0.6886  1.0811
  537TMC3    H2 8029   1.324   1.950  16.738  0.5576 -1.6931 -0.5322
  537TMC3    C7 8030   1.199   1.789  16.558 -0.2401 -0.1022  0.6561
  537TMC3    C8 8031   1.386   2.202  16.720  0.3330  0.2309 -0.4832
  537TMC3    O1 8032   1.107   1.763  16.479 -0.2733 -0.4098  0.2412
  537TMC3    O2 8033   1.436   2.308  16.698 -0.2748  0.5292 -0.2119
  538TMC3    C1 8034   2.831   0.037  10.550  0.7823  0.2702  0.0546
  538TMC3    C2 8035   2.952   0.085  10.512 -0.6428 -0.2222  0.9336
  538TMC3    C3 8036   2.960   0.215  10.464 -0.7329 -0.7950  0.1710
  538TMC3    C4 8037   2.723   0.116  10.534  0.6414 -0.0549  0.2744
  538TMC3    C5 8038   2.736   0.242  10.486  0.0489  0.9271 -0.2214
  538TMC3    C6 8039   2.857   0.300  10.465  0.0105  0.5835  0.6990
  538TMC3     C 8040   2.826   4.694  10.672  0.0597 -0.7625  0.2322
  538TMC3     O 8041   2.718   4.644  10.702 -0.3438 -0.0597 -0.0966
  538TMC3     H 8042   3.047   0.032  10.518  0.1831  0.9959 -1.5793
  538TMC3    H1 8043   2.633   0.089  10.589  1.5491  1.4243  2.4778
  538TMC3    H2 8044   2.868   0.406  10.445 -0.0236  0.0061 -2.3973
  538TMC3    C7 8045   2.624   0.334  10.515 -0.0117 -0.2812  1.3229
  538TMC3    C8 8046   3.069   0.239  10.370 -0.2299  0.0273  0.7167
  538TMC3    O1 8047   2.521   0.274  10.499  0.8530 -0.2756 -0.1841
  538TMC3    O2 8048   3.172   0.168  10.369  0.0770 -0.0689 -0.2138
  539MPD2     C 8049   2.058   4.441  11.883 -0.2740 -0.1025  0.3301
  539MPD2    C1 8050   2.057   4.442  11.747 -0.4240 -0.5015  0.1900
  539MPD2    C2 8051   2.084   4.563  11.686 -0.0287 -0.3946  0.0247
  539MPD2    C3 8052   2.126   4.678  11.758 -0.1137 -0.6613  0.8094
  539MPD2    C4 8053   2.124   4.673  11.895  0.1491  0.6354  0.1834
  539MPD2    C5 8054   2.095   4.553  11.949  0.6346 -0.4286 -0.5030
  539MPD2     H 8055   2.083   4.571  11.578 -3.3782  2.5296  0.2655
  539MPD2    H1 8056   2.151   0.018  11.957  1.6972 -0.4572  1.0077
  539MPD2    H2 8057   2.033   4.355  11.944 -2.7405  0.7776  0.5750
  539MPD2    H3 8058   2.112   4.551  12.056  0.7261  1.1613 -0.4905
  539MPD2     N 8059   2.189   0.050  11.697 -0.0814 -0.7225  0.3398
  539MPD2    H5 8060   2.228   0.125  11.753 -1.2297  0.9104 -1.0490
  539MPD2    N1 8061   2.020   4.328  11.669  0.4001 -0.1420  0.6095
  539MPD2    H7 8062   2.014   4.341  11.569  2.6325  1.0457  0.6429
  540TMC3    C1 8063   2.258   0.193  11.519 -0.4872 -0.2503  0.2230
  540TMC3    C2 8064   2.267   0.204  11.385 -0.1005  0.1885 -0.8014
  540TMC3    C3 8065   2.284   0.325  11.327  0.3731 -0.8019 -0.4096
  540TMC3    C4 8066   2.278   0.298  11.606  0.1143 -0.5001  0.5723
  540TMC3    C5 8067   2.300   0.423  11.547  0.2939  0.7441  0.0992
  540TMC3    C6 8068   2.297   0.435  11.407 -0.5209  0.5353 -0.3862
  540TMC3     C 8069   2.204   0.066  11.563  0.1916 -0.1589 -0.6876
  540TMC3     O 8070   2.183   4.727  11.472 -0.0765  0.4249  0.0006
  540TMC3     H 8071   2.254   0.125  11.312 -0.3968  0.1694 -0.7305
  540TMC3    H1 8072   2.272   0.302  11.715 -2.7952  1.4973  0.3292
  540TMC3    H2 8073   2.305   0.531  11.359  3.1689  0.2244 -0.4077
  540TMC3    C7 8074   2.215   0.526  11.616 -0.7297 -0.4141  0.7085
  540TMC3    C8 8075   2.284   0.341  11.181 -0.1114  0.5278 -0.2912
  540TMC3    O1 8076   2.168   0.495  11.723  0.6945 -0.0368 -0.3829
  540TMC3    O2 8077   2.358   0.431  11.145  0.2611 -0.5256  0.4624
  541MPD2     C 8078   0.201   1.363  13.169 -0.5570 -0.2335 -0.0617
  541MPD2    C1 8079   0.233   1.279  13.071  0.1187  0.6154 -0.7359
  541MPD2    C2 8080   0.212   1.314  12.939 -0.6867  0.2696  0.6194
  541MPD2    C3 8081   0.156   1.440  12.911 -0.3434 -0.8620  0.1597
  541MPD2    C4 8082   0.111   1.517  13.017  0.2709 -0.0598  0.3789
  541MPD2    C5 8083   0.128   1.475  13.141 -0.4345  0.1909 -0.3731
  541MPD2     H 8084   0.249   1.248  12.861  1.6012 -1.2839  3.0544
  541MPD2    H1 8085   0.056   1.610  13.008 -1.5112 -1.3289 -1.9250
  541MPD2    H2 8086   0.222   1.345  13.274 -0.1573  0.0876 -0.0858
  541MPD2    H3 8087   0.106   1.537  13.228  2.6908  0.6951  0.0832
  541MPD2     N 8088   0.138   1.475  12.776  0.0430  0.8147 -0.2917
  541MPD2    H5 8089   0.170   1.402  12.713 -0.0814 -1.5059  2.3220
  541MPD2    N1 8090   0.283   1.158  13.101  1.0215  0.2595 -0.0846
  541MPD2    H7 8091   0.311   1.107  13.018 -2.4350  2.0334 -2.3577
  542TMC3    C1 8092   0.048   1.580  12.588 -0.3569 -0.6221  0.0917
  542TMC3    C2 8093   0.023   1.453  12.538  0.2939  0.9841 -0.3414
  542TMC3    C3 8094   4.725   1.453  12.417 -0.1187  0.2581  0.9180
  542TMC3    C4 8095   0.037   1.694  12.522 -0.0253 -0.5715  0.4263
  542TMC3    C5 8096   0.002   1.684  12.395 -0.5063  0.4109 -0.6436
  542TMC3    C6 8097   4.706   1.561  12.342  1.1251 -0.7034  0.2876
  542TMC3     C 8098   0.084   1.590  12.732 -0.6990 -0.2361 -0.1088
  542TMC3     O 8099   0.077   1.699  12.785  0.0495  0.0631  0.3316
  542TMC3     H 8100   0.028   1.365  12.601  0.6187  0.4604 -1.0931
  542TMC3    H1 8101   0.084   1.784  12.560  1.9381 -3.5512  5.1348
  542TMC3    H2 8102   4.681   1.546  12.237 -1.6635  1.6241  0.5995
  542TMC3    C7 8103   4.730   1.798  12.322 -0.0528 -0.0658  0.2243
  542TMC3    C8 8104   4.680   1.329  12.355 -0.6985 -0.5213  0.5593
  542TMC3    O1 8105   4.691   1.894  12.383 -0.0047 -0.2586 -0.1024
  542TMC3    O2 8106   4.670   1.239  12.437  0.3944 -0.0123 -0.6522
  543TMC3    C1 8107   4.544   3.018  17.156  0.7110  0.9029  0.7426
  543TMC3    C2 8108   4.584   2.919  17.244  0.4291  0.3569  0.5121
  543TMC3    C3 8109   4.567   2.931  17.378 -0.3992  0.0687  0.6696
  543TMC3    C4 8110   4.485   3.125  17.206 -0.0743 -0.2792 -0.1287
  543TMC3    C5 8111   4.462   3.135  17.339 -0.0752  0.0919  1.3134
  543TMC3    C6 8112   4.501   3.039  17.429  0.0296 -0.3117  0.3030
  543TMC3     C 8113   4.560   3.000  17.011  0.3799 -0.2604  0.3027
  543TMC3     O 8114   4.655   2.933  16.969  0.3296 -0.2596 -0.6068
  543TMC3     H 8115   4.629   2.832  17.198 -0.3801  1.5558 -2.5668
  543TMC3    H1 8116   4.448   3.200  17.137 -0.9185 -0.2850  0.3203
  543TMC3    H2 8117   4.464   3.048  17.531 -0.1965 -0.5011  0.2387
  543TMC3    C7 8118   4.411   3.266  17.379 -0.0394 -1.0379 -0.3862
  543TMC3    C8 8119   4.600   2.817  17.461 -0.2561  0.7380  0.0439
  543TMC3    O1 8120   4.396   3.355  17.295 -0.4825  0.0285  0.1740
  543TMC3    O2 8121   4.625   2.713  17.398  0.1556  0.0971  0.0388
  544MPD2     C 8122   4.591   2.568   0.173  0.7164  0.2164  0.4340
  544MPD2    C1 8123   4.599   2.509   0.045  0.6414 -0.7798  0.7678
  544MPD2    C2 8124   4.578   2.594  17.686 -0.3282 -0.5708 -0.0021
  544MPD2    C3 8125   4.583   2.735  17.695 -0.7230 -0.1021 -0.1228
  544MPD2    C4 8126   4.576   2.785   0.072 -0.1414 -0.4800 -0.2247
  544MPD2    C5 8127   4.579   2.702   0.180 -0.3609 -0.1977  0.5433
  544MPD2     H 8128   4.579   2.554  17.585  1.4961 -1.2696  0.3004
  544MPD2    H1 8129   4.579   2.894   0.073 -0.3477 -0.4772  0.0665
  544MPD2    H2 8130   4.611   2.508   0.261 -0.7784  0.2616  0.8085
  544MPD2    H3 8131   4.590   2.759   0.272 -0.2602  2.1455 -0.9242
  544MPD2     N 8132   4.574   2.833  17.597 -0.3907 -0.4528 -0.6545
  544MPD2    H5 8133   4.563   2.932  17.617  0.1293 -0.5161 -0.0666
  544MPD2    N1 8134   4.619   2.366   0.040 -0.2437  0.2340  0.3904
  544MPD2    H7 8135   4.619   2.314   0.127  2.6900  0.2847  0.4072
  545TMC3    C1 8136   4.681   2.158  17.692 -0.0363  0.2701  0.1047
  545TMC3    C2 8137   4.642   2.092   0.044 -0.7011  0.6209 -0.6063
  545TMC3    C3 8138   4.661   1.953   0.046 -0.4852 -0.8197 -0.3489
  545TMC3    C4 8139   0.015   2.105  17.591  0.2562 -0.0655 -0.3160
  545TMC3    C5 8140   0.030   1.966  17.599  0.0745  0.1818 -0.1377
  545TMC3    C6 8141   4.725   1.887  17.703 -0.2414 -0.0541  0.2459
  545TMC3     C 8142   4.647   2.300  17.678 -0.0588 -0.3983 -0.4971
  545TMC3     O 8143   4.652   2.339  17.565  0.2597 -0.0913 -0.3777
  545TMC3     H 8144   4.569   2.130   0.115 -1.7021 -0.9091 -0.8288
  545TMC3    H1 8145   0.047   2.155  17.500  2.3483  2.4820  1.8074
  545TMC3    H2 8146   4.731   1.779  17.693  1.1629 -0.0297  0.8055
  545TMC3    C7 8147   0.040   1.898  17.469  0.6694 -0.1975  0.5221
  545TMC3    C8 8148   4.562   1.881   0.128 -0.1124 -0.3521  0.6451
  545TMC3    O1 8149   0.030   1.967  17.369  0.0836  0.4474 -0.2716
  545TMC3    O2 8150   4.462   1.940   0.158  0.0565  0.0963 -0.2091
  546MPD2     C 8151   1.392   2.682  17.382 -0.6647  0.1382 -0.1990
  546MPD2    C1 8152   1.406   2.741  17.254  0.5629 -0.6310  0.1171
  546MPD2    C2 8153   1.471   2.859  17.239  0.4293 -0.3557  0.4506
  546MPD2    C3 8154   1.542   2.903  17.352 -0.0351 -0.6211 -0.3459
  546MPD2    C4 8155   1.527   2.848  17.477  0.0422 -0.2158 -0.1868
  546MPD2    C5 8156   1.452   2.738  17.495 -0.3762  0.7984 -0.3785
  546MPD2     H 8157   1.480   2.904  17.141 -2.9965  0.3042  0.4279
  546MPD2    H1 8158   1.582   2.879  17.565 -1.0922 -1.3674  0.9334
  546MPD2    H2 8159   1.345   2.585  17.397 -1.6810  0.6861  0.1155
  546MPD2    H3 8160   1.443   2.697  17.595  0.8931 -0.5176 -0.8025
  546MPD2     N 8161   1.621   3.023  17.355 -0.3613  0.5784 -0.4331
  546MPD2    H5 8162   1.652   3.055  17.446 -1.0954  0.4862 -0.1464
  546MPD2    N1 8163   1.321   2.680  17.159 -0.4651 -0.5058 -0.3021
  546MPD2    H7 8164   1.272   2.603  17.202 -2.5108  1.0613  0.1405
  547TMC3    C1 8165   1.170   2.674  16.964 -0.1155 -0.0235  0.4452
  547TMC3    C2 8166   1.110   2.747  16.863  0.3066 -0.4841 -0.5513
  547TMC3    C3 8167   1.023   2.677  16.778  0.0151 -0.1730  0.6139
  547TMC3    C4 8168   1.161   2.538  16.974 -0.0254  0.3537 -0.0459
  547TMC3    C5 8169   1.072   2.482  16.894  0.0118 -0.1740  0.2219
  547TMC3    C6 8170   1.006   2.545  16.793  0.2221  0.1047  0.0795
  547TMC3     C 8171   1.288   2.736  17.036 -0.3582  0.0001 -0.3872
  547TMC3     O 8172   1.325   2.844  16.988 -0.6699  0.2657 -0.2179
  547TMC3     H 8173   1.128   2.854  16.857 -0.2481 -0.3244  0.7572
  547TMC3    H1 8174   1.219   2.482  17.047 -0.9575 -0.0079  0.4092
  547TMC3    H2 8175   0.933   2.500  16.726 -0.1123 -1.0750  1.2338
  547TMC3    C7 8176   1.031   2.352  16.928 -0.5833  0.4648  0.0210
  547TMC3    C8 8177   0.896   2.734  16.736  0.4456 -0.1869 -0.3402
  547TMC3    O1 8178   1.024   2.328  17.049 -0.3581  0.3538  0.1644
  547TMC3    O2 8179   0.854   2.687  16.633 -0.2439 -0.7842  0.2431
  548MPD2     C 8180   1.264   3.107  12.769 -0.2147 -0.1217 -0.6511
  548MPD2    C1 8181   1.168   3.033  12.708 -0.3833 -0.6121  0.1005
  548MPD2    C2 8182   1.217   2.923  12.643 -0.6677  0.1924 -0.1742
  548MPD2    C3 8183   1.352   2.884  12.650  0.0089 -0.8237  0.5287
  548MPD2    C4 8184   1.445   2.952  12.726  0.3174 -0.1869 -0.5531
  548MPD2    C5 8185   1.396   3.071  12.781  0.6730 -0.4864 -0.2180
  548MPD2     H 8186   1.152   2.855  12.590 -0.9260  0.2295  0.0966
  548MPD2    H1 8187   1.548   2.921  12.741 -0.2959 -1.3588  1.2386
  548MPD2    H2 8188   1.235   3.203  12.810 -2.0097 -1.0120  0.1722
  548MPD2    H3 8189   1.463   3.146  12.820 -0.8080  0.9795 -0.4818
  548MPD2     N 8190   1.383   2.768  12.574 -0.6966 -0.2838 -0.2874
  548MPD2    H5 8191   1.302   2.722  12.534 -0.2245 -0.4390 -1.0639
  548MPD2    N1 8192   1.037   3.083  12.709  0.3799  0.0402  0.0933
  548MPD2    H7 8193   1.019   3.161  12.771  1.0037 -0.0963  0.4411
  549TMC3    C1 8194   0.808   3.107  12.654 -0.3909 -0.4791  0.1964
  549TMC3    C2 8195   0.807   3.244  12.642  0.3640 -0.5865  0.6008
  549TMC3    C3 8196   0.677   3.304  12.643  0.6631  0.3167  0.5973
  549TMC3    C4 8197   0.697   3.031  12.655  0.1503  0.0685  0.1124
  549TMC3    C5 8198   0.575   3.088  12.645  0.3190  0.5478 -0.3837
  549TMC3    C6 8199   0.561   3.224  12.645 -0.0149 -0.4074 -0.4247
  549TMC3     C 8200   0.934   3.032  12.636  0.3624 -0.5896 -0.0635
  549TMC3     O 8201   0.935   2.926  12.578  0.8357  0.6909 -0.5490
  549TMC3     H 8202   0.895   3.306  12.633  0.8211 -1.6353 -1.9695
  549TMC3    H1 8203   0.720   2.928  12.628 -2.0093 -0.2476 -0.4963
  549TMC3    H2 8204   0.460   3.262  12.646 -0.7234 -2.2916 -1.5313
  549TMC3    C7 8205   0.459   3.012  12.638  0.2689 -0.5355  0.4770
  549TMC3    C8 8206   0.655   3.443  12.607 -0.9534 -0.5560  0.2402
  549TMC3    O1 8207   0.362   3.080  12.631 -0.0313 -0.2809  0.3163
  549TMC3    O2 8208   0.532   3.473  12.613  0.6517 -0.6680 -0.1997
  550TMC3    C1 8209   3.978   1.065  12.212 -0.2253  0.4969  0.3498
  550TMC3    C2 8210   3.997   1.158  12.315 -0.2818 -0.1197 -0.1182
  550TMC3    C3 8211   4.124   1.205  12.334  0.2918 -0.1884 -0.0489
  550TMC3    C4 8212   4.076   1.024  12.130 -0.0700  0.4908  0.2811
  550TMC3    C5 8213   4.196   1.089  12.145  0.6419 -0.4568  0.1840
  550TMC3    C6 8214   4.221   1.170  12.249 -0.0581 -0.3241  0.2323
  550TMC3     C 8215   3.844   1.090  12.156 -0.1368 -0.8927 -0.0371
  550TMC3     O 8216   3.769   1.163  12.224 -0.2978  0.1641  0.2027
  550TMC3     H 8217   3.920   1.193  12.382 -1.3204  1.3612 -2.0631
  550TMC3    H1 8218   4.050   0.968  12.041 -0.0282  2.7159 -1.1266
  550TMC3    H2 8219   4.308   1.235  12.251 -1.3135  1.3594  0.8853
  550TMC3    C7 8220   4.245   1.135  12.022  0.3759  0.4668 -0.8966
  550TMC3    C8 8221   4.136   1.336  12.384  0.3123  0.3976  0.2430
  550TMC3    O1 8222   4.248   1.260  12.010 -0.2092  0.0544  0.6574
  550TMC3    O2 8223   4.059   1.417  12.334  0.0924 -0.2490 -0.0218
  551TMC3    C1 8224   2.247   3.655  13.022  0.3660 -1.4847  0.2506
  551TMC3    C2 8225   2.363   3.698  12.972  0.2121 -0.0695 -0.4254
  551TMC3    C3 8226   2.413   3.808  13.033 -0.8626  0.2544  0.0076
  551TMC3    C4 8227   2.173   3.721  13.118 -0.4915  0.0784  0.1394
  551TMC3    C5 8228   2.235   3.822  13.185 -0.4347 -0.0259  0.4602
  551TMC3    C6 8229   2.358   3.873  13.139  0.1262 -0.2666  0.1396
  551TMC3     C 8230   2.166   3.595  12.926  0.4853  0.1997 -0.8736
  551TMC3     O 8231   2.043   3.607  12.930 -0.2381  0.1905  0.2720
  551TMC3     H 8232   2.413   3.666  12.881 -1.3624 -0.5219 -1.1277
  551TMC3    H1 8233   2.085   3.672  13.157 -1.1969  2.0178  0.9892
  551TMC3    H2 8234   2.427   3.929  13.200 -0.1214  1.0974 -0.8411
  551TMC3    C7 8235   2.216   3.838  13.328  0.3971 -0.6268 -0.3796
  551TMC3    C8 8236   2.550   3.837  12.999  1.2231  0.3780 -0.3192
  551TMC3    O1 8237   2.298   3.904  13.382 -0.0831 -0.8164  0.3825
  551TMC3    O2 8238   2.605   3.744  12.950  0.3356 -0.4237 -0.8494
  552MPD2     C 8239   3.595   0.775  14.594  0.8520 -0.2102  1.0197
  552MPD2    C1 8240   3.689   0.757  14.492  0.5227 -0.2350  0.0741
  552MPD2    C2 8241   3.822   0.783  14.523  0.1601  0.1571 -0.1502
  552MPD2    C3 8242   3.866   0.819  14.650  0.3008  0.0335 -0.6047
  552MPD2    C4 8243   3.770   0.841  14.747  0.0721 -0.4950  1.0884
  552MPD2    C5 8244   3.638   0.813  14.718  0.4041 -0.0534  0.3377
  552MPD2     H 8245   3.891   0.781  14.440  0.1248 -1.0948 -0.1514
  552MPD2    H1 8246   3.794   0.862  14.851  0.4978  0.3834  0.8100
  552MPD2    H2 8247   3.490   0.750  14.579  0.7182  0.7995  0.2700
  552MPD2    H3 8248   3.570   0.818  14.802 -1.7600  1.5151 -1.5297
  552MPD2     N 8249   4.003   0.828  14.691 -0.1017 -0.6641  0.1196
  552MPD2    H5 8250   4.024   0.838  14.790  2.0077  0.6439 -0.4678
  552MPD2    N1 8251   3.652   0.741  14.357 -0.4836 -0.4492 -0.3040
  552MPD2    H7 8252   3.723   0.748  14.285 -2.3179  0.8613 -1.9929
  553TMC3    C1 8253   3.535   0.694  14.163  0.2043 -0.2229  0.2701
  553TMC3    C2 8254   3.610   0.790  14.105 -0.2302 -0.8026  0.9822
  553TMC3    C3 8255   3.678   0.752  13.988  0.0594 -0.3059  0.0807
  553TMC3    C4 8256   3.528   0.566  14.125 -0.5553  0.4381  0.4886
  553TMC3    C5 8257   3.597   0.534  14.013  0.1107 -0.3483  0.4194
  553TMC3    C6 8258   3.677   0.626  13.943  0.4249 -0.4434  0.4128
  553TMC3     C 8259   3.528   0.701  14.308 -0.7126 -0.1135 -0.3244
  553TMC3     O 8260   3.438   0.633  14.359 -0.0103  0.1345 -0.2377
  553TMC3     H 8261   3.621   0.889  14.147 -2.4719 -0.7891  1.5588
  553TMC3    H1 8262   3.492   0.487  14.190 -1.7050 -1.4431 -2.4660
  553TMC3    H2 8263   3.732   0.590  13.857 -0.7211 -1.4239  0.0880
  553TMC3    C7 8264   3.651   0.401  14.015 -1.0770 -0.1732 -0.7223
  553TMC3    C8 8265   3.796   0.832  13.939 -0.3138  0.4574 -0.2806
  553TMC3    O1 8266   3.571   0.310  14.019 -0.5142  0.2367 -0.6465
  553TMC3    O2 8267   3.873   0.784  13.862 -0.3815 -0.0438  0.6894
  554TMC3    C1 8268   1.168   0.069  11.754  0.0735  0.9110 -0.2514
  554TMC3    C2 8269   1.098   0.049  11.638  0.2179  0.0255  0.3672
  554TMC3    C3 8270   1.138   0.113  11.526 -1.0603  0.2539 -0.2614
  554TMC3    C4 8271   1.278   0.152  11.755  0.3609 -0.4002 -0.2219
  554TMC3    C5 8272   1.309   0.223  11.639  0.2212 -0.0737 -0.0201
  554TMC3    C6 8273   1.242   0.202  11.518  0.2771  0.1433 -0.4353
  554TMC3     C 8274   1.169   4.684  11.841  0.0847  0.2772  0.2227
  554TMC3     O 8275   1.107   4.590  11.797 -0.4181  0.0907  0.2901
  554TMC3     H 8276   1.030   4.704  11.629 -0.4964  0.3677  2.6653
  554TMC3    H1 8277   1.345   0.159  11.840 -0.9321 -1.4076  0.9031
  554TMC3    H2 8278   1.256   0.263  11.430 -2.2982  0.3817 -0.6798
  554TMC3    C7 8279   1.417   0.316  11.647 -0.1331 -0.5179 -0.1214
  554TMC3    C8 8280   1.062   0.097  11.403  0.1367  0.7886  0.7546
  554TMC3    O1 8281   1.461   0.344  11.759 -0.6910  0.3006  0.2730
  554TMC3    O2 8282   1.137   0.111  11.309  0.5769 -0.5554  0.3795
  555TMC3    C1 8283   4.615   4.584  15.644  0.0090  0.0177 -0.6582
  555TMC3    C2 8284   4.659   4.621  15.770 -0.0874 -0.1961 -0.8480
  555TMC3    C3 8285   4.716   4.522  15.849 -0.4227 -0.2527  0.3191
  555TMC3    C4 8286   4.637   4.449  15.603 -0.4090 -0.5680 -0.3852
  555TMC3    C5 8287   4.696   4.352  15.682 -0.4223  0.0886  0.1429
  555TMC3    C6 8288   4.730   4.397  15.804  0.0251 -0.0338  0.0818
  555TMC3     C 8289   4.558   4.687  15.571  0.4035  0.7360  0.5702
  555TMC3     O 8290   4.529   0.044  15.634  0.5136 -0.1465  0.0576
  555TMC3     H 8291   4.639   4.719  15.810 -0.4039 -0.9746  0.9229
  555TMC3    H1 8292   4.594   4.411  15.511  0.7161 -1.1499 -0.6639
  555TMC3    H2 8293   0.034   4.322  15.869 -1.5417 -0.2825  0.8429
  555TMC3    C7 8294   4.735   4.219  15.641  0.4158  0.8359  0.1502
  555TMC3    C8 8295   0.060   4.561  15.961  0.0261  0.2796 -0.6472
  555TMC3    O1 8296   4.711   4.133  15.724 -0.2578 -0.5083 -0.4059
  555TMC3    O2 8297   0.051   4.667  16.018  0.1319 -0.6262 -0.3790
  556MPD2     C 8298   2.724   1.568  10.277 -0.4060  0.3016 -0.4990
  556MPD2    C1 8299   2.803   1.470  10.331 -0.5637  0.3568  0.3620
  556MPD2    C2 8300   2.810   1.350  10.256 -0.0116  0.2948 -0.6907
  556MPD2    C3 8301   2.744   1.332  10.142 -0.2059  0.1743  0.2327
  556MPD2    C4 8302   2.668   1.430  10.095 -0.4719 -0.0113 -0.1272
  556MPD2    C5 8303   2.663   1.550  10.159  0.1430 -0.2586 -0.3950
  556MPD2     H 8304   2.874   1.268  10.290 -1.2366 -0.7661 -0.9393
  556MPD2    H1 8305   2.607   1.424  10.006 -1.5253  0.1358  0.5895
  556MPD2    H2 8306   2.723   1.666  10.324  0.8422  0.3578 -0.5852
  556MPD2    H3 8307   2.616   1.638  10.117 -0.1351 -0.2013  0.0422
  556MPD2     N 8308   2.761   1.212  10.071 -0.3554 -0.1982 -0.2687
  556MPD2    H5 8309   2.816   1.137  10.110  0.5903  0.7979  0.3351
  556MPD2    N1 8310   2.874   1.482  10.451  0.1217 -0.1147 -0.4411
  556MPD2    H7 8311   2.915   1.405  10.503  1.8346  0.2879 -1.2002
  557TMC3    C1 8312   2.777   1.070   9.887  0.1709  0.5717 -0.1773
  557TMC3    C2 8313   2.784   1.043   9.752  0.1475  0.8543 -0.6656
  557TMC3    C3 8314   2.834   0.925   9.701  0.0900 -1.0832  0.0066
  557TMC3    C4 8315   2.820   0.974   9.974 -0.9557 -0.4800 -0.1342
  557TMC3    C5 8316   2.888   0.866   9.920  0.3851 -0.1419 -0.4728
  557TMC3    C6 8317   2.900   0.836   9.786  0.0222 -1.0648  0.0883
  557TMC3     C 8318   2.733   1.195   9.937 -0.3860 -0.3221 -0.4534
  557TMC3     O 8319   2.673   1.270   9.863 -0.1295 -0.0485 -0.0240
  557TMC3     H 8320   2.781   1.131   9.690  0.4067  2.0511  1.0181
  557TMC3    H1 8321   2.813   0.980  10.082 -1.7316  0.4167 -0.2321
  557TMC3    H2 8322   2.950   0.750   9.743  1.0157  0.5437 -1.9512
  557TMC3    C7 8323   2.937   0.763  10.005  0.0778  0.2956  0.0537
  557TMC3    C8 8324   2.790   0.885   9.565  0.2886 -0.7597  0.7397
  557TMC3    O1 8325   2.889   0.762  10.121  0.0629 -0.5003  0.2615
  557TMC3    O2 8326   2.744   0.982   9.506  0.1256 -0.2366  0.4133
  558TMC3    C1 8327   0.403   3.465  10.197 -0.2290 -0.2460 -0.3456
  558TMC3    C2 8328   0.293   3.455  10.282  0.4182  0.1782  0.3704
  558TMC3    C3 8329   0.175   3.400  10.227  0.1598 -0.5582  0.3148
  558TMC3    C4 8330   0.394   3.422  10.067 -0.6127  0.2087  0.2510
  558TMC3    C5 8331   0.285   3.359  10.017 -0.1970 -0.1069 -0.1992
  558TMC3    C6 8332   0.166   3.354  10.097 -0.3548 -0.2775  0.0666
  558TMC3     C 8333   0.530   3.508  10.248 -1.1685  0.1199  0.1619
  558TMC3     O 8334   0.616   3.516  10.161  0.0842  0.2984  0.1025
  558TMC3     H 8335   0.295   3.490  10.384 -0.0177 -1.2079  0.8533
  558TMC3    H1 8336   0.484   3.436  10.007 -0.0629  0.9057  1.2445
  558TMC3    H2 8337   0.080   3.301  10.057  0.2446  1.6312 -3.7991
  558TMC3    C7 8338   0.279   3.350   9.872 -0.4698  0.3411 -0.3731
  558TMC3    C8 8339   0.049   3.420  10.296  0.4586 -0.2565 -0.2244
  558TMC3    O1 8340   0.382   3.367   9.804 -0.1279 -0.0701 -0.3171
  558TMC3    O2 8341   4.695   3.357  10.255  0.0791 -0.2256  0.0707
  559MPD2     C 8342   0.897   4.195  10.302  0.2884 -0.1658 -0.0821
  559MPD2    C1 8343   0.813   4.256  10.394  0.2367  0.1037 -1.0242
  559MPD2    C2 8344   0.855   4.268  10.525  0.7974 -1.0286 -0.2910
  559MPD2    C3 8345   0.974   4.217  10.571  0.0904 -0.1001 -0.0659
  559MPD2    C4 8346   1.064   4.169  10.483 -0.4760  1.0095  0.5311
  559MPD2    C5 8347   1.022   4.156  10.348  0.1250  0.8144  1.0279
  559MPD2     H 8348   0.799   4.311  10.607  0.3855  1.0043 -1.6331
  559MPD2    H1 8349   1.164   4.131  10.502  0.4876  2.4746 -1.7273
  559MPD2    H2 8350   0.883   4.189  10.195 -0.7744 -0.5137  0.0673
  559MPD2    H3 8351   1.087   4.118  10.270 -1.0123  1.1168 -0.0720
  559MPD2     N 8352   0.989   4.225  10.712  0.8341  0.3817  0.2401
  559MPD2    H5 8353   0.915   4.265  10.771 -0.1632 -0.1720 -0.6367
  559MPD2    N1 8354   0.685   4.306  10.347 -0.2263  0.1976  0.3656
  559MPD2    H7 8355   0.648   4.285  10.255 -1.7701 -1.5057  1.3682
  560TMC3    C1 8356   1.075   4.180  10.930 -0.0595  0.2643 -0.4375
  560TMC3    C2 8357   0.945   4.183  10.978 -0.1036 -0.0158 -0.2002
  560TMC3    C3 8358   0.929   4.158  11.111 -0.4361 -0.1308  0.1752
  560TMC3    C4 8359   1.183   4.148  11.010  0.3531  0.5719  0.0364
  560TMC3    C5 8360   1.159   4.123  11.145 -0.2896 -0.3216  0.0174
  560TMC3    C6 8361   1.033   4.129  11.195  0.2325  0.6786  0.0108
  560TMC3     C 8362   1.090   4.164  10.780  0.2712 -0.6341 -0.0660
  560TMC3     O 8363   1.198   4.121  10.740  0.6988 -0.5125  0.0239
  560TMC3     H 8364   0.858   4.194  10.915 -0.4874  1.6027  0.6147
  560TMC3    H1 8365   1.282   4.148  10.967 -0.1528 -0.2796 -1.1120
  560TMC3    H2 8366   1.024   4.118  11.302 -1.2511 -2.1285 -0.4198
  560TMC3    C7 8367   1.259   4.155  11.242  0.0117  0.2258 -0.2259
  560TMC3    C8 8368   0.797   4.125  11.148  0.7995  0.2861  0.2480
  560TMC3    O1 8369   1.238   4.117  11.359 -0.1996 -0.2899  0.2892
  560TMC3    O2 8370   0.728   4.073  11.063  0.7345 -0.0662  0.1026
  561TMC3    C1 8371   3.797   3.640  11.152  0.2466 -0.5863 -0.3218
  561TMC3    C2 8372   3.754   3.582  11.268  0.5183 -0.0527  0.8215
  561TMC3    C3 8373   3.687   3.657  11.360 -0.1686  0.4449 -0.0281
  561TMC3    C4 8374   3.764   3.771  11.129  0.1450  0.0771 -0.0014
  561TMC3    C5 8375   3.715   3.848  11.236  0.4112 -0.2980 -0.3481
  561TMC3    C6 8376   3.687   3.794  11.356  0.4929  0.0731 -0.0299
  561TMC3     C 8377   3.838   3.556  11.044  0.2300  0.4804  0.4534
  561TMC3     O 8378   3.802   3.437  11.049  0.1745 -0.1357  0.8009
  561TMC3     H 8379   3.754   3.474  11.275 -3.3888 -0.2202 -1.6337
  561TMC3    H1 8380   3.773   3.805  11.026  0.1542  0.1201  0.0138
  561TMC3    H2 8381   3.638   3.846  11.437  2.9326  0.2058  1.3688
  561TMC3    C7 8382   3.670   3.986  11.210  0.0375 -0.1116  0.1448
  561TMC3    C8 8383   3.670   3.599  11.483  0.3971  0.3898 -0.2357
  561TMC3    O1 8384   3.590   4.035  11.287 -0.0533 -0.3314  0.0457
  561TMC3    O2 8385   3.733   3.496  11.512  0.0516 -0.4227  0.7726
  562TMC3    C1 8386   0.194   4.703  16.539 -1.0071 -0.4478  0.4507
  562TMC3    C2 8387   0.172   0.095  16.526 -1.0093 -0.5070  0.1624
  562TMC3    C3 8388   0.077   0.135  16.434  0.0987  0.0847 -0.0381
  562TMC3    C4 8389   0.113   4.612  16.474  0.2316 -0.1946  0.1108
  562TMC3    C5 8390   0.021   4.651  16.381  0.1125 -0.8688 -0.1537
  562TMC3    C6 8391   0.003   0.044  16.355  0.2476 -0.0501 -0.0510
  562TMC3     C 8392   0.307   4.666  16.629 -0.4449  0.3663  0.2647
  562TMC3     O 8393   0.343   0.013  16.710 -0.3743 -0.5349 -0.2271
  562TMC3     H 8394   0.229   0.168  16.583  1.3793 -1.5356 -0.9150
  562TMC3    H1 8395   0.128   4.506  16.491  1.7069 -0.2548 -1.6937
  562TMC3    H2 8396   4.663   0.078  16.290 -0.2335 -0.4262  0.3391
  562TMC3    C7 8397   4.672   4.552  16.326 -0.6306 -0.2802  0.2208
  562TMC3    C8 8398   0.029   0.273  16.445  0.3515  0.6326  0.0595
  562TMC3    O1 8399   4.567   4.594  16.289 -0.1712  0.4630 -0.2450
  562TMC3    O2 8400   0.073   0.332  16.546  0.1459  0.2444 -0.3539
  563MPD2     C 8401   3.242   1.262  15.464 -0.1244 -0.3649 -0.3313
  563MPD2    C1 8402   3.211   1.219  15.595  0.5968  0.1155 -0.4273
  563MPD2    C2 8403   3.310   1.232  15.689 -0.3333  1.2395  0.7965
  563MPD2    C3 8404   3.428   1.294  15.663  0.1129 -0.2963  0.6402
  563MPD2    C4 8405   3.446   1.356  15.542  0.2718  0.1644  0.9429
  563MPD2    C5 8406   3.361   1.325  15.435 -0.4082 -0.4644  0.4560
  563MPD2     H 8407   3.287   1.206  15.792 -0.4812  0.2445  0.5190
  563MPD2    H1 8408   3.543   1.395  15.515 -1.7804  1.7864 -4.1517
  563MPD2    H2 8409   3.168   1.255  15.385  0.7509  0.4119 -1.2137
  563MPD2    H3 8410   3.372   1.360  15.334  1.2913  1.8239  1.4370
  563MPD2     N 8411   3.532   1.293  15.768 -0.2124 -0.2428 -0.4724
  563MPD2    H5 8412   3.510   1.245  15.855  2.0804  1.3511  0.9818
  563MPD2    N1 8413   3.090   1.167  15.640  0.6807  0.6948  0.4083
  563MPD2    H7 8414   3.080   1.161  15.741 -0.0853  1.4662  0.3696
  564TMC3    C1 8415   2.849   1.126  15.633  0.4252  0.3037 -0.2902
  564TMC3    C2 8416   2.739   1.118  15.557  0.0138  0.0633 -0.1920
  564TMC3    C3 8417   2.629   1.175  15.609 -0.8524 -0.0444  0.3703
  564TMC3    C4 8418   2.837   1.172  15.763 -0.1195  0.4369 -0.2113
  564TMC3    C5 8419   2.722   1.223  15.815 -0.9485  0.4378  0.6332
  564TMC3    C6 8420   2.618   1.220  15.732  0.0056 -0.3212 -0.5726
  564TMC3     C 8421   2.981   1.138  15.565  0.6705  0.4896 -0.6506
  564TMC3     O 8422   2.975   1.123  15.441  0.4338  0.1601 -0.0502
  564TMC3     H 8423   2.749   1.100  15.450 -0.5455 -0.0255 -0.2275
  564TMC3    H1 8424   2.927   1.164  15.823  0.4819 -1.5694 -1.3597
  564TMC3    H2 8425   2.520   1.236  15.775  0.4379  1.2168 -0.1418
  564TMC3    C7 8426   2.687   1.179  15.948 -0.2684 -0.3697  0.2726
  564TMC3    C8 8427   2.509   1.118  15.550 -0.0004  0.1900 -0.0103
  564TMC3    O1 8428   2.653   1.265  16.028 -0.0745  0.3403 -0.1704
  564TMC3    O2 8429   2.404   1.155  15.608  0.6154  0.5039  0.6844
  565TMC3    C1 8430   2.751   2.887  10.147 -0.2941 -0.3692  0.4363
  565TMC3    C2 8431   2.725   2.756  10.167 -0.2643  0.1898 -0.8377
  565TMC3    C3 8432   2.619   2.697  10.116  0.4267  0.2487  0.9503
  565TMC3    C4 8433   2.688   2.966  10.058 -0.0800  0.2054 -0.4885
  565TMC3    C5 8434   2.580   2.902   9.999 -0.6164 -0.3598 -0.2173
  565TMC3    C6 8435   2.545   2.766  10.028  0.4843 -0.1100 -0.2451
  565TMC3     C 8436   2.847   2.957  10.231 -0.1999 -0.2495 -0.4298
  565TMC3     O 8437   2.893   3.055  10.179 -0.7302  0.4275 -0.8198
  565TMC3     H 8438   2.781   2.714  10.250 -0.6862  0.1915 -0.5536
  565TMC3    H1 8439   2.710   3.071  10.040  0.0151  0.7026  2.5762
  565TMC3    H2 8440   2.471   2.712   9.969 -2.7473  2.3546  1.5413
  565TMC3    C7 8441   2.503   2.984   9.913  0.4502  0.6997  0.0582
  565TMC3    C8 8442   2.603   2.559  10.155 -0.4350  0.4173  0.3718
  565TMC3    O1 8443   2.541   3.100   9.904 -0.2714  0.2058 -0.5709
  565TMC3    O2 8444   2.651   2.526  10.262 -0.1795  0.3716 -0.3721
  566MPD2     C 8445   4.088   3.810  14.404 -0.0117  0.5432  0.0914
  566MPD2    C1 8446   4.145   3.761  14.288 -0.7168 -0.1574  0.5204
  566MPD2    C2 8447   4.065   3.720  14.186  1.1521  0.4813 -0.4204
  566MPD2    C3 8448   3.925   3.716  14.208 -0.3473  0.1187  0.4632
  566MPD2    C4 8449   3.871   3.767  14.326  0.5037  0.0523 -0.0996
  566MPD2    C5 8450   3.949   3.814  14.423 -0.2059  0.4671  0.2102
  566MPD2     H 8451   4.107   3.681  14.094  1.9218  0.8242 -0.2176
  566MPD2    H1 8452   3.763   3.778  14.325  0.6736  1.7399 -0.1346
  566MPD2    H2 8453   4.148   3.854  14.482  0.1370 -0.4953  0.5547
  566MPD2    H3 8454   3.907   3.860  14.512 -1.6593  0.6577 -0.5702
  566MPD2     N 8455   3.832   3.635  14.136  0.7008 -0.0841 -0.1628
  566MPD2    H5 8456   3.750   3.603  14.186 -0.1554  2.0901 -0.1507
  566MPD2    N1 8457   4.281   3.754  14.255 -0.8571  0.9653 -0.4325
  566MPD2    H7 8458   4.303   3.730  14.159  3.1526 -1.1027  1.0150
  567TMC3    C1 8459   4.511   3.717  14.301 -0.2002  0.5788  0.5746
  567TMC3    C2 8460   4.556   3.805  14.210  0.0219  0.6872 -0.0387
  567TMC3    C3 8461   4.689   3.831  14.209 -0.8839 -0.4309  0.1037
  567TMC3    C4 8462   4.592   3.664  14.398 -0.4004 -0.1692  0.8205
  567TMC3    C5 8463   4.728   3.696  14.398  0.4309 -0.0854  0.0727
  567TMC3    C6 8464   0.040   3.778  14.301 -0.0066 -0.4376  0.1108
  567TMC3     C 8465   4.382   3.770  14.349  0.2642 -0.5715  0.1853
  567TMC3     O 8466   4.377   3.772  14.471 -0.2615  0.1830 -0.2626
  567TMC3     H 8467   4.488   3.866  14.152  0.2102 -1.4231 -2.5235
  567TMC3    H1 8468   4.553   3.591  14.467  3.8511 -1.7497  1.4807
  567TMC3    H2 8469   0.144   3.809  14.309 -0.1086  0.0511 -0.4963
  567TMC3    C7 8470   0.036   3.733  14.531 -1.2062  0.1255  0.0363
  567TMC3    C8 8471   0.006   3.896  14.093  0.6805  0.3383  0.3333
  567TMC3    O1 8472   0.157   3.741  14.545 -0.1685  0.5933  0.2137
  567TMC3    O2 8473   4.667   3.936  14.013 -0.2349 -0.4746  0.4581
  568MPD2     C 8474   1.864   0.144  16.627 -0.6278  0.3671 -0.4448
  568MPD2    C1 8475   2.005   0.157  16.627  0.0738  0.0167  0.8420
  568MPD2    C2 8476   2.069   0.247  16.545 -0.4408 -0.0464 -0.3300
  568MPD2    C3 8477   1.992   0.317  16.460  0.2653  0.3139 -0.6159
  568MPD2    C4 8478   1.853   0.288  16.443  0.0534 -0.0292  0.1839
  568MPD2    C5 8479   1.789   0.200  16.529 -0.6127  0.1452  0.4334
  568MPD2     H 8480   2.176   0.259  16.535 -0.3712 -0.5863 -0.2627
  568MPD2    H1 8481   1.802   0.342  16.365 -0.8960 -2.3907 -0.8055
  568MPD2    H2 8482   1.817   0.059  16.676 -1.9651  0.1782 -2.0584
  568MPD2    H3 8483   1.685   0.170  16.524 -0.7194  0.3081  1.6655
  568MPD2     N 8484   2.059   0.416  16.385 -0.5477  0.5156 -0.4836
  568MPD2    H5 8485   2.152   0.448  16.409  0.3538 -0.2653 -3.0111
  568MPD2    N1 8486   2.076   0.067  16.714  0.5170 -0.0184 -0.1316
  568MPD2    H7 8487   2.027   0.019  16.789  1.0551  1.3072  1.0795
  569TMC3    C1 8488   2.091   0.570  16.207  0.5631 -0.8183 -0.7384
  569TMC3    C2 8489   2.162   0.662  16.290  0.6356 -0.8811 -0.0101
  569TMC3    C3 8490   2.261   0.728  16.239 -0.1183  0.3026 -0.3735
  569TMC3    C4 8491   2.112   0.557  16.069  0.0968 -0.1940  0.5097
  569TMC3    C5 8492   2.228   0.626  16.034 -0.3260  0.3147 -0.1895
  569TMC3    C6 8493   2.292   0.716  16.112 -0.3239 -1.0057 -0.0979
  569TMC3     C 8494   2.017   0.455  16.263 -0.8981  0.1342  0.9261
  569TMC3     O 8495   1.951   0.390  16.181  0.0853  0.0484  0.0150
  569TMC3     H 8496   2.134   0.662  16.394 -2.1335 -0.2416 -0.7496
  569TMC3    H1 8497   2.068   0.489  15.998 -0.7872  2.4788 -1.4924
  569TMC3    H2 8498   2.367   0.785  16.074 -1.7869  0.7350  0.1589
  569TMC3    C7 8499   2.257   0.616  15.893 -0.7293 -0.0458  0.7762
  569TMC3    C8 8500   2.324   0.821  16.326 -0.4585 -0.4682  0.1022
  569TMC3    O1 8501   2.266   0.502  15.852 -0.8054 -0.3364  0.3085
  569TMC3    O2 8502   2.322   0.804  16.449 -0.1505  0.5179  0.1969
  570TMC3    C1 8503   1.589   3.534  16.031  0.2517  0.1899  0.3451
  570TMC3    C2 8504   1.652   3.599  15.928  0.1188 -0.3166 -0.7906
  570TMC3    C3 8505   1.709   3.723  15.943  0.4818  0.4432  0.1162
  570TMC3    C4 8506   1.579   3.602  16.146 -0.1608  0.2605  0.1040
  570TMC3    C5 8507   1.636   3.730  16.164  0.1738  0.7066  0.7463
  570TMC3    C6 8508   1.700   3.793  16.059  0.4038 -0.5099 -0.2438
  570TMC3     C 8509   1.483   3.442  15.998 -0.2946  0.3354  0.0335
  570TMC3     O 8510   1.447   3.440  15.882 -0.8687  0.0091  1.0955
  570TMC3     H 8511   1.655   3.538  15.839 -0.9975 -1.8370  0.2045
  570TMC3    H1 8512   1.527   3.571  16.236  0.4295 -2.2368 -0.4150
  570TMC3    H2 8513   1.751   3.887  16.073  0.7375 -0.4149 -2.1660
  570TMC3    C7 8514   1.628   3.791  16.292 -1.1573 -0.2917 -0.1276
  570TMC3    C8 8515   1.761   3.802  15.834 -0.2282 -0.1997  0.1494
  570TMC3    O1 8516   1.618   3.725  16.396 -0.9967  0.1912 -0.2945
  570TMC3    O2 8517   1.847   3.882  15.860 -0.0434 -0.1850 -0.1984
  571MPD2     C 8518   3.594   1.098   0.814 -0.4746  0.1425 -0.1765
  571MPD2    C1 8519   3.652   0.976   0.829 -0.2119 -0.0949 -0.1446
  571MPD2    C2 8520   3.781   0.962   0.780  0.1026  0.1186  0.6280
  571MPD2    C3 8521   3.848   1.080   0.745 -0.5415  0.9212  0.8166
  571MPD2    C4 8522   3.787   1.202   0.744 -0.5072  0.0608 -0.5254
  571MPD2    C5 8523   3.656   1.208   0.774 -0.1715 -0.3608 -0.4575
  571MPD2     H 8524   3.832   0.867   0.773 -0.4728  0.0410 -2.2377
  571MPD2    H1 8525   3.837   1.297   0.726  1.6468 -1.0720 -0.5094
  571MPD2    H2 8526   3.493   1.109   0.852 -0.0600 -1.1455  1.2927
  571MPD2    H3 8527   3.606   1.304   0.782  0.5546 -0.0098 -0.2020
  571MPD2     N 8528   3.986   1.079   0.694 -0.5047 -0.7676 -0.9629
  571MPD2    H5 8529   4.022   1.172   0.676  1.1856 -1.2942 -0.2991
  571MPD2    N1 8530   3.579   0.861   0.863  0.4901 -0.0340  0.7024
  571MPD2    H7 8531   3.479   0.875   0.854  0.3175 -1.4413  0.4656
  572TMC3    C1 8532   4.197   0.983   0.639 -0.2141 -0.6399 -0.5912
  572TMC3    C2 8533   4.292   0.889   0.664  0.4322  0.0663 -0.2062
  572TMC3    C3 8534   4.404   0.875   0.584  0.2629  0.5968  0.4270
  572TMC3    C4 8535   4.222   1.076   0.544  0.4721 -0.9063 -0.4207
  572TMC3    C5 8536   4.342   1.075   0.480 -0.2349  0.3068  0.2954
  572TMC3    C6 8537   4.431   0.974   0.490 -0.7870 -0.0094 -1.0850
  572TMC3     C 8538   4.059   0.965   0.672  0.2146 -0.1629  0.0152
  572TMC3     O 8539   4.030   0.847   0.673 -0.6159 -0.0226  0.0735
  572TMC3     H 8540   4.258   0.808   0.727 -1.7423  0.7685 -0.4662
  572TMC3    H1 8541   4.150   1.152   0.513 -1.7214 -2.8483 -0.0227
  572TMC3    H2 8542   4.526   0.971   0.436 -0.3989 -1.3388 -0.3408
  572TMC3    C7 8543   4.351   1.160   0.358 -0.8059 -0.1102 -0.3178
  572TMC3    C8 8544   4.514   0.784   0.615  0.0327  0.7351  0.3207
  572TMC3    O1 8545   4.258   1.237   0.345  0.9430  0.8507 -0.1553
  572TMC3    O2 8546   4.603   0.772   0.531 -0.4057  0.3842 -0.1776
  573MPD2     C 8547   0.203   0.732   0.325  0.1372 -0.4372 -0.2377
  573MPD2    C1 8548   0.204   0.865   0.289 -0.0051 -0.5928  0.0111
  573MPD2    C2 8549   0.234   0.893   0.157 -0.3882  0.2844 -0.0671
  573MPD2    C3 8550   0.270   0.798   0.061 -0.5119  0.9372 -0.2818
  573MPD2    C4 8551   0.280   0.668   0.102  0.3768  0.0055 -0.0108
  573MPD2    C5 8552   0.225   0.638   0.226  0.1744 -0.2017  0.2151
  573MPD2     H 8553   0.232   0.997   0.126  3.4044  0.3464 -0.1610
  573MPD2    H1 8554   0.316   0.588   0.037 -1.0479 -2.3898  2.1299
  573MPD2    H2 8555   0.169   0.700   0.423 -0.4124 -2.3037 -1.0362
  573MPD2    H3 8556   0.226   0.534   0.259 -3.8375  0.1991  1.5604
  573MPD2     N 8557   0.301   0.833  17.675 -0.8216  0.7901 -0.2366
  573MPD2    H5 8558   0.332   0.750  17.624  1.9341  1.3488  0.5691
  573MPD2    N1 8559   0.178   0.969   0.380 -0.0584  0.4016  0.6224
  573MPD2    H7 8560   0.151   0.933   0.471  0.4757  1.3358  1.1521
  574TMC3    C1 8561   0.301   0.954  17.464 -0.5608 -0.2264 -0.4513
  574TMC3    C2 8562   0.261   1.077  17.412 -0.7499  1.2931  0.6643
  574TMC3    C3 8563   0.328   1.115  17.293  0.4885 -0.1324 -0.0421
  574TMC3    C4 8564   0.399   0.877  17.410  0.3033  0.5843  0.2865
  574TMC3    C5 8565   0.459   0.919  17.293 -0.0041  0.5224  0.0225
  574TMC3    C6 8566   0.426   1.042  17.231 -0.1875 -0.3809  0.2822
  574TMC3     C 8567   0.264   0.945  17.603  0.0387  0.5790 -1.0675
  574TMC3     O 8568   0.197   1.040  17.646 -0.9529 -0.1017  0.5948
  574TMC3     H 8569   0.182   1.136  17.456 -1.7079  1.0773 -0.7509
  574TMC3    H1 8570   0.424   0.781  17.454  1.0703  0.7681  0.2595
  574TMC3    H2 8571   0.473   1.075  17.139  0.0480  1.9780  1.2422
  574TMC3    C7 8572   0.563   0.841  17.227  0.9003  0.7013  0.1826
  574TMC3    C8 8573   0.300   1.244  17.236  0.1199  0.3701  0.7016
  574TMC3    O1 8574   0.603   0.896  17.125  0.0907 -0.4065  0.0072
  574TMC3    O2 8575   0.339   1.266  17.124 -0.2149 -0.1693 -0.2174
  575TMC3    C1 8576   2.664   1.953  10.769 -0.4752  0.7046 -0.0966
  575TMC3    C2 8577   2.641   1.821  10.749  0.1014  0.6315 -0.6687
  575TMC3    C3 8578   2.588   1.783  10.628 -0.2558  0.4125 -0.1559
  575TMC3    C4 8579   2.639   2.049  10.669 -0.4912 -0.6731  0.0331
  575TMC3    C5 8580   2.597   2.001  10.542 -0.8128 -0.8070  0.3697
  575TMC3    C6 8581   2.574   1.871  10.519  0.1092  0.5007  0.2340
  575TMC3     C 8582   2.723   1.998  10.901  0.5772  0.1373  0.1163
  575TMC3     O 8583   2.747   1.910  10.978 -0.7075 -0.1655  0.3213
  575TMC3     H 8584   2.653   1.756  10.835  0.9523 -0.6868 -1.7849
  575TMC3    H1 8585   2.663   2.155  10.671  0.3637 -0.8255 -2.2650
  575TMC3    H2 8586   2.542   1.827  10.426 -0.6099 -1.1357  1.2543
  575TMC3    C7 8587   2.590   2.099  10.431 -0.1644 -0.1802  0.6669
  575TMC3    C8 8588   2.533   1.647  10.608 -0.0329 -0.3936  0.7176
  575TMC3    O1 8589   2.685   2.179  10.425 -0.4899 -0.1016 -0.4457
  575TMC3    O2 8590   2.501   1.614  10.496 -0.1336 -0.2387 -0.0941
  576MPD2     C 8591   2.521   3.498  12.354 -0.6271  0.2985  0.1454
  576MPD2    C1 8592   2.583   3.600  12.286  0.0060  0.1965  0.7447
  576MPD2    C2 8593   2.577   3.726  12.339  0.6448 -0.1964  0.8501
  576MPD2    C3 8594   2.498   3.748  12.454 -0.0033  0.0263  0.1050
  576MPD2    C4 8595   2.436   3.640  12.525  0.1445 -0.3086  0.3759
  576MPD2    C5 8596   2.448   3.519  12.468  0.3628  0.1296  0.3144
  576MPD2     H 8597   2.644   3.805  12.309  0.1875 -0.3543 -0.5552
  576MPD2    H1 8598   2.389   3.649  12.622 -1.3427  2.8782 -0.6305
  576MPD2    H2 8599   2.527   3.397  12.314  2.5686  0.7238 -0.4017
  576MPD2    H3 8600   2.395   3.437  12.515 -0.3587 -0.4005 -1.4131
  576MPD2     N 8601   2.483   3.882  12.501  0.1252 -0.5489 -0.1486
  576MPD2    H5 8602   2.523   3.954  12.442  1.9824 -1.3378  0.1237
  576MPD2    N1 8603   2.651   3.577  12.165 -0.0853 -0.0139  0.5070
  576MPD2    H7 8604   2.694   3.660  12.125 -1.0201  0.4875  0.5420
  577TMC3    C1 8605   2.728   3.482  11.967 -0.1500 -0.2272  0.3901
  577TMC3    C2 8606   2.853   3.526  11.989 -0.7735  0.3040  0.3538
  577TMC3    C3 8607   2.928   3.568  11.876 -0.1799  0.1444  0.0012
  577TMC3    C4 8608   2.672   3.468  11.849 -0.0355  0.9363 -0.1608
  577TMC3    C5 8609   2.751   3.499  11.739  0.0262 -0.3537  0.0905
  577TMC3    C6 8610   2.885   3.537  11.754  0.8209  0.1799 -0.1320
  577TMC3     C 8611   2.648   3.463  12.088 -0.5268 -0.5724  0.1918
  577TMC3     O 8612   2.573   3.364  12.089  0.0502 -0.0554  0.4123
  577TMC3     H 8613   2.887   3.540  12.091 -0.7161 -1.5831  0.5931
  577TMC3    H1 8614   2.575   3.422  11.837 -0.1016  1.4404 -1.5545
  577TMC3    H2 8615   2.945   3.563  11.668 -1.9081 -0.1396 -2.1685
  577TMC3    C7 8616   2.684   3.509  11.607 -0.4815 -0.0471 -0.3375
  577TMC3    C8 8617   3.073   3.541  11.893 -0.2071 -0.5173 -0.5953
  577TMC3    O1 8618   2.760   3.515  11.511 -0.4216 -0.1732 -0.0237
  577TMC3    O2 8619   3.096   3.478  11.994 -0.4599 -0.1091 -0.2798
  578MPD2     C 8620   0.927   3.404   1.234  0.4954  0.1450 -0.4002
  578MPD2    C1 8621   0.926   3.339   1.114 -0.0348 -0.0614 -0.6237
  578MPD2    C2 8622   1.009   3.238   1.083 -0.0722  0.4359 -0.2618
  578MPD2    C3 8623   1.093   3.189   1.186  0.0301 -0.2838  0.7093
  578MPD2    C4 8624   1.091   3.250   1.308  0.1941 -0.0985  0.0209
  578MPD2    C5 8625   1.013   3.358   1.333 -0.3158 -0.2628  0.4477
  578MPD2     H 8626   1.016   3.190   0.986  0.0943  0.2481 -0.1565
  578MPD2    H1 8627   1.141   3.218   1.399  2.8603  1.7034 -0.8170
  578MPD2    H2 8628   0.864   3.488   1.262 -0.0952  0.4998 -2.7900
  578MPD2    H3 8629   1.026   3.404   1.430  0.2286 -1.7409  1.0604
  578MPD2     N 8630   1.186   3.084   1.149  0.1702 -0.4955  0.1248
  578MPD2    H5 8631   1.176   3.052   1.053 -1.8864 -0.1780  0.2299
  578MPD2    N1 8632   0.830   3.398   1.025  0.2771 -0.0696 -0.0467
  578MPD2    H7 8633   0.769   3.466   1.068 -0.3594 -0.5029 -0.2695
  579TMC3    C1 8634   1.379   2.945   1.162  0.7601  0.2644  0.0722
  579TMC3    C2 8635   1.506   2.943   1.210 -0.1020  0.0306  0.0793
  579TMC3    C3 8636   1.597   2.869   1.139  0.2234 -0.3154 -0.6257
  579TMC3    C4 8637   1.345   2.872   1.050  0.1171 -0.2268 -0.1524
  579TMC3    C5 8638   1.429   2.789   0.986  0.1117 -0.3381  0.2563
  579TMC3    C6 8639   1.560   2.785   1.030 -0.3247  0.2215 -0.6523
  579TMC3     C 8640   1.288   3.032   1.232  0.1861 -0.0987 -0.4441
  579TMC3     O 8641   1.319   3.073   1.338  0.7158  0.6276  0.0273
  579TMC3     H 8642   1.536   2.995   1.300  0.9034  1.4655 -1.0912
  579TMC3    H1 8643   1.237   2.866   1.040  0.0261  1.4886 -0.1520
  579TMC3    H2 8644   1.626   2.713   0.984 -2.2614 -2.4738  0.7566
  579TMC3    C7 8645   1.390   2.694   0.883 -0.2556 -0.0077  0.3832
  579TMC3    C8 8646   1.737   2.876   1.187 -0.3426  0.0599  0.6679
  579TMC3    O1 8647   1.474   2.611   0.854  0.3031  0.4139  0.3871
  579TMC3    O2 8648   1.794   2.772   1.214  0.7774 -0.2378  0.3459
  580TMC3    C1 8649   0.709   3.230  12.300 -0.2905  0.8175 -0.7524
  580TMC3    C2 8650   0.825   3.289  12.249 -0.5920 -0.1596 -0.1772
  580TMC3    C3 8651   0.938   3.208  12.226  0.5007 -0.4128 -0.0867
  580TMC3    C4 8652   0.718   3.096  12.330 -0.5007 -0.4716 -0.1220
  580TMC3    C5 8653   0.823   3.015  12.302  0.7150 -0.2549  0.0634
  580TMC3    C6 8654   0.938   3.071  12.245  0.1711 -0.0773 -0.3077
  580TMC3     C 8655   0.580   3.294  12.266 -0.2208 -0.3045  0.1996
  580TMC3     O 8656   0.482   3.257  12.325 -0.1589 -0.1151 -0.2782
  580TMC3     H 8657   0.824   3.396  12.234 -0.9255 -0.1207  0.1193
  580TMC3    H1 8658   0.630   3.039  12.358 -0.3035 -0.1779  1.1267
  580TMC3    H2 8659   1.032   3.017  12.245 -0.9357 -2.0284  1.7746
  580TMC3    C7 8660   0.809   2.873  12.307  0.5767 -0.6678  0.0105
  580TMC3    C8 8661   1.050   3.274  12.163 -0.1409 -0.4892  0.3925
  580TMC3    O1 8662   0.718   2.825  12.376 -0.1307 -0.1230 -0.8554
  580TMC3    O2 8663   1.063   3.398  12.173  0.4234 -0.2596 -0.3711
  581MPD2     C 8664   2.860   2.063  15.000 -0.8624 -0.0093 -0.3399
  581MPD2    C1 8665   2.903   2.167  14.921  0.1515  0.5145  0.6751
  581MPD2    C2 8666   2.812   2.245  14.857 -0.0670  0.7396 -0.4168
  581MPD2    C3 8667   2.680   2.222  14.868 -0.9899 -0.0402  0.4196
  581MPD2    C4 8668   2.634   2.116  14.939  0.1272 -0.1324 -0.7729
  581MPD2    C5 8669   2.727   2.036  15.005  0.4305  0.0845 -0.1057
  581MPD2     H 8670   2.839   2.326  14.790 -0.8307  0.1323 -1.4696
  581MPD2    H1 8671   2.529   2.091  14.952  0.6129 -1.9595 -0.4042
  581MPD2    H2 8672   2.934   2.006  15.056 -0.7636 -0.9139 -1.4035
  581MPD2    H3 8673   2.699   1.953  15.069 -0.0350 -0.7552 -1.3929
  581MPD2     N 8674   2.590   2.304  14.793 -0.5214  0.0604 -0.3517
  581MPD2    H5 8675   2.631   2.388  14.753 -1.4009  0.6108 -0.0900
  581MPD2    N1 8676   3.045   2.176  14.893  0.0597 -0.0324 -0.5219
  581MPD2    H7 8677   3.106   2.113  14.943  2.1589  1.5706 -1.0851
  582TMC3    C1 8678   3.256   2.256  14.834  0.1131 -0.1029  0.2122
  582TMC3    C2 8679   3.326   2.357  14.885 -0.2136  0.4057 -0.1701
  582TMC3    C3 8680   3.431   2.340  14.973 -0.5926  0.6365  0.2647
  582TMC3    C4 8681   3.304   2.128  14.858  0.5489  0.6571 -0.0857
  582TMC3    C5 8682   3.395   2.108  14.954  0.0804  0.2966  0.3522
  582TMC3    C6 8683   3.451   2.215  15.021 -0.1722 -0.3475  0.3254
  582TMC3     C 8684   3.107   2.276  14.822 -0.0294 -0.2536  0.1063
  582TMC3     O 8685   3.054   2.374  14.784  0.1424 -0.0578 -0.0498
  582TMC3     H 8686   3.279   2.454  14.881 -1.0222  0.0520  0.6274
  582TMC3    H1 8687   3.250   2.041  14.823  0.9877  0.5219 -0.4221
  582TMC3    H2 8688   3.535   2.194  15.086  0.5002  0.6717 -0.2300
  582TMC3    C7 8689   3.352   1.995  15.023 -0.4674 -0.2750  0.9638
  582TMC3    C8 8690   3.464   2.450  15.063  0.6985  0.4520 -0.4105
  582TMC3    O1 8691   3.362   1.889  14.961  0.6317 -0.2619 -0.4058
  582TMC3    O2 8692   3.390   2.546  15.066  0.2107  0.1793 -0.8448
  583MPD2     C 8693   2.973   4.385  16.682 -0.2379  0.3884  0.7224
  583MPD2    C1 8694   3.010   4.519  16.666  0.2367 -0.0011  0.5798
  583MPD2    C2 8695   2.977   4.610  16.768  0.0397  0.0815  0.2495
  583MPD2    C3 8696   2.934   4.564  16.894 -0.9316  1.0549  0.4910
  583MPD2    C4 8697   2.910   4.424  16.908  0.5827  0.0260  0.0093
  583MPD2    C5 8698   2.922   4.342  16.803 -0.3454  0.1447  0.1996
  583MPD2     H 8699   3.001   4.716  16.759  0.8602 -0.3108 -2.1879
  583MPD2    H1 8700   2.872   4.374  16.997 -0.4009 -1.2502 -1.1289
  583MPD2    H2 8701   3.003   4.310  16.609 -1.6585  0.3041  0.2310
  583MPD2    H3 8702   2.904   4.237  16.821 -2.5984  0.3157 -1.1342
  583MPD2     N 8703   2.921   4.652  17.002 -0.6688 -0.1842  0.5409
  583MPD2    H5 8704   2.946   0.009  16.983  0.3102 -0.3808  0.8343
  583MPD2    N1 8705   3.072   4.565  16.545  0.0701 -0.1759  0.5528
  583MPD2    H7 8706   3.116   4.657  16.549 -0.1628 -0.0108 -0.8477
  584TMC3    C1 8707   2.890   4.724  17.239  0.0640  0.2946 -0.5049
  584TMC3    C2 8708   2.980   0.087  17.227 -0.4902 -0.5054  0.0739
  584TMC3    C3 8709   2.990   0.183  17.327 -0.0415  0.0433  0.1392
  584TMC3    C4 8710   2.811   4.710  17.354 -0.2563 -0.0149  0.2117
  584TMC3    C5 8711   2.821   0.071  17.450 -0.0489  0.6347  0.9581
  584TMC3    C6 8712   2.911   0.172  17.443  1.0813 -0.6864  0.0151
  584TMC3     C 8713   2.878   4.620  17.134 -0.1248  0.6502 -0.2262
  584TMC3     O 8714   2.819   4.521  17.168 -0.1979  0.2836 -0.0497
  584TMC3     H 8715   3.037   0.101  17.136  0.0150 -3.7070 -0.0843
  584TMC3    H1 8716   2.748   4.622  17.362 -1.3873  0.7414 -0.3064
  584TMC3    H2 8717   2.919   0.248  17.520 -0.1988  0.0764 -0.6026
  584TMC3    C7 8718   2.757   0.050  17.581 -0.1680 -0.3009 -0.0754
  584TMC3    C8 8719   3.049   0.313  17.292 -0.2973 -0.7084 -0.6185
  584TMC3    O1 8720   2.804   0.110  17.679  0.2248 -0.3544  0.5293
  584TMC3    O2 8721   3.078   0.329  17.177 -0.2071 -0.7037 -0.2951
  585MPD2     C 8722   2.206   3.531   0.262  0.0437 -0.1142  0.1831
  585MPD2    C1 8723   2.244   3.617   0.168  0.4321  0.0877  0.4267
  585MPD2    C2 8724   2.318   3.568   0.061  0.1146  0.0565 -0.4178
  585MPD2    C3 8725   2.337   3.427   0.050  0.6940  0.4602 -0.5840
  585MPD2    C4 8726   2.277   3.343   0.134 -0.2881  0.3414 -0.3348
  585MPD2    C5 8727   2.232   3.397   0.249  0.7635 -0.6886 -0.8363
  585MPD2     H 8728   2.365   3.625  17.738 -0.8178  1.0336 -0.2740
  585MPD2    H1 8729   2.287   3.235   0.127 -0.2201  0.1376  2.9685
  585MPD2    H2 8730   2.155   3.571   0.349 -0.9564 -1.6912  0.3271
  585MPD2    H3 8731   2.211   3.326   0.328  0.3504 -0.2925 -0.5893
  585MPD2     N 8732   2.414   3.371  17.703  0.2890  0.0243 -0.4071
  585MPD2    H5 8733   2.396   3.272  17.688  0.7940 -0.4060  1.8423
  585MPD2    N1 8734   2.197   3.747   0.174  0.4067  0.5585 -0.2967
  585MPD2    H7 8735   2.136   3.770   0.252  0.7825  0.2711  0.0809
  586TMC3    C1 8736   2.550   3.345  17.514 -0.0891  0.5964  0.2360
  586TMC3    C2 8737   2.686   3.314  17.501 -0.1157  1.0136 -0.7443
  586TMC3    C3 8738   2.731   3.244  17.390  0.3453  0.7275 -0.1525
  586TMC3    C4 8739   2.461   3.303  17.420 -0.2215 -0.2698 -0.3061
  586TMC3    C5 8740   2.508   3.227  17.316  0.5895  0.5310 -0.3506
  586TMC3    C6 8741   2.645   3.200  17.289  0.3855 -0.1639 -0.6406
  586TMC3     C 8742   2.505   3.429  17.621 -0.6580  0.0839 -0.1695
  586TMC3     O 8743   2.561   3.537  17.637 -0.5076 -0.3904 -0.0863
  586TMC3     H 8744   2.745   3.336  17.589 -0.6673  0.2450 -0.1826
  586TMC3    H1 8745   2.355   3.327  17.431 -0.5362 -1.0474 -1.7038
  586TMC3    H2 8746   2.674   3.141  17.202  1.4430 -0.7388  0.1088
  586TMC3    C7 8747   2.404   3.131  17.265 -0.4655  0.1372 -0.1855
  586TMC3    C8 8748   2.832   3.146  17.404  0.0251 -0.5511 -0.3045
  586TMC3    O1 8749   2.313   3.082  17.332 -0.2922 -0.1877 -0.0177
  586TMC3    O2 8750   2.810   3.047  17.336  0.9170 -0.1293 -0.1436
  587TMC3    C1 8751   4.424   1.909  15.830  0.3345  0.4353 -0.1683
  587TMC3    C2 8752   4.506   2.005  15.868  0.1452  0.1649 -0.6023
  587TMC3    C3 8753   4.617   1.973  15.943  0.0358  0.7510  0.2566
  587TMC3    C4 8754   4.444   1.779  15.869 -0.3232 -0.2120  0.1036
  587TMC3    C5 8755   4.560   1.754  15.941 -0.4479 -0.2184 -0.2053
  587TMC3    C6 8756   4.657   1.846  15.970 -0.3793 -0.3203  0.2399
  587TMC3     C 8757   4.308   1.935  15.744 -0.0939  0.1805 -0.3825
  587TMC3     O 8758   4.272   1.845  15.672  0.7635  0.7431  0.1290
  587TMC3     H 8759   4.497   2.108  15.833 -0.2914 -1.0005 -3.9064
  587TMC3    H1 8760   4.377   1.706  15.826  0.7054 -1.1995  0.1946
  587TMC3    H2 8761   0.004   1.816  16.028  0.6091  1.4985 -0.3055
  587TMC3    C7 8762   4.548   1.634  16.025 -0.2452  0.3498  0.3413
  587TMC3    C8 8763   4.705   2.077  15.982  0.5183 -0.5435 -0.1437
  587TMC3    O1 8764   4.658   1.575  16.034 -0.9252 -0.2206 -0.3180
  587TMC3    O2 8765   0.080   2.042  15.991  0.0969  0.4639  0.9565
  588TMC3    C1 8766   2.404   4.347   9.614  0.0135  0.1566  0.1820
  588TMC3    C2 8767   2.383   4.217   9.588 -0.1762  0.6497 -0.2022
  588TMC3    C3 8768   2.432   4.124   9.679  0.2390  0.0612 -0.2865
  588TMC3    C4 8769   2.489   4.385   9.709 -0.2074  0.2298 -0.4469
  588TMC3    C5 8770   2.545   4.294   9.796 -0.0570 -0.1723 -1.0323
  588TMC3    C6 8771   2.503   4.166   9.792  0.3927  0.0065 -0.0205
  588TMC3     C 8772   2.333   4.453   9.530  0.2364 -0.2537  0.0415
  588TMC3     O 8773   2.296   4.428   9.417  0.1004  0.3626  0.0633
  588TMC3     H 8774   2.327   4.181   9.502 -2.3073 -0.6268  1.6825
  588TMC3    H1 8775   2.522   4.488   9.713  0.8947 -0.0113 -3.4222
  588TMC3    H2 8776   2.548   4.099   9.865 -0.0327  1.1110  1.2390
  588TMC3    C7 8777   2.628   4.339   9.915  0.0166  0.2111  0.0682
  588TMC3    C8 8778   2.388   3.988   9.656  0.4731 -0.4559  0.2310
  588TMC3    O1 8779   2.623   4.277  10.020  0.2985  0.5366  0.4806
  588TMC3    O2 8780   2.307   3.964   9.571 -0.5763  0.0095  0.2791
  589TMC3    C1 8781   1.213   1.814   0.948  0.2766 -0.1112 -0.6180
  589TMC3    C2 8782   1.311   1.891   1.002 -0.1493  1.1560 -0.1926
  589TMC3    C3 8783   1.437   1.849   1.002 -1.0446 -0.4345  0.5873
  589TMC3    C4 8784   1.247   1.692   0.905  0.7190 -0.3096  0.5617
  589TMC3    C5 8785   1.369   1.639   0.923 -1.2086  0.8320  0.1872
  589TMC3    C6 8786   1.473   1.717   0.969  0.3580 -0.1177  0.4030
  589TMC3     C 8787   1.071   1.855   0.946  0.3186 -0.0213 -0.2038
  589TMC3     O 8788   1.002   1.784   0.872 -0.0733  1.3020  0.9742
  589TMC3     H 8789   1.283   1.994   1.023 -0.8912  0.9172 -0.0146
  589TMC3    H1 8790   1.172   1.622   0.871 -1.8200  2.7850 -0.1437
  589TMC3    H2 8791   1.569   1.671   0.989  1.6192  1.5206 -1.9418
  589TMC3    C7 8792   1.389   1.519   0.852  0.6518 -0.4785  0.2867
  589TMC3    C8 8793   1.531   1.944   1.054 -0.0115  0.8122 -0.1796
  589TMC3    O1 8794   1.289   1.449   0.831 -0.0703 -0.1569 -0.2179
  589TMC3    O2 8795   1.491   2.046   1.113 -0.2620 -0.0009  0.0538
  590MPD2     C 8796   1.107   0.197  16.907 -0.3174 -1.1495  0.5499
  590MPD2    C1 8797   1.029   0.272  16.825  0.1276  0.3468 -0.0893
  590MPD2    C2 8798   1.084   0.341  16.719 -0.0176  0.8980 -0.1085
  590MPD2    C3 8799   1.222   0.336  16.696 -0.1591  0.2701 -0.1851
  590MPD2    C4 8800   1.299   0.260  16.785  0.4404  0.8910 -0.0385
  590MPD2    C5 8801   1.241   0.184  16.881 -0.1819  0.4700  0.1554
  590MPD2     H 8802   1.020   0.409  16.664  0.0286  0.1773 -1.0559
  590MPD2    H1 8803   1.406   0.255  16.764  1.1022 -0.7354  3.6814
  590MPD2    H2 8804   1.071   0.143  16.993 -1.2467  0.2460  1.0238
  590MPD2    H3 8805   1.302   0.122  16.946  0.3510  1.8174  0.9523
  590MPD2     N 8806   1.275   0.405  16.586 -0.3542 -0.2705 -0.0441
  590MPD2    H5 8807   1.210   0.454  16.525  1.3779  1.7703 -0.2391
  590MPD2    N1 8808   0.888   0.266  16.846  0.0414  0.2131  0.1951
  590MPD2    H7 8809   0.851   0.223  16.930 -0.3987  0.1812 -0.0155
  591TMC3    C1 8810   1.429   0.516  16.433  0.6821 -0.5162 -0.6540
  591TMC3    C2 8811   1.545   0.496  16.360 -0.1140 -0.4892 -0.0642
  591TMC3    C3 8812   1.563   0.583  16.255 -0.3133  0.3730 -0.4230
  591TMC3    C4 8813   1.337   0.612  16.412  0.2124 -0.1350 -0.2641
  591TMC3    C5 8814   1.361   0.698  16.308 -0.1952  0.4315  0.1748
  591TMC3    C6 8815   1.475   0.688  16.227 -0.9076  0.0416  0.3230
  591TMC3     C 8816   1.409   0.413  16.542  0.9044  0.4401 -0.0942
  591TMC3     O 8817   1.505   0.342  16.575  0.2003 -0.6814 -0.4760
  591TMC3     H 8818   1.591   0.399  16.371 -0.3512 -0.7349 -1.2340
  591TMC3    H1 8819   1.252   0.621  16.478 -1.0754  1.2204 -2.1127
  591TMC3    H2 8820   1.497   0.761  16.150  0.6427  0.4867  1.1778
  591TMC3    C7 8821   1.272   0.813  16.297 -0.2151  1.2328  0.4133
  591TMC3    C8 8822   1.649   0.544  16.146  1.0114  0.4608  0.5818
  591TMC3    O1 8823   1.177   0.818  16.371  0.5476 -0.1259 -0.3054
  591TMC3    O2 8824   1.652   0.423  16.128 -0.0597  0.1086  0.2705
  592MPD2     C 8825   1.385   1.907  11.500  0.8128  0.3302 -0.3237
  592MPD2    C1 8826   1.368   1.993  11.608  0.0431 -0.3039  0.2647
  592MPD2    C2 8827   1.311   1.947  11.723  0.1322  0.3753 -0.4014
  592MPD2    C3 8828   1.260   1.818  11.726 -0.3435 -0.7416  0.0613
  592MPD2    C4 8829   1.264   1.742  11.616  0.1650 -0.7382  0.4508
  592MPD2    C5 8830   1.329   1.784  11.507  0.1107  0.9612 -0.3256
  592MPD2     H 8831   1.292   1.999  11.816  2.6552  1.3555 -0.4463
  592MPD2    H1 8832   1.224   1.641  11.611 -0.4787 -0.4707  0.1709
  592MPD2    H2 8833   1.434   1.945  11.411  0.6325  0.6089 -0.3027
  592MPD2    H3 8834   1.337   1.717  11.422  2.3537 -0.0241  0.6549
  592MPD2     N 8835   1.201   1.770  11.845 -0.0301  0.3955  0.8018
  592MPD2    H5 8836   1.208   1.825  11.930 -1.9482  0.8094  0.6840
  592MPD2    N1 8837   1.427   2.126  11.590  0.1273  0.3915 -0.1132
  592MPD2    H7 8838   1.466   2.148  11.499  1.2006  1.1272  0.5258
  593TMC3    C1 8839   1.485   2.352  11.634  0.0724  0.6601 -0.0914
  593TMC3    C2 8840   1.529   2.437  11.728  0.4315 -0.4129 -0.3020
  593TMC3    C3 8841   1.598   2.545  11.690  0.0482 -0.5697 -0.4923
  593TMC3    C4 8842   1.534   2.356  11.501 -0.8596 -0.4884 -0.4549
  593TMC3    C5 8843   1.611   2.464  11.471 -0.3456  0.0720 -1.1159
  593TMC3    C6 8844   1.637   2.561  11.562 -0.0302 -0.1879  0.2703
  593TMC3     C 8845   1.438   2.223  11.685  0.7966 -1.0830 -0.1808
  593TMC3     O 8846   1.402   2.213  11.804 -0.3945 -0.3688  0.5092
  593TMC3     H 8847   1.499   2.423  11.831  1.2277 -2.8265 -0.4206
  593TMC3    H1 8848   1.523   2.273  11.432  0.4092 -1.6978  0.8041
  593TMC3    H2 8849   1.706   2.644  11.547 -1.7330  1.0519 -0.6609
  593TMC3    C7 8850   1.646   2.495  11.331 -0.6196  0.3553  0.2406
  593TMC3    C8 8851   1.545   2.672  11.743  0.3751 -0.5947 -0.1200
  593TMC3    O1 8852   1.743   2.574  11.328  0.1140  0.2011  0.3278
  593TMC3    O2 8853   1.422   2.691  11.753  0.2282  0.2818  0.1202
  594MPD2     C 8854   4.631   0.965  14.204  0.2161 -0.4341  0.2646
  594MPD2    C1 8855   4.667   0.975  14.337 -0.0838 -0.6677 -0.0747
  594MPD2    C2 8856   0.057   1.025  14.369 -0.0564 -0.0468 -0.5779
  594MPD2    C3 8857   0.141   1.069  14.269  0.6351 -0.5123  0.2993
  594MPD2    C4 8858   0.092   1.069  14.134 -0.9352  0.3414  0.5656
  594MPD2    C5 8859   4.711   1.006  14.107  0.4572  0.6361  0.2424
  594MPD2     H 8860   0.089   1.035  14.472  0.0475  1.7157 -0.7752
  594MPD2    H1 8861   0.151   1.113  14.054  0.3768 -2.1229  0.1761
  594MPD2    H2 8862   4.531   0.937  14.176  0.8810 -2.4479 -0.1073
  594MPD2    H3 8863   4.675   1.012  14.005  0.1516 -2.1090  0.1840
  594MPD2     N 8864   0.269   1.122  14.304 -0.0579  1.0034 -0.0412
  594MPD2    H5 8865   0.290   1.140  14.402  1.2237 -0.7040 -0.0141
  594MPD2    N1 8866   4.569   0.925  14.423 -0.6385  0.6972 -0.0340
  594MPD2    H7 8867   4.489   0.879  14.382  1.5507 -1.6425 -1.6788
  595TMC3    C1 8868   0.697   1.302  14.235 -0.1456  1.0203 -0.1373
  595TMC3    C2 8869   0.595   1.234  14.184  0.4159  0.5253  1.0395
  595TMC3    C3 8870   0.495   1.208  14.271 -0.2366 -0.4211  0.0455
  595TMC3    C4 8871   0.700   1.356  14.357 -0.2890 -0.2870 -0.2560
  595TMC3    C5 8872   0.589   1.344  14.437  0.1060  0.5629  0.5065
  595TMC3    C6 8873   0.479   1.274  14.395 -0.0636  0.3118  0.0671
  595TMC3     C 8874   0.810   1.325  14.138 -0.1410  0.7834 -0.3068
  595TMC3     O 8875   0.793   1.281  14.024  0.3539  0.7125 -0.2221
  595TMC3     H 8876   0.603   1.177  14.092 -2.4707  1.5386  0.1560
  595TMC3    H1 8877   0.779   1.425  14.384  0.9206 -2.3418  1.4582
  595TMC3    H2 8878   0.394   1.270  14.462  0.4672 -1.7559  0.6339
  595TMC3    C7 8879   0.577   1.418  14.568  0.5801  0.1304 -0.1593
  595TMC3    C8 8880   0.376   1.151  14.215  0.5775  0.2569 -0.1645
  595TMC3    O1 8881   0.463   1.439  14.603  0.1061  0.0802  0.2382
  595TMC3    O2 8882   0.371   1.131  14.097 -0.3161 -1.1003  0.2873
  596MPD2     C 8883   3.951   4.133  16.606 -0.5125 -0.6211 -0.4043
  596MPD2    C1 8884   3.957   4.261  16.557  0.0736 -0.2837  0.2993
  596MPD2    C2 8885   3.999   4.282  16.431 -0.0666  0.0896  0.1447
  596MPD2    C3 8886   4.043   4.180  16.345 -0.3396 -1.2816  0.4689
  596MPD2    C4 8887   4.045   4.053  16.395  0.7643 -0.1585 -0.2856
  596MPD2    C5 8888   3.995   4.034  16.522  0.4597  0.6273  0.1662
  596MPD2     H 8889   3.992   4.385  16.397 -1.0434 -0.5277 -1.5558
  596MPD2    H1 8890   4.082   3.974  16.332  1.9849 -0.5336  0.8905
  596MPD2    H2 8891   3.920   4.111  16.708 -0.5833 -0.3169 -0.3622
  596MPD2    H3 8892   3.995   3.935  16.567 -0.7676  0.3792 -0.3954
  596MPD2     N 8893   4.071   4.203  16.208 -0.9614 -0.1025  0.3535
  596MPD2    H5 8894   4.064   4.120  16.150 -0.6737 -1.0127  1.6433
  596MPD2    N1 8895   3.931   4.369  16.635 -0.3472 -0.5122 -0.3537
  596MPD2    H7 8896   3.959   4.454  16.587  2.0437  1.1724  4.0238
  597TMC3    C1 8897   3.838   4.509  16.810  0.7234  0.3289  0.1060
  597TMC3    C2 8898   3.942   4.600  16.775  1.3509 -0.4261  0.4895
  597TMC3    C3 8899   3.937   4.720  16.841 -1.1080 -0.2778 -0.2180
  597TMC3    C4 8900   3.739   4.534  16.899 -0.0613  0.4718  0.5021
  597TMC3    C5 8901   3.752   4.652  16.965 -0.9324  0.1828 -0.5582
  597TMC3    C6 8902   3.845   0.010  16.938 -0.3484  0.6022 -0.1655
  597TMC3     C 8903   3.856   4.382  16.754  0.6140 -0.3523 -0.1345
  597TMC3     O 8904   3.793   4.293  16.805  0.0168  0.2617 -0.8408
  597TMC3     H 8905   4.014   4.579  16.696  1.0955 -0.4079  0.2535
  597TMC3    H1 8906   3.661   4.461  16.919  0.3432 -0.5925 -1.8651
  597TMC3    H2 8907   3.860   0.095  17.005 -1.6112 -0.0834  0.9679
  597TMC3    C7 8908   3.667   4.678  17.072  0.0089 -0.9530  0.3903
  597TMC3    C8 8909   4.013   0.084  16.779 -0.0174  0.5187  0.1962
  597TMC3    O1 8910   3.618   4.574  17.121 -0.2343 -0.1726 -0.0221
  597TMC3    O2 8911   4.094   0.047  16.694  0.0647  0.0198 -0.0847
  598TMC3    C1 8912   2.144   0.845  15.315 -0.2921  0.4586 -0.6850
  598TMC3    C2 8913   2.081   0.724  15.305  0.1434  0.1399  0.0507
  598TMC3    C3 8914   2.111   0.644  15.199 -0.1414  0.1966  0.1452
  598TMC3    C4 8915   2.249   0.881  15.232 -0.8701 -0.2749 -0.3798
  598TMC3    C5 8916   2.284   0.788  15.137  0.0471 -0.9324 -0.3552
  598TMC3    C6 8917   2.214   0.672  15.113  0.3140  0.0590  0.1999
  598TMC3     C 8918   2.089   0.947  15.394 -0.0171  0.9682  0.2515
  598TMC3     O 8919   2.149   1.057  15.396  0.2878  0.1682 -0.7357
  598TMC3     H 8920   2.010   0.695  15.382  2.9239 -0.7468  2.2583
  598TMC3    H1 8921   2.302   0.975  15.246  1.8509 -1.5520 -2.0616
  598TMC3    H2 8922   2.231   0.619  15.021  1.8088 -1.1056  1.1454
  598TMC3    C7 8923   2.390   0.815  15.042 -0.0664 -0.3530  0.6380
  598TMC3    C8 8924   2.031   0.532  15.164  0.2961  0.2682  0.0133
  598TMC3    O1 8925   2.466   0.726  15.006  0.2501 -0.4302 -0.1198
  598TMC3    O2 8926   2.058   0.472  15.059 -0.3080  0.0034 -0.5097
  599MPD2     C 8927   2.364   2.818  15.463  0.0270  0.5271  0.4277
  599MPD2    C1 8928   2.287   2.712  15.493  0.4331 -0.1719  0.3458
  599MPD2    C2 8929   2.156   2.732  15.523  0.1644  0.5726 -0.5466
  599MPD2    C3 8930   2.096   2.860  15.526  0.1059 -0.0129 -0.5711
  599MPD2    C4 8931   2.171   2.968  15.485  0.1982  0.0709 -0.1303
  599MPD2    C5 8932   2.301   2.938  15.441  0.0905  0.3548  0.4118
  599MPD2     H 8933   2.093   2.650  15.553  2.7031 -2.2314 -2.9120
  599MPD2    H1 8934   2.132   3.068  15.467  0.5067  0.4470  1.3358
  599MPD2    H2 8935   2.466   2.811  15.426 -0.0026 -0.0667  0.4558
  599MPD2    H3 8936   2.361   3.019  15.402 -0.6436 -0.4479 -2.4355
  599MPD2     N 8937   1.977   2.890  15.596 -0.3838  0.1820  0.3443
  599MPD2    H5 8938   1.958   2.986  15.623 -2.3162  0.1080 -0.7768
  599MPD2    N1 8939   2.358   2.594  15.509 -0.0883 -0.2367  0.0546
  599MPD2    H7 8940   2.459   2.604  15.497 -0.1528 -0.7568 -0.9469
  600TMC3    C1 8941   1.800   2.857  15.741 -0.7254  0.1557  0.3004
  600TMC3    C2 8942   1.690   2.783  15.773 -0.4886  0.0036 -0.9762
  600TMC3    C3 8943   1.613   2.841  15.866 -0.1382 -0.4395  0.0820
  600TMC3    C4 8944   1.841   2.977  15.791 -0.2633  0.0710 -0.4193
  600TMC3    C5 8945   1.762   3.023  15.886  0.1936 -0.2666  1.0922
  600TMC3    C6 8946   1.650   2.960  15.936 -0.6415  0.9315  0.1175
  600TMC3     C 8947   1.897   2.797  15.649  0.0904  0.1538 -0.1211
  600TMC3     O 8948   1.884   2.679  15.633  0.6180 -0.1458  0.7123
  600TMC3     H 8949   1.667   2.684  15.736  2.3290 -0.4132 -1.6687
  600TMC3    H1 8950   1.937   3.023  15.774 -1.3421  2.3816 -0.1594
  600TMC3    H2 8951   1.593   3.002  16.018  0.9475  1.5914  0.8704
  600TMC3    C7 8952   1.805   3.144  15.964 -0.5643 -0.7462 -0.1843
  600TMC3    C8 8953   1.500   2.774  15.916  0.3085 -0.2476  0.8527
  600TMC3    O1 8954   1.790   3.153  16.085  0.5414 -0.5068 -0.3600
  600TMC3    O2 8955   1.516   2.659  15.955 -0.4389  0.1912 -0.0374
  601MPD2     C 8956   4.559   1.302  17.670  0.6380  0.7042  0.0564
  601MPD2    C1 8957   4.466   1.360  17.749 -0.1249  0.1637 -0.2066
  601MPD2    C2 8958   4.424   1.296   0.104 -0.7042  0.2591 -0.1567
  601MPD2    C3 8959   4.481   1.176   0.147 -0.6693 -0.1487 -0.4691
  601MPD2    C4 8960   4.589   1.130   0.081  0.6906 -0.5856  0.5453
  601MPD2    C5 8961   4.625   1.193  17.714 -0.2000 -0.0270  0.4206
  601MPD2     H 8962   4.340   1.335   0.161  0.1184  1.6656  0.0928
  601MPD2    H1 8963   4.646   1.042   0.107  0.6263  0.1021  3.0471
  601MPD2    H2 8964   4.601   1.352  17.583 -0.8263 -3.5041 -3.1039
  601MPD2    H3 8965   4.706   1.149  17.657  0.6472 -0.4402  1.9469
  601MPD2     N 8966   4.449   1.117   0.274  0.1883 -0.2453  0.4244
  601MPD2    H5 8967   4.502   1.031   0.282  0.3508 -0.3732 -2.1061
  601MPD2    N1 8968   4.402   1.475  17.706 -0.7393 -0.1420 -0.5871
  601MPD2    H7 8969   4.322   1.515  17.753 -0.4350 -1.5574  1.1159
  602TMC3    C1 8970   4.363   1.671  17.582 -0.3772 -0.4424 -0.1473
  602TMC3    C2 8971   4.406   1.797  17.542 -0.2679  0.4148  0.4550
  602TMC3    C3 8972   4.317   1.881  17.488  0.2507 -0.7587 -0.6277
  602TMC3    C4 8973   4.240   1.626  17.559  0.0013 -0.1501  0.3809
  602TMC3    C5 8974   4.148   1.718  17.509 -0.7178  0.6204 -0.4811
  602TMC3    C6 8975   4.184   1.840  17.465  1.4954  0.6244 -0.4529
  602TMC3     C 8976   4.460   1.574  17.628  0.5938 -0.0845 -0.2092
  602TMC3     O 8977   4.579   1.585  17.605 -0.2626 -0.0408  0.5266
  602TMC3     H 8978   4.506   1.836  17.555  0.8119 -2.4503  0.7265
  602TMC3    H1 8979   4.199   1.529  17.582  3.2474 -1.3694  0.9221
  602TMC3    H2 8980   4.124   1.902  17.400 -3.0602 -1.1199  2.0439
  602TMC3    C7 8981   4.004   1.686  17.501 -0.2600  0.1347  0.2231
  602TMC3    C8 8982   4.351   2.022  17.473 -0.4198  0.5503 -0.0052
  602TMC3    O1 8983   3.963   1.572  17.497  0.1990  0.4890  0.3915
  602TMC3    O2 8984   4.470   2.062  17.459 -0.5455 -0.2857  0.0436
  603TMC3    C1 8985   2.237   1.930  10.822 -0.2581 -0.6774  0.3072
  603TMC3    C2 8986   2.295   1.899  10.944  0.2839  0.3473  0.3083
  603TMC3    C3 8987   2.365   1.993  11.010 -0.2086  0.0914 -0.2076
  603TMC3    C4 8988   2.252   2.052  10.767  0.0842 -0.3394 -0.3185
  603TMC3    C5 8989   2.332   2.142  10.837 -0.2343  0.1710 -0.5912
  603TMC3    C6 8990   2.382   2.124  10.960  0.4004  0.0039  0.8252
  603TMC3     C 8991   2.204   1.816  10.735  0.9636 -0.2974 -0.3736
  603TMC3     O 8992   2.240   1.707  10.778  0.0609  0.0573  0.3238
  603TMC3     H 8993   2.289   1.796  10.980 -0.1896  0.3711  0.3012
  603TMC3    H1 8994   2.234   2.062  10.660 -4.8811 -0.6750  0.4679
  603TMC3    H2 8995   2.454   2.192  11.004 -2.0927  0.9769  3.4116
  603TMC3    C7 8996   2.374   2.263  10.771  0.4412 -0.4428 -0.2185
  603TMC3    C8 8997   2.426   1.951  11.134 -0.1155  0.4377 -0.1475
  603TMC3    O1 8998   2.485   2.306  10.797 -0.4575 -0.4127  0.1221
  603TMC3    O2 8999   2.426   1.830  11.162 -0.0367  0.8212  0.4884
  604MPD2     C 9000   3.531   1.093  16.527 -0.1109  0.4213  0.3565
  604MPD2    C1 9001   3.401   1.048  16.502 -0.1808  0.1853 -0.5116
  604MPD2    C2 9002   3.379   0.957  16.398  0.4639  0.3883 -0.1134
  604MPD2    C3 9003   3.472   0.936  16.297 -0.0902 -0.0078  0.5542
  604MPD2    C4 9004   3.601   0.980  16.322  0.8635  0.1075 -0.9165
  604MPD2    C5 9005   3.626   1.046  16.444  0.0059 -0.2045 -0.0471
  604MPD2     H 9006   3.284   0.904  16.387 -0.0470  0.8497  2.1238
  604MPD2    H1 9007   3.684   0.964  16.254 -0.0813 -1.9848 -1.5726
  604MPD2    H2 9008   3.557   1.155  16.612 -1.7483 -0.4133  1.4620
  604MPD2    H3 9009   3.723   1.070  16.485 -1.2346  0.3646  2.5301
  604MPD2     N 9010   3.433   0.881  16.173  0.1117 -0.2145 -0.0875
  604MPD2    H5 9011   3.336   0.868  16.147  0.1165 -0.7412  0.1658
  604MPD2    N1 9012   3.299   1.082  16.597 -0.2881  0.7190  0.0515
  604MPD2    H7 9013   3.308   1.168  16.652  0.0108  1.8660 -1.7932
  605TMC3    C1 9014   3.067   1.085  16.663  0.4149  0.6475 -0.5326
  605TMC3    C2 9015   3.081   1.214  16.712 -0.2109  0.5848 -0.3448
  605TMC3    C3 9016   2.984   1.306  16.694  0.2438 -0.0726  0.1035
  605TMC3    C4 9017   2.950   1.048  16.601 -0.4676 -0.1151  0.0587
  605TMC3    C5 9018   2.847   1.140  16.593 -0.0691 -0.6987 -0.3499
  605TMC3    C6 9019   2.865   1.270  16.640  0.4948  0.2682 -0.2936
  605TMC3     C 9020   3.186   1.004  16.626  0.3105  0.1034  0.7644
  605TMC3     O 9021   3.166   0.888  16.596  0.5359  0.0472 -0.0309
  605TMC3     H 9022   3.159   1.222  16.787 -0.5920  0.3405  0.0720
  605TMC3    H1 9023   2.957   0.960  16.538  0.4973 -0.2053  0.2959
  605TMC3    H2 9024   2.793   1.349  16.619 -2.2621 -1.9894  0.6004
  605TMC3    C7 9025   2.764   1.130  16.473  0.4127  0.2208  0.6121
  605TMC3    C8 9026   2.989   1.423  16.785 -0.6753 -0.6214 -0.5225
  605TMC3    O1 9027   2.740   1.227  16.402  0.1605  0.0421  0.9480
  605TMC3    O2 9028   2.891   1.494  16.793  0.3321  0.5101  0.0368
  606TMC3    C1 9029   4.091   4.333  17.155 -0.1998 -0.4483  0.3812
  606TMC3    C2 9030   4.099   4.304  17.282  0.0201  0.4481  0.6577
  606TMC3    C3 9031   4.090   4.177  17.324  0.2366 -0.5532  0.0248
  606TMC3    C4 9032   4.084   4.232  17.062 -0.3272  0.0391 -0.4801
  606TMC3    C5 9033   4.062   4.102  17.106  0.4665 -0.7274 -0.4459
  606TMC3    C6 9034   4.076   4.072  17.239  0.9597  0.2832 -0.0794
  606TMC3     C 9035   4.137   4.458  17.100 -0.8657 -0.1653  0.1399
  606TMC3     O 9036   4.139   4.472  16.981 -0.0869 -0.1084 -0.5170
  606TMC3     H 9037   4.119   4.375  17.362 -1.7693  2.9711 -1.1252
  606TMC3    H1 9038   4.077   4.243  16.955  2.3626  0.4507 -0.5956
  606TMC3    H2 9039   4.059   3.970  17.273  1.7481  0.1359 -0.1116
  606TMC3    C7 9040   4.011   4.012  17.005 -0.0545  0.3868 -0.7462
  606TMC3    C8 9041   4.171   4.142  17.443 -0.1857 -0.0362 -0.8066
  606TMC3    O1 9042   4.039   4.034  16.888  1.0420 -0.1541 -0.4991
  606TMC3    O2 9043   4.244   4.044  17.427 -0.6943 -0.2116 -0.1625
  607MPD2     C 9044   1.599   1.973  11.959 -0.3652 -0.1320  0.7167
  607MPD2    C1 9045   1.675   2.048  12.047 -0.2934  0.6242  0.1552
  607MPD2    C2 9046   1.688   2.001  12.176 -0.1120  0.0857  0.2144
  607MPD2    C3 9047   1.635   1.881  12.209 -0.2102 -0.0184 -0.0653
  607MPD2    C4 9048   1.568   1.802  12.122 -0.0796  0.0168 -0.1514
  607MPD2    C5 9049   1.541   1.855  11.999  0.0726  0.3864 -0.6806
  607MPD2     H 9050   1.752   2.051  12.247  3.1418 -1.7701 -1.3750
  607MPD2    H1 9051   1.543   1.700  12.145  0.5414  0.5286  2.8300
  607MPD2    H2 9052   1.566   2.020  11.867  1.8015 -0.8706 -0.4233
  607MPD2    H3 9053   1.478   1.797  11.933 -0.6350  0.7002 -0.2813
  607MPD2     N 9054   1.668   1.833  12.342  0.6979  0.6472  0.5518
  607MPD2    H5 9055   1.735   1.893  12.389 -0.3392  1.8025  0.5434
  607MPD2    N1 9056   1.734   2.172  12.011 -0.0181 -0.1396 -0.1417
  607MPD2    H7 9057   1.767   2.232  12.085 -1.0410 -1.9250  1.7729
  608TMC3    C1 9058   1.864   2.307  11.872 -0.1780 -0.1259 -0.4575
  608TMC3    C2 9059   1.948   2.319  11.980  0.4381 -0.6878  0.4712
  608TMC3    C3 9060   2.078   2.361  11.949  0.4551 -0.5919 -0.4106
  608TMC3    C4 9061   1.903   2.335  11.741 -0.0657  0.2433  0.8507
  608TMC3    C5 9062   2.029   2.382  11.722 -0.6348 -0.1053 -0.9027
  608TMC3    C6 9063   2.120   2.392  11.826 -0.1245 -0.8295  0.3307
  608TMC3     C 9064   1.761   2.203  11.884 -0.1857 -0.2556 -0.1070
  608TMC3     O 9065   1.737   2.152  11.774  0.4279 -0.4911 -0.1296
  608TMC3     H 9066   1.913   2.302  12.082  1.3513  0.6901  1.0108
  608TMC3    H1 9067   1.842   2.323  11.652 -1.2781  2.5878  1.3590
  608TMC3    H2 9068   2.219   2.436  11.823 -0.7199  0.3674 -2.0150
  608TMC3    C7 9069   2.065   2.442  11.594 -0.2822 -0.0112  0.0177
  608TMC3    C8 9070   2.176   2.325  12.053 -1.0663  0.4030  0.1512
  608TMC3    O1 9071   1.998   2.416  11.496  0.1567 -0.6057 -0.4723
  608TMC3    O2 9072   2.294   2.353  12.032 -0.4879 -0.1227 -0.3577
  609TMC3    C1 9073   0.333   0.718   9.407 -0.5551 -0.2225  0.3703
  609TMC3    C2 9074   0.306   0.600   9.351  0.0328 -0.6680 -0.0573
  609TMC3    C3 9075   0.372   0.490   9.393 -0.1756 -0.9129 -0.4554
  609TMC3    C4 9076   0.425   0.738   9.504  0.0121  0.6496 -0.3082
  609TMC3    C5 9077   0.485   0.622   9.551 -0.0290  0.1648 -0.1130
  609TMC3    C6 9078   0.467   0.495   9.499  0.5369 -0.4276 -0.2168
  609TMC3     C 9079   0.252   0.831   9.370  0.2531 -0.7667 -0.4682
  609TMC3     O 9080   0.171   0.789   9.290  0.0906  0.3599  0.3363
  609TMC3     H 9081   0.240   0.595   9.265 -0.7157 -0.8466  0.5288
  609TMC3    H1 9082   0.435   0.833   9.553 -0.8257  0.6303 -0.1056
  609TMC3    H2 9083   0.534   0.415   9.527 -1.5315 -1.6396  1.2394
  609TMC3    C7 9084   0.596   0.651   9.638 -1.5079  1.0744  0.5370
  609TMC3    C8 9085   0.335   0.370   9.346 -0.6845 -0.3693 -0.5295
  609TMC3    O1 9086   0.651   0.766   9.628 -0.0718 -0.6214  0.3246
  609TMC3    O2 9087   0.222   0.358   9.312 -0.0101 -0.1016 -0.2956
  610TMC3    C1 9088   2.611   1.943  12.428 -0.5665 -0.7866 -0.4088
  610TMC3    C2 9089   2.530   1.967  12.319 -0.5940  0.6330 -0.9220
  610TMC3    C3 9090   2.446   1.867  12.274  0.4501 -0.2982 -0.6625
  610TMC3    C4 9091   2.595   1.824  12.493 -0.4664  0.4086 -0.0156
  610TMC3    C5 9092   2.500   1.732  12.461 -0.0970 -0.1177  0.5232
  610TMC3    C6 9093   2.429   1.752  12.348 -0.3672 -0.2493  0.4129
  610TMC3     C 9094   2.715   2.027  12.479  0.1128  0.3694  0.4496
  610TMC3     O 9095   2.763   1.989  12.582 -0.6895 -0.4805 -0.1120
  610TMC3     H 9096   2.535   2.055  12.256 -0.0593  2.0824  1.1200
  610TMC3    H1 9097   2.646   1.802  12.586  0.9292 -2.4225 -1.4283
  610TMC3    H2 9098   2.389   1.662  12.301  1.1622 -0.5816 -0.2643
  610TMC3    C7 9099   2.544   1.596  12.498 -0.2130 -0.0846  0.1465
  610TMC3    C8 9100   2.346   1.904  12.182  0.4984  0.4568 -0.7631
  610TMC3    O1 9101   2.645   1.577  12.563  0.0319  0.3288 -0.0516
  610TMC3    O2 9102   2.376   1.992  12.103  0.1963  0.0410 -0.7410
  611MPD2     C 9103   1.479   1.899  10.451  0.3837 -0.4838  0.1138
  611MPD2    C1 9104   1.411   1.958  10.352  0.4766  0.3135 -0.3249
  611MPD2    C2 9105   1.482   2.049  10.270 -0.2783 -0.3624  0.1944
  611MPD2    C3 9106   1.622   2.081  10.301  0.2622  0.3040 -0.5039
  611MPD2    C4 9107   1.684   2.025  10.408  0.0185  0.2909  0.0825
  611MPD2    C5 9108   1.611   1.930  10.482 -0.2743 -1.0217 -0.0136
  611MPD2     H 9109   1.435   2.096  10.185 -0.0150  0.1754  0.3449
  611MPD2    H1 9110   1.787   2.055  10.418  0.0276 -0.2062  1.5174
  611MPD2    H2 9111   1.434   1.836  10.527 -0.3727 -0.9373 -0.7096
  611MPD2    H3 9112   1.650   1.879  10.570  1.3636 -0.0090 -0.1628
  611MPD2     N 9113   1.700   2.174  10.222  0.0373 -0.3994  0.1510
  611MPD2    H5 9114   1.795   2.178  10.259  0.8203 -1.4176 -1.7897
  611MPD2    N1 9115   1.270   1.925  10.336 -0.4527 -0.3701 -1.0403
  611MPD2    H7 9116   1.230   1.861  10.404 -2.3703  0.0469 -1.7893
  612TMC3    C1 9117   1.756   2.355  10.079 -0.4851 -0.7347  0.1027
  612TMC3    C2 9118   1.861   2.402  10.154  0.0034 -0.0663  0.2970
  612TMC3    C3 9119   1.934   2.507  10.107 -0.1345  0.1521 -0.5625
  612TMC3    C4 9120   1.735   2.405   9.950 -0.4061  0.2257  0.5685
  612TMC3    C5 9121   1.805   2.511   9.911  0.3590  0.2581  0.3561
  612TMC3    C6 9122   1.907   2.562   9.986  0.0436  0.3474 -0.2058
  612TMC3     C 9123   1.661   2.253  10.123 -0.3004  0.1067  0.2631
  612TMC3     O 9124   1.555   2.254  10.063 -0.2491  0.2042 -0.8925
  612TMC3     H 9125   1.860   2.371  10.258 -0.0415  1.9991  0.9158
  612TMC3    H1 9126   1.650   2.370   9.892  1.9339 -0.6977 -2.2736
  612TMC3    H2 9127   1.970   2.640   9.944 -0.1975  0.5178 -0.2525
  612TMC3    C7 9128   1.736   2.582   9.807  0.0354  0.3446  0.1415
  612TMC3    C8 9129   2.061   2.536  10.162  0.3155 -0.1389  0.3719
  612TMC3    O1 9130   1.677   2.515   9.724  0.3015 -0.0680  0.1677
  612TMC3    O2 9131   2.130   2.617  10.100 -0.6052 -0.0560 -0.1621
  613MPD2     C 9132   0.883   3.512  16.417  0.2418 -0.8561  0.0816
  613MPD2    C1 9133   0.826   3.636  16.425 -0.0065  0.0201  0.2138
  613MPD2    C2 9134   0.690   3.652  16.394 -0.2533  0.4006  0.6011
  613MPD2    C3 9135   0.618   3.549  16.339 -0.3231 -0.7537  0.6003
  613MPD2    C4 9136   0.678   3.427  16.337  0.7918 -0.0073  0.2858
  613MPD2    C5 9137   0.803   3.411  16.385  0.0639 -0.5896  0.0513
  613MPD2     H 9138   0.634   3.743  16.413 -3.4922 -1.1959 -1.1653
  613MPD2    H1 9139   0.623   3.343  16.294  1.3435  1.8441 -4.0244
  613MPD2    H2 9140   0.986   3.494  16.447  0.6276  0.1175 -0.6387
  613MPD2    H3 9141   0.846   3.313  16.372  1.3324  0.2009 -1.6841
  613MPD2     N 9142   0.496   3.561  16.278  0.3017 -0.9030 -0.1722
  613MPD2    H5 9143   0.466   3.474  16.235 -2.8386  0.8239 -1.4283
  613MPD2    N1 9144   0.901   3.742  16.471 -0.2004 -0.1057 -0.2724
  613MPD2    H7 9145   0.976   3.716  16.534  0.2586 -1.2982 -1.3082
  614TMC3    C1 9146   0.804   3.922  16.346 -0.6635 -0.7033  0.3653
  614TMC3    C2 9147   0.820   3.870  16.219  0.2707  0.4753  0.2563
  614TMC3    C3 9148   0.759   3.947  16.123 -0.5322 -0.8165  0.2114
  614TMC3    C4 9149   0.761   4.052  16.373  0.1997  0.1348  0.7030
  614TMC3    C5 9150   0.713   4.128  16.275  0.8941 -0.3327 -0.5318
  614TMC3    C6 9151   0.705   4.068  16.151 -0.2054  0.0347 -0.1073
  614TMC3     C 9152   0.891   3.874  16.446 -0.3707 -0.0488  0.3570
  614TMC3     O 9153   0.973   3.954  16.489  0.4720 -0.0252  0.0182
  614TMC3     H 9154   0.868   3.775  16.203 -0.0755  0.0390  1.8212
  614TMC3    H1 9155   0.768   4.089  16.475  2.5983  0.4938  0.4019
  614TMC3    H2 9156   0.661   4.122  16.068 -0.1103 -0.0159 -0.1922
  614TMC3    C7 9157   0.634   4.247  16.302 -0.5420 -0.1670  0.0381
  614TMC3    C8 9158   0.689   3.872  16.025  0.3980  0.1380  0.2329
  614TMC3    O1 9159   0.648   4.317  16.400 -0.0495  0.4083 -0.5096
  614TMC3    O2 9160   0.632   3.778  16.083 -0.3371  0.2538 -0.2843
  615MPD2     C 9161   0.051   0.840  16.187 -0.3644  0.1923 -0.1167
  615MPD2    C1 9162   0.032   0.964  16.126  0.4759 -0.3813 -0.0569
  615MPD2    C2 9163   4.734   0.965  15.990 -0.7424 -0.3441  0.7592
  615MPD2    C3 9164   4.731   0.848  15.918 -0.9683 -0.2713 -0.3573
  615MPD2    C4 9165   0.032   0.730  15.980  0.6663 -0.4544 -0.4780
  615MPD2    C5 9166   0.057   0.728  16.110  1.0595 -0.6967  0.5959
  615MPD2     H 9167   4.716   1.060  15.940  0.2665  1.0848  3.1202
  615MPD2    H1 9168   0.022   0.635  15.929  0.0826 -2.0694  2.7229
  615MPD2    H2 9169   0.058   0.821  16.294 -1.4696  1.3755  0.1615
  615MPD2    H3 9170   0.074   0.637  16.166  0.3980 -1.4348 -0.4068
  615MPD2     N 9171   4.691   0.856  15.785  0.3100  0.2505 -0.5229
  615MPD2    H5 9172   4.684   0.952  15.752 -1.0964  0.2357 -0.3005
  615MPD2    N1 9173   0.051   1.091  16.201  0.0248  0.5690 -0.3300
  615MPD2    H7 9174   0.035   1.179  16.153  1.9016  2.0896  1.8726
  616TMC3    C1 9175   0.156   1.222  16.365  0.1695  0.3287 -0.1652
  616TMC3    C2 9176   0.275   1.248  16.435 -0.3366  0.3144  0.1730
  616TMC3    C3 9177   0.289   1.360  16.510 -0.3536  0.3983 -0.0371
  616TMC3    C4 9178   0.052   1.309  16.373  0.0619 -0.0043  0.2090
  616TMC3    C5 9179   0.069   1.421  16.450  0.0366 -0.8814  0.1457
  616TMC3    C6 9180   0.186   1.450  16.518  1.1811 -0.4437  0.2689
  616TMC3     C 9181   0.126   1.093  16.315  0.2993 -0.1143 -0.6300
  616TMC3     O 9182   0.187   0.999  16.364 -0.0483 -0.1582  0.4504
  616TMC3     H 9183   0.355   1.176  16.441 -1.0789 -0.3251  2.4714
  616TMC3    H1 9184   4.700   1.290  16.319  0.7418  0.4062 -1.0968
  616TMC3    H2 9185   0.193   1.535  16.585  2.1467 -0.2917 -0.0264
  616TMC3    C7 9186   4.699   1.514  16.479  0.4544 -0.2282  0.5505
  616TMC3    C8 9187   0.384   1.357  16.618  0.3565 -0.4697 -0.1248
  616TMC3    O1 9188   4.739   1.629  16.491  0.3515 -0.5902  0.4526
  616TMC3    O2 9189   0.346   1.432  16.706  0.0171 -0.1519 -0.1348
  617MPD2     C 9190   2.887   3.899  13.731 -0.1515 -0.0039  0.3067
  617MPD2    C1 9191   2.908   3.818  13.838 -0.3397  0.7647 -0.3022
  617MPD2    C2 9192   2.795   3.766  13.907  0.1025  0.2179  0.4047
  617MPD2    C3 9193   2.663   3.801  13.872 -0.2588 -0.4062  0.2117
  617MPD2    C4 9194   2.649   3.879  13.755  0.1500 -0.9351 -0.1298
  617MPD2    C5 9195   2.758   3.924  13.692  0.8081 -0.5715  0.6607
  617MPD2     H 9196   2.808   3.695  13.988 -0.3406  0.2955  0.5437
  617MPD2    H1 9197   2.549   3.894  13.714  0.2077 -1.0805 -0.3203
  617MPD2    H2 9198   2.966   3.944  13.672 -2.0560  3.7594  0.6545
  617MPD2    H3 9199   2.741   3.989  13.607 -0.4941 -0.0870  1.3000
  617MPD2     N 9200   2.552   3.742  13.929 -0.1826 -0.2352 -0.2977
  617MPD2    H5 9201   2.470   3.736  13.869  1.8312 -2.2872 -2.8573
  617MPD2    N1 9202   3.045   3.793  13.863 -0.1138  0.3425  0.3675
  617MPD2    H7 9203   3.113   3.814  13.791 -2.1504  0.9139 -1.4181
  618TMC3    C1 9204   3.226   3.704  13.978 -0.1444  0.2922  0.4050
  618TMC3    C2 9205   3.268   3.595  14.049  0.4320 -0.5670 -0.3351
  618TMC3    C3 9206   3.395   3.553  14.022  0.5003  0.5209 -0.1149
  618TMC3    C4 9207   3.309   3.773  13.892 -0.0813 -0.0963 -0.9135
  618TMC3    C5 9208   3.434   3.726  13.864  0.4030 -0.3903 -0.4827
  618TMC3    C6 9209   3.484   3.615  13.937 -0.1452 -0.4065  0.4943
  618TMC3     C 9210   3.084   3.727  13.979  0.2626 -0.0492 -0.3613
  618TMC3     O 9211   3.019   3.687  14.076 -0.7164 -0.0645 -0.0690
  618TMC3     H 9212   3.209   3.544  14.124  0.2068 -1.3382 -1.0232
  618TMC3    H1 9213   3.279   3.864  13.843  0.5744  0.2639 -0.6368
  618TMC3    H2 9214   3.588   3.591  13.924  0.0082 -0.6447  2.1212
  618TMC3    C7 9215   3.520   3.801  13.775 -0.6803  0.2249  0.3391
  618TMC3    C8 9216   3.392   3.409  14.020  0.5917  0.4169 -0.0806
  618TMC3    O1 9217   3.536   3.917  13.806 -0.1947  0.2668 -0.3148
  618TMC3    O2 9218   3.283   3.357  14.029 -0.5043 -0.1641  0.0795
  619MPD2     C 9219   4.530   0.411  13.639 -0.5485  0.5783  0.5995
  619MPD2    C1 9220   4.450   0.479  13.722 -0.1247 -0.2060  0.0456
  619MPD2    C2 9221   4.316   0.454  13.736 -0.1513  0.0018  0.4066
  619MPD2    C3 9222   4.265   0.356  13.657 -1.0342  0.5676 -0.2095
  619MPD2    C4 9223   4.347   0.277  13.579  0.9439 -1.1510 -0.0888
  619MPD2    C5 9224   4.481   0.310  13.565 -0.0528  0.3526  0.5256
  619MPD2     H 9225   4.254   0.513  13.802 -1.1817 -1.7669  1.0227
  619MPD2    H1 9226   4.318   0.190  13.522  0.8926 -1.8659  1.0209
  619MPD2    H2 9227   4.634   0.435  13.620 -1.1715  0.7455 -2.5719
  619MPD2    H3 9228   4.544   0.261  13.491 -0.5529  1.1226 -0.4171
  619MPD2     N 9229   4.129   0.338  13.641 -0.2725  0.5407 -0.1249
  619MPD2    H5 9230   4.102   0.271  13.569  0.2388 -0.3254  0.4833
  619MPD2    N1 9231   4.494   0.600  13.781  1.0515  0.7229 -0.6926
  619MPD2    H7 9232   4.424   0.655  13.828 -0.1029 -1.7464  0.4534
  620TMC3    C1 9233   4.614   0.784  13.830  0.7186  0.5090 -0.4534
  620TMC3    C2 9234   4.501   0.822  13.902 -0.0884  0.3745 -0.1751
  620TMC3    C3 9235   4.459   0.952  13.879  0.7297  0.4245 -0.0023
  620TMC3    C4 9236   4.677   0.870  13.742 -0.0673  0.8566 -0.0996
  620TMC3    C5 9237   4.625   0.994  13.730 -0.0130  0.0023  0.0174
  620TMC3    C6 9238   4.516   1.039  13.800 -0.6780  0.1212 -0.1432
  620TMC3     C 9239   4.619   0.653  13.773  0.6007 -0.6836 -0.1940
  620TMC3     O 9240   4.731   0.603  13.749  0.0714 -0.1148 -0.9082
  620TMC3     H 9241   4.452   0.768  13.982  0.0767  0.5391  0.0378
  620TMC3    H1 9242   0.008   0.826  13.672  1.3922 -2.5189  3.4903
  620TMC3    H2 9243   4.481   1.139  13.776 -0.2093  0.8141  2.0054
  620TMC3    C7 9244   4.643   1.059  13.599 -0.4290 -0.2793 -0.6813
  620TMC3    C8 9245   4.314   0.959  13.881  0.2140  0.0101  0.7134
  620TMC3    O1 9246   4.635   1.182  13.607 -0.3083  0.1228 -0.0744
  620TMC3    O2 9247   4.255   0.850  13.885 -0.6749  0.0271  0.0978
  621MPD2     C 9248   4.511   1.606   9.896  0.2906  0.5780  0.3777
  621MPD2    C1 9249   4.566   1.496   9.962 -0.1871 -1.6451  0.5289
  621MPD2    C2 9250   4.695   1.503  10.015 -0.5267 -0.6205  0.1294
  621MPD2    C3 9251   0.026   1.621  10.001 -0.4103 -0.2827  0.3774
  621MPD2    C4 9252   4.702   1.731   9.947 -0.2681  0.6822  0.2026
  621MPD2    C5 9253   4.578   1.720   9.887 -0.3812 -0.1230 -0.6281
  621MPD2     H 9254   4.734   1.412  10.060 -1.1913 -1.4824 -1.0370
  621MPD2    H1 9255   0.017   1.823   9.926  1.2531 -0.3625 -0.4643
  621MPD2    H2 9256   4.417   1.607   9.841  1.3277  0.4980 -1.3947
  621MPD2    H3 9257   4.536   1.807   9.838 -2.2074 -3.1819 -4.4688
  621MPD2     N 9258   0.168   1.646  10.024  0.2782  0.3424 -0.1023
  621MPD2    H5 9259   0.198   1.742  10.027  0.0567  0.2666  3.8322
  621MPD2    N1 9260   4.490   1.383   9.981  0.4664  0.2745  0.3905
  621MPD2    H7 9261   4.532   1.313  10.041 -0.8022  1.2709  2.4003
  622TMC3    C1 9262   4.301   1.243  10.001  0.1315  0.0422 -0.2089
  622TMC3    C2 9263   4.160   1.248  10.009  0.2254 -0.0092  0.9737
  622TMC3    C3 9264   4.097   1.151  10.079 -0.4605  0.2467  0.2252
  622TMC3    C4 9265   4.374   1.130  10.041  0.0101 -0.5117  0.1691
  622TMC3    C5 9266   4.303   1.048  10.119  0.5242 -0.7760 -0.1798
  622TMC3    C6 9267   4.168   1.050  10.146  0.4419 -0.0987 -0.4559
  622TMC3     C 9268   4.357   1.364   9.949 -0.1184  0.0986 -0.4521
  622TMC3     O 9269   4.282   1.438   9.893 -0.1372  0.4538  0.8804
  622TMC3     H 9270   4.105   1.326   9.958 -0.3934 -0.9727  0.1673
  622TMC3    H1 9271   4.482   1.122  10.038  0.2314  1.8819  2.0363
  622TMC3    H2 9272   4.112   0.978  10.204  2.5093 -1.0015  0.4313
  622TMC3    C7 9273   4.344   0.915  10.133  1.0905  0.0891 -0.8163
  622TMC3    C8 9274   3.955   1.154  10.091 -0.3754  0.5783  0.8154
  622TMC3    O1 9275   4.318   0.854  10.235 -0.1946  0.2778  0.3009
  622TMC3    O2 9276   3.912   1.076  10.174  0.1564 -0.0440 -0.4868
  623MPD2     C 9277   3.944   1.815  16.287 -0.0576 -0.2234  0.0265
  623MPD2    C1 9278   3.851   1.728  16.336 -0.3055 -0.7477 -0.3974
  623MPD2    C2 9279   3.819   1.736  16.467 -0.0943  0.5804  0.5887
  623MPD2    C3 9280   3.872   1.829  16.548 -0.4129 -0.0308 -0.4401
  623MPD2    C4 9281   3.970   1.914  16.499 -0.1733 -0.1377  0.2706
  623MPD2    C5 9282   3.992   1.909  16.362 -0.8417 -0.5431 -0.0112
  623MPD2     H 9283   3.751   1.664  16.511  1.6561 -1.3849  0.0919
  623MPD2    H1 9284   4.026   1.992  16.550  0.5413  0.5174 -1.5163
  623MPD2    H2 9285   3.985   1.810  16.187  1.4643 -0.6194  0.6658
  623MPD2    H3 9286   4.063   1.981  16.324  0.2320 -2.1805 -1.1026
  623MPD2     N 9287   3.836   1.820  16.689  0.4620  0.1394  0.5963
  623MPD2    H5 9288   3.754   1.763  16.707 -0.8473  0.8623 -3.2630
  623MPD2    N1 9289   3.796   1.617  16.263 -0.1297  0.5000  0.1041
  623MPD2    H7 9290   3.744   1.548  16.317  0.1990 -0.6265 -1.0180
  624TMC3    C1 9291   3.936   1.622  17.049 -0.7909 -0.7508  0.4313
  624TMC3    C2 9292   3.804   1.601  17.076 -0.0053  0.1537  0.2977
  624TMC3    C3 9293   3.705   1.678  17.014 -0.2673 -0.0878 -0.6353
  624TMC3    C4 9294   3.971   1.730  16.976 -0.1000 -0.1146 -0.5408
  624TMC3    C5 9295   3.872   1.803  16.916  0.1609  0.1138  0.1716
  624TMC3    C6 9296   3.740   1.782  16.936 -0.0730  0.5072 -0.0534
  624TMC3     C 9297   4.038   1.531  17.121  0.7947 -0.4513  1.0235
  624TMC3     O 9298   4.006   1.425  17.173  0.7837 -0.6017 -0.2238
  624TMC3     H 9299   3.779   1.516  17.137 -1.2874 -1.2395 -2.2007
  624TMC3    H1 9300   4.070   1.760  16.943  0.0992 -0.6300 -0.4195
  624TMC3    H2 9301   3.661   1.840  16.890  1.5202  1.0687 -2.0666
  624TMC3    C7 9302   3.905   1.871  16.797  0.2157 -0.1475 -0.4082
  624TMC3    C8 9303   3.571   1.625  16.997 -0.5903 -0.2792  0.2118
  624TMC3    O1 9304   4.018   1.921  16.784  0.8524 -0.1877 -0.1824
  624TMC3    O2 9305   3.559   1.510  16.970  0.1093  0.0567 -0.7277
  625MPD2     C 9306   3.528   2.332   0.646  0.3917  0.3545 -0.7382
  625MPD2    C1 9307   3.622   2.430   0.672 -0.6382 -0.4281 -0.1850
  625MPD2    C2 9308   3.746   2.400   0.715 -0.2134 -0.3354  0.6248
  625MPD2    C3 9309   3.784   2.265   0.719 -0.3727  0.3716 -0.0804
  625MPD2    C4 9310   3.698   2.163   0.682 -0.0730 -0.2066  0.4024
  625MPD2    C5 9311   3.565   2.201   0.661  0.3393  0.4714  0.5602
  625MPD2     H 9312   3.813   2.482   0.738 -1.2578  0.9493 -0.9004
  625MPD2    H1 9313   3.715   2.056   0.676  0.7639 -0.1174  1.0842
  625MPD2    H2 9314   3.422   2.349   0.632  0.3905  0.0611 -1.0855
  625MPD2    H3 9315   3.489   2.129   0.636 -0.8223  1.3397  1.5944
  625MPD2     N 9316   3.918   2.232   0.763  0.1647  0.0705  0.1217
  625MPD2    H5 9317   3.983   2.309   0.776 -1.0148  1.2636 -0.9755
  625MPD2    N1 9318   3.600   2.571   0.656 -0.0975 -0.0002  0.4643
  625MPD2    H7 9319   3.671   2.641   0.677 -1.8524  1.3528  1.8770
  626TMC3    C1 9320   3.490   2.763   0.573  0.4556 -0.0838  0.5241
  626TMC3    C2 9321   3.435   2.804   0.453 -0.3730 -0.9586 -0.3404
  626TMC3    C3 9322   3.408   2.933   0.429 -0.4814  0.1363 -0.2248
  626TMC3    C4 9323   3.510   2.853   0.674 -0.5999 -0.4744  0.1806
  626TMC3    C5 9324   3.471   2.979   0.650 -0.3995  0.2333  0.3381
  626TMC3    C6 9325   3.426   3.026   0.531  0.0064  0.2030 -0.1034
  626TMC3     C 9326   3.487   2.619   0.599 -0.6916 -0.2259  0.0084
  626TMC3     O 9327   3.401   2.560   0.532 -0.4904 -0.1446 -0.1069
  626TMC3     H 9328   3.417   2.734   0.372  0.7606 -0.3475 -1.1258
  626TMC3    H1 9329   3.535   2.820   0.774 -2.0531  0.3480  0.8156
  626TMC3    H2 9330   3.397   3.130   0.522 -1.5546 -0.2854 -0.7572
  626TMC3    C7 9331   3.444   3.054   0.774 -0.3500 -0.3515  0.4294
  626TMC3    C8 9332   3.421   2.971   0.290  0.1293 -0.3365  0.6534
  626TMC3    O1 9333   3.518   3.033   0.868 -0.0771  0.3493 -0.4297
  626TMC3    O2 9334   3.402   2.889   0.204 -0.5105 -0.1603 -0.1082
  627MPD2     C 9335   2.130   2.377  14.135  0.8813 -0.1890  0.1772
  627MPD2    C1 9336   2.086   2.320  14.251  0.0475 -0.0196  0.3134
  627MPD2    C2 9337   1.993   2.219  14.228  0.5107  0.3561 -0.3605
  627MPD2    C3 9338   1.952   2.175  14.099 -0.9921  0.2326 -0.0169
  627MPD2    C4 9339   2.018   2.235  13.989  0.1895 -0.9256  0.1484
  627MPD2    C5 9340   2.095   2.340  14.013  0.7797  0.2124  0.1165
  627MPD2     H 9341   1.946   2.168  14.311  0.6195 -0.7762 -0.9944
  627MPD2    H1 9342   1.977   2.221  13.889 -1.8393  0.5368  0.7931
  627MPD2    H2 9343   2.202   2.458  14.137  1.4013 -0.5779 -2.1217
  627MPD2    H3 9344   2.132   2.410  13.939  1.4177 -0.9188 -0.6496
  627MPD2     N 9345   1.862   2.060  14.084 -0.4407 -0.7110 -0.5379
  627MPD2    H5 9346   1.808   2.023  14.161 -0.1303  0.4318  0.2358
  627MPD2    N1 9347   2.130   2.354  14.379 -0.4847 -0.1178  0.3069
  627MPD2    H7 9348   2.089   2.314  14.463 -0.4379  0.5311  0.6361
  628TMC3    C1 9349   2.251   2.485  14.538 -0.4670 -0.2021  0.6280
  628TMC3    C2 9350   2.299   2.374  14.602  0.4309  0.2738  0.1774
  628TMC3    C3 9351   2.392   2.406  14.706 -0.5585 -0.1434  0.0895
  628TMC3    C4 9352   2.281   2.615  14.577  0.7669 -0.4948  0.1118
  628TMC3    C5 9353   2.369   2.636  14.681  0.0261  0.2836 -0.3807
  628TMC3    C6 9354   2.416   2.528  14.753 -0.1595 -0.1660 -0.2658
  628TMC3     C 9355   2.202   2.466  14.402 -0.3150 -0.4530  0.6540
  628TMC3     O 9356   2.241   2.558  14.333 -0.3558 -0.4781 -0.4235
  628TMC3     H 9357   2.289   2.274  14.562 -0.8294  0.5685 -0.2580
  628TMC3    H1 9358   2.220   2.695  14.536  2.7209 -0.2730 -2.3771
  628TMC3    H2 9359   2.503   2.535  14.818 -0.5349 -1.8735  0.4161
  628TMC3    C7 9360   2.440   2.756  14.697  0.3458  0.0833  0.3163
  628TMC3    C8 9361   2.456   2.292  14.778  0.2006 -0.3537  0.0039
  628TMC3    O1 9362   2.523   2.766  14.788  0.1043  0.0157 -0.0343
  628TMC3    O2 9363   2.375   2.201  14.792 -0.0253 -0.3632 -0.1970
  629MPD2     C 9364   0.804   1.187  16.845 -0.0897 -0.5482  0.1340
  629MPD2    C1 9365   0.832   1.185  16.708 -0.2155 -0.4920 -0.1516
  629MPD2    C2 9366   0.729   1.216  16.620 -0.1718 -0.5696 -0.5241
  629MPD2    C3 9367   0.603   1.251  16.674  0.4767 -0.3657 -0.0826
  629MPD2    C4 9368   0.581   1.263  16.815  0.2826 -0.2288  0.0555
  629MPD2    C5 9369   0.686   1.228  16.895  0.5790 -0.2452  0.0173
  629MPD2     H 9370   0.745   1.223  16.513  1.6593  1.2582 -0.1339
  629MPD2    H1 9371   0.486   1.294  16.857  0.4009  1.9592 -1.3316
  629MPD2    H2 9372   0.876   1.148  16.915  3.2403  1.2756 -2.3127
  629MPD2    H3 9373   0.671   1.227  17.003  1.8081  0.2567  0.1918
  629MPD2     N 9374   0.506   1.290  16.580 -0.7256 -0.7240 -0.5036
  629MPD2    H5 9375   0.517   1.266  16.482 -1.0614  0.8290 -0.9197
  629MPD2    N1 9376   0.963   1.173  16.671  0.3594  0.2287 -0.2466
  629MPD2    H7 9377   1.022   1.159  16.752  1.4390  0.6498 -0.9662
  630TMC3    C1 9378   1.164   1.194  16.553  0.7012  0.0867  0.4113
  630TMC3    C2 9379   1.197   1.287  16.453  0.0654  0.0927 -0.3576
  630TMC3    C3 9380   1.296   1.381  16.487  0.2182 -0.2001 -0.3170
  630TMC3    C4 9381   1.213   1.204  16.686 -0.1606 -0.0411  0.5453
  630TMC3    C5 9382   1.317   1.294  16.706  0.1060 -1.0651 -0.1954
  630TMC3    C6 9383   1.353   1.387  16.611 -0.2683 -0.1665 -0.3572
  630TMC3     C 9384   1.016   1.168  16.545 -0.3535  0.2521 -0.1360
  630TMC3     O 9385   0.951   1.167  16.445  0.7512  0.4382 -0.1401
  630TMC3     H 9386   1.134   1.296  16.365  1.2555  0.7920 -1.1338
  630TMC3    H1 9387   1.211   1.116  16.749  1.9323  0.4023  1.2248
  630TMC3    H2 9388   1.424   1.464  16.640  1.1069 -1.8605  0.7604
  630TMC3    C7 9389   1.407   1.265  16.820  0.1079 -0.0943  0.4164
  630TMC3    C8 9390   1.346   1.481  16.393  0.0273  0.4743 -0.0429
  630TMC3    O1 9391   1.365   1.208  16.921  0.2686 -0.9611  0.1745
  630TMC3    O2 9392   1.436   1.545  16.437  0.4095 -0.2786  0.1607
  631MPD2     C 9393   3.975   1.356  15.430  0.0353 -0.3573  0.0046
  631MPD2    C1 9394   4.058   1.356  15.324 -0.4797  0.3789 -0.0120
  631MPD2    C2 9395   4.163   1.266  15.319 -0.1453  0.1677 -0.7418
  631MPD2    C3 9396   4.185   1.189  15.433 -0.3871  0.3963  0.6484
  631MPD2    C4 9397   4.099   1.187  15.539 -0.5529  0.0223  0.4630
  631MPD2    C5 9398   3.996   1.279  15.534 -0.0681  0.2897  0.0771
  631MPD2     H 9399   4.239   1.269  15.242 -0.5313  1.1727 -1.0898
  631MPD2    H1 9400   4.106   1.121  15.625  1.7943 -1.4693 -0.8738
  631MPD2    H2 9401   3.877   1.402  15.431  0.1562 -0.0281 -2.2760
  631MPD2    H3 9402   3.917   1.256  15.604 -0.8085 -2.1452 -1.5584
  631MPD2     N 9403   4.288   1.097  15.424 -0.4531  0.1397 -0.0152
  631MPD2    H5 9404   4.351   1.111  15.346  0.5158 -2.4625  0.3203
  631MPD2    N1 9405   4.032   1.460  15.229  0.0262  0.1645  0.0368
  631MPD2    H7 9406   3.959   1.521  15.265  0.2524 -1.0401  2.5298
  632TMC3    C1 9407   4.040   1.599  15.030  0.1782  0.4643 -0.0639
  632TMC3    C2 9408   3.954   1.689  15.083  0.1365 -0.3862 -0.8198
  632TMC3    C3 9409   3.902   1.787  15.008  0.0197 -0.3816  1.0297
  632TMC3    C4 9410   4.089   1.620  14.905 -0.4844  0.2347  0.2689
  632TMC3    C5 9411   4.040   1.719  14.823 -0.1574  0.8452 -0.2838
  632TMC3    C6 9412   3.937   1.800  14.874  0.0734 -0.1061 -0.5463
  632TMC3     C 9413   4.093   1.480  15.103  0.3425  0.4054  0.3182
  632TMC3     O 9414   4.188   1.416  15.057  0.6756  0.0497  0.5077
  632TMC3     H 9415   3.922   1.682  15.187 -0.0657 -0.8140 -0.9118
  632TMC3    H1 9416   4.164   1.548  14.875 -0.8331 -0.4385  1.0257
  632TMC3    H2 9417   3.892   1.877  14.813  0.5620  1.1094  0.6291
  632TMC3    C7 9418   4.063   1.726  14.678  0.4023 -0.4809  0.6907
  632TMC3    C8 9419   3.827   1.900  15.062  0.1593 -0.1265 -0.2595
  632TMC3    O1 9420   3.969   1.770  14.611 -0.6560  0.1523  0.5580
  632TMC3    O2 9421   3.831   2.012  15.013 -0.1268  0.5828 -0.0902
  633MPD2     C 9422   3.183   4.052  17.149 -0.0208 -0.1016  0.1290
  633MPD2    C1 9423   3.196   4.006  17.020  0.4313 -0.1110 -0.4231
  633MPD2    C2 9424   3.201   3.870  17.000 -0.0766  0.4634  0.0688
  633MPD2    C3 9425   3.219   3.780  17.107 -1.1148  0.0308 -0.6391
  633MPD2    C4 9426   3.233   3.832  17.233  0.4316 -0.9760 -0.4456
  633MPD2    C5 9427   3.214   3.962  17.255 -0.2386  0.1378  0.3457
  633MPD2     H 9428   3.210   3.830  16.899  2.7888 -1.0256  0.8962
  633MPD2    H1 9429   3.255   3.766  17.316  0.8308 -0.3058 -0.0214
  633MPD2    H2 9430   3.170   4.154  17.182 -1.6165  1.0553 -4.1852
  633MPD2    H3 9431   3.223   4.005  17.354  0.0207  0.2426  0.2798
  633MPD2     N 9432   3.231   3.640  17.104 -0.0354 -0.0012 -0.4090
  633MPD2    H5 9433   3.267   3.592  17.186 -0.5178  0.2074 -0.0734
  633MPD2    N1 9434   3.204   4.093  16.909 -0.0652  0.7353 -0.4228
  633MPD2    H7 9435   3.211   4.047  16.818  1.4259  1.1384 -0.5036
  634TMC3    C1 9436   3.272   4.285  16.790 -0.1561 -0.1623  0.7917
  634TMC3    C2 9437   3.339   4.205  16.703  0.8870  0.0853 -0.3246
  634TMC3    C3 9438   3.430   4.268  16.628  0.5836 -0.5329 -0.4774
  634TMC3    C4 9439   3.299   4.422  16.805  0.0228 -0.0577 -0.0955
  634TMC3    C5 9440   3.397   4.475  16.726  0.0652  0.2486  0.8511
  634TMC3    C6 9441   3.465   4.401  16.633  0.0485 -0.2470  0.6207
  634TMC3     C 9442   3.228   4.227  16.916 -0.0927  0.5452 -0.9494
  634TMC3     O 9443   3.235   4.302  17.014 -0.0470 -0.0326  0.7709
  634TMC3     H 9444   3.317   4.099  16.698  1.2045  0.0241 -0.4256
  634TMC3    H1 9445   3.248   4.486  16.876 -1.4732 -2.4492  1.0110
  634TMC3    H2 9446   3.565   4.427  16.602 -0.3633 -0.0578 -0.5222
  634TMC3    C7 9447   3.418   4.621  16.723 -0.3796 -0.2908  0.3735
  634TMC3    C8 9448   3.515   4.182  16.541  0.6595 -0.5629 -0.2227
  634TMC3    O1 9449   3.487   4.662  16.629 -0.3285 -0.0520 -0.6861
  634TMC3    O2 9450   3.519   4.064  16.562 -0.4454  0.2493  0.0669
  635TMC3    C1 9451   3.527   0.645   0.949  0.4414  0.6365  0.2574
  635TMC3    C2 9452   3.579   0.544   1.020  0.0084 -0.0139  0.5536
  635TMC3    C3 9453   3.515   0.423   1.015  0.0241  0.2642  0.1865
  635TMC3    C4 9454   3.415   0.627   0.871 -0.2630 -0.0590  0.1600
  635TMC3    C5 9455   3.355   0.504   0.867  0.5621 -0.0778  0.2958
  635TMC3    C6 9456   3.405   0.398   0.932 -0.3567 -0.2168  0.2920
  635TMC3     C 9457   3.626   0.741   0.898 -0.0270 -1.1497  0.1034
  635TMC3     O 9458   3.742   0.713   0.921 -0.1607  0.3521  0.1849
  635TMC3     H 9459   3.677   0.542   1.068  0.2124 -0.7676  0.1069
  635TMC3    H1 9460   3.372   0.695   0.798 -0.5935  0.0310  0.4377
  635TMC3    H2 9461   3.354   0.302   0.930  0.9332 -0.8667 -2.1692
  635TMC3    C7 9462   3.237   0.485   0.786 -0.6747 -0.3094 -0.3574
  635TMC3    C8 9463   3.581   0.307   1.069 -0.0500  0.1997 -0.3062
  635TMC3    O1 9464   3.215   0.371   0.741 -0.2155 -0.1338 -0.2074
  635TMC3    O2 9465   3.662   0.325   1.158 -0.0031 -0.1043 -0.0987
  636MPD2     C 9466   4.566   4.333  16.164  0.4375 -0.6546  0.1651
  636MPD2    C1 9467   4.679   4.327  16.232  0.0270  0.2742  0.1215
  636MPD2    C2 9468   0.013   4.205  16.236  0.3226 -0.5040  0.2809
  636MPD2    C3 9469   4.711   4.092  16.165  0.0220 -0.1318  0.5786
  636MPD2    C4 9470   4.596   4.110  16.089  0.3092 -0.5142  0.0999
  636MPD2    C5 9471   4.525   4.221  16.097  0.2030  0.2952  0.5582
  636MPD2     H 9472   0.105   4.208  16.294  1.3854  0.4177 -1.4350
  636MPD2    H1 9473   4.547   4.030  16.035 -1.2424  0.6091 -0.1611
  636MPD2    H2 9474   4.499   4.418  16.169 -0.9544 -1.7792  0.6767
  636MPD2    H3 9475   4.428   4.220  16.048 -0.8053 -0.0913  2.6029
  636MPD2     N 9476   0.045   3.970  16.172  0.7486  0.1835  0.5186
  636MPD2    H5 9477   0.130   3.979  16.226  0.5715 -0.4260  0.9048
  636MPD2    N1 9478   4.731   4.431  16.312  0.3982  0.2674 -0.2777
  636MPD2    H7 9479   0.080   4.414  16.358 -0.7254 -0.1541  1.7268
  637TMC3    C1 9480   0.106   3.739  16.106  0.0775 -0.1871  0.7058
  637TMC3    C2 9481   0.197   3.745  16.209 -0.1117  0.4554 -0.1834
  637TMC3    C3 9482   0.294   3.652  16.199 -0.3032 -0.0323 -0.1505
  637TMC3    C4 9483   0.113   3.661  15.997  0.0229  0.4934 -0.5336
  637TMC3    C5 9484   0.224   3.593  15.983 -0.6427 -0.1631 -0.2127
  637TMC3    C6 9485   0.314   3.583  16.084  0.1800  0.3302 -0.3862
  637TMC3     C 9486   0.006   3.852  16.111 -0.6492 -0.5049 -0.2589
  637TMC3     O 9487   4.647   3.825  16.041  0.1998 -0.4484 -0.0982
  637TMC3     H 9488   0.173   3.786  16.307  2.2508  0.5459  0.3562
  637TMC3    H1 9489   0.032   3.672  15.926  0.0974  0.5206 -0.6151
  637TMC3    H2 9490   0.403   3.525  16.061  1.1565  1.3720  0.7750
  637TMC3    C7 9491   0.285   3.603  15.852  0.2508 -0.4077  0.2913
  637TMC3    C8 9492   0.406   3.659  16.287  0.7814  0.4743 -0.4444
  637TMC3    O1 9493   0.389   3.542  15.838  0.3529  0.2809  0.2407
  637TMC3    O2 9494   0.395   3.749  16.370  0.0406  0.2409 -0.3136
  638MPD2     C 9495   4.638   3.045  14.814  1.2402 -0.8672 -0.5038
  638MPD2    C1 9496   4.676   2.926  14.757 -0.2224  0.1078  1.0189
  638MPD2    C2 9497   4.639   2.813  14.828 -0.3557 -0.0002 -0.5219
  638MPD2    C3 9498   4.569   2.814  14.949 -0.0157 -0.2517 -0.2777
  638MPD2    C4 9499   4.539   2.940  14.999 -0.3594 -0.4230  0.2263
  638MPD2    C5 9500   4.573   3.055  14.939  0.5724 -0.4283  0.0850
  638MPD2     H 9501   4.650   2.715  14.782 -1.7216 -0.2732 -0.2502
  638MPD2    H1 9502   4.503   2.950  15.101  1.8347 -1.0652  1.0515
  638MPD2    H2 9503   4.643   3.139  14.761 -0.2301  0.9060  2.4869
  638MPD2    H3 9504   4.550   3.151  14.984  2.7080  0.0726  0.0940
  638MPD2     N 9505   4.547   2.696  15.016  0.2814  0.4806  0.1698
  638MPD2    H5 9506   4.559   2.612  14.962  1.6373  0.2244  0.8789
  638MPD2    N1 9507   4.734   2.935  14.627  0.0365 -0.1379 -0.1169
  638MPD2    H7 9508   0.019   3.029  14.596  2.4364  0.1490  2.5710
  639TMC3    C1 9509   4.497   2.544  15.185  0.1663 -0.1033 -0.4405
  639TMC3    C2 9510   4.462   2.475  15.068 -0.0080  0.3233  0.0682
  639TMC3    C3 9511   4.526   2.354  15.041  0.1497 -0.6002 -0.2382
  639TMC3    C4 9512   4.593   2.494  15.266  0.9018  0.3420 -1.0584
  639TMC3    C5 9513   4.665   2.382  15.226  0.0179  0.2557 -0.1604
  639TMC3    C6 9514   4.637   2.311  15.111  0.1183  1.2090  0.3585
  639TMC3     C 9515   4.508   2.681  15.150  0.3418 -0.4128  0.7146
  639TMC3     O 9516   4.496   2.770  15.235 -0.4238 -0.9235  0.1418
  639TMC3     H 9517   4.389   2.514  14.999  0.6652  0.9558 -0.2783
  639TMC3    H1 9518   4.623   2.548  15.355 -0.2458 -1.2333  0.2939
  639TMC3    H2 9519   4.676   2.213  15.087 -0.4815  1.0236  0.1301
  639TMC3    C7 9520   0.062   2.367  15.265 -0.1593  0.7249 -0.7607
  639TMC3    C8 9521   4.477   2.261  14.943  0.5153  0.7865 -0.3862
  639TMC3    O1 9522   0.101   2.414  15.374 -0.1358  0.4265 -0.1474
  639TMC3    O2 9523   4.565   2.210  14.875 -0.3756 -0.5297 -0.3137
  640MPD2     C 9524   0.788   2.250   9.888  0.0222 -0.4139 -0.2074
  640MPD2    C1 9525   0.653   2.220   9.878  0.3276  0.3052  0.4653
  640MPD2    C2 9526   0.555   2.322   9.884  0.2383 -0.4222 -0.3130
  640MPD2    C3 9527   0.595   2.458   9.913 -0.0011 -0.0422 -0.2377
  640MPD2    C4 9528   0.729   2.479   9.932  0.0283 -0.1862  0.1586
  640MPD2    C5 9529   0.820   2.374   9.923  0.0862 -0.3389 -0.5135
  640MPD2     H 9530   0.449   2.303   9.872 -0.3389  2.2544  0.6324
  640MPD2    H1 9531   0.775   2.575   9.955  2.4370 -1.1173 -0.7193
  640MPD2    H2 9532   0.867   2.183   9.855 -2.8568 -2.2558 -3.2501
  640MPD2    H3 9533   0.923   2.404   9.933 -0.1444 -0.0263  0.9523
  640MPD2     N 9534   0.509   2.568   9.936  0.2513 -0.3859 -0.1894
  640MPD2    H5 9535   0.560   2.655   9.946  0.4193 -0.2722 -2.1353
  640MPD2    N1 9536   0.621   2.089   9.834  0.5280  0.3114  0.3505
  640MPD2    H7 9537   0.701   2.034   9.801  0.7943  1.1595 -0.4018
  641TMC3    C1 9538   0.489   1.893   9.797 -0.0584 -0.1874  0.3879
  641TMC3    C2 9539   0.604   1.818   9.806 -0.3174  0.0326  0.0448
  641TMC3    C3 9540   0.599   1.691   9.757 -0.0359  0.4157 -0.1910
  641TMC3    C4 9541   0.371   1.841   9.758  0.1532 -0.0259 -0.9738
  641TMC3    C5 9542   0.366   1.709   9.720  0.5374 -1.1950  0.7686
  641TMC3    C6 9543   0.484   1.629   9.726 -0.0076  0.9340  0.3558
  641TMC3     C 9544   0.491   2.037   9.831  0.6314 -0.0011  0.6623
  641TMC3     O 9545   0.385   2.094   9.847 -0.1662 -0.0926  0.1236
  641TMC3     H 9546   0.697   1.855   9.849  0.2597 -2.4886  1.0016
  641TMC3    H1 9547   0.279   1.897   9.745 -0.2928 -1.0118 -2.0834
  641TMC3    H2 9548   0.492   1.528   9.686 -0.3083  0.8161  0.5857
  641TMC3    C7 9549   0.252   1.641   9.662 -0.5239  0.7266 -0.5911
  641TMC3    C8 9550   0.718   1.607   9.749 -0.0207  0.2708  0.4796
  641TMC3    O1 9551   0.257   1.519   9.647  0.2682  0.0620  0.2429
  641TMC3    O2 9552   0.703   1.483   9.752 -0.0322 -0.2978  0.4171
  642TMC3    C1 9553   1.517   2.638  12.423 -0.2975  0.4018 -0.0340
  642TMC3    C2 9554   1.622   2.638  12.335 -0.4659  0.2053 -0.1047
  642TMC3    C3 9555   1.621   2.551  12.229 -0.4092 -0.3794 -0.0302
  642TMC3    C4 9556   1.409   2.548  12.408  0.1857  0.2778  0.1915
  642TMC3    C5 9557   1.426   2.453  12.308  0.4249  0.1862  0.3378
  642TMC3    C6 9558   1.518   2.470  12.206 -0.9941 -0.2066 -0.4894
  642TMC3     C 9559   1.513   2.741  12.534  0.3449 -0.2730  0.2802
  642TMC3     O 9560   1.617   2.801  12.562  0.3933  0.8447  0.5148
  642TMC3     H 9561   1.699   2.714  12.349 -0.6472  0.1611  1.1765
  642TMC3    H1 9562   1.319   2.551  12.469  0.1143  3.7454 -0.0730
  642TMC3    H2 9563   1.516   2.397  12.125 -0.3641  0.3908 -1.0402
  642TMC3    C7 9564   1.331   2.335  12.300 -0.1435  0.2378  0.2825
  642TMC3    C8 9565   1.738   2.566  12.132  0.4190  0.1702  0.2090
  642TMC3    O1 9566   1.334   2.262  12.202 -1.0987  0.4673 -0.1215
  642TMC3    O2 9567   1.723   2.540  12.014 -0.5148  0.0200  0.1165
  643TMC3    C1 9568   0.540   2.010  17.436 -0.9524  0.6019  0.7946
  643TMC3    C2 9569   0.423   1.969  17.376  0.2236  0.6373  0.1018
  643TMC3    C3 9570   0.432   1.899  17.258  0.2580 -0.6722 -0.3703
  643TMC3    C4 9571   0.663   1.974  17.398  0.3343 -0.6251  0.3852
  643TMC3    C5 9572   0.669   1.905  17.276  0.6887  0.2649  0.0896
  643TMC3    C6 9573   0.554   1.877  17.211  0.5967  0.1928  0.5065
  643TMC3     C 9574   0.528   2.068  17.568 -0.2011 -0.3842  0.1068
  643TMC3     O 9575   0.445   2.155  17.597  0.5024  0.1595  0.1633
  643TMC3     H 9576   0.322   1.989  17.409 -0.4415 -1.3827 -0.7166
  643TMC3    H1 9577   0.754   1.992  17.455  0.0590 -0.6813  0.8411
  643TMC3    H2 9578   0.552   1.853  17.105 -0.1158  0.0038  0.5653
  643TMC3    C7 9579   0.774   1.966  17.193  0.0078  0.0652  0.3673
  643TMC3    C8 9580   0.358   1.962  17.153 -0.3725 -0.2675  0.0820
  643TMC3    O1 9581   0.819   2.071  17.239 -0.4543 -0.1551 -0.0740
  643TMC3    O2 9582   0.334   1.898  17.051  0.0739 -0.1423  0.5275
  644MPD2     C 9583   0.799   1.756   9.394  0.0295 -0.2422  1.2093
  644MPD2    C1 9584   0.664   1.728   9.383  0.6628  0.2862  0.0500
  644MPD2    C2 9585   0.573   1.832   9.402 -0.3297  0.6909  0.0944
  644MPD2    C3 9586   0.611   1.963   9.419  1.2648 -0.1402  0.6253
  644MPD2    C4 9587   0.746   1.991   9.428  0.3816  0.0185  0.7585
  644MPD2    C5 9588   0.837   1.887   9.419 -0.1123  0.0997 -0.2070
  644MPD2     H 9589   0.469   1.802   9.391 -0.2739  0.8751 -0.9313
  644MPD2    H1 9590   0.782   2.091   9.450  0.2417 -0.5160  3.4309
  644MPD2    H2 9591   0.873   1.677   9.398 -1.3445 -1.6225 -0.4574
  644MPD2    H3 9592   0.942   1.904   9.443 -0.1528  0.2135 -0.1130
  644MPD2     N 9593   0.504   2.051   9.454 -0.2041 -0.4079 -0.6585
  644MPD2    H5 9594   0.415   2.005   9.442  0.2968 -1.3320 -0.8809
  644MPD2    N1 9595   0.639   1.596   9.363 -0.0197 -0.1439 -0.0945
  644MPD2    H7 9596   0.724   1.542   9.358 -0.9943 -1.7090  0.4643
  645TMC3    C1 9597   0.404   2.249   9.530 -0.9081 -1.0936 -0.7351
  645TMC3    C2 9598   0.413   2.385   9.547  0.3601  0.2826  0.1971
  645TMC3    C3 9599   0.301   2.444   9.607  0.1746 -0.2150 -0.4882
  645TMC3    C4 9600   0.298   2.175   9.569 -0.4122 -0.1498 -0.3762
  645TMC3    C5 9601   0.199   2.236   9.638  0.3073  0.2422  0.7591
  645TMC3    C6 9602   0.202   2.372   9.663  0.3123  0.0652  0.1853
  645TMC3     C 9603   0.523   2.183   9.485  0.0139  0.2125 -0.6032
  645TMC3     O 9604   0.616   2.258   9.457  0.0990 -0.4984  0.3376
  645TMC3     H 9605   0.483   2.439   9.484  1.1560 -0.9154  0.0425
  645TMC3    H1 9606   0.293   2.067   9.553 -0.3715 -0.4640  1.6871
  645TMC3    H2 9607   0.133   2.432   9.721 -0.0658  0.2124 -0.4207
  645TMC3    C7 9608   0.118   2.152   9.730 -0.1414  0.4653  0.4491
  645TMC3    C8 9609   0.279   2.590   9.608 -0.0461 -0.4439 -0.1520
  645TMC3    O1 9610   0.102   2.036   9.710 -0.1107 -0.0534 -0.3188
  645TMC3    O2 9611   0.163   2.632   9.605 -0.0070 -0.0284 -0.1180
  646MPD2     C 9612   0.092   1.414  14.460 -0.6136  0.8670 -0.0923
  646MPD2    C1 9613   0.064   1.509  14.553 -0.2737 -0.0228  0.9179
  646MPD2    C2 9614   0.005   1.630  14.516  0.0413 -0.2055  0.5349
  646MPD2    C3 9615   4.715   1.643  14.376  0.1789 -0.5456  0.7957
  646MPD2    C4 9616   0.013   1.546  14.286  0.3372 -0.6878  0.0413
  646MPD2    C5 9617   0.061   1.429  14.329  1.2491 -0.0030 -0.5287
  646MPD2     H 9618   4.712   1.704  14.588  2.6247  0.2511  1.2475
  646MPD2    H1 9619   0.003   1.551  14.178  0.1773  0.4283  0.1084
  646MPD2    H2 9620   0.136   1.321  14.494 -1.6519 -0.0554 -1.2729
  646MPD2    H3 9621   0.087   1.356  14.253  0.9252  0.8330 -1.4474
  646MPD2     N 9622   4.650   1.766  14.341  0.6061  0.2896  0.1567
  646MPD2    H5 9623   4.650   1.826  14.423  0.8156  1.2202 -0.5306
  646MPD2    N1 9624   0.105   1.483  14.687  0.6130  0.1081  0.0493
  646MPD2    H7 9625   0.167   1.406  14.711  1.1382  0.3550 -0.4936
  647TMC3    C1 9626   0.145   1.520  14.923 -0.1804  0.4216 -0.1102
  647TMC3    C2 9627   0.090   1.551  15.047 -0.4584 -0.1828  0.0467
  647TMC3    C3 9628   0.168   1.544  15.152  0.1171  0.0810 -0.3346
  647TMC3    C4 9629   0.276   1.481  14.911 -0.4731 -0.4017  0.3990
  647TMC3    C5 9630   0.348   1.480  15.029  0.2931 -0.0975 -0.8013
  647TMC3    C6 9631   0.299   1.503  15.155 -0.4235  0.1819 -0.5657
  647TMC3     C 9632   0.074   1.558  14.799 -0.1185 -0.0109  0.4721
  647TMC3     O 9633   0.001   1.659  14.815 -0.1894 -0.2422 -0.6196
  647TMC3     H 9634   4.730   1.593  15.060  0.2820  1.3491  0.9076
  647TMC3    H1 9635   0.322   1.469  14.814  0.2830 -0.6625  0.7888
  647TMC3    H2 9636   0.368   1.504  15.239 -0.8362 -1.2866 -0.2002
  647TMC3    C7 9637   0.464   1.396  15.029 -0.3060  0.6063 -0.2489
  647TMC3    C8 9638   0.112   1.591  15.279 -0.2086  0.1979 -0.2020
  647TMC3    O1 9639   0.538   1.396  15.125  0.6660 -0.6205 -0.3261
  647TMC3    O2 9640   0.005   1.656  15.278 -0.2618  0.2959  0.3917
  648TMC3    C1 9641   4.038   4.325  15.992  0.4141 -0.4391  0.2563
  648TMC3    C2 9642   4.021   4.201  15.931  1.1298 -0.4726 -0.0581
  648TMC3    C3 9643   3.980   4.202  15.801 -0.1973 -0.4830 -0.1936
  648TMC3    C4 9644   4.001   4.440  15.932 -0.0399  0.1030  0.0136
  648TMC3    C5 9645   3.953   4.432  15.803 -0.2129  0.3238  0.0861
  648TMC3    C6 9646   3.947   4.315  15.733  0.0465  0.0399 -0.4984
  648TMC3     C 9647   4.050   4.331  16.143  0.3861  0.6894 -0.0254
  648TMC3     O 9648   4.088   4.440  16.186  0.2287  0.5571  0.3011
  648TMC3     H 9649   4.061   4.115  15.983 -0.4070  0.2751  2.3717
  648TMC3    H1 9650   4.018   4.533  15.984 -0.7187 -0.6984  1.6720
  648TMC3    H2 9651   3.916   4.313  15.629  2.1241  0.2221 -1.1340
  648TMC3    C7 9652   3.880   4.550  15.740  0.3121  0.8337 -0.2892
  648TMC3    C8 9653   3.947   4.076  15.735  0.3864 -0.2333 -0.6493
  648TMC3    O1 9654   3.860   4.549  15.623  0.3819 -0.2964  0.3663
  648TMC3    O2 9655   3.859   4.086  15.649 -0.6305  0.7584 -0.0734
  649TMC3    C1 9656   3.660   0.542  12.974  0.1663 -1.2065 -0.7198
  649TMC3    C2 9657   3.785   0.598  12.999 -0.4143  0.1515 -0.4298
  649TMC3    C3 9658   3.836   0.558  13.123 -0.1434 -0.3459  0.2032
  649TMC3    C4 9659   3.600   0.456  13.058 -0.0717 -0.3770  0.5863
  649TMC3    C5 9660   3.659   0.415  13.174 -0.1223  0.1138 -0.5107
  649TMC3    C6 9661   3.780   0.468  13.213 -0.2013  0.5873 -0.4178
  649TMC3     C 9662   3.624   0.522  12.835 -0.6087 -0.4531 -0.8013
  649TMC3     O 9663   3.511   0.552  12.799  0.1077 -0.0159  0.1068
  649TMC3     H 9664   3.829   0.679  12.942  0.4913 -0.6524 -0.8849
  649TMC3    H1 9665   3.523   0.398  13.007  0.8809 -2.2985  1.3279
  649TMC3    H2 9666   3.816   0.448  13.313 -0.8061  0.0896 -0.3011
  649TMC3    C7 9667   3.633   0.291  13.236  0.3982  0.1307 -0.7966
  649TMC3    C8 9668   3.948   0.632  13.178 -0.1575 -0.1571  0.8229
  649TMC3    O1 9669   3.725   0.232  13.291 -0.6430  0.1392  0.0245
  649TMC3    O2 9670   4.017   0.575  13.261 -0.7900 -0.0072  0.5951
  650TMC3    C1 9671   0.595   2.035  12.533  0.3472 -0.5738  0.0197
  650TMC3    C2 9672   0.515   2.134  12.571  0.6215  0.0690  0.3777
  650TMC3    C3 9673   0.487   2.237  12.486 -0.0856 -0.0314  1.0956
  650TMC3    C4 9674   0.654   2.038  12.416  0.8020 -0.4298  0.0658
  650TMC3    C5 9675   0.634   2.146  12.326 -0.7460 -0.5275  0.5505
  650TMC3    C6 9676   0.544   2.246  12.364 -0.1002  0.3246  0.0778
  650TMC3     C 9677   0.558   1.904  12.588 -0.7751 -0.1716  0.2709
  650TMC3     O 9678   0.466   1.908  12.667  0.1911  0.2423 -0.3375
  650TMC3     H 9679   0.470   2.137  12.669 -0.5287 -2.9513 -0.0532
  650TMC3    H1 9680   0.717   1.957  12.381 -0.3109 -0.8153 -1.0460
  650TMC3    H2 9681   0.513   2.324  12.296  1.3295  0.7654 -0.0845
  650TMC3    C7 9682   0.752   2.206  12.256  0.5722  0.0579 -0.3128
  650TMC3    C8 9683   0.465   2.360  12.556 -0.5010  0.1733 -0.0425
  650TMC3    O1 9684   0.846   2.141  12.221  0.1626 -0.0652 -0.6355
  650TMC3    O2 9685   0.528   2.376  12.658 -0.3644  0.7479 -0.2169
  651MPD2     C 9686   4.464   4.140  10.132 -0.1857  0.2278  0.3169
  651MPD2    C1 9687   4.466   4.253  10.212 -0.7014 -0.2280  0.2347
  651MPD2    C2 9688   4.582   4.331  10.220 -0.1931  0.5633 -0.5669
  651MPD2    C3 9689   4.698   4.291  10.152  0.0294 -0.2282  0.7855
  651MPD2    C4 9690   4.702   4.174  10.083  0.5124  0.5387 -0.3584
  651MPD2    C5 9691   4.589   4.101  10.078 -0.0679 -0.0607  0.8057
  651MPD2     H 9692   4.593   4.412  10.292 -1.1407  0.6664 -0.5447
  651MPD2    H1 9693   0.050   4.139  10.028  0.0061  1.2993 -1.6443
  651MPD2    H2 9694   4.384   4.067  10.128 -0.6921  0.7623  0.8366
  651MPD2    H3 9695   4.595   4.004  10.030  0.6685 -0.0888  0.9443
  651MPD2     N 9696   0.067   4.374  10.176  0.0791  0.1329 -0.5136
  651MPD2    H5 9697   0.057   4.442  10.251  1.4225 -1.5404  1.1788
  651MPD2    N1 9698   4.361   4.308  10.285 -0.1550 -0.0402 -0.2305
  651MPD2    H7 9699   4.372   4.399  10.329 -1.3002  0.3702 -0.7892
  652TMC3    C1 9700   0.487   4.448  10.336 -0.1547  0.0326 -0.4815
  652TMC3    C2 9701   0.412   4.373  10.254 -0.0757  0.2948  0.2078
  652TMC3    C3 9702   0.284   4.430  10.218  0.5583  0.1737 -0.7515
  652TMC3    C4 9703   0.440   4.561  10.394 -0.1616  0.6746  0.5135
  652TMC3    C5 9704   0.315   4.609  10.364  0.4172 -0.0872 -0.6792
  652TMC3    C6 9705   0.233   4.545  10.269 -0.5643 -0.1562 -0.6327
  652TMC3     C 9706   0.605   4.395  10.411  1.1776 -0.3558 -0.2479
  652TMC3     O 9707   0.609   4.438  10.523 -0.5085 -0.4510 -0.1664
  652TMC3     H 9708   0.450   4.276  10.227 -1.3174 -0.3626  0.8245
  652TMC3    H1 9709   0.506   4.609  10.464  0.7842  0.9199 -0.5503
  652TMC3    H2 9710   0.134   4.582  10.245 -0.5701  0.7996  0.8554
  652TMC3    C7 9711   0.284   0.015  10.373  0.0922  0.4322  0.3492
  652TMC3    C8 9712   0.193   4.351  10.135 -0.3739 -0.5436  0.0902
  652TMC3    O1 9713   0.167   0.049  10.353 -0.1074  0.2205 -0.0367
  652TMC3    O2 9714   0.241   4.258  10.069  0.2188  0.1745 -0.5563
  653MPD2     C 9715   3.320   4.103  17.734 -0.2662 -0.4129  0.0768
  653MPD2    C1 9716   3.224   4.180  17.678  0.1087 -0.4034 -0.6748
  653MPD2    C2 9717   3.118   4.119  17.612 -0.4410 -0.1821 -0.7999
  653MPD2    C3 9718   3.124   3.984  17.590 -0.1825 -0.2331 -0.2663
  653MPD2    C4 9719   3.225   3.904  17.647 -0.7520  0.1448 -0.1948
  653MPD2    C5 9720   3.319   3.970  17.717  0.0803  0.4920 -0.2844
  653MPD2     H 9721   3.045   4.181  17.560 -1.3554 -0.2462  0.3983
  653MPD2    H1 9722   3.231   3.796  17.641 -0.0259  0.2705 -1.7360
  653MPD2    H2 9723   3.392   4.155   0.040 -1.4564  0.5345  0.6709
  653MPD2    H3 9724   3.393   3.917   0.021 -1.2241 -1.2266 -0.1997
  653MPD2     N 9725   3.029   3.923  17.514  0.2438 -0.2175  0.9263
  653MPD2    H5 9726   2.964   3.992  17.477  0.6211 -1.3547 -1.8528
  653MPD2    N1 9727   3.212   4.325  17.696 -0.4065  0.0711 -0.1021
  653MPD2    H7 9728   3.124   4.367  17.669 -1.1575 -0.3076  1.7518
  654TMC3    C1 9729   2.926   3.753  17.367 -0.4414  0.0411  0.9318
  654TMC3    C2 9730   2.887   3.856  17.283 -0.0719 -0.4695  0.3709
  654TMC3    C3 9731   2.838   3.825  17.155  0.5228  0.4470 -0.9175
  654TMC3    C4 9732   2.920   3.622  17.333 -0.3103 -0.6182  0.1740
  654TMC3    C5 9733   2.864   3.595  17.206  0.2124  0.3230 -1.3971
  654TMC3    C6 9734   2.830   3.694  17.116 -0.8380 -0.2559 -0.0916
  654TMC3     C 9735   3.023   3.784  17.478 -0.1550  0.2957  0.0270
  654TMC3     O 9736   3.083   3.686  17.523  0.1434  0.2112 -0.0836
  654TMC3     H 9737   2.887   3.960  17.315 -1.7823 -0.5680  0.7192
  654TMC3    H1 9738   2.954   3.544  17.400 -0.0804 -0.9977 -0.3846
  654TMC3    H2 9739   2.801   3.672  17.014  1.1546  0.7231 -0.8677
  654TMC3    C7 9740   2.875   3.469  17.138  0.6065  0.2683  0.0043
  654TMC3    C8 9741   2.774   3.933  17.082  0.3928  0.4065 -0.0343
  654TMC3    O1 9742   2.787   3.455  17.051 -0.2792  0.1822 -0.4561
  654TMC3    O2 9743   2.750   4.036  17.145  0.0031 -0.7301 -0.1246
  655MPD2     C 9744   4.362   4.347  15.780 -0.4840 -0.1728 -0.3390
  655MPD2    C1 9745   4.316   4.443  15.697  0.1102 -0.5317  0.6402
  655MPD2    C2 9746   4.299   4.409  15.564 -0.0154  0.3595  0.4629
  655MPD2    C3 9747   4.318   4.283  15.510 -0.4994 -0.7884 -0.1316
  655MPD2    C4 9748   4.364   4.188  15.590  0.4517 -0.3656 -0.2267
  655MPD2    C5 9749   4.378   4.216  15.727 -0.3121  0.7006 -0.1148
  655MPD2     H 9750   4.258   4.492  15.507 -0.3110 -0.0677  0.0563
  655MPD2    H1 9751   4.385   4.086  15.558  1.3316  0.0070 -0.8205
  655MPD2    H2 9752   4.384   4.358  15.886  0.1886 -0.4493 -0.4469
  655MPD2    H3 9753   4.397   4.133  15.796  0.1032  0.4722 -0.5031
  655MPD2     N 9754   4.293   4.256  15.375 -0.2186  0.0984  0.1036
  655MPD2    H5 9755   4.315   4.160  15.349  1.2704  0.5313 -0.2322
  655MPD2    N1 9756   4.296   4.577  15.737 -0.3736  0.0874  0.5017
  655MPD2    H7 9757   4.258   4.642  15.670  3.6076 -0.1225 -1.9352
  656TMC3    C1 9758   4.234   0.005  15.891  0.1528  0.5110 -0.3346
  656TMC3    C2 9759   4.179   0.025  16.014  0.1972 -0.0086 -0.4739
  656TMC3    C3 9760   4.091   0.129  16.026 -0.3037 -0.1616 -0.3456
  656TMC3    C4 9761   4.229   0.103  15.790 -0.6009 -0.0003 -0.1240
  656TMC3    C5 9762   4.139   0.210  15.813 -0.8742 -0.1985 -0.4106
  656TMC3    C6 9763   4.057   0.214  15.928  0.2585 -0.1137 -0.3977
  656TMC3     C 9764   4.298   4.617  15.871  0.3369 -0.2262 -0.3083
  656TMC3     O 9765   4.323   4.555  15.974  0.5621  0.0324  0.2126
  656TMC3     H 9766   4.182   4.692  16.094 -2.2333 -1.7393 -1.9444
  656TMC3    H1 9767   4.282   0.093  15.697 -1.3863  0.1323 -0.5873
  656TMC3    H2 9768   3.971   0.280  15.938 -1.2091 -2.1693  0.5061
  656TMC3    C7 9769   4.103   0.276  15.687 -0.1728  0.1740 -0.2798
  656TMC3    C8 9770   3.989   0.106  16.122 -0.0482  0.0360 -1.1159
  656TMC3    O1 9771   4.157   0.253  15.582  0.3612 -0.5498 -0.3449
  656TMC3    O2 9772   3.951   4.731  16.135  0.0619  0.0405 -0.1423
  657TMC3    C1 9773   3.260   3.857  15.147 -0.4454 -0.0331  0.0308
  657TMC3    C2 9774   3.345   3.909  15.246  0.1219 -0.1829 -0.5142
  657TMC3    C3 9775   3.291   3.973  15.353 -0.2561  0.3185  0.0359
  657TMC3    C4 9776   3.125   3.899  15.157  0.3353  0.3005 -0.4179
  657TMC3    C5 9777   3.077   3.958  15.272 -0.1089  0.0048 -0.2843
  657TMC3    C6 9778   3.156   4.000  15.374  0.3614 -0.1961  1.2059
  657TMC3     C 9779   3.296   3.825  15.012  0.0559  0.2346 -0.3439
  657TMC3     O 9780   3.207   3.843  14.929  0.5934  0.3460 -0.5390
  657TMC3     H 9781   3.451   3.890  15.238  0.0659 -1.1572  1.1596
  657TMC3    H1 9782   3.054   3.856  15.087 -0.9090 -1.0562  1.6785
  657TMC3    H2 9783   3.111   4.047  15.460 -1.5032 -0.6471  0.4671
  657TMC3    C7 9784   2.931   3.968  15.285  0.4535 -0.5537 -0.2967
  657TMC3    C8 9785   3.383   3.975  15.464  0.8622 -0.5656  0.1144
  657TMC3    O1 9786   2.880   3.972  15.396 -0.3946 -0.6668 -0.0437
  657TMC3    O2 9787   3.500   3.941  15.442 -0.0469 -0.4655  0.2097
  658MPD2     C 9788   4.699   3.964  14.976 -0.4504 -1.1084 -0.6905
  658MPD2    C1 9789   4.585   3.968  14.905  0.2789 -0.1785  0.0730
  658MPD2    C2 9790   4.582   3.899  14.783 -0.1590  0.1409  0.3846
  658MPD2    C3 9791   4.694   3.831  14.735 -0.3329  0.6101 -0.6557
  658MPD2    C4 9792   0.076   3.834  14.811  0.1553 -0.8914  1.0797
  658MPD2    C5 9793   0.072   3.897  14.933  0.1126 -0.8673  0.1961
  658MPD2     H 9794   4.490   3.909  14.726  1.2895  3.1950 -1.4284
  658MPD2    H1 9795   0.172   3.795  14.778  0.2474  0.4190 -0.2062
  658MPD2    H2 9796   4.709   4.032  15.060  0.9038 -1.3860 -0.6297
  658MPD2    H3 9797   0.156   3.898  15.001 -0.4400  1.0939  0.8428
  658MPD2     N 9798   4.673   3.768  14.613 -0.5073 -0.0847  0.5725
  658MPD2    H5 9799   4.575   3.766  14.587 -0.5001 -0.1256  0.5493
  658MPD2    N1 9800   4.472   4.035  14.960 -0.0798 -0.0608 -0.2769
  658MPD2    H7 9801   4.481   4.071  15.055  0.4901  0.0631 -0.3759
  659TMC3    C1 9802   4.260   4.141  14.976 -0.3958 -0.3186  0.2257
  659TMC3    C2 9803   4.292   4.197  15.099 -0.2055 -0.1859  0.8879
  659TMC3    C3 9804   4.191   4.259  15.166  0.8492  0.2884  0.3048
  659TMC3    C4 9805   4.136   4.151  14.925  1.2660 -0.5940  0.2375
  659TMC3    C5 9806   4.048   4.228  14.989 -0.4780 -0.0201 -0.6700
  659TMC3    C6 9807   4.075   4.294  15.105  0.6395 -0.4059 -0.2885
  659TMC3     C 9808   4.356   4.062  14.900 -0.6719 -0.1712  0.1838
  659TMC3     O 9809   4.322   4.014  14.794 -0.0794  0.2614 -0.1112
  659TMC3     H 9810   4.393   4.190  15.137  0.2061 -1.4782 -0.4478
  659TMC3    H1 9811   4.114   4.106  14.829  1.3541  1.2184 -0.6300
  659TMC3    H2 9812   4.001   4.356  15.153 -0.9496 -1.1538 -1.7655
  659TMC3    C7 9813   3.911   4.240  14.949 -0.3648  1.0457 -0.1020
  659TMC3    C8 9814   4.215   4.326  15.292  0.0828  0.5878 -0.2496
  659TMC3    O1 9815   3.842   4.326  15.007 -0.3419 -0.2874 -0.4286
  659TMC3    O2 9816   4.166   4.435  15.304  0.2216 -0.1288  0.2437
  660MPD2     C 9817   2.631   3.093  12.565  0.3820 -0.3038 -0.0999
  660MPD2    C1 9818   2.506   3.023  12.537  0.5624 -0.0799 -0.3439
  660MPD2    C2 9819   2.445   2.956  12.643 -0.3680  0.3386 -0.4729
  660MPD2    C3 9820   2.482   2.981  12.772 -0.4224  0.7427  0.2401
  660MPD2    C4 9821   2.598   3.056  12.801  0.2451  0.3964  0.5227
  660MPD2    C5 9822   2.667   3.111  12.698  0.5890  1.0022  0.7742
  660MPD2     H 9823   2.359   2.894  12.623 -2.2104  2.5814  0.3952
  660MPD2    H1 9824   2.630   3.066  12.904 -2.2678  0.3650  1.3027
  660MPD2    H2 9825   2.703   3.139  12.498  0.9127 -0.5733  0.2849
  660MPD2    H3 9826   2.759   3.156  12.735 -0.0335  2.6929  0.2648
  660MPD2     N 9827   2.415   2.932  12.882  0.4159  0.0008  0.1102
  660MPD2    H5 9828   2.429   2.980  12.971  0.5602  1.2862 -0.6056
  660MPD2    N1 9829   2.460   3.030  12.403  0.2733 -0.2571 -0.5787
  660MPD2    H7 9830   2.524   3.077  12.339  0.4659  2.4594  1.6335
  661TMC3    C1 9831   2.305   3.020  12.229 -0.7111 -0.4177 -0.4449
  661TMC3    C2 9832   2.397   3.025  12.133  0.3266 -0.4672 -0.0783
  661TMC3    C3 9833   2.367   3.094  12.011  0.7590 -0.1984  0.2662
  661TMC3    C4 9834   2.175   3.051  12.200  0.2314 -0.3406  0.7603
  661TMC3    C5 9835   2.147   3.098  12.076  0.3774  0.4811 -0.7884
  661TMC3    C6 9836   2.240   3.127  11.983 -0.6588  0.0524  0.5145
  661TMC3     C 9837   2.332   2.989  12.362 -0.6330  0.4097  0.0682
  661TMC3     O 9838   2.238   2.942  12.427  0.4570 -0.5385  0.0169
  661TMC3     H 9839   2.494   2.981  12.154  0.6447 -0.1517 -0.8467
  661TMC3    H1 9840   2.097   3.047  12.274 -0.9906  0.5835 -0.4873
  661TMC3    H2 9841   2.221   3.176  11.887  0.6154  2.6263  1.5719
  661TMC3    C7 9842   2.002   3.126  12.055  0.0598 -0.4056 -0.8480
  661TMC3    C8 9843   2.478   3.101  11.913  0.2658  0.1846 -0.9056
  661TMC3    O1 9844   1.940   3.164  12.152 -0.1158 -0.1414 -0.0730
  661TMC3    O2 9845   2.591   3.096  11.959 -0.3116 -0.0855 -0.3861
  662MPD2     C 9846   3.272   2.925  17.539  1.0207 -1.4260 -0.4453
  662MPD2    C1 9847   3.195   2.902  17.430 -0.2299 -0.2282 -0.3344
  662MPD2    C2 9848   3.088   2.983  17.409  0.0566  0.2211  0.0889
  662MPD2    C3 9849   3.052   3.088  17.500  0.4781 -0.0201 -0.1757
  662MPD2    C4 9850   3.139   3.113  17.606  1.1496 -0.2464  0.0164
  662MPD2    C5 9851   3.246   3.027  17.624  0.0780 -1.0121  0.2744
  662MPD2     H 9852   3.031   2.969  17.318  1.0686  0.4726 -0.5887
  662MPD2    H1 9853   3.124   3.186  17.685 -1.7646  0.1603 -0.9245
  662MPD2    H2 9854   3.355   2.858  17.557  1.0552 -1.2563  0.0229
  662MPD2    H3 9855   3.306   3.036  17.713 -2.1088 -2.7893  1.9413
  662MPD2     N 9856   2.937   3.166  17.491  0.3816  0.4569  0.3749
  662MPD2    H5 9857   2.921   3.236  17.562 -0.0530  0.1679  0.5545
  662MPD2    N1 9858   3.210   2.787  17.339 -0.1377 -0.4297 -0.2258
  662MPD2    H7 9859   3.144   2.779  17.263  0.8351  0.0813 -1.1157
  663TMC3    C1 9860   3.276   2.573  17.271 -0.1547 -0.4947  0.2253
  663TMC3    C2 9861   3.202   2.596  17.159  0.4331 -0.0242  0.1042
  663TMC3    C3 9862   3.126   2.503  17.104 -0.5984 -0.1984  0.3103
  663TMC3    C4 9863   3.266   2.457  17.335  0.8367 -0.0545 -0.5467
  663TMC3    C5 9864   3.178   2.364  17.281  0.0939 -0.7878  1.6228
  663TMC3    C6 9865   3.091   2.393  17.180  0.3396  0.3289  0.1431
  663TMC3     C 9866   3.311   2.688  17.359 -0.9019 -0.1023 -0.8056
  663TMC3     O 9867   3.386   2.669  17.450 -0.0861  0.1483 -0.7189
  663TMC3     H 9868   3.228   2.678  17.092 -2.1892  0.5682 -0.1812
  663TMC3    H1 9869   3.317   2.438  17.430 -0.7026  1.2798  0.5415
  663TMC3    H2 9870   3.033   2.314  17.132 -0.7579  0.6563  0.9315
  663TMC3    C7 9871   3.195   2.224  17.336  0.2798  0.7821 -0.0397
  663TMC3    C8 9872   3.009   2.571  17.066  0.0485 -0.3279  0.1606
  663TMC3    O1 9873   3.302   2.187  17.378 -0.4012  0.4789 -0.5577
  663TMC3    O2 9874   3.015   2.666  16.989  0.2889 -0.2176 -0.2296
  664MPD2     C 9875   1.026   0.922  17.400  0.2951 -0.4470  0.1337
  664MPD2    C1 9876   1.029   1.046  17.459  0.8801  0.3949 -0.0334
  664MPD2    C2 9877   0.922   1.066  17.547 -0.2233  0.0613  0.0146
  664MPD2    C3 9878   0.816   0.980  17.582  0.1538 -0.2628 -0.4018
  664MPD2    C4 9879   0.826   0.861  17.521  0.2310  0.1091  0.3706
  664MPD2    C5 9880   0.929   0.839  17.437  0.5181  0.2996  0.0775
  664MPD2     H 9881   0.922   1.152  17.612  0.3988  0.2151 -0.1889
  664MPD2    H1 9882   0.754   0.784  17.546 -0.0949  0.4558  0.5019
  664MPD2    H2 9883   1.092   0.884  17.323 -0.1274 -2.9386  1.0056
  664MPD2    H3 9884   0.935   0.745  17.383  1.8793  0.4942 -0.1184
  664MPD2     N 9885   0.739   1.012  17.699  0.3113  0.1540  0.1599
  664MPD2    H5 9886   0.741   1.108  17.729 -1.2960  0.0913  0.4395
  664MPD2    N1 9887   1.129   1.141  17.433  0.3958  0.0889 -0.0673
  664MPD2    H7 9888   1.110   1.231  17.477 -1.0081 -0.0697 -0.3667
  665TMC3    C1 9889   0.596   0.973   0.134  0.1388 -0.2046 -0.0332
  665TMC3    C2 9890   0.562   0.880   0.223 -0.2289 -0.2420  0.3154
  665TMC3    C3 9891   0.541   0.924   0.348  0.2712  0.5405 -0.0199
  665TMC3    C4 9892   0.600   1.104   0.158 -0.1025  0.0595 -0.2202
  665TMC3    C5 9893   0.576   1.152   0.288  0.3098 -0.0528  0.0471
  665TMC3    C6 9894   0.543   1.057   0.382  0.4599  0.6147  0.3258
  665TMC3     C 9895   0.671   0.919   0.018  0.0656  0.0327 -0.1661
  665TMC3     O 9896   0.685   0.798   0.019 -0.2855 -0.3220  0.1947
  665TMC3     H 9897   0.541   0.778   0.193 -0.7896 -0.1622  0.4364
  665TMC3    H1 9898   0.626   1.175   0.080 -1.1101  0.8777  0.1788
  665TMC3    H2 9899   0.534   1.084   0.486 -0.0350  0.0420  0.4296
  665TMC3    C7 9900   0.576   1.296   0.323 -0.1105  0.4546 -0.2166
  665TMC3    C8 9901   0.517   0.820   0.453  0.5089  0.5778 -0.0196
  665TMC3    O1 9902   0.570   1.378   0.238  0.0263  0.0966  0.1522
  665TMC3    O2 9903   0.470   0.862   0.559  0.1571  0.0539  0.0590
  666TMC3    C1 9904   0.391   1.572  10.095  0.0924 -0.1237  0.4725
  666TMC3    C2 9905   0.488   1.478  10.069 -0.2299  0.0628 -0.3027
  666TMC3    C3 9906   0.617   1.515  10.106  0.5934 -0.0823 -0.3612
  666TMC3    C4 9907   0.411   1.693  10.152  0.2158 -0.5635  0.1029
  666TMC3    C5 9908   0.540   1.727  10.171 -0.0945  0.0302  0.4718
  666TMC3    C6 9909   0.643   1.639  10.147  0.6080 -0.0767 -0.2184
  666TMC3     C 9910   0.252   1.542  10.057 -0.3030 -1.0218  0.2875
  666TMC3     O 9911   0.228   1.427  10.021 -0.2420  0.5520 -0.2103
  666TMC3     H 9912   0.462   1.379  10.034 -0.8814  0.3361 -0.5958
  666TMC3    H1 9913   0.332   1.750  10.199  1.0271  0.7225 -0.0803
  666TMC3    H2 9914   0.742   1.678  10.171  1.6268 -1.1274 -2.7153
  666TMC3    C7 9915   0.576   1.865  10.173 -0.1042  0.7221 -0.6977
  666TMC3    C8 9916   0.726   1.416  10.090 -0.2023 -0.0773  0.1604
  666TMC3    O1 9917   0.667   1.899  10.101 -0.0323 -0.5505 -0.0916
  666TMC3    O2 9918   0.692   1.304  10.061  0.3469 -0.2240  0.0409
  667MPD2     C 9919   1.689   0.313  14.635  0.3915  0.0695  0.9870
  667MPD2    C1 9920   1.594   0.408  14.678 -0.4084  0.3533  0.0524
  667MPD2    C2 9921   1.463   0.375  14.656 -0.2848  0.5425 -0.0169
  667MPD2    C3 9922   1.417   0.271  14.580  0.2073 -0.4211 -0.0975
  667MPD2    C4 9923   1.507   0.178  14.537 -0.6229 -0.1893  0.3513
  667MPD2    C5 9924   1.640   0.198  14.563  0.0024 -0.1933  0.4870
  667MPD2     H 9925   1.400   0.451  14.700 -0.3432 -1.5152  3.4369
  667MPD2    H1 9926   1.494   0.086  14.480 -0.5427  0.2545 -0.3808
  667MPD2    H2 9927   1.796   0.328  14.647  0.6085 -0.5905 -0.1241
  667MPD2    H3 9928   1.703   0.128  14.509 -2.1203 -0.4273 -1.7270
  667MPD2     N 9929   1.282   0.237  14.554  0.4813  0.1097  0.1067
  667MPD2    H5 9930   1.264   0.148  14.510 -0.9609  0.3013  0.2904
  667MPD2    N1 9931   1.631   0.528  14.751 -0.1627 -0.1661 -0.1504
  667MPD2    H7 9932   1.551   0.570  14.797  0.7206 -0.8038  1.9752
  668TMC3    C1 9933   1.760   0.682  14.867 -0.2358  0.5308 -0.2177
  668TMC3    C2 9934   1.884   0.752  14.845 -0.7369  0.6203 -0.3239
  668TMC3    C3 9935   1.925   0.837  14.950 -0.4502 -0.6281  1.0222
  668TMC3    C4 9936   1.686   0.685  14.984  0.0748 -0.5392 -0.5152
  668TMC3    C5 9937   1.740   0.769  15.081  0.0210  0.8791  0.1547
  668TMC3    C6 9938   1.860   0.839  15.066 -0.0090 -0.1751 -0.3459
  668TMC3     C 9939   1.755   0.586  14.761 -0.0482  0.7384 -0.0575
  668TMC3     O 9940   1.861   0.551  14.713  0.0491 -0.5509 -0.3920
  668TMC3     H 9941   1.933   0.760  14.749 -2.8227 -1.3471 -1.5524
  668TMC3    H1 9942   1.595   0.627  14.992 -0.9537  0.9912 -1.1893
  668TMC3    H2 9943   1.894   0.897  15.151  0.2827 -0.1810 -0.4576
  668TMC3    C7 9944   1.689   0.750  15.214 -0.5971  0.4358 -0.4231
  668TMC3    C8 9945   2.026   0.943  14.947 -0.8179 -0.7312 -0.7473
  668TMC3    O1 9946   1.765   0.785  15.302 -0.5623 -0.1943  0.1274
  668TMC3    O2 9947   2.010   1.033  15.032 -0.5639 -0.5231 -0.3556
  669TMC3    C1 9948   4.404   0.772  14.833  0.5174  0.2214  0.1436
  669TMC3    C2 9949   4.271   0.774  14.797  0.0398 -0.2492  0.3821
  669TMC3    C3 9950   4.242   0.826  14.672 -0.2909  0.5191  0.3394
  669TMC3    C4 9951   4.507   0.808  14.751 -0.4660  0.5041 -0.6917
  669TMC3    C5 9952   4.475   0.843  14.627  0.2571 -0.9804 -0.8023
  669TMC3    C6 9953   4.344   0.863  14.584 -0.0521 -0.2237 -0.9760
  669TMC3     C 9954   4.437   0.729  14.968  0.5534  0.3905 -0.5162
  669TMC3     O 9955   4.370   0.779  15.060 -0.3442  0.0200 -0.1113
  669TMC3     H 9956   4.199   0.747  14.874  1.2304  0.8814  1.9112
  669TMC3    H1 9957   4.609   0.793  14.784  0.2991  2.2478 -2.2347
  669TMC3    H2 9958   4.325   0.894  14.481 -0.2679 -0.3891 -0.9848
  669TMC3    C7 9959   4.583   0.907  14.559  0.6452  0.5977 -0.3854
  669TMC3    C8 9960   4.109   0.831  14.612 -0.3086 -0.1927  0.0683
  669TMC3    O1 9961   4.683   0.926  14.625 -0.4090 -0.0114  0.5931
  669TMC3    O2 9962   4.106   0.852  14.492  0.6021 -0.0043 -0.1559
  670MPD2     C 9963   2.797   3.016  14.221  0.5853 -0.1049  0.1997
  670MPD2    C1 9964   2.826   2.929  14.115  0.6237 -0.7717  1.1697
  670MPD2    C2 9965   2.762   2.809  14.105 -0.1311  0.3767  0.3239
  670MPD2    C3 9966   2.681   2.766  14.201 -0.1002 -0.0060 -0.1679
  670MPD2    C4 9967   2.646   2.851  14.310  0.2123 -0.2357 -0.2073
  670MPD2    C5 9968   2.706   2.972  14.314  0.4972  0.1123 -0.4089
  670MPD2     H 9969   2.763   2.754  14.011 -0.8911  1.8591 -0.5526
  670MPD2    H1 9970   2.569   2.832  14.384 -0.1901  2.5161  0.0894
  670MPD2    H2 9971   2.839   3.116  14.230 -1.8282  0.8837  0.6935
  670MPD2    H3 9972   2.685   3.036  14.399 -1.1394 -2.5046  1.1640
  670MPD2     N 9973   2.618   2.639  14.190  0.3342 -0.0071 -0.1277
  670MPD2    H5 9974   2.624   2.590  14.102 -0.7073  2.7275 -1.7238
  670MPD2    N1 9975   2.907   2.968  14.006  0.1106 -0.3061  0.5720
  670MPD2    H7 9976   2.927   2.899  13.935  0.9669  1.0244 -0.4752
  671TMC3    C1 9977   2.564   2.441  14.264  0.1492  0.2561 -0.5057
  671TMC3    C2 9978   2.673   2.376  14.312  0.0817  0.2626 -0.3761
  671TMC3    C3 9979   2.719   2.269  14.236 -0.1385 -0.0189 -0.5822
  671TMC3    C4 9980   2.496   2.395  14.151 -0.8269  0.0999 -0.3847
  671TMC3    C5 9981   2.540   2.284  14.090 -0.2037 -0.3658 -0.0845
  671TMC3    C6 9982   2.653   2.215  14.134 -0.0461 -0.3818  0.3959
  671TMC3     C 9983   2.562   2.577  14.297 -0.4948 -0.8312 -0.4891
  671TMC3     O 9984   2.562   2.611  14.415  0.3982 -0.4912 -0.4179
  671TMC3     H 9985   2.741   2.433  14.373 -1.0639  1.8954 -0.6160
  671TMC3    H1 9986   2.423   2.459  14.105 -1.8820  0.2467  1.4733
  671TMC3    H2 9987   2.682   2.128  14.076  0.6948  1.4385 -1.9452
  671TMC3    C7 9988   2.454   2.216  14.002 -0.4133 -0.2583 -0.1616
  671TMC3    C8 9989   2.865   2.273  14.212  0.2644  0.0281 -0.3961
  671TMC3    O1 9990   2.453   2.096  13.995 -0.2190 -0.2881  0.1067
  671TMC3    O2 9991   2.899   2.277  14.094 -0.2351  0.0934  0.0967
  672MPD2     C 9992   2.926   3.791   1.154  0.0357 -0.0568 -0.5549
  672MPD2    C1 9993   3.039   3.787   1.082 -0.1317 -0.2492 -0.6190
  672MPD2    C2 9994   3.139   3.873   1.115  0.3297 -0.4745  0.1719
  672MPD2    C3 9995   3.115   3.987   1.189 -0.4984  0.7832  0.1561
  672MPD2    C4 9996   2.992   4.003   1.250  0.2533 -0.2463 -0.6382
  672MPD2    C5 9997   2.901   3.901   1.233 -0.0174  0.1851 -0.2542
  672MPD2     H 9998   3.232   3.863   1.060 -1.6329 -0.0738 -3.1820
  672MPD2    H1 9999   2.966   4.090   1.309  1.6438  1.7846 -3.0179
  672MPD2    H210000   2.850   3.714   1.146  0.8091 -1.0176  1.5402
  672MPD2    H310001   2.814   3.903   1.298 -0.2523 -1.0986 -0.5425
  672MPD2     N10002   3.215   4.076   1.209  0.4887  0.2656  0.5185
  672MPD2    H510003   3.187   4.165   1.248  1.6444  1.4982 -1.4870
  672MPD2    N110004   3.068   3.698   0.980 -0.3231  0.7758  0.6302
  672MPD2    H710005   3.161   3.710   0.943 -1.0086  0.3200 -1.2298
  673TMC3    C110006   3.024   3.570   0.802 -0.6810 -0.2413  0.3144
  673TMC3    C210007   3.148   3.530   0.784 -0.3472 -0.3172  0.8419
  673TMC3    C310008   3.191   3.506   0.655  0.0458  0.3426  0.4350
  673TMC3    C410009   2.933   3.593   0.707  0.5332  0.5134 -0.0431
  673TMC3    C510010   2.982   3.568   0.573 -0.3246  0.7888 -0.3081
  673TMC3    C610011   3.111   3.526   0.547 -0.1092 -0.1707  0.0404
  673TMC3     C10012   2.974   3.611   0.929 -0.3845  0.0245  0.2346
  673TMC3     O10013   2.862   3.573   0.961  0.1167 -0.2831 -0.2752
  673TMC3     H10014   3.201   3.485   0.867  0.0981 -1.3821 -0.0245
  673TMC3    H110015   2.837   3.635   0.736  1.8652  2.4346  1.5649
  673TMC3    H210016   3.146   3.504   0.447  1.7570  0.2137  0.6157
  673TMC3    C710017   2.894   3.617   0.463  0.1942  0.7411  0.8908
  673TMC3    C810018   3.310   3.430   0.627 -0.0371  0.0777  0.6169
  673TMC3    O110019   2.886   3.553   0.359  0.1823 -0.7718  0.3724
  673TMC3    O210020   3.303   3.357   0.530  0.0568  0.2593  0.0195
  674MPD2     C10021   2.864   4.196   0.121  0.0891 -0.2860 -0.5873
  674MPD2    C110022   2.810   4.086   0.062 -0.5326  0.5227 -0.4726
  674MPD2    C210023   2.678   4.092   0.037  0.4013  0.3588 -0.5472
  674MPD2    C310024   2.598   4.198   0.067 -0.7753  0.5379  0.5584
  674MPD2    C410025   2.657   4.316   0.110  0.7451  0.2058  0.2512
  674MPD2    C510026   2.789   4.310   0.137  0.6956 -0.2115 -0.4722
  674MPD2     H10027   2.627   3.998   0.020 -1.1695  1.0293  0.4183
  674MPD2    H110028   2.600   4.406   0.128 -0.7959 -0.3962 -1.6833
  674MPD2    H210029   2.964   4.195   0.163 -0.0584 -1.1500 -0.2675
  674MPD2    H310030   2.839   4.392   0.187  1.4489  0.4468 -2.2836
  674MPD2     N10031   2.458   4.175   0.051  0.4238  0.5523  0.3054
  674MPD2    H510032   2.436   4.096  17.747 -0.3156  1.2900 -0.3832
  674MPD2    N110033   2.877   3.964   0.088  0.2539 -0.3458 -0.3457
  674MPD2    H710034   2.950   3.965   0.158 -0.8634  1.2528  0.7935
  675TMC3    C110035   2.909   3.726   0.085 -0.1367 -0.3248 -0.2181
  675TMC3    C210036   2.847   3.607   0.054  0.3288  0.0732  0.2540
  675TMC3    C310037   2.935   3.505   0.039 -0.1586 -0.1004 -0.1294
  675TMC3    C410038   3.045   3.734   0.105 -0.0798  0.4183 -0.3997
  675TMC3    C510039   3.124   3.620   0.089 -0.4566  0.0797  0.7388
  675TMC3    C610040   3.070   3.503   0.058 -0.3858  0.4322  0.2739
  675TMC3     C10041   2.837   3.839   0.039  0.3278  0.2974  0.3880
  675TMC3     O10042   2.761   3.812  17.702 -0.0119  0.1939  0.7139
  675TMC3     H10043   2.743   3.595   0.025  1.2152  0.7319 -3.2952
  675TMC3    H110044   3.090   3.832   0.114  1.4829 -0.2005 -1.4058
  675TMC3    H210045   3.122   3.408   0.052 -2.0412 -0.5396  1.4089
  675TMC3    C710046   3.245   3.600   0.163  0.1787 -0.4972 -0.2490
  675TMC3    C810047   2.867   3.387   0.055  0.2637  0.0608 -0.2618
  675TMC3    O110048   3.307   3.501   0.137 -0.3190  0.4093  0.3064
  675TMC3    O210049   2.903   3.286  17.752 -0.0918 -0.0662 -0.0866
  676MPD2     C10050   1.484   1.630  11.168 -0.5406 -0.6773 -0.0616
  676MPD2    C110051   1.363   1.603  11.101 -0.5539 -0.2144  1.5566
  676MPD2    C210052   1.355   1.487  11.028 -0.1711  0.1435 -0.1104
  676MPD2    C310053   1.462   1.388  11.032  0.1670  0.4863 -0.0507
  676MPD2    C410054   1.575   1.413  11.111 -0.1861  0.4938  0.1017
  676MPD2    C510055   1.585   1.536  11.175  0.6499  0.0289 -0.1491
  676MPD2     H10056   1.265   1.472  10.971  1.0614 -2.5897 -1.3412
  676MPD2    H110057   1.650   1.337  11.130 -0.6723  0.1408  0.5785
  676MPD2    H210058   1.498   1.714  11.235 -0.6799  0.9597 -2.0571
  676MPD2    H310059   1.677   1.550  11.229  0.8802 -1.7376 -0.0757
  676MPD2     N10060   1.458   1.266  10.967 -0.3413 -0.1848  0.0684
  676MPD2    H510061   1.531   1.197  10.981  0.2108  0.5386  0.8076
  676MPD2    N110062   1.253   1.691  11.101 -0.1028  0.0372 -0.2315
  676MPD2    H710063   1.163   1.652  11.074 -0.0482 -0.8299  0.8523
  677TMC3    C110064   1.120   1.832  11.227  0.1800  0.0543  0.4096
  677TMC3    C210065   1.036   1.726  11.254  0.2664 -0.0402  0.1715
  677TMC3    C310066   0.923   1.748  11.333  0.1993 -0.2580  0.3053
  677TMC3    C410067   1.100   1.950  11.293  1.1988 -0.7201 -0.0851
  677TMC3    C510068   0.981   1.967  11.366  0.2198  0.2911  0.3719
  677TMC3    C610069   0.884   1.873  11.380 -0.3411  0.1493  0.4490
  677TMC3     C10070   1.249   1.816  11.159  0.0525  0.2421  0.7006
  677TMC3     O10071   1.338   1.897  11.169 -0.3171 -0.1262  0.8542
  677TMC3     H10072   1.048   1.628  11.210  1.9868 -0.0489  0.6697
  677TMC3    H110073   1.177   2.026  11.285 -0.7673  1.3315  0.3046
  677TMC3    H210074   0.806   1.893  11.453 -0.4525  0.6033  0.2076
  677TMC3    C710075   0.984   2.058  11.473  0.8822 -0.1011 -0.5889
  677TMC3    C810076   0.902   1.637  11.424  0.3641  0.2029  0.1660
  677TMC3    O110077   0.907   2.042  11.563  0.0077  0.1116  0.4735
  677TMC3    O210078   0.998   1.561  11.439  0.1737  0.2849  0.0892
  678MPD2     C10079   2.017   2.085   1.126  0.1630 -0.0113  0.0251
  678MPD2    C110080   2.017   1.989   1.024  0.1912  0.3053  0.2741
  678MPD2    C210081   1.900   1.925   0.992 -0.7644  0.3417 -0.8276
  678MPD2    C310082   1.784   1.955   1.061 -0.2710 -0.4093 -0.6276
  678MPD2    C410083   1.788   2.044   1.168 -0.3031 -0.1755 -0.1167
  678MPD2    C510084   1.907   2.100   1.203 -0.3179  0.6548  0.5632
  678MPD2     H10085   1.894   1.852   0.911 -0.5532  0.3706 -0.8696
  678MPD2    H110086   1.703   2.073   1.229  0.1229 -1.3740  1.0213
  678MPD2    H210087   2.110   2.132   1.154  0.7694 -1.2947  0.1761
  678MPD2    H310088   1.905   2.173   1.284 -0.7517 -0.5116  1.6141
  678MPD2     N10089   1.660   1.901   1.018 -0.1854  0.1564  0.0656
  678MPD2    H510090   1.667   1.823   0.954 -0.2647  0.0112  0.2325
  678MPD2    N110091   2.136   1.955   0.949 -0.6377 -0.2023  0.1398
  678MPD2    H710092   2.132   1.876   0.885 -0.6976 -0.5079  0.5171
  679TMC3    C110093   2.427   1.777   0.749 -0.5241  0.9623 -0.2469
  679TMC3    C210094   2.352   1.824   0.853 -0.1419 -0.5838 -0.6984
  679TMC3    C310095   2.351   1.961   0.876 -0.1598 -0.2300 -0.1548
  679TMC3    C410096   2.496   1.869   0.671  0.4677 -0.4050  0.2356
  679TMC3    C510097   2.482   2.002   0.697 -0.2873 -0.0178  0.9960
  679TMC3    C610098   2.413   2.048   0.803 -0.7155  0.4076 -0.3478
  679TMC3     C10099   2.422   1.639   0.706 -0.2370  0.4835  0.6287
  679TMC3     O10100   2.488   1.621   0.606 -0.2356  0.0811 -0.3298
  679TMC3     H10101   2.290   1.759   0.914 -1.0380 -0.7251 -1.7450
  679TMC3    H110102   2.556   1.834   0.588 -1.5324 -0.1094 -1.3330
  679TMC3    H210103   2.411   2.154   0.822  3.4409  0.0154  2.2309
  679TMC3    C710104   2.565   2.110   0.632 -0.0773  0.2633 -0.8612
  679TMC3    C810105   2.252   2.026   0.959 -0.6629 -0.4586 -0.6738
  679TMC3    O110106   2.534   2.225   0.655  0.4319  0.3395  0.3807
  679TMC3    O210107   2.271   2.136   1.010  0.4012  0.4372 -0.2290
  680MPD2     C10108   2.698   0.652  13.427 -1.0428 -0.0263 -0.0108
  680MPD2    C110109   2.805   0.580  13.461  0.5703 -0.5716  0.7232
  680MPD2    C210110   2.931   0.647  13.476 -0.2384  0.4313 -0.2576
  680MPD2    C310111   2.943   0.786  13.459  0.3825 -0.4485 -0.2813
  680MPD2    C410112   2.828   0.852  13.432  0.2825  0.3766 -0.8027
  680MPD2    C510113   2.708   0.788  13.423 -0.5517  0.0957  0.1676
  680MPD2     H10114   3.013   0.589  13.515  1.8117  1.8531 -2.4746
  680MPD2    H110115   2.835   0.960  13.423 -0.8641  0.6544  1.5463
  680MPD2    H210116   2.604   0.608  13.395 -0.8951  0.3031 -0.9160
  680MPD2    H310117   2.613   0.832  13.394  0.4769  2.2819  0.1440
  680MPD2     N10118   3.070   0.848  13.483 -0.2558 -0.0550 -0.7995
  680MPD2    H510119   3.136   0.786  13.530 -1.3064  0.6402  1.5888
  680MPD2    N110120   2.810   0.437  13.465 -0.3605  0.0069  0.0910
  680MPD2    H710121   2.899   0.390  13.479 -0.7047 -0.6447  0.0746
  681TMC3    C110122   2.734   0.218  13.505 -0.3202 -0.5394 -0.0538
  681TMC3    C210123   2.643   0.133  13.567 -0.3551  0.7971  0.0283
  681TMC3    C310124   2.678   4.738  13.571  0.3101 -0.1751 -0.2206
  681TMC3    C410125   2.853   0.170  13.450 -0.1178  0.2043  1.0532
  681TMC3    C510126   2.871   0.039  13.449  0.7391  0.0960  0.4358
  681TMC3    C610127   2.789   4.694  13.510 -0.4063 -0.4620 -0.5034
  681TMC3     C10128   2.702   0.359  13.502  0.2032  0.1594  0.2053
  681TMC3     O10129   2.588   0.393  13.537 -0.1397 -0.2145 -0.1898
  681TMC3     H10130   2.545   0.167  13.597  0.2294 -0.4081  3.3355
  681TMC3    H110131   2.910   0.235  13.384  0.3789 -2.8407 -1.4934
  681TMC3    H210132   2.814   4.591  13.531 -0.1508 -0.1940  0.4959
  681TMC3    C710133   2.997   4.717  13.410 -0.3155  0.4004 -0.1152
  681TMC3    C810134   2.621   4.662  13.680 -0.4534 -0.1676  0.1669
  681TMC3    O110135   3.009   4.597  13.402  0.6433  0.2550  0.4395
  681TMC3    O210136   2.625   4.538  13.670 -0.4313 -0.0007  0.4889
  682MPD2     C10137   4.332   2.454  10.448 -0.2962  0.6965 -0.0850
  682MPD2    C110138   4.352   2.341  10.515  0.5193  0.1250  0.2757
  682MPD2    C210139   4.262   2.241  10.513  0.1981  0.0555 -0.1063
  682MPD2    C310140   4.136   2.255  10.466  0.2057  0.0724 -0.6055
  682MPD2    C410141   4.108   2.366  10.388 -0.0288 -0.0874 -0.4033
  682MPD2    C510142   4.208   2.462  10.389 -0.0477  0.4960  0.4783
  682MPD2     H10143   4.282   2.163  10.586  0.0240  0.3610  0.2644
  682MPD2    H110144   4.011   2.375  10.341  0.3234  0.0534 -1.0987
  682MPD2    H210145   4.393   2.542  10.431  0.2785  0.3053 -0.0273
  682MPD2    H310146   4.180   2.549  10.331  0.3463  0.1854 -0.1795
  682MPD2     N10147   4.044   2.149  10.492 -0.0126 -0.7304  0.5697
  682MPD2    H510148   4.087   2.067  10.534  0.1689 -2.3077 -2.6741
  682MPD2    N110149   4.475   2.317  10.579  0.1563 -0.6209  0.0423
  682MPD2    H710150   4.501   2.221  10.599  1.1077 -0.5307 -0.7669
  683TMC3    C110151   3.970   2.003  10.821 -0.0391  0.6657  0.6128
  683TMC3    C210152   3.861   1.922  10.832 -0.3898  0.1932  0.1734
  683TMC3    C310153   3.770   1.903  10.728  0.2674  0.5328 -0.2565
  683TMC3    C410154   3.970   2.084  10.716  0.1666 -0.4257 -0.7376
  683TMC3    C510155   3.869   2.079  10.626  0.4821 -0.0438  0.3015
  683TMC3    C610156   3.773   1.985  10.620 -0.2763  0.5268  0.5704
  683TMC3     C10157   4.090   2.005  10.904 -0.3768  0.0912 -0.0856
  683TMC3     O10158   4.171   2.096  10.889 -0.9245 -0.1147  0.2567
  683TMC3     H10159   3.853   1.853  10.914  0.6912 -2.4000 -1.9108
  683TMC3    H110160   4.027   2.176  10.720 -0.8683  0.2413 -1.1615
  683TMC3    H210161   3.700   1.967  10.543  0.5098 -1.4824  0.2876
  683TMC3    C710162   3.910   2.161  10.508  0.1637 -0.5182  0.1320
  683TMC3    C810163   3.679   1.796  10.729  0.4696 -0.3351  0.6069
  683TMC3    O110164   3.838   2.259  10.483 -0.7484 -0.1350 -0.2541
  683TMC3    O210165   3.570   1.823  10.675 -0.6895 -0.6303 -0.6037
  684MPD2     C10166   3.201   1.227  16.196  0.6922  0.2749  0.1491
  684MPD2    C110167   3.299   1.310  16.251 -0.1993  0.0641  0.0147
  684MPD2    C210168   3.263   1.410  16.341  0.3739 -0.0528  0.4791
  684MPD2    C310169   3.126   1.432  16.368 -0.4435  0.1459  0.0679
  684MPD2    C410170   3.033   1.353  16.306  0.2258 -0.0421 -0.1576
  684MPD2    C510171   3.071   1.255  16.218  0.2615  0.5611  0.0055
  684MPD2     H10172   3.344   1.466  16.387 -0.2891  0.9659  0.4160
  684MPD2    H110173   2.930   1.363  16.338 -0.0828 -1.9834 -0.5649
  684MPD2    H210174   3.220   1.136  16.141  0.7880  0.4183 -0.0541
  684MPD2    H310175   2.983   1.203  16.181 -0.2091 -0.5385  2.6399
  684MPD2     N10176   3.089   1.547  16.444 -0.0533 -0.0440 -0.6351
  684MPD2    H510177   2.996   1.588  16.444  0.7152  1.6902 -3.4876
  684MPD2    N110178   3.436   1.310  16.218 -1.2629 -0.1020  0.0944
  684MPD2    H710179   3.495   1.379  16.263  0.0838 -0.8242 -0.5737
  685TMC3    C110180   3.628   1.275  16.094 -0.0240 -0.2826 -0.4996
  685TMC3    C210181   3.661   1.239  15.968 -0.5410  0.3709  0.4109
  685TMC3    C310182   3.711   1.345  15.888 -0.7110 -0.2146 -0.1649
  685TMC3    C410183   3.680   1.388  16.155 -0.5116 -1.1329  0.2367
  685TMC3    C510184   3.733   1.483  16.070 -0.0068  0.2637  0.7712
  685TMC3    C610185   3.751   1.464  15.935 -0.1188  0.4111  0.0698
  685TMC3     C10186   3.488   1.235  16.118  0.0174  0.0177  0.3100
  685TMC3     O10187   3.430   1.166  16.031 -0.2871 -0.5744 -0.3759
  685TMC3     H10188   3.632   1.140  15.936 -1.1506  0.7611 -0.2436
  685TMC3    H110189   3.670   1.415  16.259  2.1500  1.3171 -0.1283
  685TMC3    H210190   3.784   1.546  15.872 -0.2632  0.4709  0.0711
  685TMC3    C710191   3.803   1.600  16.125 -0.3233  0.0855 -0.0677
  685TMC3    C810192   3.660   1.346  15.755  0.2501  0.1136 -0.6414
  685TMC3    O110193   3.856   1.673  16.038 -0.3921 -0.4731  0.4644
  685TMC3    O210194   3.713   1.412  15.672 -0.5055 -0.3737  0.3752
  686MPD2     C10195   4.531   1.391  15.348 -0.5348 -0.2819 -0.3083
  686MPD2    C110196   4.579   1.298  15.442 -0.5752  0.5524  0.7124
  686MPD2    C210197   4.642   1.181  15.393 -0.1100 -0.1976  0.3412
  686MPD2    C310198   4.660   1.166  15.259  0.7629  0.5318  0.2472
  686MPD2    C410199   4.613   1.260  15.169 -1.2482 -0.7820  0.3390
  686MPD2    C510200   4.543   1.370  15.217 -0.2235 -0.0715 -0.1380
  686MPD2     H10201   4.682   1.113  15.467 -0.3582  1.3450  1.8894
  686MPD2    H110202   4.603   1.256  15.061  1.7115 -0.0562  0.0493
  686MPD2    H210203   4.464   1.469  15.383  0.3211  1.1221 -1.8505
  686MPD2    H310204   4.511   1.447  15.147  1.9432  2.5169  1.7397
  686MPD2     N10205   4.719   1.055  15.195  0.0193  0.2868  0.5842
  686MPD2    H510206   0.003   1.063  15.097 -0.9871  1.8040  0.4708
  686MPD2    N110207   4.545   1.314  15.579 -0.5649  0.4718  0.6902
  686MPD2    H710208   4.507   1.402  15.612 -1.2077  0.4688 -0.0451
  687TMC3    C110209   4.635   0.880  15.353 -0.1439 -0.7146 -0.0030
  687TMC3    C210210   4.503   0.929  15.360 -0.2872  0.7275  0.2120
  687TMC3    C310211   4.440   0.918  15.483 -0.1057  0.5108 -0.2842
  687TMC3    C410212   4.699   0.819  15.455  0.6692 -0.7287 -0.2740
  687TMC3    C510213   4.632   0.812  15.573  0.1372 -0.0548  0.1382
  687TMC3    C610214   4.508   0.866  15.592 -0.3507 -0.5873 -0.0176
  687TMC3     C10215   4.727   0.925  15.246  0.2295  0.0584  0.2797
  687TMC3     O10216   0.062   0.838  15.199 -0.0340  0.0961 -0.4711
  687TMC3     H10217   4.447   0.969  15.276  0.7654 -0.1521 -0.9049
  687TMC3    H110218   0.065   0.794  15.445  0.8041 -0.0043 -0.7321
  687TMC3    H210219   4.448   0.849  15.681 -1.1854  1.6388 -0.1441
  687TMC3    C710220   4.694   0.758  15.688  0.3140 -0.4185 -0.3997
  687TMC3    C810221   4.316   0.992  15.513 -0.2097 -0.0335 -0.1333
  687TMC3    O110222   4.729   0.640  15.699 -0.5475 -0.4902 -0.3292
  687TMC3    O210223   4.255   0.947  15.608  0.1518  0.1066 -0.4250
  688MPD2     C10224   3.380   0.257  17.362 -0.3884  0.1617  0.4078
  688MPD2    C110225   3.393   0.119  17.359  0.1713  0.3433  0.8109
  688MPD2    C210226   3.480   0.059  17.265  0.0964  0.5725  0.5626
  688MPD2    C310227   3.545   0.132  17.174 -0.1016  0.9011  0.0314
  688MPD2    C410228   3.522   0.267  17.177  0.3574 -1.1053 -0.0968
  688MPD2    C510229   3.443   0.329  17.266 -0.4187  0.6727  0.1113
  688MPD2     H10230   3.498   4.692  17.271  0.0589  0.4678 -1.3882
  688MPD2    H110231   3.582   0.332  17.115 -1.0654  0.5379  0.2364
  688MPD2    H210232   3.330   0.314  17.440 -1.0383 -0.5271  0.4974
  688MPD2    H310233   3.423   0.434  17.252 -3.4577 -0.0566 -0.9553
  688MPD2     N10234   3.641   0.074  17.089 -0.1361 -0.2020  1.1253
  688MPD2    H510235   3.685   0.134  17.019 -0.2027 -0.2351  1.0543
  688MPD2    N110236   3.330   0.035  17.452  0.0988 -0.2517  0.0662
  688MPD2    H710237   3.344   4.674  17.453  0.6853 -0.1567  1.2308
  689TMC3    C110238   3.195   4.716  17.638 -0.2478 -0.0864  0.3816
  689TMC3    C210239   3.117   0.032  17.737 -0.5157  0.2669 -0.0515
  689TMC3    C310240   3.121   4.705   0.104  0.1663  0.0848  0.2843
  689TMC3    C410241   3.263   4.599  17.658 -0.2791 -0.7091  0.2404
  689TMC3    C510242   3.242   4.534   0.017  0.3359  0.4519 -0.8279
  689TMC3    C610243   3.183   4.584   0.127  0.9032  0.1752  0.1342
  689TMC3     C10244   3.238   0.079  17.545 -0.4120  0.3942  0.4708
  689TMC3     O10245   3.192   0.190  17.563 -0.4006 -0.0498  0.1653
  689TMC3     H10246   3.049   0.114  17.718  1.4354  1.8413 -0.2589
  689TMC3    H110247   3.317   4.543  17.583 -0.7427 -1.2905  0.3370
  689TMC3    H210248   3.191   4.539   0.225  0.1163 -0.7599 -0.2289
  689TMC3    C710249   3.291   4.399   0.025  0.5447  0.1149  0.1350
  689TMC3    C810250   3.052   0.023   0.220 -0.1018  0.2907  0.4252
  689TMC3    O110251   3.364   4.369   0.119 -0.3456 -0.3041  0.2481
  689TMC3    O210252   3.105   4.737   0.327 -0.3796  0.0906 -0.5865
  690MPD2     C10253   1.545   1.686  15.387 -0.1163  0.2288  0.1863
  690MPD2    C110254   1.427   1.720  15.321  0.4856 -0.1045  0.3237
  690MPD2    C210255   1.424   1.746  15.191 -0.3025 -0.6633  0.6481
  690MPD2    C310256   1.530   1.724  15.108  0.3332 -0.7774  0.1372
  690MPD2    C410257   1.642   1.668  15.164  0.0821 -0.0399  0.4207
  690MPD2    C510258   1.647   1.664  15.300 -0.5649  0.5521  0.0566
  690MPD2     H10259   1.336   1.793  15.150  0.6598  0.4379 -0.1325
  690MPD2    H110260   1.729   1.644  15.105 -1.4887 -0.9534 -1.5231
  690MPD2    H210261   1.557   1.667  15.493 -1.3809  0.3507  0.3580
  690MPD2    H310262   1.743   1.634  15.340 -1.2616 -0.4366  0.9616
  690MPD2     N10263   1.521   1.747  14.969  0.1037 -0.1298  0.3156
  690MPD2    H510264   1.435   1.794  14.944  1.1431  2.0196  0.7656
  690MPD2    N110265   1.308   1.754  15.401  0.5523  0.0003 -0.0990
  690MPD2    H710266   1.223   1.787  15.355  0.9286 -0.7123 -1.3022
  691TMC3    C110267   1.179   1.792  15.598 -0.1997 -0.3682 -0.6882
  691TMC3    C210268   1.134   1.914  15.547 -0.2044 -0.0010  0.3280
  691TMC3    C310269   1.059   1.998  15.619 -0.5786 -0.0082 -0.1799
  691TMC3    C410270   1.133   1.752  15.726 -0.2877  0.2068 -0.1529
  691TMC3    C510271   1.054   1.842  15.794 -0.0045  0.1272 -0.0403
  691TMC3    C610272   1.018   1.968  15.747  0.2684  0.6299 -0.0264
  691TMC3     C10273   1.297   1.731  15.536  0.4186  0.3077 -0.3812
  691TMC3     O10274   1.367   1.662  15.609 -0.6077  0.3558 -0.6258
  691TMC3     H10275   1.168   1.947  15.450 -1.5142  0.5455  0.0653
  691TMC3    H110276   1.172   1.660  15.768  0.3137  0.8944  0.7785
  691TMC3    H210277   0.957   2.029  15.813  0.4521  1.2248 -0.4115
  691TMC3    C710278   1.020   1.808  15.933  0.2983 -0.4365 -0.5308
  691TMC3    C810279   1.007   2.116  15.550 -0.8503 -0.3080 -0.5699
  691TMC3    O110280   1.050   1.893  16.016  0.1413 -0.4561 -0.0128
  691TMC3    O210281   1.065   2.151  15.448  0.4947 -0.2966  0.3985
  692TMC3    C110282   2.422   2.382  15.593  0.1506  0.3459 -0.6881
  692TMC3    C210283   2.547   2.409  15.546 -0.0842 -0.4839  0.3286
  692TMC3    C310284   2.656   2.407  15.632 -0.0703 -0.1371 -0.1314
  692TMC3    C410285   2.401   2.323  15.715 -0.1271  0.0060  0.5345
  692TMC3    C510286   2.511   2.315  15.797 -0.0632 -0.6110  0.6305
  692TMC3    C610287   2.633   2.369  15.760 -0.1994 -0.5216 -0.2211
  692TMC3     C10288   2.309   2.469  15.548  0.1748 -0.1724  0.5061
  692TMC3     O10289   2.197   2.442  15.592 -0.3389 -0.7865  0.1302
  692TMC3     H10290   2.556   2.459  15.450  2.6238 -2.4471 -0.4492
  692TMC3    H110291   2.298   2.310  15.747 -0.7787 -0.0426 -1.6208
  692TMC3    H210292   2.720   2.363  15.824  1.1032 -1.5407 -2.1156
  692TMC3    C710293   2.479   2.288  15.935 -1.0818 -0.6474  0.5207
  692TMC3    C810294   2.735   2.527  15.610  0.1146  0.2001 -0.1638
  692TMC3    O110295   2.360   2.297  15.959 -0.2726 -0.3570 -0.2212
  692TMC3    O210296   2.807   2.540  15.510 -0.2342  0.2177  0.0743
  693MPD2     C10297   2.426   0.713  10.803  0.0145 -0.6089  0.1002
  693MPD2    C110298   2.359   0.615  10.737  0.3146  0.1355 -0.6767
  693MPD2    C210299   2.427   0.527  10.652  0.0031  0.0002  1.0927
  693MPD2    C310300   2.564   0.548  10.631 -0.3745 -0.1148 -0.3313
  693MPD2    C410301   2.627   0.659  10.683  0.2799 -0.3862  0.5224
  693MPD2    C510302   2.556   0.740  10.774  0.7898  0.1503 -0.0543
  693MPD2     H10303   2.370   0.440  10.622  0.3263  0.1025  0.1700
  693MPD2    H110304   2.730   0.688  10.664 -0.4470  4.0754  3.3106
  693MPD2    H210305   2.375   0.778  10.873 -1.0289 -0.7566 -0.5224
  693MPD2    H310306   2.614   0.819  10.823  1.2342 -0.6200  0.6758
  693MPD2     N10307   2.654   0.465  10.566 -0.3022  0.9801 -0.2816
  693MPD2    H510308   2.749   0.501  10.567 -0.1386  0.5469 -0.1986
  693MPD2    N110309   2.219   0.596  10.762 -0.0016  0.8450  0.1584
  693MPD2    H710310   2.174   0.659  10.828 -1.2284  1.4176 -1.2152
  694TMC3    C110311   2.001   0.491  10.760  0.5200  0.0158 -0.3174
  694TMC3    C210312   1.902   0.419  10.692 -0.2918 -1.0480  0.0829
  694TMC3    C310313   1.781   0.390  10.757  0.6910 -0.4985 -0.2110
  694TMC3    C410314   1.989   0.510  10.894 -0.2768  0.0717  0.5724
  694TMC3    C510315   1.877   0.469  10.955 -0.1175  0.1835 -0.0060
  694TMC3    C610316   1.766   0.422  10.885 -0.5161 -0.0105  0.4378
  694TMC3     C10317   2.130   0.514  10.687  0.5081 -0.6702 -0.4480
  694TMC3     O10318   2.151   0.461  10.579 -0.0207 -0.3547  0.3447
  694TMC3     H10319   1.916   0.413  10.585 -1.6641 -1.1038 -0.0888
  694TMC3    H110320   2.076   0.550  10.945  0.3062 -0.6933  0.1829
  694TMC3    H210321   1.674   0.401  10.938  0.2807  2.0828  2.6267
  694TMC3    C710322   1.873   0.500  11.098 -0.2224  0.1426  0.4480
  694TMC3    C810323   1.659   0.335  10.686  0.1522  0.0409 -0.1551
  694TMC3    O110324   1.984   0.537  11.140  0.5357  0.1946  0.3064
  694TMC3    O210325   1.559   0.328  10.755  0.3386 -0.4209  0.7023
  695MPD2     C10326   3.293   2.505  13.244 -0.1724 -0.1703 -0.1523
  695MPD2    C110327   3.223   2.521  13.358  0.0142  0.1170 -0.2134
  695MPD2    C210328   3.091   2.548  13.360 -0.2198  0.2703  0.0666
  695MPD2    C310329   3.030   2.581  13.240  0.3091 -0.1134 -0.4293
  695MPD2    C410330   3.105   2.582  13.124 -0.4557 -0.1332  0.0419
  695MPD2    C510331   3.233   2.529  13.127 -0.1461  1.3000 -0.4468
  695MPD2     H10332   3.032   2.537  13.451 -2.4042  0.5884 -1.3281
  695MPD2    H110333   3.071   2.602  13.023  1.8752 -0.4693 -0.7963
  695MPD2    H210334   3.395   2.469  13.244 -0.2120 -0.2967 -0.7831
  695MPD2    H310335   3.285   2.528  13.031 -0.0577  0.8970 -0.3944
  695MPD2     N10336   2.890   2.604  13.237  0.3180 -0.4091 -0.0058
  695MPD2    H510337   2.837   2.588  13.322  1.9576  1.2308  1.3224
  695MPD2    N110338   3.288   2.509  13.487 -0.3412  0.5928  0.3599
  695MPD2    H710339   3.221   2.529  13.560  0.2990 -1.9796  1.6612
  696TMC3    C110340   2.683   2.697  13.169  0.2633  0.2565  0.6430
  696TMC3    C210341   2.629   2.613  13.266 -0.4385  0.5679  0.0157
  696TMC3    C310342   2.526   2.663  13.340  0.9871 -0.1726  0.0706
  696TMC3    C410343   2.638   2.830  13.154 -0.0854  0.5795 -0.6837
  696TMC3    C510344   2.549   2.874  13.250 -0.0500 -0.1325  0.6677
  696TMC3    C610345   2.492   2.798  13.345  0.1104  0.3169 -0.5115
  696TMC3     C10346   2.822   2.673  13.139 -0.1671 -0.0576  0.1566
  696TMC3     O10347   2.871   2.736  13.047 -0.2914 -0.3825  0.4526
  696TMC3     H10348   2.651   2.507  13.281  0.7279  0.8836  0.5398
  696TMC3    H110349   2.678   2.902  13.084  1.2323  0.7068  0.2112
  696TMC3    H210350   2.396   2.826  13.386 -0.0192 -1.5947  0.4833
  696TMC3    C710351   2.502   3.006  13.233  0.1678 -0.0948 -0.0898
  696TMC3    C810352   2.463   2.584  13.444 -0.1230 -0.0631  0.2730
  696TMC3    O110353   2.507   3.059  13.119 -0.0332  0.0994  0.7666
  696TMC3    O210354   2.450   2.651  13.547 -0.0449 -0.5597 -0.3476
  697MPD2     C10355   2.382   0.068  15.562  0.0901 -0.4175 -0.0051
  697MPD2    C110356   2.320   0.005  15.464  0.3315 -0.1806 -0.0964
  697MPD2    C210357   2.313   0.059  15.340  0.9483 -0.0539  0.1189
  697MPD2    C310358   2.356   0.189  15.312  0.1025  0.1769  0.4665
  697MPD2    C410359   2.404   0.263  15.417  0.4146  0.1479 -0.3469
  697MPD2    C510360   2.414   0.201  15.539 -0.5123  0.5183  0.5867
  697MPD2     H10361   2.272   0.001  15.258  0.2790 -1.8103  1.7100
  697MPD2    H110362   2.418   0.370  15.403  0.6722  0.2321  0.6129
  697MPD2    H210363   2.386   0.018  15.658  0.4838  0.5072  0.4649
  697MPD2    H310364   2.436   0.250  15.633 -0.9746  0.8176  0.5377
  697MPD2     N10365   2.338   0.231  15.180 -0.2368 -0.1747 -0.0733
  697MPD2    H510366   2.299   0.156  15.124  0.0937 -0.4489  0.0620
  697MPD2    N110367   2.291   4.606  15.466 -0.4919  0.3185 -0.4010
  697MPD2    H710368   2.259   4.570  15.377  1.4068  1.2848 -1.4600
  698TMC3    C110369   2.352   0.349  14.984  1.1444  0.7378 -0.4468
  698TMC3    C210370   2.441   0.411  14.906  0.4666 -0.2007  0.1540
  698TMC3    C310371   2.422   0.401  14.770  0.0566 -0.5184 -0.6195
  698TMC3    C410372   2.232   0.293  14.942  0.0092  0.0342 -0.2959
  698TMC3    C510373   2.224   0.291  14.802  0.7912  0.4071  0.2688
  698TMC3    C610374   2.314   0.347  14.720  0.6169  0.3676  0.4288
  698TMC3     C10375   2.378   0.349  15.126 -0.5816 -0.2300 -0.8975
  698TMC3     O10376   2.438   0.440  15.180  0.0810  0.2289 -0.0278
  698TMC3     H10377   2.528   0.457  14.952  1.9538 -0.2405 -2.6468
  698TMC3    H110378   2.157   0.254  15.009 -1.9009  3.2905 -0.5180
  698TMC3    H210379   2.305   0.323  14.615  0.8060  2.0067  0.0429
  698TMC3    C710380   2.121   0.211  14.739  0.2912  0.5781 -0.0757
  698TMC3    C810381   2.487   0.489  14.674  0.2854 -0.3048 -0.4488
  698TMC3    O110382   2.087   0.237  14.625 -0.2148  0.4284 -0.3304
  698TMC3    O210383   2.405   0.522  14.591  0.2381  0.0673  0.0390
  699TMC3    C110384   2.259   2.812  13.009  0.1532 -0.0013  0.2362
  699TMC3    C210385   2.258   2.685  13.052 -0.4855 -0.1382  0.1993
  699TMC3    C310386   2.213   2.661  13.180 -0.3138  0.1784  0.3655
  699TMC3    C410387   2.206   2.918  13.079 -0.1721  0.9937  0.2154
  699TMC3    C510388   2.173   2.895  13.211 -0.1252  0.0229  0.3314
  699TMC3    C610389   2.175   2.767  13.260  0.2192 -0.0822 -0.0256
  699TMC3     C10390   2.313   2.835  12.878  0.2966 -0.2264 -0.4476
  699TMC3     O10391   2.301   2.748  12.792  0.2643  0.2185 -0.2803
  699TMC3     H10392   2.301   2.603  12.995 -0.8027 -0.4637  0.4282
  699TMC3    H110393   2.233   3.018  13.047  0.5089  1.4680  2.2266
  699TMC3    H210394   2.131   2.747  13.357  0.5525 -0.8974 -0.0407
  699TMC3    C710395   2.101   2.996  13.277 -0.0643 -0.8623 -0.3883
  699TMC3    C810396   2.156   2.533  13.211  0.7723  0.0985  0.1374
  699TMC3    O110397   2.116   2.996  13.399 -0.1713 -0.6927  0.1137
  699TMC3    O210398   2.156   2.509  13.330 -0.5682  0.6352 -0.5521
  700TMC3    C110399   1.346   0.407  17.103  0.5601 -0.5312  0.2055
  700TMC3    C210400   1.458   0.328  17.097 -0.2622  0.9498  0.2647
  700TMC3    C310401   1.488   0.259  17.211 -0.6827 -0.3822  0.0983
  700TMC3    C410402   1.245   0.396  17.196  0.5359 -0.4373 -0.3089
  700TMC3    C510403   1.275   0.318  17.309  0.4064 -0.1020  0.8698
  700TMC3    C610404   1.391   0.246  17.307  0.4711 -0.5656 -0.0282
  700TMC3     C10405   1.332   0.496  16.994 -0.4117 -0.3358 -0.2531
  700TMC3     O10406   1.215   0.532  16.986 -0.1061 -0.7254 -0.7110
  700TMC3     H10407   1.533   0.331  17.018 -1.2366  0.2025 -0.6889
  700TMC3    H110408   1.157   0.458  17.206 -0.1361 -1.1978 -1.5043
  700TMC3    H210409   1.412   0.189  17.396 -1.0488 -0.8309  0.1650
  700TMC3    C710410   1.273   0.392  17.428 -0.0679  0.7603 -0.2511
  700TMC3    C810411   1.602   0.164  17.196 -0.7356  0.7041 -0.8981
  700TMC3    O110412   1.382   0.398  17.482  0.3341  0.7696  0.0508
  700TMC3    O210413   1.663   0.155  17.088  0.6424  0.4031 -0.4662
  701TMC3    C110414   1.269   3.860  15.818 -0.2512 -0.0421  0.1113
  701TMC3    C210415   1.238   3.893  15.689 -1.0330 -0.5200 -0.1775
  701TMC3    C310416   1.314   3.982  15.627 -0.5649  0.4610  0.0966
  701TMC3    C410417   1.376   3.916  15.875 -0.1063 -0.0058 -0.2274
  701TMC3    C510418   1.452   4.009  15.810 -0.0326 -0.3748  0.4037
  701TMC3    C610419   1.426   4.043  15.680 -0.8136  0.1953 -0.5748
  701TMC3     C10420   1.187   3.759  15.889  0.7959  0.2624  0.2066
  701TMC3     O10421   1.206   3.742  16.009  0.2020  0.5538  0.0629
  701TMC3     H10422   1.149   3.856  15.639  0.4087  0.9368 -3.8181
  701TMC3    H110423   1.381   3.898  15.982 -0.8601  2.3365  0.2055
  701TMC3    H210424   1.475   4.118  15.618  0.1940 -0.6482 -0.7940
  701TMC3    C710425   1.555   4.084  15.892 -0.0655 -0.1906 -0.5524
  701TMC3    C810426   1.282   4.032  15.493 -0.0600 -0.1179 -0.1609
  701TMC3    O110427   1.570   4.042  16.008  0.2720 -0.0948 -0.1116
  701TMC3    O210428   1.347   4.124  15.450  0.1429  0.5830 -0.6925
  702MPD2     C10429   0.851   1.221  10.495  0.4381 -0.1481  0.6800
  702MPD2    C110430   0.964   1.270  10.553 -0.0279  0.2011  0.2892
  702MPD2    C210431   0.979   1.398  10.526 -0.8025  0.2991 -0.5809
  702MPD2    C310432   0.882   1.481  10.473  0.5037 -0.2255 -0.1447
  702MPD2    C410433   0.756   1.432  10.443 -0.1704  0.2009 -0.6229
  702MPD2    C510434   0.748   1.295  10.442 -0.0114 -0.3669  0.3088
  702MPD2     H10435   1.078   1.437  10.548 -0.1535 -1.5748 -0.2103
  702MPD2    H110436   0.672   1.490  10.406  0.7245  2.3873  0.7871
  702MPD2    H210437   0.824   1.117  10.504  2.5964 -0.8569 -0.9105
  702MPD2    H310438   0.666   1.236  10.403 -0.1510  0.6428 -0.9073
  702MPD2     N10439   0.915   1.620  10.465  0.2941 -0.4653  0.9524
  702MPD2    H510440   1.012   1.643  10.484  0.9032 -2.7144  0.5990
  702MPD2    N110441   1.069   1.192  10.602  0.6312  0.7767  0.4954
  702MPD2    H710442   1.146   1.244  10.644  0.2419  0.4859  1.5554
  703TMC3    C110443   0.893   1.845  10.425 -0.3306  0.2949 -0.7405
  703TMC3    C210444   0.810   1.956  10.425  0.1605 -0.6002  0.2890
  703TMC3    C310445   0.857   2.073  10.364 -0.4941  0.0191  0.1442
  703TMC3    C410446   1.017   1.854  10.368 -0.1180  0.2055  0.2304
  703TMC3    C510447   1.050   1.974  10.305 -0.6351 -0.0083  0.2645
  703TMC3    C610448   0.968   2.084  10.291  0.5800 -0.1586  0.5717
  703TMC3     C10449   0.825   1.721  10.443 -0.1531 -0.1981  0.0061
  703TMC3     O10450   0.701   1.717  10.453  0.5585 -0.1918  0.0365
  703TMC3     H10451   0.708   1.946  10.460  0.4873 -0.9270  1.1500
  703TMC3    H110452   1.083   1.773  10.338  1.1789  1.5294 -0.5015
  703TMC3    H210453   0.989   2.173  10.234  1.5407  0.0150  1.1831
  703TMC3    C710454   1.182   1.999  10.260  0.5308  0.2166  0.1828
  703TMC3    C810455   0.801   2.202  10.401 -0.1231  0.0538  0.0534
  703TMC3    O110456   1.204   2.101  10.196 -0.7407  0.2931 -0.6967
  703TMC3    O210457   0.846   2.303  10.351  1.0028  0.3383  0.2909
  704TMC3    C110458   3.888   4.352  12.818  0.1455 -0.9504  0.4238
  704TMC3    C210459   3.981   4.384  12.723  1.0134 -0.0583  0.3947
  704TMC3    C310460   4.089   4.307  12.705 -0.1966  0.1712  0.5261
  704TMC3    C410461   3.917   4.259  12.908 -0.1605 -0.5038  0.0972
  704TMC3    C510462   4.027   4.180  12.896  0.4607  0.1978  0.9477
  704TMC3    C610463   4.118   4.209  12.797 -0.1151  0.6391  0.1832
  704TMC3     C10464   3.746   4.341  12.778  0.4536 -0.4497  0.6379
  704TMC3     O10465   3.675   4.286  12.861 -0.4809 -0.0691  0.7000
  704TMC3     H10466   3.962   4.467  12.656 -1.8905 -0.5921  0.5416
  704TMC3    H110467   3.851   4.241  12.992 -1.1837 -1.6863 -0.9652
  704TMC3    H210468   4.210   4.153  12.784 -1.4580 -1.3324 -0.9033
  704TMC3    C710469   4.018   4.038  12.927 -0.7724 -0.4195  0.0554
  704TMC3    C810470   4.129   4.284  12.568  0.6655 -0.7059  0.1993
  704TMC3    O110471   4.077   3.962  12.847 -0.0001  0.2751 -0.5960
  704TMC3    O210472   4.041   4.297  12.485  0.0587  0.2465 -0.3336
  705MPD2     C10473   2.931   2.503  16.045  0.5149  0.4253  0.2308
  705MPD2    C110474   2.877   2.623  15.998  0.4210 -0.0895 -0.0441
  705MPD2    C210475   2.768   2.688  16.057  0.1437 -0.1700  0.1918
  705MPD2    C310476   2.711   2.623  16.169  0.0230  0.1933 -0.1125
  705MPD2    C410477   2.755   2.492  16.202  0.1005  0.8348 -0.2834
  705MPD2    C510478   2.874   2.446  16.155  0.8648  0.3489  0.2205
  705MPD2     H10479   2.720   2.770  16.007  2.4622  0.5538 -0.8561
  705MPD2    H110480   2.715   2.437  16.287  2.3720 -1.6022 -0.7765
  705MPD2    H210481   3.017   2.456  15.999 -0.6337 -1.3621 -0.0913
  705MPD2    H310482   2.916   2.349  16.180  2.1590  1.0700  0.8247
  705MPD2     N10483   2.597   2.668  16.239 -0.1448  0.5627 -0.0455
  705MPD2    H510484   2.572   2.631  16.330  0.4062  0.9468  0.2664
  705MPD2    N110485   2.932   2.686  15.886  0.5741  0.3438  0.4528
  705MPD2    H710486   2.900   2.781  15.875 -1.9488 -0.4981  0.4667
  706TMC3    C110487   3.318   2.775  15.661 -1.1226  0.4880 -0.4369
  706TMC3    C210488   3.300   2.905  15.684  1.0488  0.1017 -0.1294
  706TMC3    C310489   3.176   2.944  15.723 -0.5953  0.1591 -0.2373
  706TMC3    C410490   3.215   2.689  15.657 -0.2027  0.2956  0.0618
  706TMC3    C510491   3.092   2.729  15.714 -0.8086  0.2562  0.2307
  706TMC3    C610492   3.072   2.862  15.744  0.0485 -0.0005  0.5117
  706TMC3     C10493   3.455   2.738  15.638  0.3904 -0.1552  0.1498
  706TMC3     O10494   3.544   2.790  15.703  0.0849  0.1772  0.0713
  706TMC3     H10495   3.377   2.976  15.656  0.8937  0.4599  0.3491
  706TMC3    H110496   3.225   2.581  15.645  0.8396  0.2115  1.5788
  706TMC3    H210497   2.983   2.900  15.792 -0.0049  1.2552 -0.5810
  706TMC3    C710498   3.022   2.631  15.800  0.1015  0.0245  0.8991
  706TMC3    C810499   3.142   3.086  15.705  0.4302 -0.4084 -0.3049
  706TMC3    O110500   3.032   2.511  15.776 -0.3220 -0.2158  0.0752
  706TMC3    O210501   3.028   3.120  15.739 -0.3880 -0.0356 -0.9177
  707TMC3    C110502   4.136   0.840   1.106  0.3256 -0.9499 -0.2262
  707TMC3    C210503   4.201   0.734   1.166 -0.2697 -0.0643 -0.5227
  707TMC3    C310504   4.136   0.681   1.267  0.1015 -0.2273 -0.9022
  707TMC3    C410505   4.000   0.876   1.124 -0.4093 -0.4024 -0.6251
  707TMC3    C510506   3.944   0.811   1.222  0.5734 -0.3756  0.4802
  707TMC3    C610507   4.004   0.713   1.295 -0.5487  0.0786  0.0833
  707TMC3     C10508   4.228   0.921   1.022  0.3348  0.4663 -0.0823
  707TMC3     O10509   4.334   0.876   0.981  0.5901  0.3742  0.4709
  707TMC3     H10510   4.297   0.706   1.123 -0.5339 -0.9653 -0.5103
  707TMC3    H110511   3.951   0.952   1.064 -0.6410  0.6766  0.9149
  707TMC3    H210512   3.956   0.692   1.390 -1.4241  0.9071 -0.1760
  707TMC3    C710513   3.806   0.847   1.259 -0.4748  0.1547  0.4996
  707TMC3    C810514   4.202   0.593   1.367  0.4519 -0.3853 -0.7166
  707TMC3    O110515   3.768   0.963   1.248  0.2952 -0.9041 -0.5144
  707TMC3    O210516   4.134   0.517   1.434 -0.2401 -0.1159 -0.3426
  708MPD2     C10517   1.800   0.541  13.557  0.4424 -0.2881  0.0487
  708MPD2    C110518   1.702   0.614  13.620  0.3295 -0.2028  0.7711
  708MPD2    C210519   1.682   0.587  13.751  0.6066 -0.3992 -0.3268
  708MPD2    C310520   1.747   0.497  13.824  0.0229  0.7167 -0.3739
  708MPD2    C410521   1.839   0.417  13.759 -0.4827  0.4932  0.1415
  708MPD2    C510522   1.868   0.442  13.627  0.5144 -0.0310 -0.0655
  708MPD2     H10523   1.607   0.650  13.797 -0.8189 -1.9146 -0.5251
  708MPD2    H110524   1.885   0.335  13.813 -0.1778  1.1071  0.8224
  708MPD2    H210525   1.811   0.547  13.450 -0.7191 -0.8188 -0.1040
  708MPD2    H310526   1.941   0.388  13.567  0.5601 -0.2421  0.1802
  708MPD2     N10527   1.706   0.470  13.952  0.5633 -0.6121  0.2637
  708MPD2    H510528   1.661   0.545  14.002 -1.0028 -2.1177  1.1039
  708MPD2    N110529   1.617   0.716  13.573  0.6290  0.4677 -0.2651
  708MPD2    H710530   1.548   0.761  13.631 -1.1383 -0.3110 -1.7405
  709TMC3    C110531   1.508   0.849  13.419  0.3557 -0.1432  0.6166
  709TMC3    C210532   1.434   0.807  13.306 -0.4402 -0.5178 -0.2563
  709TMC3    C310533   1.300   0.778  13.317  0.4841  0.0250 -0.2476
  709TMC3    C410534   1.438   0.891  13.527 -0.4689 -0.4404 -0.1401
  709TMC3    C510535   1.308   0.848  13.538  0.7619  0.1125  0.4901
  709TMC3    C610536   1.240   0.785  13.436  0.3912  0.1374 -0.0895
  709TMC3     C10537   1.616   0.752  13.440  0.5781 -0.1619 -0.9365
  709TMC3     O10538   1.686   0.715  13.345  0.3356 -0.0784 -0.2315
  709TMC3     H10539   1.489   0.759  13.225 -0.5304  2.2046 -1.9129
  709TMC3    H110540   1.491   0.943  13.607 -2.0161  3.2374 -1.5102
  709TMC3    H210541   1.136   0.755  13.443  0.6164 -0.0052  2.8317
  709TMC3    C710542   1.286   0.795  13.669 -0.6016  0.5198  0.4156
  709TMC3    C810543   1.244   0.712  13.206 -0.2475 -0.3852  0.5612
  709TMC3    O110544   1.391   0.780  13.724  0.1540  0.1013  0.0985
  709TMC3    O210545   1.174   0.617  13.226  0.0550 -0.2503 -0.0318
  710TMC3    C110546   2.397   2.741   0.054  0.6337 -0.4255 -0.4192
  710TMC3    C210547   2.448   2.712  17.687  0.5731 -0.3516 -0.2377
  710TMC3    C310548   2.543   2.613  17.680  0.1759 -0.7915 -0.1554
  710TMC3    C410549   2.441   2.677   0.167 -0.5598  0.1210  0.1752
  710TMC3    C510550   2.548   2.593   0.157  0.1628 -1.0459 -0.1661
  710TMC3    C610551   2.594   2.548   0.036 -0.3943  0.1840  0.0275
  710TMC3     C10552   2.284   2.830   0.063 -0.1913 -0.6703  0.4441
  710TMC3     O10553   2.224   2.861  17.718  0.0236 -0.0761  0.2202
  710TMC3     H10554   2.408   2.763  17.600 -0.4078 -1.4959 -0.4640
  710TMC3    H110555   2.397   2.700   0.263  1.2420 -0.8028  1.2430
  710TMC3    H210556   2.657   2.461   0.026 -1.2165 -0.4563  0.4761
  710TMC3    C710557   2.574   2.511   0.271 -0.1150  0.3215  0.1084
  710TMC3    C810558   2.602   2.572  17.558 -0.2931 -0.1818 -1.0386
  710TMC3    O110559   2.490   2.489   0.355  0.9376  0.5148  0.4697
  710TMC3    O210560   2.708   2.510  17.566  0.2940  0.2564  0.5973
  711TMC3    C110561   2.202   3.019  14.888 -0.2449 -0.1627 -0.0815
  711TMC3    C210562   2.239   3.141  14.926  0.2436 -0.6103 -0.3002
  711TMC3    C310563   2.313   3.144  15.040 -0.8623 -0.5172  0.7036
  711TMC3    C410564   2.233   2.900  14.944 -0.1164  0.1925 -0.2309
  711TMC3    C510565   2.324   2.910  15.046  0.6837  0.1715  0.5219
  711TMC3    C610566   2.375   3.027  15.089  0.4757  0.4500  0.0516
  711TMC3     C10567   2.115   3.018  14.775  0.2341 -0.4055 -0.3295
  711TMC3     O10568   2.029   2.931  14.770  0.3381  0.0450  0.0422
  711TMC3     H10569   2.190   3.231  14.889 -1.0505 -0.7464  1.0865
  711TMC3    H110570   2.202   2.809  14.895  0.5515 -0.4450  0.5118
  711TMC3    H210571   2.437   3.018  15.177 -0.4361 -0.1657  0.6251
  711TMC3    C710572   2.393   2.789  15.091 -0.9319  0.0121 -0.2097
  711TMC3    C810573   2.270   3.246  15.128  0.2361 -0.0688 -0.1314
  711TMC3    O110574   2.505   2.791  15.146 -0.3132 -0.1955 -0.2787
  711TMC3    O210575   2.160   3.297  15.108  0.2200 -0.0849 -0.3698
  712MPD2     C10576   3.905   4.276  13.544 -0.2540 -0.4894 -0.3431
  712MPD2    C110577   3.783   4.333  13.564 -0.0195 -0.1665 -0.8501
  712MPD2    C210578   3.766   4.468  13.572  0.4645  0.3004  0.1438
  712MPD2    C310579   3.867   4.557  13.557 -0.8367  0.0180 -0.1344
  712MPD2    C410580   3.986   4.507  13.521  0.3527 -0.3858  0.7080
  712MPD2    C510581   4.000   4.370  13.513 -0.1569 -0.2495 -0.1328
  712MPD2     H10582   3.663   4.494  13.594  0.4921  0.1546  0.4455
  712MPD2    H110583   4.074   4.567  13.501  0.1476  0.3597  2.0683
  712MPD2    H210584   3.929   4.171  13.545  1.5062 -0.0970 -1.9601
  712MPD2    H310585   4.092   4.319  13.486  0.2199  1.0962 -1.3557
  712MPD2     N10586   3.857   4.696  13.563  0.0526 -0.8358 -0.5715
  712MPD2    H510587   3.943   0.006  13.544  0.2357 -0.9157  0.0572
  712MPD2    N110588   3.664   4.265  13.588 -0.3743 -0.6050  0.0785
  712MPD2    H710589   3.579   4.308  13.625 -0.4718 -0.8444  0.1291
  713TMC3    C110590   3.768   0.170  13.615  0.4479 -0.7069  0.0813
  713TMC3    C210591   3.892   0.216  13.655  0.3571  0.5427 -0.1323
  713TMC3    C310592   3.895   0.357  13.669  0.6830  0.1107 -0.3560
  713TMC3    C410593   3.663   0.248  13.597  0.6843 -0.6368  0.3152
  713TMC3    C510594   3.669   0.384  13.621  0.8667 -0.0731  0.6809
  713TMC3    C610595   3.787   0.437  13.657  0.0214 -0.0081 -0.3092
  713TMC3     C10596   3.740   0.025  13.591 -0.2978  0.3663  0.3180
  713TMC3     O10597   3.630   4.721  13.621  0.5611 -0.3805  0.2358
  713TMC3     H10598   3.978   0.157  13.687  0.2146  0.0127 -0.7354
  713TMC3    H110599   3.571   0.200  13.566 -0.0850 -0.6776  2.6643
  713TMC3    H210600   3.797   0.544  13.673  1.8256 -0.1442 -0.5365
  713TMC3    C710601   3.575   0.465  13.547 -0.2485  0.3216  0.5250
  713TMC3    C810602   4.025   0.414  13.701 -0.1065  0.0296  0.7675
  713TMC3    O110603   3.456   0.435  13.539  0.0346 -0.4238  0.0984
  713TMC3    O210604   4.023   0.516  13.765  0.0152  0.1548 -0.2118
  714MPD2     C10605   0.891   2.914   1.327 -0.2201  0.0734  0.1618
  714MPD2    C110606   0.863   2.841   1.215  0.2921 -0.3170 -0.1131
  714MPD2    C210607   0.746   2.882   1.142 -0.2455  0.4490  0.4056
  714MPD2    C310608   0.675   2.995   1.174  0.2084  0.1892 -0.0899
  714MPD2    C410609   0.708   3.057   1.291 -0.7726 -0.6554  0.1424
  714MPD2    C510610   0.817   3.019   1.368  0.3354 -0.3907 -0.9227
  714MPD2     H10611   0.734   2.832   1.047 -1.7289  0.9694  0.3196
  714MPD2    H110612   0.640   3.130   1.331  0.8987  1.2926 -0.5515
  714MPD2    H210613   0.986   2.900   1.379 -1.9587  0.9650  3.5978
  714MPD2    H310614   0.848   3.081   1.451  0.6988 -1.5903 -0.1590
  714MPD2     N10615   0.564   3.034   1.096 -0.0884 -0.8819  0.2404
  714MPD2    H510616   0.544   2.972   1.018  0.1015  0.7083 -1.0864
  714MPD2    N110617   0.950   2.736   1.184 -0.3249 -0.5258  0.5690
  714MPD2    H710618   1.017   2.714   1.258  1.1618 -2.1229 -1.2771
  715TMC3    C110619   1.050   2.546   1.090  0.6821 -0.1479  0.1744
  715TMC3    C210620   1.040   2.435   1.008 -0.4567 -0.3791  0.2615
  715TMC3    C310621   1.145   2.345   1.012  0.1204 -0.2188 -0.1820
  715TMC3    C410622   1.152   2.567   1.180 -0.2217  0.8356  0.3416
  715TMC3    C510623   1.256   2.478   1.178 -0.6168 -0.0482  0.1664
  715TMC3    C610624   1.256   2.365   1.095 -0.1898 -0.2921  0.7212
  715TMC3     C10625   0.951   2.651   1.075 -0.2229  0.1185  0.3081
  715TMC3     O10626   0.865   2.642   0.990  0.4579  0.0164  0.6099
  715TMC3     H10627   0.963   2.425   0.932 -0.2343 -0.2013  0.0089
  715TMC3    H110628   1.175   2.655   1.239  1.8615  0.7098 -0.3104
  715TMC3    H210629   1.331   2.292   1.122  0.2040  0.0458  0.5273
  715TMC3    C710630   1.373   2.488   1.270  0.5533 -0.0692 -0.0867
  715TMC3    C810631   1.162   2.257   0.899  0.0195  0.1117 -1.0768
  715TMC3    O110632   1.471   2.436   1.221 -0.4940  0.4753  0.1006
  715TMC3    O210633   1.068   2.227   0.835  0.0378 -0.1623  0.1585
  716MPD2     C10634   1.062   1.701   9.663 -0.1452 -0.5617  0.7060
  716MPD2    C110635   0.961   1.623   9.720  0.1820 -0.0891 -0.0349
  716MPD2    C210636   0.994   1.499   9.774 -0.3926  0.5801  0.1286
  716MPD2    C310637   1.127   1.447   9.762  0.2699 -0.1773 -0.2003
  716MPD2    C410638   1.218   1.523   9.696 -0.3329  0.3725 -0.7257
  716MPD2    C510639   1.186   1.646   9.647 -0.2092  0.0706  0.2076
  716MPD2     H10640   0.926   1.435   9.829 -0.0673  0.0681 -0.0569
  716MPD2    H110641   1.322   1.500   9.677 -0.7461 -2.3315  0.3775
  716MPD2    H210642   1.038   1.796   9.618 -1.8870 -0.5857  1.5897
  716MPD2    H310643   1.262   1.695   9.587 -0.4729 -1.2214 -1.1666
  716MPD2     N10644   1.160   1.326   9.823  0.2962  0.1321 -0.0831
  716MPD2    H510645   1.082   1.272   9.861  1.3295  0.0005  1.8039
  716MPD2    N110646   0.828   1.679   9.726  0.4401 -0.0419 -0.4151
  716MPD2    H710647   0.822   1.773   9.687 -0.1105  0.6584  1.3635
  717TMC3    C110648   1.290   1.126   9.868 -0.0055 -0.0880  0.8606
  717TMC3    C210649   1.177   1.050   9.853 -0.6294 -0.8074 -0.9441
  717TMC3    C310650   1.181   0.919   9.881 -1.1319 -0.1116 -0.6572
  717TMC3    C410651   1.407   1.071   9.901  0.0718 -0.4781 -0.5951
  717TMC3    C510652   1.416   0.938   9.923 -0.0921 -0.0926  0.5160
  717TMC3    C610653   1.304   0.858   9.909  0.5564 -0.2785  0.0418
  717TMC3     C10654   1.286   1.267   9.826 -0.1306 -0.1046  0.2138
  717TMC3     O10655   1.391   1.323   9.800 -0.1552 -0.0450  0.3535
  717TMC3     H10656   1.086   1.092   9.812 -0.9451 -0.9314 -0.3775
  717TMC3    H110657   1.492   1.137   9.910 -0.6404  0.1131  1.9546
  717TMC3    H210658   1.319   0.753   9.930  0.0169  0.0801  2.2357
  717TMC3    C710659   1.543   0.863   9.910 -0.0722  0.1630 -0.6738
  717TMC3    C810660   1.053   0.852   9.880 -0.4109  1.1290  0.8391
  717TMC3    O110661   1.551   0.755   9.853  0.0488  0.4460  0.3541
  717TMC3    O210662   0.955   0.921   9.847 -0.4142  0.0014 -0.3524
  718MPD2     C10663   1.039   4.659  13.034 -0.3562 -0.3826  0.4364
  718MPD2    C110664   0.984   4.630  12.909 -0.2821 -1.0460  0.7910
  718MPD2    C210665   0.842   4.621  12.911 -0.3795  0.4421 -0.0344
  718MPD2    C310666   0.764   4.614  13.026  0.2369  0.1559  0.1839
  718MPD2    C410667   0.829   4.624  13.149 -0.1383 -0.1474 -0.3463
  718MPD2    C510668   0.960   4.654  13.152 -0.1138 -0.0827 -0.1504
  718MPD2     H10669   0.780   4.629  12.822  1.3638  0.6970 -1.2366
  718MPD2    H110670   0.770   4.616  13.239  0.8343  0.2231  0.3243
  718MPD2    H210671   1.146   4.672  13.047 -0.4373  1.8608 -1.2687
  718MPD2    H310672   1.015   4.669  13.244 -3.0591  0.7204  1.4856
  718MPD2     N10673   0.630   4.573  13.014 -0.4965  0.0260 -0.4719
  718MPD2    H510674   0.614   4.542  12.919  0.5605 -0.4867 -0.4838
  718MPD2    N110675   1.061   4.632  12.788  0.6929 -0.4298 -0.0129
  718MPD2    H710676   1.158   4.664  12.788  0.7487 -0.6409 -2.4321
  719TMC3    C110677   1.098   4.606  12.558 -0.0347 -1.0032  0.2253
  719TMC3    C210678   1.031   4.545  12.453  0.1782  0.8249  0.2804
  719TMC3    C310679   1.010   4.617  12.334  0.6183  0.2017 -0.2454
  719TMC3    C410680   1.161   4.729  12.539 -0.6432  0.5324  0.3704
  719TMC3    C510681   1.144   0.052  12.419 -0.0595  0.5974 -0.0016
  719TMC3    C610682   1.066   0.002  12.322 -0.2472 -0.1404  0.0928
  719TMC3     C10683   1.003   4.597  12.671 -0.2019 -0.2260 -0.1510
  719TMC3     O10684   0.890   4.552  12.643 -0.1941  0.1991  0.1376
  719TMC3     H10685   0.983   4.448  12.452  0.6310  0.5921  1.7220
  719TMC3    H110686   1.215   0.031  12.624 -2.8626  0.9464  1.5874
  719TMC3    H210687   1.045   0.051  12.227 -2.2838  0.5279  0.8954
  719TMC3    C710688   1.202   0.187  12.399  0.4013  0.3596 -0.0317
  719TMC3    C810689   0.868   4.625  12.287  0.6101  0.0411 -0.0482
  719TMC3    O110690   1.158   0.254  12.307 -0.1045 -0.1577  0.8160
  719TMC3    O210691   0.848   4.673  12.175 -0.3741  0.0396  0.1100
  720MPD2     C10692   3.222   1.756  13.673 -0.0273  0.1053 -0.0662
  720MPD2    C110693   3.308   1.780  13.567  0.1768 -0.1060 -0.6485
  720MPD2    C210694   3.444   1.756  13.583  0.0203  0.0439  0.3186
  720MPD2    C310695   3.496   1.724  13.710 -0.5553 -0.0417  0.4126
  720MPD2    C410696   3.404   1.708  13.814  0.2259 -0.1174  0.0181
  720MPD2    C510697   3.272   1.723  13.796  0.0736  0.1856  0.4428
  720MPD2     H10698   3.506   1.783  13.498  0.6679  0.6281  0.9870
  720MPD2    H110699   3.442   1.661  13.904 -0.3955  0.2488  0.4726
  720MPD2    H210700   3.115   1.770  13.663  0.1891  0.4092 -2.0660
  720MPD2    H310701   3.200   1.693  13.872 -0.5131 -1.5761 -0.8255
  720MPD2     N10702   3.635   1.717  13.730  0.5717 -0.0331 -0.2040
  720MPD2    H510703   3.698   1.724  13.651  1.1072 -0.8996  0.1339
  720MPD2    N110704   3.260   1.811  13.436  0.1173 -0.5958 -0.7196
  720MPD2    H710705   3.329   1.808  13.361  1.7388  0.9658  0.7059
  721TMC3    C110706   3.849   1.703  13.822  0.5987  0.4787 -0.7133
  721TMC3    C210707   3.933   1.668  13.922  0.3987 -0.1625 -0.0400
  721TMC3    C310708   4.067   1.654  13.906  0.6177 -0.3795  0.0285
  721TMC3    C410709   3.905   1.741  13.701 -0.1676 -0.1895  0.3808
  721TMC3    C510710   4.042   1.732  13.682 -0.3202 -0.3507  0.2927
  721TMC3    C610711   4.121   1.687  13.783  0.4616  0.2813 -0.3651
  721TMC3     C10712   3.705   1.713  13.846  0.6043 -0.1851 -0.1794
  721TMC3     O10713   3.659   1.713  13.962  0.2888 -0.6179  0.6435
  721TMC3     H10714   3.898   1.650  14.023  0.5850 -1.7696 -0.2694
  721TMC3    H110715   3.853   1.801  13.627  1.1831 -0.4795 -0.7897
  721TMC3    H210716   4.229   1.702  13.783  0.4295  0.5551 -1.3857
  721TMC3    C710717   4.098   1.779  13.556 -0.0369  0.2130 -0.7191
  721TMC3    C810718   4.166   1.636  14.021  0.1879  0.6386  0.4599
  721TMC3    O110719   4.013   1.809  13.469 -0.9759  0.5539  0.1318
  721TMC3    O210720   4.282   1.613  13.987  0.6763 -0.4553 -0.8049
  722MPD2     C10721   2.728   0.166  13.144 -0.1656 -0.0414  0.4513
  722MPD2    C110722   2.678   0.290  13.115 -0.0558 -0.3275 -0.4779
  722MPD2    C210723   2.546   0.302  13.076  0.1689  0.0665  0.5123
  722MPD2    C310724   2.459   0.190  13.076 -0.1962 -0.3226 -0.4276
  722MPD2    C410725   2.510   0.068  13.122 -0.5706 -0.1024  0.0629
  722MPD2    C510726   2.644   0.058  13.156 -0.2205  0.0101 -0.2738
  722MPD2     H10727   2.513   0.396  13.033 -1.3087 -0.8704 -0.3960
  722MPD2    H110728   2.450   4.718  13.112 -0.8876 -0.0981  2.0982
  722MPD2    H210729   2.835   0.155  13.160 -0.2674 -1.8554 -0.0250
  722MPD2    H310730   2.684   4.700  13.177 -1.2383 -0.6873 -1.5619
  722MPD2     N10731   2.329   0.200  13.021  1.0586 -0.0288  0.0301
  722MPD2    H510732   2.311   0.294  12.986 -0.6016 -0.0044  0.9259
  722MPD2    N110733   2.752   0.413  13.100 -0.1594 -0.2306  0.2118
  722MPD2    H710734   2.704   0.499  13.077  1.4030  0.2854 -1.0711
  723TMC3    C110735   2.123   0.150  12.915 -0.3392 -0.8982 -0.5437
  723TMC3    C210736   2.041   0.058  12.868  0.6596 -0.5561  0.3332
  723TMC3    C310737   1.917   0.091  12.814 -0.2993 -0.0699 -1.0868
  723TMC3    C410738   2.091   0.283  12.907 -0.6137 -0.0421 -0.2435
  723TMC3    C510739   1.969   0.311  12.851 -0.5828  0.4327 -0.4393
  723TMC3    C610740   1.887   0.219  12.789 -0.4054 -0.4201 -0.2315
  723TMC3     C10741   2.238   0.099  12.996  0.3077 -0.0975 -1.0789
  723TMC3     O10742   2.242   4.720  13.024 -0.2839  0.3601  0.1392
  723TMC3     H10743   2.074   4.695  12.875 -0.9852 -1.1231 -0.2827
  723TMC3    H110744   2.152   0.365  12.944 -0.8793 -0.7707  1.8186
  723TMC3    H210745   1.792   0.244  12.743 -2.2148 -1.6600  2.8277
  723TMC3    C710746   1.925   0.445  12.829  0.0574  0.0901 -0.4646
  723TMC3    C810747   1.810   4.737  12.814 -0.4122  0.3072 -0.1532
  723TMC3    O110748   1.806   0.459  12.861 -0.2244  0.1263 -0.3204
  723TMC3    O210749   1.691   0.025  12.784  0.0700 -0.3023 -0.5180
  724TMC3    C110750   2.955   3.574  10.853 -1.2308 -0.1022 -1.2620
  724TMC3    C210751   3.026   3.489  10.773 -0.1608 -0.2565  0.7431
  724TMC3    C310752   3.136   3.545  10.714 -0.5092  0.5641 -0.3124
  724TMC3    C410753   2.979   3.709  10.866 -0.5435  0.2907 -0.2664
  724TMC3    C510754   3.098   3.754  10.818  0.1121 -0.5639  0.2724
  724TMC3    C610755   3.177   3.671  10.742  0.1291 -0.0845 -0.3914
  724TMC3     C10756   2.837   3.522  10.910 -0.1776  0.7548 -0.7281
  724TMC3     O10757   2.782   3.603  10.988  0.4013  0.2350 -0.7385
  724TMC3     H10758   3.015   3.381  10.769 -1.4127 -0.1066  0.1527
  724TMC3    H110759   2.912   3.775  10.921 -2.3306  0.1936 -2.3452
  724TMC3    H210760   3.279   3.704  10.729  0.6933 -2.3577 -1.7080
  724TMC3    C710761   3.089   3.881  10.756 -0.4306  0.1718 -0.1701
  724TMC3    C810762   3.113   3.528  10.574  0.6452 -0.7167  0.5452
  724TMC3    O110763   3.154   3.886  10.653 -0.7037  0.2185  0.7051
  724TMC3    O210764   3.041   3.436  10.546  0.6316 -0.0589  0.0675
  725TMC3    C110765   4.456   2.188  12.384 -0.3308  0.0163 -0.4737
  725TMC3    C210766   4.395   2.251  12.274  0.1679 -0.6543 -0.0132
  725TMC3    C310767   4.327   2.172  12.186 -0.3784  0.0666 -0.6245
  725TMC3    C410768   4.420   2.069  12.422 -0.3539 -0.0405 -0.0525
  725TMC3    C510769   4.327   1.998  12.350 -0.5948 -0.0337  0.1935
  725TMC3    C610770   4.282   2.049  12.226  0.4633 -0.2911  0.1587
  725TMC3     C10771   4.559   2.264  12.451 -0.5466 -0.3494  0.4927
  725TMC3     O10772   4.546   2.388  12.450 -0.0019 -0.4409 -0.4079
  725TMC3     H10773   4.429   2.351  12.249 -0.7279 -0.1737  0.6884
  725TMC3    H110774   4.492   2.032  12.495  0.6090  0.2186 -0.8696
  725TMC3    H210775   4.210   1.994  12.167 -1.7680  0.5025  2.1276
  725TMC3    C710776   4.301   1.859  12.385 -0.0681 -0.2845  0.1444
  725TMC3    C810777   4.313   2.209  12.049 -0.7445 -0.7046  0.0161
  725TMC3    O110778   4.209   1.806  12.322 -0.0980  0.5754 -0.6145
  725TMC3    O210779   4.314   2.332  12.026  0.6334  0.5099 -0.6630
  726MPD2     C10780   1.926   3.223   9.990  0.2203  0.0800  0.3930
  726MPD2    C110781   1.851   3.335   9.991 -0.3104  0.2574 -0.2428
  726MPD2    C210782   1.728   3.326  10.054 -0.1721  0.0271 -1.0754
  726MPD2    C310783   1.681   3.207  10.106 -0.0214  0.2152 -0.0592
  726MPD2    C410784   1.768   3.101  10.115 -0.5631 -0.2931 -0.1204
  726MPD2    C510785   1.887   3.112  10.056  0.5392  0.3672  0.2493
  726MPD2     H10786   1.659   3.409  10.063 -0.1774  0.1320 -2.0927
  726MPD2    H110787   1.732   3.007  10.153  0.3766 -0.6395 -0.0839
  726MPD2    H210788   2.027   3.221   9.950 -0.2577  0.2355 -0.8085
  726MPD2    H310789   1.959   3.031  10.060  0.2468  0.1901  2.0753
  726MPD2     N10790   1.558   3.203  10.178  0.0151  0.4875 -0.6925
  726MPD2    H510791   1.534   3.111  10.214 -1.3997  1.6999  1.4849
  726MPD2    N110792   1.887   3.463   9.939 -0.9181 -0.3742  0.1454
  726MPD2    H710793   1.824   3.541   9.956  0.2936  0.5632  0.2994
  727TMC3    C110794   2.031   3.617   9.849 -0.6524 -0.4455  0.0493
  727TMC3    C210795   2.150   3.675   9.872  0.3087 -0.5844 -0.2787
  727TMC3    C310796   2.152   3.810   9.850  0.5579  0.2442 -0.2991
  727TMC3    C410797   1.922   3.671   9.786  0.2098  0.3725 -0.7827
  727TMC3    C510798   1.943   3.801   9.736  0.2467  0.7427 -0.5102
  727TMC3    C610799   2.058   3.864   9.774  0.3774  0.3763 -0.1067
  727TMC3     C10800   2.016   3.487   9.901  0.3924  0.0214 -0.5114
  727TMC3     O10801   2.121   3.431   9.927  0.4926  0.1357 -0.3288
  727TMC3     H10802   2.237   3.632   9.920  0.6620 -0.6734 -0.9872
  727TMC3    H110803   1.821   3.633   9.781  1.8408 -4.3459  2.2864
  727TMC3    H210804   2.057   3.972   9.764 -1.4803  0.3527 -0.0938
  727TMC3    C710805   1.828   3.887   9.739  1.0083 -0.7977  0.4071
  727TMC3    C810806   2.203   3.889   9.957 -0.5749 -0.8890 -0.2187
  727TMC3    O110807   1.828   3.976   9.822 -0.1621  0.8275 -0.3610
  727TMC3    O210808   2.297   3.843  10.019 -0.2437  0.1907 -0.2008
  728TMC3    C110809   1.590   1.811  14.759 -0.3910 -0.1037 -0.0960
  728TMC3    C210810   1.700   1.842  14.681  0.3126  0.5745 -0.2106
  728TMC3    C310811   1.684   1.920  14.567 -0.3512  0.1204  0.2420
  728TMC3    C410812   1.464   1.869  14.733  0.4198  0.0285  0.3916
  728TMC3    C510813   1.445   1.932  14.607  0.1513 -0.0972  0.6778
  728TMC3    C610814   1.556   1.965  14.537  0.3208  0.7755  0.0618
  728TMC3     C10815   1.620   1.735  14.878  0.1339 -0.1934 -0.2915
  728TMC3     O10816   1.736   1.700  14.888  0.1035  0.2443 -0.3135
  728TMC3     H10817   1.798   1.807  14.712  0.4436  0.0799 -1.1747
  728TMC3    H110818   1.379   1.852  14.798 -1.5444 -1.2764 -2.5435
  728TMC3    H210819   1.557   2.001  14.435 -1.3558  2.8692  0.7926
  728TMC3    C710820   1.318   1.998  14.587  0.4310 -0.4970  0.0996
  728TMC3    C810821   1.793   1.941  14.476 -0.5066  0.2020 -0.0708
  728TMC3    O110822   1.227   1.971  14.659 -0.3184  0.1439  0.3372
  728TMC3    O210823   1.773   1.960  14.356  0.1182  0.0530 -0.1097
  729MPD2     C10824   3.432   3.363  16.252  0.6384  0.1956 -0.1016
  729MPD2    C110825   3.519   3.387  16.351 -1.1711  0.7534 -0.3442
  729MPD2    C210826   3.488   3.346  16.480 -0.8433 -0.2811 -0.4933
  729MPD2    C310827   3.358   3.307  16.501 -0.2519  0.8184  0.6818
  729MPD2    C410828   3.265   3.298  16.401  0.8935  0.8193  0.4325
  729MPD2    C510829   3.304   3.315  16.272  0.5013 -0.1004 -0.5026
  729MPD2     H10830   3.558   3.352  16.562 -0.9595 -2.3930 -0.2439
  729MPD2    H110831   3.166   3.264  16.429  1.5356 -1.4050 -0.0528
  729MPD2    H210832   3.473   3.373  16.152  2.5044  1.0653  0.7382
  729MPD2    H310833   3.242   3.286  16.188 -1.7473  1.6339  0.5673
  729MPD2     N10834   3.321   3.283  16.634  0.1614  0.0002 -0.2477
  729MPD2    H510835   3.223   3.291  16.660  0.0991 -1.3968 -0.0469
  729MPD2    N110836   3.646   3.436  16.309 -0.7035  0.0436 -0.2224
  729MPD2    H710837   3.655   3.455  16.210 -0.0543  0.6616 -0.0472
  730TMC3    C110838   3.375   3.259  16.855 -0.1793 -0.4346  0.1435
  730TMC3    C210839   3.479   3.235  16.939  0.4705 -0.2898  0.4364
  730TMC3    C310840   3.513   3.333  17.029  0.4488  0.6981  0.1301
  730TMC3    C410841   3.287   3.358  16.885  0.0571  0.2233 -0.3468
  730TMC3    C510842   3.300   3.439  16.988  0.1851 -0.0172 -0.2557
  730TMC3    C610843   3.418   3.431  17.058  0.0001  0.5891 -0.0794
  730TMC3     C10844   3.405   3.224  16.723 -0.3862  0.1740  0.2146
  730TMC3     O10845   3.510   3.164  16.699 -0.3009 -0.1445  0.0882
  730TMC3     H10846   3.551   3.158  16.916  0.8979  0.2858 -0.1297
  730TMC3    H110847   3.203   3.377  16.819 -0.8444  2.4011  1.4300
  730TMC3    H210848   3.445   3.499  17.138  1.1285  1.0539 -0.8721
  730TMC3    C710849   3.229   3.564  16.984 -0.2013 -0.4859  0.6276
  730TMC3    C810850   3.656   3.360  17.009 -0.2116  0.5327 -0.4471
  730TMC3    O110851   3.179   3.593  16.873 -0.6553 -0.2432  0.0114
  730TMC3    O210852   3.719   3.289  16.931  0.1514 -0.5700  0.1524
  731MPD2     C10853   3.970   2.157  11.655 -0.9850  0.0097  0.5378
  731MPD2    C110854   3.997   2.027  11.689  0.6176  0.1498  0.1833
  731MPD2    C210855   3.988   1.990  11.825  0.2228 -0.3262 -0.3831
  731MPD2    C310856   3.953   2.084  11.921  0.2938 -0.1416  0.1232
  731MPD2    C410857   3.916   2.209  11.878  0.0635  0.1204  0.0050
  731MPD2    C510858   3.931   2.250  11.748  0.3546  0.1090  0.3104
  731MPD2     H10859   4.015   1.887  11.847  0.8770 -0.0929 -0.0999
  731MPD2    H110860   3.882   2.288  11.944  1.7725  3.1891 -2.7547
  731MPD2    H210861   3.983   2.196  11.555  0.0466  1.0782  1.0890
  731MPD2    H310862   3.905   2.354  11.731 -1.6610  0.0345  2.9200
  731MPD2     N10863   3.950   2.057  12.060 -0.3935 -0.2300 -0.1676
  731MPD2    H510864   3.953   1.963  12.097  0.1227 -0.1988 -0.1274
  731MPD2    N110865   4.043   1.945  11.583 -0.0392 -0.0800 -0.4763
  731MPD2    H710866   4.045   1.992  11.493  2.3526 -0.8676 -0.8077
  732TMC3    C110867   4.105   1.745  11.472 -0.2309  0.0645  0.3836
  732TMC3    C210868   4.014   1.778  11.373 -0.2029 -0.1063  0.1981
  732TMC3    C310869   3.966   1.678  11.296  0.0518 -0.4068 -0.7369
  732TMC3    C410870   4.140   1.613  11.492  0.1195  0.2859  0.3158
  732TMC3    C510871   4.096   1.516  11.402  0.3757 -0.3289  0.3491
  732TMC3    C610872   4.009   1.545  11.304 -0.8833 -0.4275 -0.5878
  732TMC3     C10873   4.077   1.812  11.595 -0.7212 -0.5083 -0.4901
  732TMC3     O10874   4.069   1.732  11.684  0.6210  0.4697  0.3216
  732TMC3     H10875   3.979   1.880  11.359  3.4403  0.9085 -1.4975
  732TMC3    H110876   4.217   1.591  11.566  0.5222 -0.5885 -0.3505
  732TMC3    H210877   3.965   1.463  11.248 -0.6469  0.9682 -2.7879
  732TMC3    C710878   4.141   1.377  11.421  0.0587 -0.3677  0.5543
  732TMC3    C810879   3.847   1.707  11.220  0.4723 -0.5127  0.2269
  732TMC3    O110880   4.173   1.336  11.309  0.1427  0.2561 -0.0421
  732TMC3    O210881   3.819   1.824  11.202 -0.6189 -0.3154 -0.0261
  733TMC3    C110882   0.172   4.471  13.045 -0.5865 -0.2236  0.0223
  733TMC3    C210883   0.291   4.489  13.112 -0.1245 -0.1475  0.3824
  733TMC3    C310884   0.399   4.538  13.041 -0.1089 -0.5705  0.6211
  733TMC3    C410885   0.157   4.497  12.905  0.5181 -0.0797  0.4344
  733TMC3    C510886   0.276   4.523  12.834 -0.8528  0.0929  0.2017
  733TMC3    C610887   0.392   4.552  12.902 -0.4809  0.1580 -0.0349
  733TMC3     C10888   0.050   4.498  13.114  0.2235 -0.7348 -0.0102
  733TMC3     O10889   4.710   4.570  13.056 -0.7788  0.6786  0.2529
  733TMC3     H10890   0.294   4.478  13.220 -0.4236 -0.1490  0.3922
  733TMC3    H110891   0.060   4.475  12.861 -0.2144  1.1640  1.4143
  733TMC3    H210892   0.479   4.584  12.845 -0.4139 -0.7615 -0.4516
  733TMC3    C710893   0.270   4.529  12.690  0.1126 -0.0827  0.0401
  733TMC3    C810894   0.532   4.551  13.109 -0.3732  0.7185 -0.0534
  733TMC3    O110895   0.165   4.549  12.636  0.5398 -0.1244  0.0853
  733TMC3    O210896   0.551   4.525  13.227 -0.7312  0.2265 -0.0174
  734MPD2     C10897   2.274   2.130  12.521  0.3889 -0.4320  0.2142
  734MPD2    C110898   2.167   2.074  12.472  0.2677  0.2766 -0.6558
  734MPD2    C210899   2.118   2.120  12.351  0.0497 -0.5383  0.1036
  734MPD2    C310900   2.187   2.206  12.274  0.3074  0.3928 -0.2900
  734MPD2    C410901   2.309   2.256  12.321  0.7185 -1.1263  0.6475
  734MPD2    C510902   2.347   2.214  12.447 -0.2251  0.2432  0.2586
  734MPD2     H10903   2.022   2.086  12.313  0.6317 -0.0665 -1.7786
  734MPD2    H110904   2.366   2.328  12.263 -0.9603 -1.3077 -1.2230
  734MPD2    H210905   2.317   2.093  12.614 -0.9846 -1.7635  0.3180
  734MPD2    H310906   2.441   2.245  12.491 -0.9819  1.4810  1.0271
  734MPD2     N10907   2.133   2.236  12.147 -0.3944  0.0434 -0.3566
  734MPD2    H510908   2.035   2.212  12.142 -0.0340 -1.6973  0.8754
  734MPD2    N110909   2.100   1.975  12.547  0.1400 -0.3358 -0.8255
  734MPD2    H710910   2.161   1.928  12.613 -0.5834 -0.4703 -0.2473
  735TMC3    C110911   1.913   1.821  12.586  0.5819 -0.2662 -0.6701
  735TMC3    C210912   1.784   1.807  12.554 -0.5068  0.1745  0.4704
  735TMC3    C310913   1.740   1.687  12.503  0.0685  0.2020  0.7091
  735TMC3    C410914   2.006   1.723  12.572 -0.0432 -0.1361  0.5234
  735TMC3    C510915   1.958   1.603  12.525 -0.9118  0.1833  0.1393
  735TMC3    C610916   1.824   1.578  12.488  0.2339 -0.1401 -0.2998
  735TMC3     C10917   1.963   1.945  12.526 -0.0641 -0.1152 -0.2907
  735TMC3     O10918   1.880   1.997  12.452  0.0078 -0.0742  0.2624
  735TMC3     H10919   1.706   1.880  12.571 -0.0738  0.6453  0.4515
  735TMC3    H110920   2.107   1.728  12.610  1.4850 -0.7320 -3.4847
  735TMC3    H210921   1.791   1.495  12.427  0.8404  0.6901 -1.7613
  735TMC3    C710922   2.057   1.537  12.442 -0.2853 -1.1309  0.4872
  735TMC3    C810923   1.653   1.699  12.387  0.4891 -0.4173  0.6171
  735TMC3    O110924   2.156   1.599  12.403 -0.0537 -0.3169 -0.2408
  735TMC3    O210925   1.603   1.598  12.340  0.3334 -0.6037 -0.7041
  736MPD2     C10926   2.060   1.188  12.317 -0.6501 -0.4826 -0.5278
  736MPD2    C110927   2.081   1.327  12.309 -0.3201  0.3218 -0.4352
  736MPD2    C210928   2.173   1.371  12.213  0.2089 -0.9388 -0.4342
  736MPD2    C310929   2.247   1.278  12.138  0.2376 -1.0562 -0.6715
  736MPD2    C410930   2.229   1.138  12.160 -0.3153  0.5769 -0.0224
  736MPD2    C510931   2.135   1.096  12.244  0.6647 -0.4172 -0.1012
  736MPD2     H10932   2.185   1.479  12.206 -0.0947 -0.9939 -1.8439
  736MPD2    H110933   2.294   1.061  12.119 -1.1656 -0.3022  0.2682
  736MPD2    H210934   1.999   1.146  12.396  2.0522  0.5981  2.1557
  736MPD2    H310935   2.118   0.990  12.261 -0.8350 -0.8444 -4.2800
  736MPD2     N10936   2.342   1.321  12.043  0.3755 -0.2460  0.7204
  736MPD2    H510937   2.386   1.245  11.991  2.8055  1.8855 -0.3252
  736MPD2    N110938   2.019   1.411  12.402  0.1928 -0.0682 -0.2512
  736MPD2    H710939   1.964   1.367  12.475  0.8476  1.0175  0.8930
  737TMC3    C110940   2.453   1.474  11.900  0.4614  0.3681 -0.6294
  737TMC3    C210941   2.516   1.600  11.883  0.0289  0.3300 -0.2634
  737TMC3    C310942   2.559   1.635  11.760 -1.0127 -0.1935 -0.1761
  737TMC3    C410943   2.449   1.382  11.794 -0.1233 -0.7235 -0.6495
  737TMC3    C510944   2.498   1.421  11.669  0.8574 -0.0603 -0.0912
  737TMC3    C610945   2.560   1.548  11.654 -0.3128 -0.1517 -0.5091
  737TMC3     C10946   2.380   1.447  12.026  0.2567 -0.2547  0.2731
  737TMC3     O10947   2.360   1.546  12.093  0.2433 -0.4696 -0.4136
  737TMC3     H10948   2.530   1.666  11.968  0.6138  2.5385 -2.0798
  737TMC3    H110949   2.398   1.287  11.806  1.5023 -1.3118  1.5830
  737TMC3    H210950   2.627   1.570  11.572 -0.2351 -0.7542 -0.6131
  737TMC3    C710951   2.528   1.323  11.575  0.4306  0.1106 -0.0157
  737TMC3    C810952   2.598   1.771  11.731 -0.6302 -0.3334  0.2286
  737TMC3    O110953   2.523   1.202  11.605  0.2274  0.4115 -0.5653
  737TMC3    O210954   2.644   1.841  11.818 -0.0755  0.2301 -0.0602
  738MPD2     C10955   2.628   0.615  14.460  0.5575  0.1222  0.1837
  738MPD2    C110956   2.680   0.619  14.589  0.4767  0.7367 -0.6137
  738MPD2    C210957   2.792   0.700  14.621 -0.9399 -0.2657  0.4434
  738MPD2    C310958   2.866   0.761  14.519 -0.9979  0.0892 -0.0152
  738MPD2    C410959   2.822   0.756  14.390  0.1738  0.4141  0.1106
  738MPD2    C510960   2.700   0.678  14.365  1.0422 -0.7069  0.0450
  738MPD2     H10961   2.818   0.708  14.726  0.2233  2.1605 -0.0413
  738MPD2    H110962   2.877   0.794  14.305 -0.4915  0.1080 -0.4643
  738MPD2    H210963   2.543   0.557  14.426  1.9671 -1.5261 -0.5212
  738MPD2    H310964   2.666   0.666  14.262  0.6748 -0.7144  0.1691
  738MPD2     N10965   2.990   0.830  14.527  0.4124  0.1862 -0.1137
  738MPD2    H510966   3.013   0.874  14.438  1.5518  2.7766  1.4670
  738MPD2    N110967   2.609   0.544  14.692 -0.0052  0.4592  0.3648
  738MPD2    H710968   2.656   0.524  14.780  0.5059  2.4429  0.5292
  739TMC3    C110969   3.170   0.953  14.596 -0.8006  0.9982 -0.0827
  739TMC3    C210970   3.214   0.952  14.467  0.4929 -0.4815  0.3100
  739TMC3    C310971   3.336   1.004  14.442 -0.1837  0.1423  0.1218
  739TMC3    C410972   3.239   1.009  14.699  0.0819  1.4053 -0.3602
  739TMC3    C510973   3.359   1.070  14.670 -0.0884  0.1719  0.0289
  739TMC3    C610974   3.408   1.073  14.539 -0.5877  0.0143 -0.5690
  739TMC3     C10975   3.054   0.868  14.637 -0.7480  0.1072  0.3614
  739TMC3     O10976   3.033   0.835  14.754  0.4902  0.2444  0.2801
  739TMC3     H10977   3.168   0.901  14.383 -0.6917 -0.8409  1.1944
  739TMC3    H110978   3.188   1.000  14.795 -2.2577 -2.6422 -1.9725
  739TMC3    H210979   3.509   1.107  14.520  0.3891 -1.9520  1.1215
  739TMC3    C710980   3.440   1.108  14.785 -0.2839  0.1781  0.5415
  739TMC3    C810981   3.381   1.026  14.299  0.1656  0.0935 -0.0295
  739TMC3    O110982   3.396   1.063  14.892 -0.1826 -0.5922 -0.2890
  739TMC3    O210983   3.351   0.943  14.211  0.0573  0.5486  0.0033
  740TMC3    C110984   3.265   2.051  14.080  0.7162 -0.4597 -0.0360
  740TMC3    C210985   3.328   1.995  14.188  0.5085 -0.5048  0.4531
  740TMC3    C310986   3.456   1.951  14.169  0.0151  0.3232  0.1777
  740TMC3    C410987   3.329   2.080  13.960 -0.1890 -0.8320  0.5626
  740TMC3    C510988   3.466   2.049  13.963  1.0383  0.0458  0.1602
  740TMC3    C610989   3.532   1.977  14.059 -0.2004  0.6630  0.4773
  740TMC3     C10990   3.140   1.994  14.041  0.5840 -0.2769 -0.1688
  740TMC3     O10991   3.116   1.998  13.922  0.1667  0.3166 -0.1779
  740TMC3     H10992   3.287   1.973  14.286  0.7610 -1.4543  0.3498
  740TMC3    H110993   3.285   2.144  13.885 -0.4882  0.7219  2.0545
  740TMC3    H210994   3.635   1.945  14.053 -0.7452 -1.4290  2.1152
  740TMC3    C710995   3.549   2.069  13.844 -0.1880 -0.0325 -0.0562
  740TMC3    C810996   3.513   1.863  14.271  0.2332 -0.1303 -0.1919
  740TMC3    O110997   3.669   2.045  13.857  0.0749  0.1957  0.3559
  740TMC3    O210998   3.460   1.874  14.380  0.0772 -0.3272 -0.3703
  741TMC3    C110999   2.575   1.694  13.477 -0.0156 -0.4635  0.2361
  741TMC3    C211000   2.523   1.647  13.593  0.3705  0.2269  0.0221
  741TMC3    C311001   2.605   1.574  13.660 -0.3179  0.6308  0.1717
  741TMC3    C411002   2.714   1.690  13.450 -0.1301  0.5248  0.2053
  741TMC3    C511003   2.796   1.613  13.527  0.1240  0.3616 -0.8343
  741TMC3    C611004   2.735   1.538  13.631 -0.1929  0.3296  0.1488
  741TMC3     C11005   2.480   1.768  13.404 -0.6232  0.6826 -0.5993
  741TMC3     O11006   2.358   1.752  13.422  0.3321  0.0321 -0.2635
  741TMC3     H11007   2.417   1.635  13.612  0.3479 -1.4918 -1.1948
  741TMC3    H111008   2.752   1.739  13.361 -1.2629  0.6680 -0.2078
  741TMC3    H211009   2.785   1.460  13.686 -0.6668 -0.8373 -1.0827
  741TMC3    C711010   2.914   1.572  13.463 -0.4561  0.0103  0.4550
  741TMC3    C811011   2.541   1.481  13.746 -0.0670  0.7427 -0.5909
  741TMC3    O111012   2.926   1.595  13.345  0.3603 -0.5216  0.4576
  741TMC3    O211013   2.574   1.362  13.734 -0.2812 -0.1155 -0.7514
  742TMC3    C111014   2.472   4.234  15.191 -0.4560  0.3181 -0.2641
  742TMC3    C211015   2.452   4.246  15.057  0.1908  0.4429 -0.4219
  742TMC3    C311016   2.551   4.317  14.991 -0.0731 -0.6334 -0.1918
  742TMC3    C411017   2.591   4.263  15.249  0.3163  0.1642  0.4450
  742TMC3    C511018   2.695   4.291  15.172 -0.3631  0.6105 -0.0001
  742TMC3    C611019   2.673   4.327  15.046 -0.2050 -0.1132 -0.7240
  742TMC3     C11020   2.382   4.154  15.271 -0.1867 -0.0896  0.8492
  742TMC3     O11021   2.408   4.130  15.389  0.3090  0.2477  0.2658
  742TMC3     H11022   2.352   4.247  15.015  0.1700  0.8484 -0.3636
  742TMC3    H111023   2.604   4.253  15.356  2.0733 -0.6423  0.1623
  742TMC3    H211024   2.750   4.385  14.995  1.0470 -0.3474  0.8884
  742TMC3    C711025   2.832   4.309  15.225  0.2067 -0.1868  0.1482
  742TMC3    C811026   2.522   4.312  14.848 -0.0610 -0.8097 -0.1997
  742TMC3    O111027   2.916   4.353  15.150  0.4872 -0.3202 -0.1094
  742TMC3    O211028   2.447   4.222  14.821 -0.2866  0.3169  0.3333
  743MPD2     C11029   0.434   0.016   1.503 -0.5455 -1.2713 -0.1769
  743MPD2    C111030   0.508   0.116   1.451  0.0630  0.3840 -0.2885
  743MPD2    C211031   0.645   0.122   1.478 -0.3672 -0.5510 -0.1574
  743MPD2    C311032   0.701   0.024   1.562  0.1759 -0.6769  0.2430
  743MPD2    C411033   0.625   4.657   1.610  0.9772 -0.0287 -0.0205
  743MPD2    C511034   0.491   4.659   1.584 -0.3644  0.0643 -0.2908
  743MPD2     H11035   0.711   0.190   1.426 -1.4129 -2.0848 -3.4744
  743MPD2    H111036   0.667   4.582   1.675 -2.1375 -0.3988  1.5389
  743MPD2    H211037   0.330   0.010   1.474 -1.2424  1.0013  1.8955
  743MPD2    H311038   0.432   4.575   1.620 -1.7955  1.5822  0.9165
  743MPD2     N11039   0.833   0.046   1.604 -0.5709 -0.6458 -0.5417
  743MPD2    H511040   0.874   0.137   1.585  0.5403 -1.3320 -1.4158
  743MPD2    N111041   0.439   0.212   1.369 -0.1182  0.1115  0.0612
  743MPD2    H711042   0.338   0.218   1.360  0.4630  2.7454 -5.2623
  744TMC3    C111043   0.409   0.391   1.208  0.7386  0.3464 -0.3932
  744TMC3    C211044   0.295   0.430   1.276  0.5597 -0.2953 -0.1730
  744TMC3    C311045   0.203   0.499   1.208 -0.3244 -0.3348 -0.3853
  744TMC3    C411046   0.433   0.433   1.080 -0.0738 -0.1141 -0.8504
  744TMC3    C511047   0.340   0.510   1.019  0.2104 -0.4176  0.4811
  744TMC3    C611048   0.227   0.548   1.082  0.2798  0.0996 -0.5894
  744TMC3     C11049   0.492   0.293   1.266  0.2804 -0.3289 -0.3283
  744TMC3     O11050   0.606   0.297   1.229 -0.0315 -0.4827 -0.4757
  744TMC3     H11051   0.278   0.393   1.377 -1.1922 -0.6990 -0.6196
  744TMC3    H111052   0.521   0.403   1.024 -0.4190 -0.7142 -1.0647
  744TMC3    H211053   0.160   0.623   1.041 -0.1038  0.7484  1.2250
  744TMC3    C711054   0.340   0.530   0.875 -0.1014  1.0265  0.4069
  744TMC3    C811055   0.073   0.525   1.263  0.0285  0.3936 -0.1575
  744TMC3    O111056   0.283   0.630   0.832  0.3744  0.5137  0.4066
  744TMC3    O211057   0.002   0.603   1.201  0.4154 -0.5220  0.5843
  745TMC3    C111058   3.502   4.112  13.547  0.2042 -0.3247  0.5646
  745TMC3    C211059   3.436   4.162  13.651 -0.4144  0.2354 -0.4236
  745TMC3    C311060   3.299   4.160  13.635 -0.5139 -0.2830  0.1718
  745TMC3    C411061   3.447   4.073  13.431  0.1549  0.3058 -0.6087
  745TMC3    C511062   3.311   4.094  13.409 -0.3353 -0.0057 -0.3713
  745TMC3    C611063   3.231   4.139  13.516 -0.1760  0.4465 -0.9203
  745TMC3     C11064   3.639   4.145  13.536  0.0410 -0.3823  0.2053
  745TMC3     O11065   3.705   4.078  13.460  0.2659  0.0306 -0.2642
  745TMC3     H11066   3.487   4.180  13.745 -1.0025  1.5544 -0.3568
  745TMC3    H111067   3.517   4.046  13.353  0.1276  0.4264 -0.6744
  745TMC3    H211068   3.124   4.152  13.507 -0.3204  0.2602  0.5241
  745TMC3    C711069   3.285   4.178  13.294 -0.2636  0.7261  0.2279
  745TMC3    C811070   3.216   4.192  13.753  0.4536  0.2188 -0.3449
  745TMC3    O111071   3.170   4.192  13.253  0.1079  0.9861  0.3447
  745TMC3    O211072   3.101   4.150  13.767 -0.3329  1.0257  0.1834
  746TMC3    C111073   1.377   1.107  10.815  0.9330 -0.8952 -0.5815
  746TMC3    C211074   1.302   1.105  10.700  0.6449 -0.3289  0.5725
  746TMC3    C311075   1.200   1.012  10.683  0.1917 -0.7901 -0.5513
  746TMC3    C411076   1.350   1.016  10.914 -0.6709  0.5192  0.6192
  746TMC3    C511077   1.247   0.924  10.897  0.3793  0.0136 -0.3577
  746TMC3    C611078   1.176   0.922  10.782 -0.5307  0.5565  0.3958
  746TMC3     C11079   1.363   1.235  10.869  0.7958 -0.6804 -0.2061
  746TMC3     O11080   1.275   1.300  10.817  0.0460  0.6291 -0.2318
  746TMC3     H11081   1.317   1.177  10.621 -1.7676 -2.7604 -2.1141
  746TMC3    H111082   1.405   1.016  11.007  0.6998 -0.7187 -0.1922
  746TMC3    H211083   1.082   0.868  10.784  0.1780 -0.6645  1.0374
  746TMC3    C711084   1.170   0.897  11.016  0.4783 -0.4637  0.0741
  746TMC3    C811085   1.081   1.054  10.607  0.1184 -0.5762 -0.1161
  746TMC3    O111086   1.060   0.843  11.004  0.1714 -0.1144  0.2796
  746TMC3    O211087   0.999   0.968  10.576 -0.7217  0.4026 -1.1504
  747TMC3    C111088   2.969   1.597  10.646  0.3497 -0.5270  0.3372
  747TMC3    C211089   2.916   1.500  10.721 -0.0204 -0.0148 -0.6066
  747TMC3    C311090   2.911   1.525  10.858 -0.2474 -0.2237  0.0406
  747TMC3    C411091   3.012   1.716  10.690 -0.9891  0.0749 -0.2809
  747TMC3    C511092   3.012   1.738  10.823  0.2526 -0.1420 -0.2239
  747TMC3    C611093   2.961   1.641  10.907  0.2418 -0.6483 -0.0009
  747TMC3     C11094   2.901   1.607  10.517 -0.2518  0.2584  0.6280
  747TMC3     O11095   2.871   1.723  10.481  0.1768  0.6834  0.2336
  747TMC3     H11096   2.897   1.400  10.684  2.1768 -1.0772  1.1844
  747TMC3    H111097   3.049   1.791  10.621 -1.5226  0.0793 -0.5625
  747TMC3    H211098   2.969   1.661  11.013  1.0382  0.1453 -0.2176
  747TMC3    C711099   3.060   1.866  10.875 -0.5213 -0.5344  0.6100
  747TMC3    C811100   2.883   1.412  10.941 -0.3928 -0.6303 -0.1199
  747TMC3    O111101   3.120   1.864  10.981 -0.2722 -0.4910  0.1681
  747TMC3    O211102   2.886   1.304  10.885  0.1495  0.2050 -0.3843
  748MPD2     C11103   4.346   2.125   1.697 -0.2980 -0.3317 -0.1861
  748MPD2    C111104   4.393   2.062   1.586 -0.2131  0.2304  0.1566
  748MPD2    C211105   4.524   2.077   1.542  0.0082 -0.6390 -0.2495
  748MPD2    C311106   4.603   2.162   1.619 -0.5460  0.2187 -0.0259
  748MPD2    C411107   4.554   2.226   1.730  0.1103  0.4604  0.3841
  748MPD2    C511108   4.428   2.210   1.771 -0.1814 -0.2289 -0.6521
  748MPD2     H11109   4.562   2.045   1.445  0.7095  0.1660 -0.2341
  748MPD2    H111110   4.616   2.303   1.774  0.7234 -0.5713  1.3298
  748MPD2    H211111   4.239   2.118   1.712 -0.0806 -0.8400  1.1047
  748MPD2    H311112   4.391   2.275   1.850  1.1610  1.4471 -1.3926
  748MPD2     N11113   4.735   2.175   1.581  0.2745  0.2641 -0.3563
  748MPD2    H511114   0.024   2.118   1.502  1.8015  0.2925  0.1617
  748MPD2    N111115   4.298   1.987   1.515  0.2053  0.8261  0.4928
  748MPD2    H711116   4.205   1.970   1.549 -0.2248  2.4225  0.0851
  749TMC3    C111117   0.220   2.244   1.575 -0.2400 -0.1727 -0.0568
  749TMC3    C211118   0.333   2.250   1.650  0.9344 -0.2220  0.2953
  749TMC3    C311119   0.446   2.260   1.580  0.8083  0.7186 -0.0374
  749TMC3    C411120   0.212   2.260   1.437 -0.5290 -0.0438 -0.0235
  749TMC3    C511121   0.331   2.274   1.375 -0.0678  0.5620 -0.2509
  749TMC3    C611122   0.446   2.276   1.444 -0.3646 -0.0114  0.0485
  749TMC3     C11123   0.098   2.232   1.652 -0.6147  0.4674  0.3538
  749TMC3     O11124   0.103   2.268   1.766  0.3691  0.3412 -0.2557
  749TMC3     H11125   0.327   2.224   1.755 -1.4513  0.7113  0.3951
  749TMC3    H111126   0.123   2.283   1.381 -0.3774  3.0758  0.9711
  749TMC3    H211127   0.542   2.288   1.394  0.1901 -0.9211  0.8931
  749TMC3    C711128   0.340   2.303   1.228 -0.8281 -0.3527  0.4846
  749TMC3    C811129   0.562   2.210   1.644 -0.0484 -0.1563 -0.2141
  749TMC3    O111130   0.448   2.336   1.196  0.0663 -0.4781  0.0532
  749TMC3    O211131   0.591   2.239   1.757 -0.4900  0.5391  0.2157
  750MPD2     C11132   0.804   3.436  11.076 -0.0534 -0.1438 -0.1394
  750MPD2    C111133   0.741   3.406  11.195  0.0908  0.3060  0.1283
  750MPD2    C211134   0.740   3.276  11.242  0.1478  0.1616  0.2792
  750MPD2    C311135   0.799   3.169  11.178 -0.1535 -0.0391 -0.2030
  750MPD2    C411136   0.857   3.198  11.057 -0.0917 -0.3789  0.0087
  750MPD2    C511137   0.868   3.329  11.007  0.6153 -0.8774 -0.5745
  750MPD2     H11138   0.685   3.247  11.331  1.8987 -0.6673  1.0877
  750MPD2    H111139   0.895   3.113  11.001  0.1672  0.2177 -0.7198
  750MPD2    H211140   0.799   3.532  11.026 -0.3094  0.0157  0.1932
  750MPD2    H311141   0.919   3.330  10.912  2.5143 -1.0044  0.4326
  750MPD2     N11142   0.795   3.036  11.223  0.0332  0.7773  0.0226
  750MPD2    H511143   0.850   2.966  11.174 -1.1824  1.1489 -1.8841
  750MPD2    N111144   0.664   3.511  11.253  0.3209  0.6433 -0.4597
  750MPD2    H711145   0.688   3.604  11.219  0.1750  0.5554 -0.8041
  751TMC3    C111146   0.746   2.858  11.368  0.5704  0.7608  0.0281
  751TMC3    C211147   0.742   2.828  11.503  0.1838 -0.0879  0.7086
  751TMC3    C311148   0.794   2.709  11.546  0.2481 -0.1888 -0.3764
  751TMC3    C411149   0.807   2.773  11.279  0.1140 -0.9772 -0.3578
  751TMC3    C511150   0.868   2.662  11.331 -0.5275  0.6189  0.6494
  751TMC3    C611151   0.865   2.629  11.463  0.8700 -0.1453 -0.3276
  751TMC3     C11152   0.739   2.997  11.346 -0.4235  0.5911 -0.3586
  751TMC3     O11153   0.690   3.069  11.431  0.5505 -0.3340  0.7418
  751TMC3     H11154   0.682   2.890  11.568  0.5668  2.3931 -1.2902
  751TMC3    H111155   0.798   2.795  11.174  0.6428 -0.6434 -0.3321
  751TMC3    H211156   0.930   2.555  11.508  0.6099 -1.6408 -2.4096
  751TMC3    C711157   0.904   2.560  11.230 -0.5088 -0.1994 -0.2926
  751TMC3    C811158   0.837   2.724  11.687 -0.2665 -0.1474 -0.5699
  751TMC3    O111159   0.958   2.612  11.128 -0.1432  0.5979 -0.5592
  751TMC3    O211160   0.872   2.837  11.718  0.1779  0.3658  0.5982
  752TMC3    C111161   4.108   3.568  17.261 -0.0333 -0.2412  0.5646
  752TMC3    C211162   4.106   3.431  17.258 -0.0162 -0.4759 -0.6405
  752TMC3    C311163   4.042   3.363  17.358 -0.1364  0.1893 -0.3268
  752TMC3    C411164   4.059   3.633  17.370  0.3078 -0.6574  0.2992
  752TMC3    C511165   3.998   3.561  17.469  0.1774 -0.1175 -0.2080
  752TMC3    C611166   3.983   3.429  17.465 -0.0116  0.3111  0.2578
  752TMC3     C11167   4.175   3.647  17.165 -0.7728 -0.2629  0.0479
  752TMC3     O11168   4.204   3.758  17.214  0.0110 -0.0559 -0.5497
  752TMC3     H11169   4.163   3.372  17.187  1.6397 -2.1188  2.0194
  752TMC3    H111170   4.061   3.742  17.369 -2.6567 -0.5817  0.9687
  752TMC3    H211171   3.935   3.373  17.544  0.2204 -2.2988 -1.4628
  752TMC3    C711172   3.944   3.622  17.587  0.0235  0.5462  0.3725
  752TMC3    C811173   4.071   3.224  17.368  0.7046  0.2900  0.1487
  752TMC3    O111174   3.929   3.554  17.687 -0.1748 -0.5544 -0.5933
  752TMC3    O211175   4.130   3.173  17.278  0.2782 -0.0328  0.6100
  753TMC3    C111176   1.505   3.798  13.380  0.1279 -0.1199 -1.3982
  753TMC3    C211177   1.479   3.848  13.510  0.0529 -0.1121  0.3183
  753TMC3    C311178   1.367   3.811  13.569  0.0022  0.0767 -0.7471
  753TMC3    C411179   1.435   3.702  13.316 -0.1358  0.0069 -0.3374
  753TMC3    C511180   1.335   3.651  13.393  0.1942  0.0941  0.5611
  753TMC3    C611181   1.292   3.707  13.514  0.6637  0.2203 -0.0556
  753TMC3     C11182   1.609   3.854  13.303  0.0938  0.4916 -1.1952
  753TMC3     O11183   1.651   3.789  13.202  0.7663 -0.1384  0.1139
  753TMC3     H11184   1.552   3.906  13.564 -0.8526  2.4206 -1.1782
  753TMC3    H111185   1.452   3.665  13.215  0.1457  1.4930 -0.8516
  753TMC3    H211186   1.212   3.658  13.568  1.3763 -0.6343  0.2265
  753TMC3    C711187   1.290   3.515  13.366  0.5846 -0.4563 -0.7085
  753TMC3    C811188   1.357   3.815  13.714 -0.1089 -0.3802  0.3863
  753TMC3    O111189   1.192   3.467  13.411 -0.2517 -0.3595 -0.0684
  753TMC3    O211190   1.289   3.729  13.766 -1.3811  0.6535 -0.1188
  754MPD2     C11191   0.918   3.068  13.005 -0.2219  0.1865  0.4769
  754MPD2    C111192   0.894   2.943  12.961  0.0404 -0.1718  1.0703
  754MPD2    C211193   0.757   2.901  12.957  0.4809  0.3145 -0.9986
  754MPD2    C311194   0.655   2.985  12.996  0.0605  0.3353  0.3426
  754MPD2    C411195   0.677   3.109  13.035  0.2991 -0.7972 -0.3636
  754MPD2    C511196   0.812   3.151  13.042 -0.8619  0.0565  0.0810
  754MPD2     H11197   0.730   2.804  12.917 -1.3463 -1.2179  3.9560
  754MPD2    H111198   0.602   3.184  13.057  1.0687 -0.0312 -0.3417
  754MPD2    H211199   1.016   3.114  13.000  0.9143 -2.2817  0.2336
  754MPD2    H311200   0.839   3.252  13.071 -0.5031 -0.3316  1.0777
  754MPD2     N11201   0.514   2.950  12.986 -0.0883  0.4896 -0.2030
  754MPD2    H511202   0.447   3.021  13.016 -0.7246 -0.3208  0.2805
  754MPD2    N111203   1.011   2.860  12.936 -0.4296 -0.5102  0.1918
  754MPD2    H711204   1.100   2.907  12.930  0.3957 -2.1798 -0.6989
  755MPD2     C11205   4.470   3.365  13.222  0.0563 -0.1334 -0.7576
  755MPD2    C111206   4.450   3.228  13.234 -0.3104  0.3755 -0.0338
  755MPD2    C211207   4.555   3.142  13.195  0.1189 -0.3420  0.4525
  755MPD2    C311208   4.675   3.190  13.140  0.0658 -0.3393 -0.6484
  755MPD2    C411209   4.689   3.327  13.125  0.4176  0.1204  0.6146
  755MPD2    C511210   4.591   3.411  13.168 -0.5547  0.0652  0.2241
  755MPD2     H11211   4.540   3.036  13.207 -0.5529 -0.5089 -1.9176
  755MPD2    H111212   0.043   3.370  13.091  0.5728 -0.0864  0.7804
  755MPD2    H211213   4.406   3.440  13.266  0.1274  0.5643 -1.8403
  755MPD2    H311214   4.601   3.518  13.157  0.6908 -0.1269 -0.4352
  755MPD2     N11215   0.037   3.109  13.088  0.4495  0.4098  0.7044
  755MPD2    H511216   0.118   3.152  13.045 -0.3759 -0.7794 -2.0292
  755MPD2    N111217   4.333   3.174  13.295  0.8560  0.0264 -0.6916
  755MPD2    H711218   4.340   3.073  13.298  1.5813  0.0725 -0.9107
  756MPD2     C11219   0.196   3.386   9.585 -0.0549  0.3601 -0.4199
  756MPD2    C111220   0.109   3.391   9.691  0.0425  0.2199 -0.2115
  756MPD2    C211221   4.726   3.444   9.681 -0.0421 -0.1747 -0.1769
  756MPD2    C311222   4.686   3.493   9.561  0.4481  0.2097  0.9471
  756MPD2    C411223   0.041   3.494   9.458  0.4909  0.5477 -0.2786
  756MPD2    C511224   0.165   3.442   9.465  0.3202  0.5491 -0.0784
  756MPD2     H11225   4.655   3.444   9.763  0.0441  3.6070 -0.1354
  756MPD2    H111226   0.013   3.525   9.358  2.2934  1.3832 -0.5233
  756MPD2    H211227   0.284   3.324   9.597  0.5466  1.3236  0.2169
  756MPD2    H311228   0.223   3.418   9.377  1.6413 -0.1697  0.9898
  756MPD2     N11229   4.551   3.525   9.543 -0.1885  0.9066 -0.3916
  756MPD2    H511230   4.488   3.492   9.616  2.6420 -0.4906  1.4286
  756MPD2    N111231   0.151   3.361   9.822 -0.0740  0.4635  0.4985
  756MPD2    H711232   0.086   3.380   9.897 -0.2140 -0.3637  0.5863
  757MPD2     C11233   3.979   2.982   9.778  0.5171 -0.2790  0.4789
  757MPD2    C111234   4.103   3.035   9.811  0.4275  0.3593 -0.1117
  757MPD2    C211235   4.138   3.159   9.766  0.3628 -0.2566  0.1681
  757MPD2    C311236   4.057   3.243   9.689 -0.8606  0.1356  0.2582
  757MPD2    C411237   3.931   3.194   9.669 -0.0432 -0.6671  0.5243
  757MPD2    C511238   3.897   3.066   9.710  0.1355  0.6040 -0.0960
  757MPD2     H11239   4.233   3.197   9.800  0.2591  0.0625  0.0972
  757MPD2    H111240   3.864   3.260   9.615 -1.5982 -1.2315  1.7816
  757MPD2    H211241   3.936   2.891   9.819 -0.4702  2.0437  4.6744
  757MPD2    H311242   3.802   3.030   9.673  1.2772 -2.0624 -0.3847
  757MPD2     N11243   4.113   3.358   9.635 -0.2371 -0.2895  0.4304
  757MPD2    H511244   4.209   3.376   9.662 -0.7445  3.7368 -0.3345
  757MPD2    N111245   4.184   2.950   9.887 -0.3844 -0.4424  0.1744
  757MPD2    H711246   4.159   2.852   9.887  0.2259 -0.5981  1.5901
  758MPD2     C11247   0.449   2.863  15.607 -0.1214  0.0748 -0.6071
  758MPD2    C111248   0.512   2.814  15.716  0.0552 -0.6238  0.3832
  758MPD2    C211249   0.459   2.825  15.841 -0.4776  0.3578  0.2221
  758MPD2    C311250   0.331   2.874  15.859 -0.1968  0.1196  0.0545
  758MPD2    C411251   0.262   2.920  15.750  0.3736 -0.3369  0.7408
  758MPD2    C511252   0.327   2.919  15.631  0.4828  0.3727  0.6093
  758MPD2     H11253   0.528   2.802  15.921 -0.4384  1.1225  0.4059
  758MPD2    H111254   0.166   2.970  15.756  0.6144  0.1006  0.9789
  758MPD2    H211255   0.486   2.863  15.505  1.0857  0.3167 -0.1643
  758MPD2    H311256   0.283   2.952  15.537 -0.1517 -2.6382 -0.1576
  758MPD2     N11257   0.261   2.869  15.984 -0.2770  1.1717 -0.2993
  758MPD2    H511258   0.171   2.914  15.991  0.0974  1.8974 -0.0928
  758MPD2    N111259   0.645   2.766  15.702 -0.0129  0.1150  0.4367
  758MPD2    H711260   0.688   2.774  15.610 -0.0112  2.1864  0.6053
  759MPD2     C11261   3.646   1.441   8.955  1.1241 -0.9711 -0.1426
  759MPD2    C111262   3.673   1.354   9.055 -0.6413 -0.1419 -0.7499
  759MPD2    C211263   3.799   1.305   9.066  0.7117 -0.2346 -0.2971
  759MPD2    C311264   3.900   1.333   8.974 -0.2843  0.0812 -0.5896
  759MPD2    C411265   3.873   1.422   8.873  0.0593  0.7724 -0.4430
  759MPD2    C511266   3.744   1.470   8.867  0.4715 -0.3997 -0.2210
  759MPD2     H11267   3.828   1.241   9.148  1.1944 -1.0375 -1.0847
  759MPD2    H111268   3.942   1.451   8.795 -0.6401  0.4588 -1.1785
  759MPD2    H211269   3.548   1.487   8.950  1.6626 -0.1034 -2.7460
  759MPD2    H311270   3.717   1.543   8.793  1.0018  1.0581  1.0238
  759MPD2     N11271   4.027   1.272   8.984  0.1266 -0.0807  0.7220
  759MPD2    H511272   4.037   1.197   9.051 -0.0705 -0.1212  0.7042
  759MPD2    N111273   3.579   1.316   9.155 -0.4589 -0.7988  0.4505
  759MPD2    H711274   3.616   1.271   9.238  0.5327 -0.8893 -0.0357
  760MPD2     C11275   3.877   2.933  11.978 -0.6200 -0.3481  0.0587
  760MPD2    C111276   3.922   2.994  11.860 -0.3226  0.0784  1.1060
  760MPD2    C211277   3.943   2.915  11.754  0.1509  0.9692 -0.6927
  760MPD2    C311278   3.906   2.781  11.750 -0.1423  0.4837 -0.1114
  760MPD2    C411279   3.857   2.716  11.865 -0.2008 -0.5663 -0.5486
  760MPD2    C511280   3.836   2.796  11.976 -0.2092  0.5379  0.2850
  760MPD2     H11281   3.991   2.955  11.665 -0.1463 -0.1790 -1.3644
  760MPD2    H111282   3.828   2.612  11.861 -3.0232  0.1764  0.5706
  760MPD2    H211283   3.858   2.996  12.064  1.4436  0.7839 -0.3127
  760MPD2    H311284   3.790   2.752  12.063  0.0022 -1.0127 -0.3726
  760MPD2     N11285   3.917   2.702  11.635  0.2797  0.2007 -0.0318
  760MPD2    H511286   3.910   2.601  11.639 -1.9845  0.3897  1.0126
  760MPD2    N111287   3.966   3.127  11.848 -0.2132  0.7124  0.4670
  760MPD2    H711288   4.026   3.153  11.771  0.8709 -0.1552  1.0244
  761MPD2     C11289   0.676   2.217  11.792 -0.3518 -0.6162 -0.2142
  761MPD2    C111290   0.659   2.287  11.675 -0.1761 -0.1750 -0.6485
  761MPD2    C211291   0.708   2.419  11.665  0.1247 -0.5524  0.2686
  761MPD2    C311292   0.771   2.481  11.772  0.1028 -0.2698 -1.1784
  761MPD2    C411293   0.783   2.408  11.885 -0.1606 -0.3464 -0.5876
  761MPD2    C511294   0.746   2.280  11.891 -0.2307  0.0164  0.5595
  761MPD2     H11295   0.694   2.475  11.574 -1.2552 -2.1617 -0.5130
  761MPD2    H111296   0.837   2.451  11.969 -0.0093 -1.3137 -0.1885
  761MPD2    H211297   0.636   2.117  11.803  1.2707 -1.1716  0.7025
  761MPD2    H311298   0.782   2.222  11.975 -0.8971  0.3397  1.0641
  761MPD2     N11299   0.825   2.615  11.770  0.1958  0.4698 -0.1914
  761MPD2    H511300   0.858   2.641  11.863  1.8692 -1.0784 -0.3749
  761MPD2    N111301   0.582   2.219  11.572 -0.3879  0.7966 -0.2717
  761MPD2    H711302   0.565   2.121  11.593 -2.0868  0.5454 -2.8012
  762MPD2     C11303   0.590   2.457  10.792 -0.3271  0.4272  0.0379
  762MPD2    C111304   0.590   2.325  10.827  0.5234  0.4396 -0.7100
  762MPD2    C211305   0.633   2.234  10.731  0.5427 -0.3979 -0.0215
  762MPD2    C311306   0.690   2.281  10.610  0.0697  0.0958 -0.4423
  762MPD2    C411307   0.690   2.412  10.582  0.0602  0.3485  1.2923
  762MPD2    C511308   0.647   2.503  10.675 -0.2547  0.3870  0.0008
  762MPD2     H11309   0.617   2.127  10.733  0.3136 -0.3458  1.1067
  762MPD2    H111310   0.725   2.450  10.486  0.1201 -0.2693  1.0628
  762MPD2    H211311   0.547   2.528  10.861  1.1581  0.2180  1.1822
  762MPD2    H311312   0.643   2.609  10.653 -2.1285  0.3694  0.2900
  762MPD2     N11313   0.728   2.180  10.520  0.5150  0.0308  0.2426
  762MPD2    H511314   0.717   2.087  10.559  0.9237 -0.9815 -2.1069
  762MPD2    N111315   0.534   2.291  10.953  0.2594 -0.0516  0.2435
  762MPD2    H711316   0.516   2.365  11.020 -1.1713  0.5963 -0.8669
  763MPD2     C11317   2.014   2.503  16.076  0.7468  0.3864 -0.1623
  763MPD2    C111318   2.028   2.550  15.948 -0.2168 -0.0213 -0.1152
  763MPD2    C211319   2.063   2.687  15.928  0.2142 -0.6755  0.4936
  763MPD2    C311320   2.072   2.765  16.047  0.8131 -0.0855 -0.1164
  763MPD2    C411321   2.048   2.713  16.172  0.3522  1.1183  0.8031
  763MPD2    C511322   2.017   2.581  16.189 -0.0621  0.6622  0.7472
  763MPD2     H11323   2.105   2.718  15.833 -1.3784 -0.5228 -0.1636
  763MPD2    H111324   2.074   2.776  16.257  1.4215  0.8599  0.6628
  763MPD2    H211325   1.995   2.397  16.094 -0.0190  0.4242 -0.7477
  763MPD2    H311326   1.994   2.537  16.286 -1.5688  0.1314  0.1396
  763MPD2     N11327   2.112   2.905  16.040 -0.9576  0.1342 -0.4826
  763MPD2    H511328   2.077   2.968  16.112  1.2381  0.7936 -0.0177
  763MPD2    N111329   2.019   2.460  15.838 -0.0454  0.8090 -0.6806
  763MPD2    H711330   2.039   2.503  15.748  0.8631 -1.5469 -1.6204
  764MPD2     C11331   0.467   4.223  17.335 -0.4697  0.0110 -0.2509
  764MPD2    C111332   0.334   4.204  17.301  0.1027 -0.9927  0.1001
  764MPD2    C211333   0.276   4.087  17.346 -0.2482  0.4420  0.7811
  764MPD2    C311334   0.334   4.009  17.448  0.5056  0.1043 -0.1636
  764MPD2    C411335   0.467   4.031  17.476  0.0915  0.1860 -0.1166
  764MPD2    C511336   0.537   4.141  17.412  0.1634  0.2140  0.5513
  764MPD2     H11337   0.173   4.065  17.321 -0.2779  2.2446 -0.6425
  764MPD2    H111338   0.522   3.971  17.548 -1.6123 -0.4193  0.6842
  764MPD2    H211339   0.517   4.307  17.288 -0.8885  0.7885  0.7075
  764MPD2    H311340   0.638   4.166  17.440  0.2208  1.0295 -0.3684
  764MPD2     N11341   0.253   3.926  17.524  0.1732  0.2169 -0.0848
  764MPD2    H511342   0.157   3.926  17.490 -0.2113  0.9223  1.0174
  764MPD2    N111343   0.264   4.283  17.208  0.7168 -0.4675 -0.2061
  764MPD2    H711344   0.183   4.236  17.168 -0.6383  2.7879 -1.3135
  765MPD2     C11345   0.670   2.488  15.472 -0.5525 -0.7094  0.0904
  765MPD2    C111346   0.625   2.413  15.583 -0.2445 -0.0426 -0.3628
  765MPD2    C211347   0.712   2.311  15.619  0.7908 -0.1342 -0.7268
  765MPD2    C311348   0.829   2.286  15.560 -0.0412  0.4183 -0.3105
  765MPD2    C411349   0.865   2.365  15.455  0.3806 -0.3680 -0.2319
  765MPD2    C511350   0.789   2.463  15.420 -0.3239 -0.6884 -0.3312
  765MPD2     H11351   0.690   2.253  15.709  2.0268 -0.0196 -0.3459
  765MPD2    H111352   0.953   2.354  15.391 -0.9982 -2.3849 -1.7712
  765MPD2    H211353   0.613   2.568  15.427 -2.5234 -2.3459 -0.3228
  765MPD2    H311354   0.818   2.519  15.331  0.7608 -2.4877 -1.1092
  765MPD2     N11355   0.901   2.173  15.612 -0.0481 -0.0811  0.4934
  765MPD2    H511356   0.861   2.121  15.689 -2.5177  2.3038  0.8124
  765MPD2    N111357   0.487   2.427  15.634 -0.0159  0.2146  0.4792
  765MPD2    H711358   0.424   2.484  15.579 -1.4059  1.0374  2.9809
  766MPD2     C11359   4.497   2.146  15.476  0.6181  0.7415  0.7004
  766MPD2    C111360   4.625   2.143  15.509 -0.5028 -0.4452  0.4622
  766MPD2    C211361   4.713   2.084  15.420  0.0955  0.5776  0.1194
  766MPD2    C311362   4.670   2.038  15.293  0.5636  0.2242 -0.3459
  766MPD2    C411363   4.530   2.037  15.273  0.4658 -0.9152 -0.2646
  766MPD2    C511364   4.443   2.086  15.364 -0.5426 -0.4437  0.1321
  766MPD2     H11365   0.079   2.079  15.447 -0.0155 -0.4578  0.3482
  766MPD2    H111366   4.492   2.005  15.177 -1.3225 -1.8002  0.7380
  766MPD2    H211367   4.420   2.185  15.541 -2.1940 -2.9038 -0.4505
  766MPD2    H311368   4.339   2.101  15.341  0.0636  2.2536 -0.8537
  766MPD2     N11369   0.018   2.008  15.192  0.0772  0.8191 -0.0337
  766MPD2    H511370   4.710   1.983  15.106 -1.8392  0.3085  1.1700
  766MPD2    N111371   4.658   2.212  15.626 -0.5620  0.3509 -0.1371
  766MPD2    H711372   4.589   2.280  15.657  0.4192  1.3910 -0.2506
  767MPD2     C11373   4.130   2.161  14.889 -0.4374 -0.5713  0.0389
  767MPD2    C111374   4.264   2.165  14.870 -0.2988  0.5142 -0.0423
  767MPD2    C211375   4.306   2.144  14.745 -0.1717 -0.4622  0.2113
  767MPD2    C311376   4.222   2.103  14.644  0.0138  0.4706 -0.1036
  767MPD2    C411377   4.087   2.078  14.667  0.3700 -0.8157  0.8457
  767MPD2    C511378   4.044   2.110  14.792 -0.0088  0.1381  0.5823
  767MPD2     H11379   4.408   2.155  14.709  0.0875  2.1414  1.7777
  767MPD2    H111380   4.012   2.049  14.593 -0.2212  2.8899 -0.0288
  767MPD2    H211381   4.085   2.172  14.987 -1.6805  0.2611 -0.6245
  767MPD2    H311382   3.938   2.094  14.809 -0.0587  1.3224  1.3687
  767MPD2     N11383   4.284   2.085  14.516  0.6092  0.0225 -0.0350
  767MPD2    H511384   4.384   2.097  14.506 -0.1911  5.3258 -1.5644
  767MPD2    N111385   4.346   2.219  14.965 -0.5245  0.0463 -0.2853
  767MPD2    H711386   4.300   2.258  15.047  0.8174 -1.2665  1.0884
  768MPD2     C11387   0.406   0.814  10.660 -0.3180  0.1244  0.6578
  768MPD2    C111388   0.490   0.862  10.759  0.3030  0.1281  1.4818
  768MPD2    C211389   0.549   0.774  10.849  0.6257  0.0374  0.0712
  768MPD2    C311390   0.529   0.643  10.845 -0.0286  0.3566  0.3017
  768MPD2    C411391   0.450   0.598  10.743 -0.2123  0.5683 -0.5380
  768MPD2    C511392   0.385   0.679  10.657  0.3557 -0.4765  0.1536
  768MPD2     H11393   0.603   0.817  10.933  0.4036 -1.3203  0.9068
  768MPD2    H111394   0.427   0.493  10.731  1.4963  0.3713 -2.0041
  768MPD2    H211395   0.359   0.879  10.586  2.6014 -0.0760 -1.3638
  768MPD2    H311396   0.337   0.626  10.576 -0.4742  0.7456 -0.1527
  768MPD2     N11397   0.582   0.550  10.932 -0.1566  0.2458 -0.0510
  768MPD2    H511398   0.577   0.452  10.908  0.6371  0.4379 -0.9882
  768MPD2    N111399   0.502   1.002  10.784  0.2710 -0.2632 -0.4992
  768MPD2    H711400   0.564   1.027  10.861 -1.3288  0.0105  0.7041
  769MPD2     C11401   0.983   4.060  15.079 -0.3390  0.1990  0.2023
  769MPD2    C111402   0.978   3.926  15.129  0.2171  0.3767  0.2439
  769MPD2    C211403   1.053   3.895  15.240 -1.0227  0.4094 -0.2632
  769MPD2    C311404   1.127   3.997  15.304 -0.6144  0.2537 -0.5333
  769MPD2    C411405   1.129   4.123  15.253 -0.0435  1.0878  0.6236
  769MPD2    C511406   1.059   4.155  15.137  0.5897  0.0335  0.0533
  769MPD2     H11407   1.049   3.796  15.283  2.8471  0.6140  0.6059
  769MPD2    H111408   1.176   4.204  15.308  2.6888  0.4857 -0.8127
  769MPD2    H211409   0.929   4.093  14.992  0.3607  0.6879 -0.0435
  769MPD2    H311410   1.042   4.257  15.104 -2.7665 -0.5020  0.1215
  769MPD2     N11411   1.189   3.959  15.429  0.1798 -0.0470 -0.1717
  769MPD2    H511412   1.182   3.861  15.453  1.1100 -0.2411 -0.6877
  769MPD2    N111413   0.885   3.834  15.061 -0.0971 -0.0244  0.0405
  769MPD2    H711414   0.828   3.873  14.987 -1.4835  2.9631  2.6526
  770MPD2     C11415   0.325   2.953  14.835  0.1291 -0.9358 -0.0001
  770MPD2    C111416   0.452   2.964  14.784 -0.1175  0.3365 -0.0487
  770MPD2    C211417   0.517   3.086  14.804  0.0721  0.3019  0.3265
  770MPD2    C311418   0.451   3.190  14.866 -0.6716  0.3494 -0.1607
  770MPD2    C411419   0.322   3.173  14.908  0.1181  0.3094  0.5386
  770MPD2    C511420   0.264   3.054  14.894  0.1346  0.1547 -0.4839
  770MPD2     H11421   0.623   3.101  14.786 -0.3902  2.4774 -0.6622
  770MPD2    H111422   0.269   3.257  14.952 -0.1766 -0.1494  1.0578
  770MPD2    H211423   0.266   2.864  14.818  0.9223 -0.5242 -4.8888
  770MPD2    H311424   0.162   3.041  14.930 -0.3652  3.0404 -0.9039
  770MPD2     N11425   0.523   3.304  14.896  0.1411  0.1344 -0.1034
  770MPD2    H511426   0.605   3.329  14.842  0.0086  0.3981 -0.1869
  770MPD2    N111427   0.512   2.847  14.736  0.0823  0.0978  0.5151
  770MPD2    H711428   0.452   2.765  14.728  0.5138 -0.1434 -0.2637
  771MPD2     C11429   1.420   1.377  13.441  0.0412  0.2819 -0.0444
  771MPD2    C111430   1.469   1.459  13.341  0.2862 -0.1250 -0.2168
  771MPD2    C211431   1.477   1.414  13.212 -0.1558 -0.0821 -0.0387
  771MPD2    C311432   1.437   1.284  13.185 -0.6086 -0.0747  0.8007
  771MPD2    C411433   1.396   1.192  13.282  0.0132  0.0339  0.6396
  771MPD2    C511434   1.388   1.247  13.410  0.1279 -0.6573 -0.9673
  771MPD2     H11435   1.501   1.487  13.135 -3.4912  0.8343 -0.2256
  771MPD2    H111436   1.358   1.092  13.264 -0.0398 -0.4915  3.6394
  771MPD2    H211437   1.393   1.407  13.542  1.0261 -1.5038  0.7567
  771MPD2    H311438   1.353   1.180  13.488  0.2178  0.1593 -0.2342
  771MPD2     N11439   1.446   1.247  13.052 -1.0899  0.5639 -0.2545
  771MPD2    H511440   1.490   1.316  12.992 -0.0899 -1.0384 -1.4038
  771MPD2    N111441   1.515   1.588  13.365 -0.1122  0.4263  0.1326
  771MPD2    H711442   1.544   1.638  13.281  0.3192 -3.1149 -1.8213
  772MPD2     C11443   1.535   2.197  13.944  0.2173 -0.0679 -0.2044
  772MPD2    C111444   1.462   2.098  13.877  0.5217  0.3770  0.1566
  772MPD2    C211445   1.354   2.039  13.933  0.6061  0.0079 -0.4187
  772MPD2    C311446   1.320   2.079  14.068 -0.6171  0.1426 -0.4838
  772MPD2    C411447   1.397   2.169  14.131 -0.3095  0.1218  0.2718
  772MPD2    C511448   1.499   2.231  14.069 -0.0609  0.1390  0.4637
  772MPD2     H11449   1.304   1.963  13.873  0.8806 -0.4669 -0.0444
  772MPD2    H111450   1.383   2.195  14.235 -0.1544 -0.4930  0.4512
  772MPD2    H211451   1.606   2.260  13.892  2.2189 -1.1539  1.1905
  772MPD2    H311452   1.555   2.312  14.116 -1.1010  0.3434  1.3472
  772MPD2     N11453   1.226   2.015  14.149  0.7404 -0.2555 -0.2351
  772MPD2    H511454   1.240   2.025  14.249 -2.0622  1.3187  0.0086
  772MPD2    N111455   1.513   2.041  13.762 -0.0667 -0.2460  0.3487
  772MPD2    H711456   1.470   1.956  13.729 -2.5840  1.9335 -1.9559
  773MPD2     C11457   0.512   2.735   0.011  0.8422  0.0247 -0.6797
  773MPD2    C111458   0.562   2.674  17.655  1.0098 -0.3434 -0.7308
  773MPD2    C211459   0.653   2.571  17.662  0.8584 -0.8969  0.3975
  773MPD2    C311460   0.704   2.532   0.027 -0.2998 -0.3376  0.7365
  773MPD2    C411461   0.650   2.585   0.142  0.5934 -0.1974 -0.5943
  773MPD2    C511462   0.564   2.694   0.133  0.3681  0.2069 -0.2987
  773MPD2     H11463   0.700   2.530  17.573 -0.5524  0.7383 -1.1009
  773MPD2    H111464   0.693   2.549   0.235 -1.7010 -0.0050  0.5522
  773MPD2    H211465   0.437   2.813   0.014 -1.1851 -1.9917  1.1688
  773MPD2    H311466   0.534   2.736   0.228 -0.3098  0.7417 -0.7430
  773MPD2     N11467   0.810   2.437   0.023 -0.0898  0.1835  0.2440
  773MPD2    H511468   0.822   2.393  17.688 -1.3230 -1.5314  0.9208
  773MPD2    N111469   0.512   2.724  17.535  0.6518  0.2956 -0.2747
  773MPD2    H711470   0.559   2.690  17.451 -0.0959 -1.2135 -0.0895
  774MPD2     C11471   0.710   1.791  13.059 -0.1600 -0.5482  0.0600
  774MPD2    C111472   0.634   1.881  13.137  0.0401  0.6009 -0.5338
  774MPD2    C211473   0.651   2.018  13.123 -0.4737  0.5605  0.2079
  774MPD2    C311474   0.743   2.069  13.037 -0.0593  0.6114  0.5399
  774MPD2    C411475   0.813   1.979  12.959  0.1622  0.0033 -0.0424
  774MPD2    C511476   0.803   1.845  12.967  0.1770  0.3940 -0.0760
  774MPD2     H11477   0.592   2.084  13.184  1.1861  0.4925  1.8816
  774MPD2    H111478   0.890   2.008  12.888  1.0013  0.1378  0.9278
  774MPD2    H211479   0.695   1.684  13.066  0.3905 -0.4601  2.5096
  774MPD2    H311480   0.849   1.771  12.903  0.1216  0.3564 -0.0725
  774MPD2     N11481   0.762   2.211  13.040 -0.0646  0.6677  0.9649
  774MPD2    H511482   0.698   2.261  13.100 -2.2989  1.2488 -1.9193
  774MPD2    N111483   0.534   1.821  13.211  0.1668  0.2575  0.1648
  774MPD2    H711484   0.532   1.720  13.218  2.8681  0.1603 -0.7185
  775MPD2     C11485   1.654   3.787  15.484 -0.7548  0.0045 -0.6199
  775MPD2    C111486   1.713   3.843  15.597  0.3572 -0.3720 -0.1264
  775MPD2    C211487   1.775   3.970  15.591  0.2569  0.7604 -0.1553
  775MPD2    C311488   1.770   4.048  15.473 -0.4240 -0.0532  0.5377
  775MPD2    C411489   1.696   3.998  15.365 -0.3520  0.1410 -0.7108
  775MPD2    C511490   1.641   3.867  15.367 -0.4103 -0.4814  0.2592
  775MPD2     H11491   1.814   4.016  15.681 -0.7156 -2.5029  1.9197
  775MPD2    H111492   1.678   4.051  15.272 -1.7108 -0.4738 -0.7981
  775MPD2    H211493   1.609   3.688  15.486 -0.6008 -0.0568 -0.1941
  775MPD2    H311494   1.584   3.822  15.286  1.1749 -0.6805 -0.7612
  775MPD2     N11495   1.840   4.167  15.462  0.2320 -0.2723  0.1401
  775MPD2    H511496   1.835   4.207  15.369  1.5861 -2.1285 -0.7157
  775MPD2    N111497   1.708   3.762  15.711  0.1134  0.2941 -0.4935
  775MPD2    H711498   1.642   3.686  15.701  0.1523  0.2290 -0.2659
  776MPD2     C11499   0.865   4.048  11.891  0.6779 -0.4952  0.4356
  776MPD2    C111500   0.837   4.038  11.753  0.5672 -0.1525  0.1724
  776MPD2    C211501   0.908   4.118  11.661 -0.4745  0.4686  0.5225
  776MPD2    C311502   1.004   4.205  11.709 -0.5343  0.5700  0.2612
  776MPD2    C411503   1.041   4.202  11.848  0.6480  0.0224 -0.4375
  776MPD2    C511504   0.971   4.122  11.935 -1.3194  0.0967  0.2541
  776MPD2     H11505   0.886   4.107  11.555  0.2276  0.2034  0.4061
  776MPD2    H111506   1.124   4.261  11.885 -1.7232  2.0403  1.6455
  776MPD2    H211507   0.808   3.991  11.963  2.8312 -1.7016  1.1987
  776MPD2    H311508   1.002   4.121  12.039  0.4260  0.6607 -0.2719
  776MPD2     N11509   1.078   4.292  11.626 -0.8673  0.5735 -0.4398
  776MPD2    H511510   1.172   4.316  11.655 -1.9431 -0.0013  3.5326
  776MPD2    N111511   0.737   3.936  11.709 -0.8404  0.6345  0.8861
  776MPD2    H711512   0.684   3.892  11.784  0.5973 -1.1698  0.8541
  777MPD2     C11513   0.720   1.681   0.633 -0.6539 -0.0156  0.7818
  777MPD2    C111514   0.758   1.560   0.689 -0.0583 -0.5219 -0.4615
  777MPD2    C211515   0.727   1.439   0.625 -0.0775  0.4065  0.0548
  777MPD2    C311516   0.654   1.435   0.510  0.7249  0.9764  0.2898
  777MPD2    C411517   0.615   1.557   0.453 -1.3798 -0.7257  0.3918
  777MPD2    C511518   0.652   1.670   0.513  0.7175  0.5551 -0.3584
  777MPD2     H11519   0.758   1.349   0.677 -0.6288 -0.2226 -0.6956
  777MPD2    H111520   0.556   1.561   0.363 -0.9521  0.5691  0.1663
  777MPD2    H211521   0.741   1.777   0.679  0.7563 -0.1243  0.3750
  777MPD2    H311522   0.625   1.759   0.457 -0.2552 -1.0309 -2.4020
  777MPD2     N11523   0.618   1.310   0.454  0.2326  0.1076  0.6875
  777MPD2    H511524   0.647   1.226   0.503  0.2203 -0.5462 -0.4220
  777MPD2    N111525   0.820   1.563   0.815 -0.0617  0.1906 -0.0473
  777MPD2    H711526   0.838   1.656   0.853 -0.3988  0.3525 -0.2826
  778MPD2     C11527   2.120   1.187  14.808  0.6150 -0.3556  0.2478
  778MPD2    C111528   2.162   1.057  14.774 -0.0759  0.2889 -0.1484
  778MPD2    C211529   2.257   1.041  14.678  0.2748 -0.1048 -0.3434
  778MPD2    C311530   2.307   1.156  14.613  0.0320  0.4107  0.6434
  778MPD2    C411531   2.267   1.282  14.656  0.5443 -0.7735 -0.2607
  778MPD2    C511532   2.172   1.297  14.752  0.4159 -0.3887 -0.4088
  778MPD2     H11533   2.282   0.941  14.643 -3.8344 -1.1849 -0.2057
  778MPD2    H111534   2.309   1.373  14.613 -0.3658 -0.0833  0.3313
  778MPD2    H211535   2.047   1.206  14.886 -1.4723  1.0464 -2.0826
  778MPD2    H311536   2.122   1.389  14.781  0.8787 -0.7209  1.4394
  778MPD2     N11537   2.393   1.135  14.500  0.0766 -0.0300  0.3404
  778MPD2    H511538   2.435   1.043  14.490 -1.4647 -0.8061  1.0641
  778MPD2    N111539   2.103   0.939  14.833 -0.2086 -0.1210  0.1223
  778MPD2    H711540   2.117   0.853  14.782  4.5307 -0.4118  1.9045
  779MPD2     C11541   2.164   0.091  13.870 -0.6738  0.2994 -0.2508
  779MPD2    C111542   2.083   0.138  13.969  0.7684 -0.1617  0.2257
  779MPD2    C211543   2.071   0.273  13.988 -0.1138 -0.7246  0.2305
  779MPD2    C311544   2.163   0.358  13.921 -0.1593  0.1008 -0.1251
  779MPD2    C411545   2.238   0.317  13.815 -0.8198 -0.5724 -0.0272
  779MPD2    C511546   2.243   0.180  13.798  0.0640  0.8023  0.2397
  779MPD2     H11547   2.011   0.321  14.064  0.0450 -1.1284  0.6083
  779MPD2    H111548   2.299   0.374  13.745  2.4768 -0.2448  3.0917
  779MPD2    H211549   2.171   4.725  13.848  0.4229  0.8595 -2.6203
  779MPD2    H311550   2.299   0.151  13.710 -1.4217 -0.0701 -0.4068
  779MPD2     N11551   2.139   0.494  13.944  1.0414 -0.0114  0.4115
  779MPD2    H511552   2.072   0.511  14.018  1.1529 -0.0707  0.5262
  779MPD2    N111553   1.984   0.051  14.039  0.2629 -0.0608 -0.1451
  779MPD2    H711554   1.929   0.092  14.113 -1.1128  1.0655 -1.8058
  780MPD2     C11555   0.800   0.280   0.800  0.6528 -0.1626 -0.3403
  780MPD2    C111556   0.880   0.183   0.749  0.1540 -0.0207 -0.8672
  780MPD2    C211557   0.948   0.198   0.629 -0.0763  0.2171 -0.4923
  780MPD2    C311558   0.923   0.313   0.557 -0.7702 -0.8754 -0.4690
  780MPD2    C411559   0.846   0.422   0.612 -0.3411 -0.3918  0.1767
  780MPD2    C511560   0.784   0.397   0.732 -0.6307 -0.6154 -0.5483
  780MPD2     H11561   1.006   0.112   0.595  3.5363  2.3071  0.3417
  780MPD2    H111562   0.824   0.520   0.571 -1.9387 -0.4484  0.8972
  780MPD2    H211563   0.732   0.252   0.880 -2.6010  2.1890 -2.2539
  780MPD2    H311564   0.731   0.477   0.784 -0.8957  0.6179 -2.6989
  780MPD2     N11565   0.982   0.327   0.432  0.2728  1.0082  0.1610
  780MPD2    H511566   1.026   0.242   0.400  0.6421  1.6259 -0.9656
  780MPD2    N111567   0.880   0.065   0.835 -0.0509 -0.0004 -0.3548
  780MPD2    H711568   0.815   0.071   0.913 -0.3618 -0.1199 -0.6064
  781MPD2     C11569   2.839   2.381  11.767 -0.0364 -0.2835 -0.2348
  781MPD2    C111570   2.953   2.305  11.795  0.4050  0.2889  0.1525
  781MPD2    C211571   3.066   2.319  11.715  0.5416 -0.3440 -0.0044
  781MPD2    C311572   3.059   2.397  11.600 -0.2756 -0.4625  0.0661
  781MPD2    C411573   2.944   2.462  11.573  0.5175 -0.1362  0.3096
  781MPD2    C511574   2.838   2.460  11.656 -1.0089  0.2435  0.3478
  781MPD2     H11575   3.147   2.254  11.745 -0.6482 -1.1227  1.5411
  781MPD2    H111576   2.927   2.536  11.496  1.5422 -1.1376 -0.8797
  781MPD2    H211577   2.751   2.389  11.829  1.6329  0.3476  2.0914
  781MPD2    H311578   2.743   2.509  11.638  0.1646  1.4225 -2.5183
  781MPD2     N11579   3.173   2.418  11.520  0.3669  0.5524  0.4443
  781MPD2    H511580   3.155   2.488  11.449  0.1479  1.0513  0.9858
  781MPD2    N111581   2.960   2.210  11.901  0.4068 -0.1672  0.2748
  781MPD2    H711582   3.051   2.173  11.928  0.3725  0.4543  1.2380
  782MPD2     C11583   0.849   2.658  10.245 -0.0138 -0.1167 -0.2033
  782MPD2    C111584   0.974   2.651  10.310  0.7894  0.6143 -0.1783
  782MPD2    C211585   1.041   2.771  10.346  0.5239 -0.1232  0.0418
  782MPD2    C311586   0.993   2.890  10.313 -0.1417  0.0198  0.4110
  782MPD2    C411587   0.877   2.899  10.239 -0.1871 -0.2379 -0.8894
  782MPD2    C511588   0.807   2.786  10.218 -0.3672  0.4616 -0.7470
  782MPD2     H11589   1.133   2.773  10.404  0.2915  0.0754  0.3944
  782MPD2    H111590   0.826   2.993  10.220  1.0744  0.9050  1.2912
  782MPD2    H211591   0.788   2.569  10.247 -0.2847  0.0544 -0.8783
  782MPD2    H311592   0.704   2.801  10.187 -0.5908 -1.5253 -0.9826
  782MPD2     N11593   1.059   3.007  10.358  0.3431  0.5965 -0.2913
  782MPD2    H511594   1.131   2.989  10.427 -1.0010 -0.7995  0.7362
  782MPD2    N111595   1.016   2.528  10.361  0.0666 -0.3598  0.5932
  782MPD2    H711596   0.958   2.446  10.349 -0.0467  0.1897 -2.6252
  783MPD2     C11597   0.836   2.210  11.186  0.2866  0.3567 -0.1831
  783MPD2    C111598   0.884   2.329  11.156 -0.6734 -0.5443  0.5123
  783MPD2    C211599   0.940   2.339  11.032  1.0020  0.0136 -0.0129
  783MPD2    C311600   0.936   2.232  10.937  0.3901  0.9252  0.1765
  783MPD2    C411601   0.885   2.112  10.974 -0.1203  0.3702  0.0968
  783MPD2    C511602   0.843   2.104  11.100  0.0799  0.2959  0.5231
  783MPD2     H11603   0.964   2.435  10.988 -0.1425 -0.8159 -2.4332
  783MPD2    H111604   0.898   2.019  10.919 -2.0487 -2.4612  4.4241
  783MPD2    H211605   0.798   2.188  11.285  0.0723  0.1097 -0.3196
  783MPD2    H311606   0.799   2.013  11.139 -0.4295 -0.0097 -0.7900
  783MPD2     N11607   0.986   2.259  10.805  0.2851  0.2591  0.6237
  783MPD2    H511608   1.011   2.356  10.787  0.8798 -0.0084  0.0097
  783MPD2    N111609   0.879   2.427  11.255 -0.2221  0.2153 -0.4399
  783MPD2    H711610   0.838   2.403  11.344  0.8488  1.7736  0.4786
  784MPD2     C11611   3.798   3.305   0.666 -0.3924  0.9263 -0.9569
  784MPD2    C111612   3.769   3.370   0.784  0.6624  0.3630 -0.3572
  784MPD2    C211613   3.643   3.430   0.790 -0.2358  1.1546 -0.2448
  784MPD2    C311614   3.549   3.416   0.688 -0.3407  0.2613 -0.4715
  784MPD2    C411615   3.585   3.362   0.572  0.2015  0.6142 -0.2854
  784MPD2    C511616   3.709   3.302   0.562 -0.2743  0.7555 -0.3429
  784MPD2     H11617   3.608   3.479   0.881  1.9065  0.9886  0.6796
  784MPD2    H111618   3.520   3.359   0.485 -1.2620 -2.5317  0.9160
  784MPD2    H211619   3.896   3.263   0.647 -0.2784  0.4202  0.7132
  784MPD2    H311620   3.744   3.257   0.470  1.1842  1.1256  0.0236
  784MPD2     N11621   3.417   3.470   0.706 -0.5052 -0.5701  0.0053
  784MPD2    H511622   3.396   3.529   0.786 -2.1312  0.6456 -1.3194
  784MPD2    N111623   3.853   3.377   0.898 -0.1999  0.3735 -0.4070
  784MPD2    H711624   3.834   3.454   0.962 -0.4967 -0.2391  0.2402
  785MPD2     C11625   3.222   1.056  10.178  0.0862  0.4929  0.4301
  785MPD2    C111626   3.169   1.180  10.209  0.4608 -0.4151  0.0448
  785MPD2    C211627   3.109   1.255  10.107  0.1375 -0.0292  0.5153
  785MPD2    C311628   3.087   1.204   9.981 -0.5170 -0.3785  0.4921
  785MPD2    C411629   3.130   1.076   9.954 -0.1738 -0.8357 -0.6356
  785MPD2    C511630   3.201   1.008  10.052  0.2336 -0.3522 -0.1269
  785MPD2     H11631   3.099   1.361  10.125  0.4122  0.1494 -0.4044
  785MPD2    H111632   3.126   1.034   9.854 -0.0469  0.6284 -1.2401
  785MPD2    H211633   3.294   0.999  10.236  1.5843  1.3521 -0.5763
  785MPD2    H311634   3.241   0.910  10.028  0.8170  0.7249 -3.6230
  785MPD2     N11635   3.033   1.298   9.890 -0.5526 -0.0519  0.0980
  785MPD2    H511636   3.021   1.390   9.931  2.0741 -0.5221  1.9355
  785MPD2    N111637   3.203   1.256  10.323 -0.6883  0.4611  0.4862
  785MPD2    H711638   3.176   1.353  10.315 -2.7785 -0.1223  0.2408
  786MPD2     C11639   2.593   4.438  14.358 -0.2634  0.3357  0.0798
  786MPD2    C111640   2.529   4.329  14.410 -0.8072  0.2463  0.2378
  786MPD2    C211641   2.532   4.318  14.545 -0.1844  0.0895 -0.0075
  786MPD2    C311642   2.595   4.404  14.629 -0.5340  0.0497  0.2526
  786MPD2    C411643   2.660   4.513  14.569  0.3080  1.1465  0.2841
  786MPD2    C511644   2.653   4.530  14.436 -0.3149  0.6831  0.7610
  786MPD2     H11645   2.482   4.235  14.594  0.2353 -0.4149 -0.4326
  786MPD2    H111646   2.708   4.585  14.634  2.8666 -1.4970  1.2995
  786MPD2    H211647   2.604   4.456  14.251  2.0653 -0.7397  0.1540
  786MPD2    H311648   2.703   4.617  14.395 -2.1852  0.9567 -0.9379
  786MPD2     N11649   2.599   4.397  14.776 -0.3088  0.2034 -0.1066
  786MPD2    H511650   2.659   4.464  14.823  0.2786 -0.5020  0.1516
  786MPD2    N111651   2.472   4.227  14.336  0.2779 -0.2432  0.0592
  786MPD2    H711652   2.422   4.160  14.393  0.3349  1.2460  1.8443
  787MPD2     C11653   2.170   3.626  14.498 -0.0411 -0.5498 -0.0839
  787MPD2    C111654   2.294   3.690  14.476  0.4907 -0.1433 -0.7993
  787MPD2    C211655   2.389   3.690  14.575  0.0771 -0.2245  0.3642
  787MPD2    C311656   2.372   3.615  14.690 -0.4362  0.0184  0.1408
  787MPD2    C411657   2.254   3.542  14.704  0.1651  0.2799 -0.5050
  787MPD2    C511658   2.159   3.551  14.609 -0.0427 -0.1517  0.1663
  787MPD2     H11659   2.483   3.739  14.553 -0.1444  0.9042  1.9520
  787MPD2    H111660   2.242   3.466  14.780  2.4649 -0.3427 -0.7474
  787MPD2    H211661   2.094   3.610  14.422 -0.4894  0.7253  0.0938
  787MPD2    H311662   2.072   3.487  14.616 -0.3114  0.1086 -0.8534
  787MPD2     N11663   2.490   3.588  14.765  0.4618 -0.3985  0.1382
  787MPD2    H511664   2.572   3.634  14.727  0.1446 -0.4975 -0.6775
  787MPD2    N111665   2.326   3.771  14.368  0.1314 -0.3182 -0.4372
  787MPD2    H711666   2.412   3.826  14.369 -0.1323  0.0623  0.5144
  788MPD2     C11667   4.400   2.657   1.107 -0.1115  0.4161  0.0675
  788MPD2    C111668   4.386   2.639   0.972  0.0621 -0.5398  0.8881
  788MPD2    C211669   4.429   2.746   0.889 -0.2322 -0.0629 -0.2076
  788MPD2    C311670   4.479   2.864   0.937  0.0251  0.0702 -0.6331
  788MPD2    C411671   4.489   2.872   1.074 -0.5348 -0.6731  0.2889
  788MPD2    C511672   4.448   2.771   1.160 -0.6765 -0.0597 -0.1591
  788MPD2     H11673   4.422   2.747   0.781 -2.0521  0.8704 -0.0759
  788MPD2    H111674   4.534   2.959   1.121  1.6925 -1.2307 -0.7959
  788MPD2    H211675   4.374   2.591   1.190 -2.1459 -1.3546 -1.9661
  788MPD2    H311676   4.453   2.770   1.268 -0.2235  1.0170 -0.1760
  788MPD2     N11677   4.516   2.979   0.867  0.4365 -0.5799  0.3556
  788MPD2    H511678   4.523   3.070   0.913 -0.8676  0.8185 -2.2034
  788MPD2    N111679   4.341   2.514   0.915  0.1821  0.4549  0.3236
  788MPD2    H711680   4.355   2.509   0.814 -2.0972  0.9208 -0.0320
  789MPD2     C11681   0.099   2.309  16.110  0.1658  0.2075  0.0159
  789MPD2    C111682   4.701   2.304  16.083 -0.4268 -0.1131 -1.0643
  789MPD2    C211683   4.616   2.408  16.135 -0.0948 -0.1527  0.5975
  789MPD2    C311684   4.675   2.512  16.202  0.0758  0.0718  0.1409
  789MPD2    C411685   0.067   2.517  16.230 -0.6530 -0.0081 -0.3867
  789MPD2    C511686   0.147   2.415  16.186 -0.2355 -1.2274  1.3653
  789MPD2     H11687   4.509   2.396  16.128  0.1712 -2.1468 -0.3696
  789MPD2    H111688   0.100   2.598  16.293 -2.2182  0.4735 -0.1789
  789MPD2    H211689   0.176   2.242  16.072 -2.9592 -2.6093 -1.2937
  789MPD2    H311690   0.252   2.414  16.215  0.9144 -0.5206 -2.8327
  789MPD2     N11691   4.593   2.613  16.257  0.2034 -0.3853 -0.2502
  789MPD2    H511692   4.634   2.662  16.336  0.6732  0.0845 -0.7956
  789MPD2    N111693   4.641   2.191  16.019  0.4409 -0.4863 -0.0279
  789MPD2    H711694   4.541   2.175  16.024  0.1193  1.7193  0.6892
  790MPD2     C11695   1.154   4.200  13.860  0.3554 -0.6321  0.0938
  790MPD2    C111696   1.033   4.142  13.860 -0.6689  0.2048 -0.4744
  790MPD2    C211697   0.981   4.091  13.738 -0.4066 -0.6629  0.6352
  790MPD2    C311698   1.059   4.087  13.622  0.3250  1.2171  0.8770
  790MPD2    C411699   1.189   4.139  13.636  0.3777 -0.1382  0.2044
  790MPD2    C511700   1.234   4.194  13.750  0.1294  0.1923  0.7506
  790MPD2     H11701   0.881   4.048  13.735 -0.0959 -1.2676 -0.9900
  790MPD2    H111702   1.259   4.154  13.556  0.1926 -0.2614  0.0198
  790MPD2    H211703   1.186   4.249  13.951 -0.3872  1.0261 -0.5500
  790MPD2    H311704   1.338   4.222  13.754 -0.6851  3.0851  1.6935
  790MPD2     N11705   1.010   4.026  13.506 -0.4337 -0.3643  0.1719
  790MPD2    H511706   0.918   3.982  13.505 -0.0139 -1.1855 -3.7333
  790MPD2    N111707   0.979   4.128  13.990 -0.3116  0.0638 -0.4540
  790MPD2    H711708   1.032   4.171  14.065 -0.0806 -1.6772  0.3871
  791MPD2     C11709   0.515   4.108  12.992  0.5049 -0.6328  0.2119
  791MPD2    C111710   0.511   4.000  13.074 -0.4210 -0.0635 -0.6089
  791MPD2    C211711   0.410   3.908  13.061  0.0869  0.0437 -0.0970
  791MPD2    C311712   0.325   3.911  12.954 -0.4687  0.6437  0.4855
  791MPD2    C411713   0.312   4.033  12.882  0.4431 -0.2726  0.1497
  791MPD2    C511714   0.408   4.133  12.910 -0.3918 -0.3988  0.0865
  791MPD2     H11715   0.406   3.824  13.130  0.7351 -0.0323 -0.1521
  791MPD2    H111716   0.240   4.050  12.803  1.2079 -1.1107 -0.7362
  791MPD2    H211717   0.595   4.180  13.006  0.2376  0.0561 -1.9130
  791MPD2    H311718   0.404   4.234  12.868  1.0859 -1.2646 -2.1491
  791MPD2     N11719   0.246   3.804  12.932 -0.0740  0.4421 -0.0851
  791MPD2    H511720   0.247   3.737  13.008 -0.3870 -0.2889 -0.7190
  791MPD2    N111721   0.626   3.986  13.158 -0.1135  0.3776  0.0832
  791MPD2    H711722   0.699   4.057  13.162  2.0913 -1.9706  1.3974
  792MPD2     C11723   0.617   4.237  11.452 -0.2470 -0.7010 -0.6724
  792MPD2    C111724   0.645   4.161  11.339 -0.3296  0.1539 -0.7220
  792MPD2    C211725   0.550   4.077  11.293  0.1752  0.4779 -0.4287
  792MPD2    C311726   0.427   4.057  11.363 -0.6527 -0.3276 -1.0222
  792MPD2    C411727   0.405   4.129  11.481 -0.0020 -0.3754 -0.5887
  792MPD2    C511728   0.504   4.213  11.530 -0.0610  0.5058 -0.3181
  792MPD2     H11729   0.567   4.007  11.213 -0.8565 -1.2016  0.8106
  792MPD2    H111730   0.310   4.119  11.532  1.4191 -1.6709  1.7979
  792MPD2    H211731   0.690   4.304  11.495  1.4198 -1.9355 -1.5940
  792MPD2    H311732   0.487   4.260  11.626  2.6100  2.2684 -0.6900
  792MPD2     N11733   0.325   3.966  11.327  0.3961 -0.7808 -0.3748
  792MPD2    H511734   0.241   3.979  11.382  0.1387 -1.8097 -0.5397
  792MPD2    N111735   0.767   4.181  11.275  0.1730 -0.0822  1.5535
  792MPD2    H711736   0.833   4.240  11.325  1.4470 -0.3026  0.1418
  793MPD2     C11737   4.575   3.434  10.517  0.1337  0.0051 -0.3395
  793MPD2    C111738   4.690   3.503  10.513 -0.7300 -0.4050  0.3074
  793MPD2    C211739   4.715   3.581  10.624 -0.4559  0.4552 -0.6444
  793MPD2    C311740   4.628   3.596  10.728  0.2966 -0.2017  0.7155
  793MPD2    C411741   4.505   3.541  10.725  0.4277 -0.5459  0.0114
  793MPD2    C511742   4.484   3.454  10.620  0.0885 -0.5733 -0.0848
  793MPD2     H11743   0.065   3.642  10.626 -1.2298  1.6406 -2.7168
  793MPD2    H111744   4.434   3.553  10.807  0.0164  1.3987 -0.6254
  793MPD2    H211745   4.555   3.359  10.441  0.2607  1.2427 -1.6035
  793MPD2    H311746   4.394   3.395  10.602 -1.2457  1.2993  0.5222
  793MPD2     N11747   4.655   3.669  10.843  0.0236 -0.4818 -0.1530
  793MPD2    H511748   4.575   3.682  10.905  2.1066 -1.0962  2.6726
  793MPD2    N111749   0.053   3.486  10.424 -0.0687 -0.2021 -0.4720
  793MPD2    H711750   0.138   3.538  10.442  0.6294 -0.8872 -1.8893
  794MPD2     C11751   0.038   3.367  17.249  0.2686  0.3042  1.2111
  794MPD2    C111752   0.074   3.293  17.137  0.6177  0.0675  0.3807
  794MPD2    C211753   0.027   3.323  17.008 -0.0996 -0.4218  0.4443
  794MPD2    C311754   4.685   3.437  16.986 -0.0918 -0.5005  0.0774
  794MPD2    C411755   4.631   3.491  17.097  0.1009 -0.6836 -0.2148
  794MPD2    C511756   4.679   3.463  17.223 -0.9570 -1.1511 -0.2484
  794MPD2     H11757   0.056   3.265  16.921 -0.9964  0.3114 -0.3427
  794MPD2    H111758   4.551   3.563  17.086  1.0105  0.6687  2.1989
  794MPD2    H211759   0.061   3.338  17.351  0.4239 -0.3818  0.9800
  794MPD2    H311760   4.630   3.511  17.307  1.1353  2.1582 -0.9662
  794MPD2     N11761   4.654   3.480  16.856 -0.3080 -0.2368 -0.8754
  794MPD2    H511762   4.598   3.564  16.850  2.7401  1.9488  0.9883
  794MPD2    N111763   0.167   3.187  17.146 -0.1669 -0.3978 -0.6726
  794MPD2    H711764   0.196   3.158  17.053  1.5734  0.3763 -0.3625
  795MPD2     C11765   3.510   0.834  13.206 -0.4290 -0.0686  0.1673
  795MPD2    C111766   3.417   0.743  13.255 -0.2496 -0.0170  0.5500
  795MPD2    C211767   3.461   0.656  13.352 -0.2083 -0.8730  0.1053
  795MPD2    C311768   3.588   0.667  13.408 -0.0421  0.1173 -0.3448
  795MPD2    C411769   3.673   0.770  13.365  0.8232 -0.1640  0.3739
  795MPD2    C511770   3.630   0.848  13.261  0.0352 -0.2169  0.0599
  795MPD2     H11771   3.392   0.585  13.395 -0.9704 -1.8280 -2.6945
  795MPD2    H111772   3.775   0.789  13.395  1.6003  0.4112 -2.5818
  795MPD2    H211773   3.480   0.904  13.128  1.1558  1.2147  0.7071
  795MPD2    H311774   3.693   0.927  13.223 -2.0029  0.7629 -1.2581
  795MPD2     N11775   3.638   0.577  13.506  0.4531 -0.7091 -0.4204
  795MPD2    H511776   3.738   0.581  13.525 -0.4426 -0.4917  4.1229
  795MPD2    N111777   3.290   0.716  13.199  0.0205 -0.6717  0.1805
  795MPD2    H711778   3.233   0.651  13.251 -0.9972  0.0891  0.0210
  796MPD2     C11779   2.554   2.192  16.433  0.1192  0.6874  0.4080
  796MPD2    C111780   2.664   2.148  16.367 -0.6926 -0.3071  0.7845
  796MPD2    C211781   2.678   2.167  16.230  0.1653 -0.2041 -0.1158
  796MPD2    C311782   2.576   2.239  16.164 -0.6918  0.8347 -0.0798
  796MPD2    C411783   2.469   2.288  16.229 -0.5874 -0.5167 -0.4622
  796MPD2    C511784   2.454   2.258  16.364  0.2199 -0.6923  0.7956
  796MPD2     H11785   2.758   2.129  16.167  0.0924  0.4174 -0.5815
  796MPD2    H111786   2.384   2.338  16.184  0.5152  0.4748 -1.4201
  796MPD2    H211787   2.541   2.180  16.540  0.3964  0.5086  0.4214
  796MPD2    H311788   2.370   2.291  16.424 -1.5311 -2.2109 -0.8022
  796MPD2     N11789   2.586   2.252  16.023 -0.0738 -0.5158  0.1175
  796MPD2    H511790   2.679   2.230  15.988  0.1752  1.8978 -0.7564
  796MPD2    N111791   2.757   2.076  16.440 -0.0200  0.5932 -0.1631
  796MPD2    H711792   2.747   2.067  16.540 -0.8029 -1.2214 -0.4064
  797MPD2     C11793   3.717   1.711  17.387  0.1738 -0.5689  0.3358
  797MPD2    C111794   3.802   1.809  17.431 -0.3026 -0.6774  0.3482
  797MPD2    C211795   3.755   1.936  17.423  0.0766  0.4536  0.1733
  797MPD2    C311796   3.628   1.971  17.377  1.0399 -0.2666  0.1533
  797MPD2    C411797   3.543   1.872  17.334  0.7991 -0.4884 -0.2845
  797MPD2    C511798   3.593   1.745  17.337 -0.0157  0.4356  0.1869
  797MPD2     H11799   3.828   2.013  17.444  2.9565 -2.3157  0.2221
  797MPD2    H111800   3.449   1.888  17.282  0.3551  3.9676  1.9679
  797MPD2    H211801   3.748   1.608  17.385 -0.4731 -0.7465 -0.6230
  797MPD2    H311802   3.538   1.661  17.299 -0.0026  0.4686  0.0962
  797MPD2     N11803   3.576   2.100  17.374  0.4049  0.0641  0.6826
  797MPD2    H511804   3.489   2.113  17.323  0.8522 -2.7697 -0.8239
  797MPD2    N111805   3.933   1.799  17.481 -0.8802  0.4597  0.2106
  797MPD2    H711806   3.975   1.887  17.509 -4.0701  1.1566  2.7978
  798MPD2     C11807   4.153   2.503  17.412 -0.5469  0.1951  0.7263
  798MPD2    C111808   4.055   2.412  17.432  0.2602 -0.0560  0.2037
  798MPD2    C211809   4.092   2.288  17.473 -0.4790 -0.5162 -0.1329
  798MPD2    C311810   4.221   2.235  17.467  0.2843  0.7245  0.5789
  798MPD2    C411811   4.323   2.318  17.425 -0.1015  0.1513  0.2068
  798MPD2    C511812   4.282   2.448  17.412  0.6523  0.3323  0.6793
  798MPD2     H11813   4.014   2.219  17.504 -0.6713 -0.7482 -1.1311
  798MPD2    H111814   4.428   2.297  17.440 -0.1535  0.3339  0.8321
  798MPD2    H211815   4.145   2.606  17.378  2.8665  0.5692  1.0693
  798MPD2    H311816   4.355   2.527  17.395 -1.7529  2.3855 -0.2552
  798MPD2     N11817   4.242   2.096  17.495  0.1484  0.0638  0.2496
  798MPD2    H511818   4.156   2.064  17.537 -0.3846  0.4310 -0.5611
  798MPD2    N111819   3.918   2.450  17.425  0.2062  0.1170  0.0399
  798MPD2    H711820   3.853   2.374  17.445 -1.2946  1.0468 -1.2725
  799MPD2     C11821   2.524   3.049  14.703 -0.1727  0.7445 -1.2442
  799MPD2    C111822   2.456   2.989  14.596 -0.3068  0.1906  0.1529
  799MPD2    C211823   2.416   3.074  14.488 -0.1445  0.2614  0.2081
  799MPD2    C311824   2.450   3.209  14.493  0.6086  0.7476  1.5179
  799MPD2    C411825   2.525   3.262  14.594  0.3819 -0.4380  0.0073
  799MPD2    C511826   2.560   3.188  14.702  0.1772 -0.7183 -0.4286
  799MPD2     H11827   2.353   3.035  14.409  1.7202 -0.2293 -1.0445
  799MPD2    H111828   2.558   3.365  14.589  2.4528 -1.2264 -2.4948
  799MPD2    H211829   2.529   2.999  14.799 -0.3682 -0.9431 -2.1219
  799MPD2    H311830   2.598   3.237  14.791 -1.2048 -2.4911  1.1446
  799MPD2     N11831   2.440   3.295  14.381 -0.0516 -0.2892 -0.3664
  799MPD2    H511832   2.476   3.388  14.396  1.6129 -1.1162  0.7981
  799MPD2    N111833   2.411   2.851  14.598 -0.0932 -0.3796  0.5519
  799MPD2    H711834   2.367   2.810  14.517 -0.9127  2.0928 -0.2350
  800MPD2     C11835   3.170   4.474  14.177  0.0099 -0.4776 -0.0587
  800MPD2    C111836   3.282   4.520  14.106 -0.6704 -0.8185  0.2195
  800MPD2    C211837   3.312   4.452  13.990  0.1067 -0.1767  0.2715
  800MPD2    C311838   3.235   4.349  13.938 -0.0725  0.4289  0.2179
  800MPD2    C411839   3.141   4.293  14.019 -0.7194 -0.1202 -0.9169
  800MPD2    C511840   3.099   4.363  14.129  0.3713 -0.1046 -0.5925
  800MPD2     H11841   3.400   4.480  13.933  1.2924 -1.1301  1.6482
  800MPD2    H111842   3.088   4.205  13.984 -0.2489 -0.6660 -0.2631
  800MPD2    H211843   3.128   4.524  14.264  0.7630  0.4891 -0.2449
  800MPD2    H311844   3.017   4.330  14.192  1.1862  0.5894  0.8351
  800MPD2     N11845   3.281   4.291  13.816  0.4226 -0.2983 -0.0675
  800MPD2    H511846   3.363   4.328  13.770  0.8645 -0.6148  0.4728
  800MPD2    N111847   3.362   4.627  14.160  0.0578  0.2627  0.5630
  800MPD2    H711848   3.333   4.667  14.249 -0.0655  0.5992  0.3737
  801MPD2     C11849   3.321   0.435  14.591  0.3602 -0.9265  0.1260
  801MPD2    C111850   3.283   0.335  14.503 -0.0883 -0.1550  0.0326
  801MPD2    C211851   3.146   0.316  14.484  0.3421 -0.6462  0.1823
  801MPD2    C311852   3.055   0.379  14.575 -0.0680 -0.7238 -0.6741
  801MPD2    C411853   3.096   0.480  14.656 -0.6605  1.5777 -0.5108
  801MPD2    C511854   3.232   0.508  14.662 -0.3119 -0.4426 -0.6871
  801MPD2     H11855   3.115   0.228  14.427  0.7474  0.0118 -1.0679
  801MPD2    H111856   3.034   0.549  14.713  1.6886  0.2734  3.6636
  801MPD2    H211857   3.424   0.470  14.587  1.4491 -3.6877  3.1199
  801MPD2    H311858   3.260   0.583  14.735 -1.0860  0.4232 -1.2734
  801MPD2     N11859   2.923   0.337  14.591 -0.2577 -0.3143 -0.2682
  801MPD2    H511860   2.871   0.383  14.665  1.5889 -1.8455  1.9901
  801MPD2    N111861   3.383   0.252  14.443  0.5268  0.0798 -0.5257
  801MPD2    H711862   3.346   0.177  14.385  0.0431 -0.3655  0.3643
  802MPD2     C11863   2.509   0.216  17.305 -0.3288 -0.2758  0.5428
  802MPD2    C111864   2.524   0.354  17.281 -0.5125  0.0242 -0.5318
  802MPD2    C211865   2.634   0.392  17.204 -0.1584 -0.4725  0.8246
  802MPD2    C311866   2.695   0.297  17.120  0.1150 -0.3552 -0.4388
  802MPD2    C411867   2.663   0.162  17.130  0.9462  0.1868  0.0743
  802MPD2    C511868   2.561   0.127  17.215  0.0861  0.5718 -0.2154
  802MPD2     H11869   2.676   0.491  17.195  1.0323 -1.0722 -0.1360
  802MPD2    H111870   2.696   0.088  17.059  1.6591  0.8815 -0.3165
  802MPD2    H211871   2.433   0.180  17.374 -0.7764 -0.2436  0.0639
  802MPD2    H311872   2.537   0.022  17.220  0.0127  0.5848 -0.2965
  802MPD2     N11873   2.798   0.351  17.047 -0.2897 -0.2003  0.3442
  802MPD2    H511874   2.816   0.448  17.070 -0.7201  0.4611 -2.0938
  802MPD2    N111875   2.463   0.461  17.354 -0.6322  0.4438 -0.4789
  802MPD2    H711876   2.493   0.556  17.335 -0.5793  0.1095 -2.0305
  803MPD2     C11877   3.598   3.784  12.024  0.7712 -0.0247 -0.0154
  803MPD2    C111878   3.732   3.795  12.053  0.3937 -0.2364  0.7790
  803MPD2    C211879   3.776   3.730  12.168  1.1926 -0.7610  0.4180
  803MPD2    C311880   3.689   3.647  12.240 -0.4487  0.3135 -0.5200
  803MPD2    C411881   3.558   3.641  12.214  0.1368 -0.7316  0.4142
  803MPD2    C511882   3.519   3.707  12.101 -0.4900 -0.5796  0.8784
  803MPD2     H11883   3.878   3.728  12.203  1.5555  1.5839 -0.5110
  803MPD2    H111884   3.480   3.587  12.268  0.1446 -1.8630 -0.7165
  803MPD2    H211885   3.548   3.826  11.938 -0.2715 -3.0306 -0.8644
  803MPD2    H311886   3.417   3.685  12.071  0.7908 -2.2459 -2.2070
  803MPD2     N11887   3.730   3.563  12.354 -0.4457  0.4307  0.1874
  803MPD2    H511888   3.653   3.521  12.405  0.4656 -2.0432 -0.4576
  803MPD2    N111889   3.818   3.882  11.980  0.0862 -0.2881 -0.3977
  803MPD2    H711890   3.906   3.907  12.023 -1.0819 -1.6493  2.7641
  804MPD2     C11891   3.147   0.594  17.277 -0.0591  0.1043 -0.1366
  804MPD2    C111892   3.134   0.522  17.391 -1.7379  0.2265 -0.3539
  804MPD2    C211893   3.192   0.563  17.509 -0.2696 -0.7800  0.7883
  804MPD2    C311894   3.248   0.689  17.519 -0.4455  0.1759 -0.1318
  804MPD2    C411895   3.258   0.765  17.403  0.0291  0.5309  0.1969
  804MPD2    C511896   3.207   0.716  17.287  0.1720 -0.1270 -0.1341
  804MPD2     H11897   3.185   0.497  17.595 -0.0010 -1.6687  0.1235
  804MPD2    H111898   3.313   0.859  17.402 -0.5985  0.8951 -0.0798
  804MPD2    H211899   3.114   0.556  17.181 -1.2710  1.2146 -0.1641
  804MPD2    H311900   3.231   0.776  17.201  0.7933 -0.7112 -0.3671
  804MPD2     N11901   3.312   0.727  17.642  0.0894 -0.1553 -0.0752
  804MPD2    H511902   3.334   0.650  17.704 -0.3609  0.4064  0.7754
  804MPD2    N111903   3.090   0.388  17.389  0.9216  0.5497 -0.4939
  804MPD2    H711904   3.100   0.335  17.475  0.5772  0.8391 -0.2758
  805MPD2     C11905   2.203   3.400  15.363  0.0824  0.9481  0.0252
  805MPD2    C111906   2.331   3.367  15.327  0.4340  0.2992 -0.1953
  805MPD2    C211907   2.430   3.422  15.404  0.3926 -0.2537 -0.0660
  805MPD2    C311908   2.400   3.504  15.511  0.0897 -0.0037 -0.4244
  805MPD2    C411909   2.268   3.529  15.548 -0.0975  0.5591  0.3415
  805MPD2    C511910   2.172   3.474  15.474 -0.5364  0.3756 -0.4199
  805MPD2     H11911   2.530   3.390  15.375  0.7053  0.5700  0.1099
  805MPD2    H111912   2.229   3.593  15.626  1.9073 -0.3701  2.1017
  805MPD2    H211913   2.117   3.365  15.308  1.0072 -3.2886  1.3188
  805MPD2    H311914   2.068   3.475  15.505  0.2317  0.2448  2.1692
  805MPD2     N11915   2.511   3.549  15.576 -0.3231 -0.4169 -0.2245
  805MPD2    H511916   2.595   3.537  15.520 -0.5944 -0.3719 -0.6379
  805MPD2    N111917   2.362   3.282  15.222 -0.5876  0.5274 -0.1623
  805MPD2    H711918   2.458   3.250  15.216 -0.1610  2.4123 -3.4907
  806MPD2     C11919   2.518   3.114   0.303  0.4926 -0.2788 -0.7246
  806MPD2    C111920   2.559   3.221   0.383  0.2405  0.5715 -0.2247
  806MPD2    C211921   2.648   3.308   0.330  0.0095  0.6473  0.2999
  806MPD2    C311922   2.703   3.291   0.204 -0.3623 -0.8087  0.1436
  806MPD2    C411923   2.653   3.192   0.123  0.0440  0.7309  0.6354
  806MPD2    C511924   2.562   3.099   0.174 -0.0842  0.2287 -0.1350
  806MPD2     H11925   2.690   3.393   0.382  2.4881 -1.3041  1.5238
  806MPD2    H111926   2.675   3.187   0.017  0.7320 -0.7302  0.8497
  806MPD2    H211927   2.444   3.040   0.333  0.2643 -1.1052 -3.3276
  806MPD2    H311928   2.520   3.021   0.111  0.5913 -0.4367  0.2476
  806MPD2     N11929   2.789   3.393   0.168  0.0513 -0.3729  0.6155
  806MPD2    H511930   2.806   3.466   0.235  0.0056 -1.6468  2.0130
  806MPD2    N111931   2.518   3.225   0.516 -0.7747 -0.7361  0.1655
  806MPD2    H711932   2.443   3.161   0.542  0.3913 -2.3418 -0.4917
  807MPD2     C11933   2.406   2.654   0.961 -0.1243 -0.5412  0.2955
  807MPD2    C111934   2.538   2.705   0.959 -0.4274 -0.7919 -0.5272
  807MPD2    C211935   2.646   2.618   0.959 -0.5492 -0.1893  0.0244
  807MPD2    C311936   2.631   2.481   0.956 -0.3328 -1.1047  0.1860
  807MPD2    C411937   2.501   2.436   0.962  0.0386 -0.0371  0.6317
  807MPD2    C511938   2.391   2.514   0.964  0.0294 -0.6137 -0.6216
  807MPD2     H11939   2.749   2.653   0.953 -0.8886  1.0097  1.0984
  807MPD2    H111940   2.481   2.331   0.976  1.5172 -0.5026 -0.7629
  807MPD2    H211941   2.315   2.713   0.967  0.0895 -0.0563 -1.2485
  807MPD2    H311942   2.301   2.457   0.983 -0.5929  0.2401 -1.0115
  807MPD2     N11943   2.749   2.400   0.942  0.0553 -0.6427 -0.0567
  807MPD2    H511944   2.839   2.444   0.926 -0.3544 -0.6277 -2.2309
  807MPD2    N111945   2.563   2.843   0.964 -0.3781 -0.2392 -0.2450
  807MPD2    H711946   2.657   2.870   0.990 -0.7166 -1.1107  1.8888
  808MPD2     C11947   3.092   4.304   9.508 -0.0861 -0.2410  0.2852
  808MPD2    C111948   3.092   4.412   9.597 -0.4527 -0.1872  0.0872
  808MPD2    C211949   3.094   4.536   9.534 -0.0754 -0.6348 -0.8718
  808MPD2    C311950   3.120   4.547   9.397  0.4047 -0.8046 -0.4531
  808MPD2    C411951   3.136   4.435   9.318 -0.9028 -0.6873  0.0861
  808MPD2    C511952   3.109   4.313   9.369  0.1776  0.2424 -0.6786
  808MPD2     H11953   3.086   4.622   9.599  0.4995 -2.0119  1.0137
  808MPD2    H111954   3.181   4.443   9.220  2.5187 -1.2572  1.6340
  808MPD2    H211955   3.100   4.202   9.545  1.3137 -0.6586 -1.1638
  808MPD2    H311956   3.126   4.224   9.309 -0.8141 -0.2463 -0.2303
  808MPD2     N11957   3.155   4.672   9.339 -0.4018 -0.1577 -0.7918
  808MPD2    H511958   3.200   4.670   9.248 -2.1674  0.2002 -1.6659
  808MPD2    N111959   3.087   4.405   9.736 -0.2847 -0.1550 -0.1232
  808MPD2    H711960   3.107   4.485   9.794 -0.0180  2.3098 -3.6360
  809MPD2     C11961   4.045   4.700   9.284 -0.0472 -0.6767 -0.4127
  809MPD2    C111962   4.021   0.085   9.336  0.0884  0.4761 -0.2093
  809MPD2    C211963   3.885   0.120   9.362  0.2564 -0.2468 -0.4737
  809MPD2    C311964   3.778   0.038   9.341  0.2306  0.0564 -0.7879
  809MPD2    C411965   3.803   4.650   9.299 -0.0883 -1.1190  0.3792
  809MPD2    C511966   3.933   4.618   9.272  0.1943 -0.6279 -0.4626
  809MPD2     H11967   3.869   0.222   9.395 -1.7385 -0.9955  0.8446
  809MPD2    H111968   3.717   4.587   9.282  0.7917 -1.7250 -1.8320
  809MPD2    H211969   4.147   4.675   9.257  0.0223 -0.0997 -0.6924
  809MPD2    H311970   3.948   4.521   9.226  2.8441 -0.8089  0.7660
  809MPD2     N11971   3.641   0.076   9.345 -0.3444  0.4822  0.1808
  809MPD2    H511972   3.571   0.008   9.316  0.1794  0.6972 -1.5969
  809MPD2    N111973   4.126   0.184   9.346 -0.7819  0.1664  0.3222
  809MPD2    H711974   4.092   0.268   9.391 -2.2323  0.2452 -0.8959
  810MPD2     C11975   2.436   3.570  10.792 -0.0038  0.2194  0.6175
  810MPD2    C111976   2.541   3.631  10.732  0.6102 -0.2662 -0.0457
  810MPD2    C211977   2.575   3.757  10.762 -0.2579 -0.2987  0.0490
  810MPD2    C311978   2.505   3.833  10.853 -1.0308 -0.2838 -0.4793
  810MPD2    C411979   2.404   3.769  10.917 -0.2231  0.3367 -0.4163
  810MPD2    C511980   2.370   3.643  10.887 -0.2824 -0.5737 -0.2757
  810MPD2     H11981   2.656   3.811  10.715  0.8248  0.7580  3.0933
  810MPD2    H111982   2.340   3.832  10.979  0.8221  1.1973 -0.2125
  810MPD2    H211983   2.404   3.473  10.755  0.3246 -0.0315  0.9973
  810MPD2    H311984   2.291   3.589  10.939 -0.6340  0.0803 -0.1345
  810MPD2     N11985   2.520   3.978  10.864  0.1188  0.6604  0.1952
  810MPD2    H511986   2.445   4.037  10.900  0.3485  0.4079  1.0782
  810MPD2    N111987   2.613   3.553  10.639  0.4285  0.1526 -0.1364
  810MPD2    H711988   2.587   3.456  10.626 -1.2392  0.8889 -2.2812
  811MPD2     C11989   2.445   3.491   9.775  0.0997 -0.2472  0.4712
  811MPD2    C111990   2.519   3.567   9.861  0.6646  0.6270  0.3809
  811MPD2    C211991   2.528   3.701   9.838 -0.1978  1.1135 -0.7368
  811MPD2    C311992   2.459   3.764   9.738 -0.1889 -0.2559  0.2828
  811MPD2    C411993   2.401   3.681   9.645 -0.1709  0.7255 -0.0948
  811MPD2    C511994   2.388   3.549   9.672 -0.7535  0.1241 -0.7263
  811MPD2     H11995   2.573   3.766   9.912 -1.0143  0.0650  0.6848
  811MPD2    H111996   2.326   3.728   9.582 -1.2231 -0.1221  0.5331
  811MPD2    H211997   2.435   3.383   9.783 -1.4432 -0.1777 -0.6750
  811MPD2    H311998   2.310   3.492   9.622 -0.1432 -1.2076 -0.1591
  811MPD2     N11999   2.464   3.906   9.737  0.3488 -0.0196  0.3113
  811MPD2    H512000   2.526   3.947   9.806  1.3651 -0.2584 -0.4412
  811MPD2    N112001   2.570   3.511   9.979 -0.0327 -0.2225 -1.1642
  811MPD2    H712002   2.532   3.420  10.001 -1.5499 -0.0401 -2.9872
  812MPD2     C12003   1.430   4.018  12.660 -0.1570  0.4117 -0.0027
  812MPD2    C112004   1.547   4.003  12.589 -0.2329 -0.0092  0.8893
  812MPD2    C212005   1.576   3.880  12.536 -0.9908  0.3311 -0.2249
  812MPD2    C312006   1.499   3.769  12.555  0.6371 -0.3630  0.0873
  812MPD2    C412007   1.391   3.786  12.639  0.1447  0.0170 -0.1535
  812MPD2    C512008   1.355   3.907  12.696  0.0169 -0.6185  0.3835
  812MPD2     H12009   1.659   3.865  12.468 -1.2805 -0.3835 -0.4217
  812MPD2    H112010   1.318   3.706  12.649  2.2133 -1.8916 -0.5428
  812MPD2    H212011   1.388   4.112  12.695 -0.4329 -0.0157  0.8036
  812MPD2    H312012   1.265   3.919  12.755 -0.0179 -3.0398  0.8091
  812MPD2     N12013   1.530   3.650  12.492  0.8024  0.5445 -0.7068
  812MPD2    H512014   1.621   3.637  12.450 -0.2842  0.2288 -2.9415
  812MPD2    N112015   1.616   4.125  12.551  0.0746  0.3358 -0.5192
  812MPD2    H712016   1.570   4.212  12.576  1.0522  0.7805 -0.2669
  813MPD2     C12017   0.632   0.629  12.487 -0.0898  0.3156  0.2159
  813MPD2    C112018   0.629   0.766  12.520  0.1243  0.3325  0.4690
  813MPD2    C212019   0.560   0.817  12.623  0.0921  0.3317 -0.0594
  813MPD2    C312020   0.507   0.723  12.716  0.4364 -0.1221  0.3005
  813MPD2    C412021   0.509   0.586  12.689  0.1437  0.0505  0.3210
  813MPD2    C512022   0.567   0.540  12.575  0.3917 -0.5015 -0.0378
  813MPD2     H12023   0.554   0.920  12.656 -1.3809  0.0587  0.5401
  813MPD2    H112024   0.463   0.511  12.753  1.7698  0.6964  2.2560
  813MPD2    H212025   0.689   0.593  12.402  0.3696  0.5423  0.4296
  813MPD2    H312026   0.578   0.434  12.555 -0.6457 -0.8390  1.1537
  813MPD2     N12027   0.455   0.774  12.836  0.1387 -0.0642  0.3752
  813MPD2    H512028   0.432   0.873  12.831 -1.5054 -0.2899  3.1126
  813MPD2    N112029   0.709   0.849  12.435 -0.1093  0.3264 -0.2317
  813MPD2    H712030   0.770   0.804  12.367  1.4019  2.5298 -0.3486
  814MPD2     C12031   1.009   2.007  12.514 -0.1751  0.5669  0.3468
  814MPD2    C112032   1.053   2.017  12.385 -0.3930  0.5044 -1.1474
  814MPD2    C212033   1.135   2.121  12.353 -0.0564  0.5980  0.1038
  814MPD2    C312034   1.166   2.222  12.440  0.0173  0.5480 -0.1502
  814MPD2    C412035   1.109   2.217  12.565 -0.1032  0.4735  0.3098
  814MPD2    C512036   1.032   2.111  12.601 -0.1031 -0.1586  0.2144
  814MPD2     H12037   1.162   2.128  12.248 -0.9437  1.4019 -0.0667
  814MPD2    H112038   1.130   2.289  12.644 -1.8771  2.6285 -1.1789
  814MPD2    H212039   0.946   1.924  12.546 -0.6469  0.5662 -0.5903
  814MPD2    H312040   1.009   2.093  12.705 -0.4206 -1.2701 -0.0530
  814MPD2     N12041   1.256   2.322  12.407 -0.0342 -0.6270  0.0305
  814MPD2    H512042   1.270   2.391  12.481 -1.4816  0.6432 -0.8601
  814MPD2    N112043   1.036   1.917  12.287 -0.1637 -0.6090 -0.4274
  814MPD2    H712044   1.103   1.921  12.211  0.4423  1.7895  0.2427
  815MPD2     C12045   2.104   0.860  11.502 -0.9253  0.3010  0.5643
  815MPD2    C112046   2.097   0.743  11.572 -0.1862 -0.5349 -0.1817
  815MPD2    C212047   1.985   0.720  11.653 -0.2552 -0.0724 -0.2395
  815MPD2    C312048   1.875   0.814  11.650 -0.2949 -0.5064 -0.4549
  815MPD2    C412049   1.885   0.919  11.563 -0.1337 -0.0703 -0.3529
  815MPD2    C512050   2.001   0.947  11.503 -0.4797  0.6265 -0.4900
  815MPD2     H12051   1.977   0.632  11.715 -0.4313 -0.1802 -0.4144
  815MPD2    H112052   1.795   0.977  11.548 -1.1426 -1.2856  1.0132
  815MPD2    H212053   2.190   0.887  11.442 -1.6932 -0.5115 -0.9069
  815MPD2    H312054   2.012   1.023  11.426 -1.4895  0.5391 -0.7099
  815MPD2     N12055   1.754   0.788  11.720 -0.3955  0.3917 -0.0297
  815MPD2    H512056   1.678   0.855  11.713 -2.2486 -1.7252 -0.0350
  815MPD2    N112057   2.199   0.648  11.554  0.5438  0.5206  0.1038
  815MPD2    H712058   2.267   0.679  11.485 -0.5172 -1.6086 -1.9092
  816MPD2     C12059   1.757   4.666  17.433 -0.0813 -0.5611  0.5651
  816MPD2    C112060   1.752   0.007  17.328  0.0275 -0.1884 -0.7961
  816MPD2    C212061   1.856   4.728  17.238 -0.2266 -0.0426  0.4025
  816MPD2    C312062   1.959   4.636  17.245  0.0379  0.5788  0.2360
  816MPD2    C412063   1.954   4.551  17.354 -0.5981  0.4199 -0.4748
  816MPD2    C512064   1.852   4.569  17.438  0.3264 -0.2020 -0.1280
  816MPD2     H12065   1.856   0.059  17.155 -1.9039 -0.0379  0.4066
  816MPD2    H112066   2.016   4.462  17.363 -0.6809  0.3539 -0.5610
  816MPD2    H212067   1.679   4.670  17.508  0.6342  0.5185  1.2440
  816MPD2    H312068   1.852   4.499  17.521 -2.7716  0.3560  0.3396
  816MPD2     N12069   2.058   4.639  17.143  0.0540 -0.1610 -0.2990
  816MPD2    H512070   2.036   4.705  17.069 -0.3323  0.5583  0.4668
  816MPD2    N112071   1.640   0.097  17.310  0.2291 -0.0347  0.3028
  816MPD2    H712072   1.586   0.110  17.395  0.9927 -1.2592  0.9761
  817MPD2     C12073   1.276   1.069   9.508  0.4317  0.8462  0.2045
  817MPD2    C112074   1.174   0.975   9.481  0.2670  0.2515  0.1305
  817MPD2    C212075   1.051   1.014   9.432 -0.2995  0.1966 -0.6910
  817MPD2    C312076   1.019   1.145   9.420 -0.5146  0.6193 -0.6401
  817MPD2    C412077   1.115   1.240   9.457  0.4986  0.5633 -0.0956
  817MPD2    C512078   1.241   1.198   9.493  0.1539  0.8654 -0.6336
  817MPD2     H12079   0.988   0.933   9.398 -0.5670 -0.3963  1.2130
  817MPD2    H112080   1.094   1.346   9.459  0.4383  0.6002 -2.4567
  817MPD2    H212081   1.368   1.045   9.561  0.9291 -2.4229 -2.1550
  817MPD2    H312082   1.312   1.279   9.506  0.6217  0.3311  0.1215
  817MPD2     N12083   0.894   1.196   9.365  0.1724 -0.3015 -0.2290
  817MPD2    H512084   0.887   1.297   9.356 -0.4789 -0.2341  1.0821
  817MPD2    N112085   1.202   0.835   9.497 -0.1804 -0.1929 -0.8644
  817MPD2    H712086   1.117   0.779   9.495 -0.2295 -0.0305 -2.6133
  818MPD2     C12087   0.458   2.352  10.329 -0.3159  0.2556 -0.5042
  818MPD2    C112088   0.389   2.262  10.406 -0.2656 -0.4913 -0.1296
  818MPD2    C212089   0.399   2.124  10.376  0.4360 -0.2467  0.6188
  818MPD2    C312090   0.480   2.074  10.276 -0.4478 -0.9967  0.4731
  818MPD2    C412091   0.553   2.167  10.210  0.3515 -0.2287 -0.3274
  818MPD2    C512092   0.544   2.302  10.234  0.4778 -0.2730 -0.1913
  818MPD2     H12093   0.335   2.056  10.431 -3.2947  2.6284 -0.1523
  818MPD2    H112094   0.629   2.138  10.139  1.4152  0.0055  0.7158
  818MPD2    H212095   0.439   2.458  10.341  1.5013  0.5389 -0.2101
  818MPD2    H312096   0.601   2.369  10.171  0.9525  0.3776  0.9327
  818MPD2     N12097   0.494   1.932  10.257  0.0547 -0.2595 -0.3768
  818MPD2    H512098   0.437   1.869  10.312  2.4158 -0.8662  1.3403
  818MPD2    N112099   0.298   2.294  10.508 -0.3858  0.2764 -0.2017
  818MPD2    H712100   0.260   2.207  10.545  2.0161  0.3214  2.3032
  819MPD2     C12101   3.057   2.917  15.303 -0.4170  0.5084 -0.2213
  819MPD2    C112102   3.126   2.798  15.318  0.5334 -0.6103 -0.3549
  819MPD2    C212103   3.267   2.802  15.323 -0.9441 -0.2965  0.6450
  819MPD2    C312104   3.335   2.922  15.352  0.1147 -0.8304  0.4015
  819MPD2    C412105   3.260   3.038  15.354  0.4487 -0.0127  0.0094
  819MPD2    C512106   3.126   3.034  15.316  0.0566 -0.3832 -0.4344
  819MPD2     H12107   3.325   2.712  15.306 -1.8473 -0.6316 -0.6579
  819MPD2    H112108   3.315   3.132  15.356 -1.2790  1.0370 -0.9998
  819MPD2    H212109   2.952   2.919  15.278 -0.2862 -2.9221 -1.0719
  819MPD2    H312110   3.080   3.127  15.284 -0.3407 -0.4313 -0.0024
  819MPD2     N12111   3.478   2.922  15.365  0.0464  0.3735  0.1231
  819MPD2    H512112   3.525   2.836  15.343  0.3169  0.3248  0.9009
  819MPD2    N112113   3.052   2.677  15.304  0.0866  0.4492  0.1150
  819MPD2    H712114   2.954   2.676  15.278  0.0275 -1.2681  0.3823
  820MPD2     C12115   2.214   2.477  15.195  0.1108  0.2513 -0.3451
  820MPD2    C112116   2.319   2.557  15.153 -0.3837  0.3283  0.4194
  820MPD2    C212117   2.445   2.508  15.149  0.2508  0.2076 -0.2987
  820MPD2    C312118   2.477   2.375  15.184 -0.2797 -0.0333  0.1744
  820MPD2    C412119   2.379   2.300  15.242 -0.6557 -0.2361  0.1342
  820MPD2    C512120   2.253   2.349  15.244  0.9103 -0.2840  0.6039
  820MPD2     H12121   2.521   2.566  15.097  2.4504 -0.9161  1.6417
  820MPD2    H112122   2.397   2.194  15.257  0.0372 -0.0639  0.5340
  820MPD2    H212123   2.111   2.509  15.204 -0.0887 -0.3227 -0.5862
  820MPD2    H312124   2.170   2.287  15.277  0.2869  0.3030  0.1407
  820MPD2     N12125   2.607   2.323  15.196  0.4415 -0.0223  0.1632
  820MPD2    H512126   2.614   2.234  15.244 -1.2193  1.0677  2.3881
  820MPD2    N112127   2.295   2.688  15.108 -0.2376 -0.5455 -0.0814
  820MPD2    H712128   2.197   2.712  15.102  0.6030  2.5653 -0.9968
  821MPD2     C12129   3.339   4.381  13.069  0.0525 -0.0423  0.4459
  821MPD2    C112130   3.425   4.353  13.170  0.0569 -0.6795  0.4240
  821MPD2    C212131   3.548   4.409  13.175  1.0606 -0.4975  0.4960
  821MPD2    C312132   3.585   4.507  13.082 -0.0172 -0.3108  0.1423
  821MPD2    C412133   3.492   4.548  12.984 -0.1574 -0.8429  0.0283
  821MPD2    C512134   3.372   4.484  12.982  0.0285  0.2359  0.0419
  821MPD2     H12135   3.618   4.376  13.251  0.1709  0.7698  1.8619
  821MPD2    H112136   3.513   4.628  12.915  2.7235 -0.1444  1.7323
  821MPD2    H212137   3.247   4.323  13.066  1.7472 -2.6806 -0.1956
  821MPD2    H312138   3.304   4.508  12.900  0.0654  0.5770  0.1119
  821MPD2     N12139   3.713   4.575  13.079  0.1455 -0.3355 -0.5041
  821MPD2    H512140   3.720   4.649  13.010 -2.1435  0.9657  0.6735
  821MPD2    N112141   3.398   4.253  13.268  0.1829  0.6502  0.6018
  821MPD2    H712142   3.478   4.231  13.326  1.1013  1.5338 -0.3301
  822MPD2     C12143   3.761   0.077  15.669  0.0156 -0.0629 -0.0964
  822MPD2    C112144   3.765   0.017  15.796  0.4635  0.2306 -0.4395
  822MPD2    C212145   3.704   0.078  15.901 -0.1069 -0.4959 -0.5667
  822MPD2    C312146   3.627   0.190  15.886 -0.5134  0.2862  0.0726
  822MPD2    C412147   3.621   0.241  15.762 -0.7394 -0.2356  0.7338
  822MPD2    C512148   3.678   0.186  15.654  0.2906  1.2958 -0.1452
  822MPD2     H12149   3.712   0.037  16.001 -3.1527 -2.6525 -1.1950
  822MPD2    H112150   3.571   0.335  15.739 -4.1162 -1.7744  1.8355
  822MPD2    H212151   3.792   0.032  15.575 -1.6103  1.2765 -1.2637
  822MPD2    H312152   3.670   0.227  15.554  0.6314 -0.1019 -0.7548
  822MPD2     N12153   3.576   0.256  15.999 -0.2840 -0.0143 -0.1782
  822MPD2    H512154   3.569   0.197  16.081  2.1775  0.5047  0.4296
  822MPD2    N112155   3.834   4.636  15.829  0.8042  0.3761  0.0866
  822MPD2    H712156   3.838   4.609  15.927 -0.6550  0.1135  0.0749
  823MPD2     C12157   3.351   0.372  16.819 -0.2400 -0.5114  0.3721
  823MPD2    C112158   3.376   0.306  16.704  0.5039 -0.2620 -0.0786
  823MPD2    C212159   3.373   0.169  16.702  0.4954  0.2881 -0.8856
  823MPD2    C312160   3.358   0.092  16.819 -0.4001 -0.2300  0.1935
  823MPD2    C412161   3.312   0.163  16.933 -0.0875 -1.0143  0.1973
  823MPD2    C512162   3.312   0.298  16.931 -0.0424 -0.3144 -0.2107
  823MPD2     H12163   3.394   0.124  16.605  2.3529 -1.6756  0.4255
  823MPD2    H112164   3.279   0.117  17.025  0.4103 -0.1967  0.7892
  823MPD2    H212165   3.348   0.480  16.825 -3.2031 -0.4458 -2.7054
  823MPD2    H312166   3.294   0.360  17.018 -1.4105  0.8202 -1.2965
  823MPD2     N12167   3.365   4.694  16.823 -0.0670 -0.5956 -0.0709
  823MPD2    H512168   3.355   4.647  16.912  2.7136  1.6321  1.4400
  823MPD2    N112169   3.390   0.388  16.589 -0.1781  0.3596 -0.1829
  823MPD2    H712170   3.408   0.487  16.601  0.5168  0.1789  0.2671
  824MPD2     C12171   3.948   3.809  15.612 -0.2701 -0.2764 -0.0658
  824MPD2    C112172   4.034   3.844  15.715  0.5141 -0.2891 -0.1986
  824MPD2    C212173   4.146   3.768  15.741 -0.7724 -0.4281 -0.4167
  824MPD2    C312174   4.156   3.642  15.681 -0.2382 -0.5460 -0.6503
  824MPD2    C412175   4.063   3.601  15.580 -0.3356  0.1084 -0.4331
  824MPD2    C512176   3.961   3.689  15.546 -0.0164 -0.6428  0.0788
  824MPD2     H12177   4.232   3.799  15.800 -0.5645 -0.9719 -0.4355
  824MPD2    H112178   4.074   3.522  15.507 -0.5318 -2.1446  1.9808
  824MPD2    H212179   3.862   3.873  15.595 -0.3188 -0.2046  0.4581
  824MPD2    H312180   3.902   3.665  15.459  1.9301 -1.3266 -1.0456
  824MPD2     N12181   4.280   3.569  15.697 -0.7902  0.4956 -0.2663
  824MPD2    H512182   4.351   3.601  15.762  0.9650  0.3695 -2.0917
  824MPD2    N112183   4.029   3.972  15.769  0.2023 -0.2667  0.2388
  824MPD2    H712184   4.091   3.983  15.848 -1.3952  2.4107  1.1188
  825MPD2     C12185   0.126   3.872  15.295 -0.0489  0.3213  0.1836
  825MPD2    C112186   0.061   3.854  15.411 -0.0907  0.6059  0.1119
  825MPD2    C212187   0.044   3.959  15.496  0.9147  0.1805 -1.0309
  825MPD2    C312188   0.077   4.084  15.447 -0.0883 -0.5503 -0.5360
  825MPD2    C412189   0.140   4.104  15.323 -0.1764  0.1398  0.9289
  825MPD2    C512190   0.170   3.991  15.255  0.2637 -0.2513  0.1765
  825MPD2     H12191   4.735   3.956  15.593  0.0945 -0.7878 -1.4680
  825MPD2    H112192   0.152   4.205  15.286 -1.1559  0.0269  0.3169
  825MPD2    H212193   0.141   3.783  15.235  1.5646  2.3427 -2.3751
  825MPD2    H312194   0.201   3.995  15.151  1.1196 -3.6842  0.2742
  825MPD2     N12195   0.043   4.208  15.515  0.6863  0.0469 -0.3183
  825MPD2    H512196   0.067   4.290  15.460  0.3314 -1.1340 -2.2316
  825MPD2    N112197   0.015   3.723  15.449  0.1315  0.4578 -0.0617
  825MPD2    H712198   0.018   3.657  15.372  2.1616 -1.8284  1.9778
  826MPD2     C12199   4.475   3.114  13.594 -0.7778  0.1529  0.1324
  826MPD2    C112200   4.524   3.243  13.583  0.3760  0.6558 -0.4290
  826MPD2    C212201   4.449   3.350  13.626 -0.3529 -0.3384 -0.4574
  826MPD2    C312202   4.328   3.324  13.695  0.0515  0.1346  0.2966
  826MPD2    C412203   4.288   3.196  13.724  0.8255  0.6842  0.0831
  826MPD2    C512204   4.367   3.093  13.680  0.1636  0.0166  0.6223
  826MPD2     H12205   4.485   3.451  13.611 -3.2656  0.8247  0.5699
  826MPD2    H112206   4.200   3.178  13.784 -2.1151  4.1585 -3.1369
  826MPD2    H212207   4.523   3.026  13.552  0.8177 -0.0100  2.3374
  826MPD2    H312208   4.335   2.991  13.699 -1.3058  0.3158 -0.2321
  826MPD2     N12209   4.239   3.427  13.744  0.4629 -0.1346  0.7525
  826MPD2    H512210   4.164   3.392  13.803 -0.1292 -0.9427 -0.4899
  826MPD2    N112211   4.653   3.261  13.524 -0.4136  0.0415 -0.3368
  826MPD2    H712212   4.700   3.182  13.481  0.6078  0.2661  0.3731
  827MPD2     C12213   0.782   4.510  10.057  0.1054  0.1806  0.2500
  827MPD2    C112214   0.747   4.607  10.149 -0.3925 -0.1646 -0.1167
  827MPD2    C212215   0.634   4.681  10.126 -0.3648 -0.6382 -0.3967
  827MPD2    C312216   0.535   4.647  10.034  0.3451  0.1609 -0.0642
  827MPD2    C412217   0.576   4.553   9.934  0.4242  0.5977  0.2959
  827MPD2    C512218   0.689   4.484   9.960 -0.4923  0.0212  0.6068
  827MPD2     H12219   0.609   0.019  10.198 -0.0647 -0.3597 -0.5927
  827MPD2    H112220   0.512   4.524   9.852  3.0846 -0.1900 -1.5042
  827MPD2    H212221   0.878   4.461  10.067 -0.7822 -1.5589  0.1336
  827MPD2    H312222   0.705   4.404   9.889  0.1948  0.4792  0.2485
  827MPD2     N12223   0.421   4.726  10.029 -0.1370  0.7003  0.1274
  827MPD2    H512224   0.416   0.071  10.086 -1.0404  0.1036  0.9457
  827MPD2    N112225   0.836   4.622  10.257 -0.4085  0.4155 -0.3145
  827MPD2    H712226   0.919   4.563  10.248 -1.6156 -1.7046  2.7288
  828MPD2     C12227   4.130   4.610  12.457 -0.4383  0.3067 -0.4495
  828MPD2    C112228   4.057   4.582  12.344 -0.9252 -0.0545 -0.3713
  828MPD2    C212229   4.122   4.541  12.234 -0.3929  0.1606  0.0801
  828MPD2    C312230   4.261   4.549  12.226  0.9916 -0.2338 -0.0548
  828MPD2    C412231   4.335   4.563  12.340 -0.7593 -0.1334  0.1242
  828MPD2    C512232   4.268   4.591  12.462 -0.1632  0.1009  0.0185
  828MPD2     H12233   4.063   4.525  12.145  0.7287  0.0913 -0.6443
  828MPD2    H112234   4.443   4.554  12.339 -0.8528 -1.2482  0.5659
  828MPD2    H212235   4.079   4.625  12.552 -0.0631 -0.5098 -0.1157
  828MPD2    H312236   4.326   4.605  12.552  0.7824 -2.8741 -0.1610
  828MPD2     N12237   4.329   4.529  12.105  0.1283  0.1428 -0.1289
  828MPD2    H512238   4.428   4.528  12.126  0.1918 -1.4885 -0.4790
  828MPD2    N112239   3.919   4.599  12.330  0.2873  0.1881  0.1325
  828MPD2    H712240   3.867   4.573  12.247  2.5979 -0.2023 -1.1970
  829MPD2     C12241   3.717   4.717  11.549  0.4484  0.4706  0.0798
  829MPD2    C112242   3.607   0.051  11.600 -0.5177 -0.0295  0.0169
  829MPD2    C212243   3.583   0.045  11.736 -0.2307  0.3352  0.0735
  829MPD2    C312244   3.668   4.710  11.818  0.1009 -0.3107  0.0785
  829MPD2    C412245   3.783   4.650  11.763  0.6399  0.1487  0.5306
  829MPD2    C512246   3.804   4.651  11.627 -0.1371 -0.7988 -0.6443
  829MPD2     H12247   3.498   0.103  11.770 -0.0588  2.2511 -2.7714
  829MPD2    H112248   3.840   4.576  11.818  1.8443  0.9562  0.3879
  829MPD2    H212249   3.742   4.712  11.444  1.2421  0.3083  0.2731
  829MPD2    H312250   3.892   4.603  11.585  0.3954 -0.0494 -0.3962
  829MPD2     N12251   3.649   4.691  11.954 -0.7483  0.2534 -0.0347
  829MPD2    H512252   3.722   4.637  11.998 -1.4729  0.2879  1.2017
  829MPD2    N112253   3.539   0.136  11.512  0.0975  0.0441 -0.3446
  829MPD2    H712254   3.560   0.118  11.415  1.3420 -0.3296 -0.0166
  830MPD2     C12255   4.128   2.918  15.026  0.9047  0.2393 -0.0086
  830MPD2    C112256   4.037   3.002  15.074 -0.6758 -0.6561 -0.8015
  830MPD2    C212257   4.023   3.130  15.015 -0.1001 -0.2154 -0.4632
  830MPD2    C312258   4.108   3.162  14.914 -0.1319 -0.6053 -0.2382
  830MPD2    C412259   4.190   3.065  14.855 -0.4779  0.6034 -0.0677
  830MPD2    C512260   4.207   2.943  14.918  0.0783  0.0910  0.2795
  830MPD2     H12261   3.947   3.200  15.047 -2.2121 -3.1651  0.9761
  830MPD2    H112262   4.256   3.095  14.775  1.9012 -2.1048  0.8747
  830MPD2    H212263   4.146   2.820  15.067 -0.4334 -0.0410 -0.1140
  830MPD2    H312264   4.279   2.871  14.880  0.2145  0.2490  0.2355
  830MPD2     N12265   4.105   3.297  14.872  0.0790  0.0404 -0.6220
  830MPD2    H512266   4.023   3.350  14.898 -0.5807 -1.0927 -0.3824
  830MPD2    N112267   3.948   2.969  15.186 -0.0528 -0.0895 -0.0318
  830MPD2    H712268   3.874   3.036  15.206 -0.1484 -0.7749  1.9360
  831MPD2     C12269   3.876   0.274  16.405  0.0252  0.4082  0.6214
  831MPD2    C112270   3.856   0.201  16.292  0.9191 -0.0782 -0.2407
  831MPD2    C212271   3.747   0.118  16.291 -0.3963 -0.5107 -0.1527
  831MPD2    C312272   3.667   0.095  16.402 -0.6190  0.7293  0.5774
  831MPD2    C412273   3.703   0.144  16.523  0.5106  0.0546  0.2369
  831MPD2    C512274   3.805   0.242  16.518 -0.3022  0.0319  0.3856
  831MPD2     H12275   3.722   0.074  16.195 -1.3838 -1.8090  0.6949
  831MPD2    H112276   3.656   0.118  16.617 -1.2787  2.8880  0.1236
  831MPD2    H212277   3.966   0.333  16.417  1.2492 -1.7106  1.8514
  831MPD2    H312278   3.834   0.291  16.610 -1.1047  0.6445  0.3030
  831MPD2     N12279   3.545   0.030  16.391 -0.0703  0.3691  0.5449
  831MPD2    H512280   3.502   0.005  16.480 -0.4522 -0.5404  0.1089
  831MPD2    N112281   3.933   0.215  16.178  0.4760  0.7916 -0.7390
  831MPD2    H712282   3.985   0.301  16.160 -1.4033  2.4731  1.7938
  832MPD2     C12283   2.482   1.230  17.338  0.3453  0.4222  0.2919
  832MPD2    C112284   2.398   1.327  17.291 -0.3376 -0.6280  0.0124
  832MPD2    C212285   2.303   1.287  17.194  0.6544  0.4550 -0.2346
  832MPD2    C312286   2.305   1.158  17.143 -0.0706  0.1997 -0.7491
  832MPD2    C412287   2.387   1.060  17.197  0.8173 -0.0098 -0.0771
  832MPD2    C512288   2.476   1.098  17.291  0.4329 -1.4775 -0.4350
  832MPD2     H12289   2.220   1.354  17.173 -0.6803 -1.3957 -0.8953
  832MPD2    H112290   2.400   0.962  17.152 -0.4754 -0.0878 -0.2933
  832MPD2    H212291   2.558   1.264  17.407  0.0261 -1.8722  1.8113
  832MPD2    H312292   2.538   1.019  17.331 -1.4220 -1.2459  2.8943
  832MPD2     N12293   2.223   1.121  17.032 -0.2619  0.2595 -0.5963
  832MPD2    H512294   2.217   1.021  17.016 -0.7953  0.4376 -1.4746
  832MPD2    N112295   2.410   1.457  17.336  0.2676 -0.2452  0.1167
  832MPD2    H712296   2.494   1.477  17.389  0.1071 -1.3073  0.7605
  833MPD2     C12297   0.210   2.449  12.010 -0.5904 -0.0228  0.2041
  833MPD2    C112298   0.106   2.499  11.938 -0.0486  0.0764 -0.2193
  833MPD2    C212299   0.093   2.475  11.803 -0.5817 -0.5399 -0.1914
  833MPD2    C312300   0.178   2.389  11.739 -0.2281 -0.4267 -0.4926
  833MPD2    C412301   0.279   2.332  11.813 -0.3016  0.0097 -0.7183
  833MPD2    C512302   0.298   2.365  11.946 -0.3191 -0.4692  0.4983
  833MPD2     H12303   0.009   2.523  11.755 -0.3559 -1.5598 -1.5921
  833MPD2    H112304   0.344   2.265  11.759 -1.3542 -0.6251 -1.2079
  833MPD2    H212305   0.233   2.457  12.116  1.2753  0.2994 -0.2258
  833MPD2    H312306   0.381   2.321  12.000  0.8406  0.4839 -0.4957
  833MPD2     N12307   0.136   2.352  11.607 -0.2913  0.2555 -0.2509
  833MPD2    H512308   0.056   2.398  11.563  0.2483  1.0858 -0.3743
  833MPD2    N112309   0.012   2.591  11.988 -0.4487  0.4955  0.3586
  833MPD2    H712310   4.673   2.612  11.927 -1.1613 -2.2839  0.2743
  834MPD2     C12311   4.236   1.750  11.098 -0.6339  0.2782 -0.1853
  834MPD2    C112312   4.214   1.878  11.065  0.1841  0.4989 -0.2325
  834MPD2    C212313   4.298   1.980  11.121 -0.7128 -0.3143  0.3115
  834MPD2    C312314   4.408   1.944  11.194 -0.1262 -0.3406  0.2709
  834MPD2    C412315   4.432   1.807  11.207  0.1063 -0.0807  0.1659
  834MPD2    C512316   4.344   1.719  11.166  0.0333  0.4313  0.8077
  834MPD2     H12317   4.264   2.081  11.098  1.2756  0.0758 -0.8742
  834MPD2    H112318   4.515   1.769  11.267 -0.1725 -0.4191  0.3392
  834MPD2    H212319   4.178   1.670  11.053  1.9557 -1.7387  0.0277
  834MPD2    H312320   4.369   1.614  11.179 -1.6343  0.0590  1.0122
  834MPD2     N12321   4.489   2.048  11.233 -0.2116  0.5284  0.4713
  834MPD2    H512322   4.461   2.143  11.210 -2.2879 -0.4978 -1.2555
  834MPD2    N112323   4.110   1.894  10.972  0.4681  0.2712  0.3205
  834MPD2    H712324   4.043   1.817  10.967  0.2363  0.3595  2.0208
  835MPD2     C12325   0.086   0.456  10.932  0.2124 -0.2083 -0.3142
  835MPD2    C112326   4.697   0.495  10.980  0.0490  0.3431 -0.2181
  835MPD2    C212327   4.656   0.436  11.105 -0.1236 -0.3060  0.2980
  835MPD2    C312328   4.736   0.335  11.161  0.2201 -0.2284 -0.1647
  835MPD2    C412329   0.120   0.308  11.108  0.1239  0.0827  0.5178
  835MPD2    C512330   0.166   0.365  10.991 -0.5806 -0.3885 -0.3049
  835MPD2     H12331   4.566   0.473  11.152 -0.0947  0.7704 -0.4848
  835MPD2    H112332   0.186   0.244  11.166 -1.1785  0.6963  2.6388
  835MPD2    H212333   0.122   0.496  10.838  1.2082 -0.7429 -0.1607
  835MPD2    H312334   0.262   0.331  10.956  0.5163  1.9831  0.4098
  835MPD2     N12335   4.691   0.261  11.279  0.4003 -0.3949 -0.3882
  835MPD2    H512336   0.017   0.197  11.322  1.6089  1.7211  0.9317
  835MPD2    N112337   4.618   0.567  10.892 -0.0377 -0.4508  0.0000
  835MPD2    H712338   4.654   0.576  10.798  1.7674  0.0209  0.7285
  836MPD2     C12339   3.968   0.231  11.628  0.6161  0.2287  0.8206
  836MPD2    C112340   4.073   0.228  11.715  0.1124  0.2424 -0.1441
  836MPD2    C212341   4.060   0.273  11.846  0.2871  0.5627 -0.5437
  836MPD2    C312342   3.942   0.326  11.886  0.5457  0.0504 -0.4795
  836MPD2    C412343   3.834   0.322  11.803 -0.3529 -0.1382  0.1679
  836MPD2    C512344   3.850   0.270  11.679 -0.2964 -0.2906  0.1037
  836MPD2     H12345   4.146   0.268  11.912 -0.4082 -0.1100  0.3083
  836MPD2    H112346   3.731   0.348  11.825 -0.5899  1.0752 -2.3729
  836MPD2    H212347   3.978   0.198  11.525  0.3840  2.7201  0.0134
  836MPD2    H312348   3.767   0.252  11.612 -0.8139  0.2088  0.6151
  836MPD2     N12349   3.913   0.387  12.017 -0.1746 -0.5855  0.9736
  836MPD2    H512350   3.815   0.411  12.027  0.3525  1.4198  1.3067
  836MPD2    N112351   4.195   0.175  11.658  0.4314 -0.3319 -0.5938
  836MPD2    H712352   4.208   0.161  11.558  2.6653 -1.4916 -0.1368
  837MPD2     C12353   2.669   4.539  10.123  0.5352 -0.1039 -0.8866
  837MPD2    C112354   2.706   4.554   9.993  0.0516 -0.1337  0.7594
  837MPD2    C212355   2.730   4.678   9.948  0.1961  0.1266 -0.4650
  837MPD2    C312356   2.741   0.045  10.035 -0.8298  0.4421 -0.0586
  837MPD2    C412357   2.718   0.034  10.171 -0.3144 -0.1849 -0.5083
  837MPD2    C512358   2.683   4.648  10.208 -0.1428  0.0267  0.0862
  837MPD2     H12359   2.738   4.697   9.841 -0.8438 -1.6195 -0.8499
  837MPD2    H112360   2.745   0.107  10.247  1.7158 -2.1239  0.6102
  837MPD2    H212361   2.653   4.441  10.165 -0.8666  0.1017 -0.9457
  837MPD2    H312362   2.674   4.624  10.313 -1.2143  2.0503  0.4485
  837MPD2     N12363   2.773   0.169   9.978  0.0404 -0.1163 -0.0413
  837MPD2    H512364   2.800   0.160   9.881 -0.1413 -1.5414  0.0344
  837MPD2    N112365   2.682   4.459   9.895  0.1932  0.0703  0.4442
  837MPD2    H712366   2.683   4.486   9.797 -0.8558 -0.1726  0.3650
  838MPD2     C12367   1.388   3.286  11.800  0.0494  1.1301 -0.0635
  838MPD2    C112368   1.313   3.169  11.776  0.1111  0.2988  0.7334
  838MPD2    C212369   1.213   3.141  11.864  0.2021  0.7232  0.1921
  838MPD2    C312370   1.204   3.214  11.975  0.4511 -0.6714  0.1741
  838MPD2    C412371   1.282   3.330  11.999  0.5532 -0.1823  0.6388
  838MPD2    C512372   1.373   3.367  11.904  0.5787  0.7456  0.3087
  838MPD2     H12373   1.144   3.059  11.847  2.1029 -0.3895 -2.3656
  838MPD2    H112374   1.276   3.396  12.085  0.0665  1.2247 -0.4740
  838MPD2    H212375   1.476   3.308  11.740  0.4192 -0.3586 -0.0838
  838MPD2    H312376   1.433   3.456  11.923 -1.7460  2.5019 -0.6066
  838MPD2     N12377   1.095   3.186  12.067 -1.2445 -0.4100 -0.3410
  838MPD2    H512378   1.041   3.103  12.049 -0.8576 -0.8600  0.5585
  838MPD2    N112379   1.329   3.072  11.670 -0.2485 -0.2280 -0.7171
  838MPD2    H712380   1.264   2.994  11.669 -0.4860 -0.0295 -0.7303
  839MPD2     C12381   1.068   2.249  11.669  0.4037 -0.5389 -0.3551
  839MPD2    C112382   1.099   2.266  11.538 -0.3147  0.1387  0.0360
  839MPD2    C212383   1.172   2.380  11.492  0.3648  0.3238 -0.3302
  839MPD2    C312384   1.201   2.486  11.579 -0.2571 -0.1013 -0.6681
  839MPD2    C412385   1.164   2.463  11.712 -0.2432  0.7547 -0.1443
  839MPD2    C512386   1.093   2.355  11.754 -0.5165  0.0336  0.3458
  839MPD2     H12387   1.226   2.383  11.398  1.2567 -0.7203  0.1619
  839MPD2    H112388   1.175   2.542  11.785  1.9234 -0.4961  0.8958
  839MPD2    H212389   1.006   2.171  11.711 -0.3671  1.0241  1.4459
  839MPD2    H312390   1.070   2.353  11.859 -0.3683  0.4057  0.3864
  839MPD2     N12391   1.263   2.608  11.544  0.7331 -0.4599  0.6132
  839MPD2    H512392   1.305   2.664  11.617  0.2801  0.3612  0.2471
  839MPD2    N112393   1.064   2.167  11.442 -0.1607  0.1559 -0.6217
  839MPD2    H712394   1.089   2.182  11.345  1.9934  1.9993  0.2202
  840MPD2     C12395   1.482   0.047  10.306 -0.6773 -1.3185  0.5689
  840MPD2    C112396   1.436   0.055  10.432 -0.4947  0.5966 -0.0602
  840MPD2    C212397   1.498   0.143  10.523  0.0110  0.3309 -0.1129
  840MPD2    C312398   1.608   0.216  10.477  0.1111  0.4270  0.7192
  840MPD2    C412399   1.653   0.198  10.349  0.4489  0.6020  0.2312
  840MPD2    C512400   1.593   0.117  10.263  0.2322  0.7325 -0.5171
  840MPD2     H12401   1.482   0.144  10.630  0.8911  1.3128  0.0226
  840MPD2    H112402   1.750   0.238  10.326 -0.0745  0.7501 -1.6566
  840MPD2    H212403   1.435   4.725  10.230  0.4060  0.3347 -1.4391
  840MPD2    H312404   1.642   0.112  10.166  0.4821  0.6677 -0.3871
  840MPD2     N12405   1.684   0.298  10.558  0.6038 -0.1766 -0.2198
  840MPD2    H512406   1.775   0.329  10.527  1.0251  0.0171  1.2103
  840MPD2    N112407   1.309   4.725  10.460  0.4541 -0.2808  0.3928
  840MPD2    H712408   1.266   4.677  10.382  1.9842  1.4544 -1.5290
  841MPD2     C12409   0.409   0.282  15.028 -0.1152 -0.5702  0.7074
  841MPD2    C112410   0.408   0.166  14.952 -0.3326  0.4836 -0.1814
  841MPD2    C212411   0.486   0.154  14.835  0.2621  0.3888 -0.3660
  841MPD2    C312412   0.573   0.256  14.793  0.1258  0.3097  0.1552
  841MPD2    C412413   0.589   0.360  14.883 -0.2580 -0.3798 -0.2286
  841MPD2    C512414   0.508   0.377  14.996  0.4318 -0.4657 -0.1615
  841MPD2     H12415   0.475   0.063  14.777 -0.7618 -0.0425  0.5064
  841MPD2    H112416   0.654   0.443  14.860 -0.3845 -0.4408 -0.8099
  841MPD2    H212417   0.341   0.309  15.108  0.1729 -0.8449  1.0442
  841MPD2    H312418   0.521   0.466  15.058  1.2979 -0.3563 -0.4928
  841MPD2     N12419   0.645   0.242  14.673 -0.8602 -0.6282 -0.6256
  841MPD2    H512420   0.631   0.158  14.618 -3.5080 -0.0544 -0.8132
  841MPD2    N112421   0.311   0.061  14.973  0.3316  0.3359  0.1914
  841MPD2    H712422   0.300   4.724  14.907  0.8201 -0.9508  1.6115
  842MPD2     C12423   1.762   1.372  16.813  0.2411  0.9795  0.0291
  842MPD2    C112424   1.651   1.320  16.871 -0.2629  0.3727  0.3865
  842MPD2    C212425   1.651   1.288  17.001  0.1550  0.6298 -0.7313
  842MPD2    C312426   1.764   1.316  17.078 -0.3613 -0.4654 -0.3449
  842MPD2    C412427   1.879   1.372  17.019  0.2363  0.6550 -0.0492
  842MPD2    C512428   1.876   1.409  16.882  1.3002 -0.2141  0.0291
  842MPD2     H12429   1.557   1.269  17.052  0.2178  1.4839 -0.2995
  842MPD2    H112430   1.964   1.383  17.086  0.1291 -1.0308  0.3470
  842MPD2    H212431   1.771   1.389  16.706  0.9094  2.2360  0.2775
  842MPD2    H312432   1.967   1.444  16.835  0.5606  0.7794 -0.6653
  842MPD2     N12433   1.775   1.292  17.215 -0.5406  0.7974 -0.3668
  842MPD2    H512434   1.870   1.307  17.248 -0.0825 -0.8309 -0.9383
  842MPD2    N112435   1.532   1.314  16.787  0.1495 -0.5167 -0.0042
  842MPD2    H712436   1.542   1.341  16.690  2.3234  0.2807  0.4349
  843MPD2     C12437   3.078   2.550  17.695  0.2157 -0.4821 -0.6275
  843MPD2    C112438   3.135   2.427  17.723  0.3355  0.4768 -0.1359
  843MPD2    C212439   3.264   2.424   0.012 -0.2804  0.1922 -0.3550
  843MPD2    C312440   3.336   2.543   0.029 -0.2285  0.1054 -0.0847
  843MPD2    C412441   3.278   2.666  17.746  0.0711 -0.0919  0.1788
  843MPD2    C512442   3.147   2.668  17.708 -0.2703  0.8970 -0.0892
  843MPD2     H12443   3.313   2.334   0.049  0.3842  1.0915  0.9368
  843MPD2    H112444   3.340   2.754  17.751  2.5833 -1.9145  1.0990
  843MPD2    H212445   2.973   2.565  17.674  0.3893 -0.1433 -1.2448
  843MPD2    H312446   3.094   2.762  17.712 -1.9001  0.0204 -0.9716
  843MPD2     N12447   3.469   2.559   0.074  0.3980  0.0625  0.7613
  843MPD2    H512448   3.506   2.652   0.087 -0.1604  0.5663 -1.2663
  843MPD2    N112449   3.050   2.311  17.709 -0.5100 -0.0230 -0.1497
  843MPD2    H712450   2.960   2.341  17.675 -0.8689 -2.8406 -1.6669
  844MPD2     C12451   2.356   1.178  16.229  0.0771  0.2826  0.5527
  844MPD2    C112452   2.352   1.075  16.317  0.6308 -0.1073 -0.2152
  844MPD2    C212453   2.374   1.098  16.456 -0.0948 -0.3828 -0.1766
  844MPD2    C312454   2.396   1.228  16.503  0.3365  0.0917  0.3907
  844MPD2    C412455   2.409   1.330  16.413 -0.7581 -0.4825  0.3685
  844MPD2    C512456   2.373   1.307  16.283  0.7414  0.0371  0.0422
  844MPD2     H12457   2.372   1.006  16.513  2.2791 -0.5429 -0.3283
  844MPD2    H112458   2.428   1.429  16.451 -0.8168 -0.5008  0.4453
  844MPD2    H212459   2.324   1.166  16.126 -1.2982 -0.9770  1.1211
  844MPD2    H312460   2.367   1.391  16.215  1.6707  0.1565  0.1103
  844MPD2     N12461   2.417   1.249  16.646 -0.4913  0.0393  0.9168
  844MPD2    H512462   2.428   1.168  16.707 -0.1388 -0.9318 -0.4176
  844MPD2    N112463   2.323   0.943  16.259  0.6835 -0.4635 -0.1167
  844MPD2    H712464   2.298   0.942  16.161 -0.4004 -0.4903  0.1563
  845MPD2     C12465   2.346   2.084  17.176 -0.2377  0.1040  0.0928
  845MPD2    C112466   2.248   1.984  17.175 -0.8966  0.4671  0.0996
  845MPD2    C212467   2.272   1.856  17.130 -0.2257 -0.4743  0.8330
  845MPD2    C312468   2.408   1.829  17.108  0.0193 -0.6904  0.1093
  845MPD2    C412469   2.502   1.929  17.091 -0.0324 -0.0193  0.2505
  845MPD2    C512470   2.475   2.060  17.123 -0.0326 -0.1802  0.1000
  845MPD2     H12471   2.201   1.774  17.136 -0.8832 -0.0093 -0.6397
  845MPD2    H112472   2.593   1.904  17.039  0.0968 -1.5396  1.2047
  845MPD2    H212473   2.320   2.185  17.206 -1.2788 -0.1397 -0.0042
  845MPD2    H312474   2.551   2.135  17.106  0.2019 -0.5814 -0.6527
  845MPD2     N12475   2.438   1.697  17.068  0.0577  0.3049 -0.0853
  845MPD2    H512476   2.359   1.634  17.059  0.7978 -0.4175 -1.3899
  845MPD2    N112477   2.122   2.028  17.214 -0.4488  0.2508 -1.0858
  845MPD2    H712478   2.101   2.126  17.230 -1.2801 -0.4792  2.2545
  846MPD2     C12479   3.624   2.083  13.335  0.4677  0.2519 -0.4294
  846MPD2    C112480   3.488   2.119  13.363 -0.7402  0.5282  0.2628
  846MPD2    C212481   3.451   2.110  13.495 -0.5380  0.6254  0.0331
  846MPD2    C312482   3.536   2.083  13.597  0.0862 -0.1938  0.3367
  846MPD2    C412483   3.670   2.055  13.574 -0.1967  0.1730  0.7835
  846MPD2    C512484   3.708   2.041  13.441  0.5745 -0.0862 -0.0728
  846MPD2     H12485   3.348   2.130  13.524 -0.8249 -0.6249 -0.0916
  846MPD2    H112486   3.747   2.043  13.650  2.0026  1.1157 -1.2853
  846MPD2    H212487   3.664   2.072  13.235 -3.2787 -0.3139 -1.8877
  846MPD2    H312488   3.812   2.019  13.421 -0.2292 -2.7911 -1.2109
  846MPD2     N12489   3.481   2.097  13.723  0.0127  0.0584 -0.1478
  846MPD2    H512490   3.381   2.109  13.724  0.3638  2.6709  2.3620
  846MPD2    N112491   3.390   2.135  13.260  0.1993  0.8626 -0.8835
  846MPD2    H712492   3.295   2.128  13.295  0.0937  0.0831 -1.3501
  847MPD2     C12493   3.826   2.716  14.073  0.2858 -0.4017  0.0198
  847MPD2    C112494   3.848   2.805  14.179  0.5645 -0.2363  0.4239
  847MPD2    C212495   3.958   2.787  14.253 -0.0345 -0.4122  0.0401
  847MPD2    C312496   4.062   2.702  14.207  0.0482  0.6513  0.1389
  847MPD2    C412497   4.041   2.613  14.103  0.2362  0.5427  0.8537
  847MPD2    C512498   3.923   2.619  14.035 -0.1927 -0.0208  0.7473
  847MPD2     H12499   3.970   2.859  14.334 -0.6027  0.6322 -0.8026
  847MPD2    H112500   4.121   2.549  14.067  0.9213  1.0387  1.4942
  847MPD2    H212501   3.739   2.725  14.009  0.5917  2.5608  0.0255
  847MPD2    H312502   3.908   2.562  13.944  1.5692 -1.7162  1.5417
  847MPD2     N12503   4.181   2.715  14.276  0.2099  0.0659 -0.2658
  847MPD2    H512504   4.181   2.786  14.348  1.6176 -0.9998  0.7896
  847MPD2    N112505   3.763   2.914  14.209  0.2769 -0.7415  0.3836
  847MPD2    H712506   3.795   2.986  14.274 -0.8852 -0.2597  0.4201
  848MPD2     C12507   2.048   1.230  16.211 -0.5369 -0.3942  0.5095
  848MPD2    C112508   2.044   1.307  16.322  0.0639  0.2494 -0.9175
  848MPD2    C212509   2.050   1.445  16.296  0.1673 -0.2828 -0.3842
  848MPD2    C312510   2.049   1.493  16.169 -0.1906  0.0840 -0.2877
  848MPD2    C412511   2.047   1.410  16.058 -0.2909 -0.2944  0.0496
  848MPD2    C512512   2.046   1.277  16.081  0.3222  0.2750 -0.5575
  848MPD2     H12513   2.068   1.518  16.375  3.0572 -1.5709  0.1741
  848MPD2    H112514   2.056   1.451  15.958 -2.1898  0.8661  0.3539
  848MPD2    H212515   2.057   1.123  16.225 -4.0537 -0.6805  0.7297
  848MPD2    H312516   2.039   1.207  15.999  1.2405  0.3784 -0.7232
  848MPD2     N12517   2.050   1.629  16.137 -0.1001 -0.4861  0.5141
  848MPD2    H512518   2.059   1.649  16.038  1.5085  2.0033  1.1720
  848MPD2    N112519   2.057   1.258  16.458 -0.2354 -0.2554  0.0782
  848MPD2    H712520   2.089   1.321  16.531  2.5381 -0.4092 -1.0334
  849MPD2     C12521   0.999   0.624  13.840  0.3038  0.5792 -0.2004
  849MPD2    C112522   1.129   0.657  13.807  0.1024 -0.1970  0.3371
  849MPD2    C212523   1.230   0.610  13.890 -0.2814  0.6035 -0.0535
  849MPD2    C312524   1.205   0.550  14.006  0.4878  0.1362 -0.2419
  849MPD2    C412525   1.071   0.539  14.049  0.6485  0.0854 -1.0133
  849MPD2    C512526   0.970   0.569  13.962 -0.2734 -0.2076 -0.4659
  849MPD2     H12527   1.337   0.613  13.874 -0.3666  0.7499 -0.5898
  849MPD2    H112528   1.048   0.511  14.151  2.1812  0.5160 -0.5497
  849MPD2    H212529   0.910   0.648  13.782 -1.4851 -2.1328  1.3759
  849MPD2    H312530   0.871   0.551  14.003  0.0025 -0.5475  0.0562
  849MPD2     N12531   1.311   0.500  14.083 -0.2483  0.0917 -0.4677
  849MPD2    H512532   1.405   0.502  14.043  0.3390 -0.4749  0.8861
  849MPD2    N112533   1.165   0.725  13.690 -0.0355  0.6631 -0.1934
  849MPD2    H712534   1.096   0.758  13.624 -1.9249 -0.0939  1.4311
  850MPD2     C12535   3.513   4.050  14.700  0.4151 -0.2452 -0.7074
  850MPD2    C112536   3.519   4.137  14.801  0.5072 -0.6563  0.2639
  850MPD2    C212537   3.641   4.186  14.831 -0.1013 -0.3138 -0.1766
  850MPD2    C312538   3.759   4.134  14.777 -0.7826 -0.1611 -0.0294
  850MPD2    C412539   3.751   4.047  14.677  0.2197 -0.3031  0.1880
  850MPD2    C512540   3.627   3.997  14.639  0.0068  0.4163  0.2825
  850MPD2     H12541   3.651   4.254  14.914  0.4652 -1.2471  0.5212
  850MPD2    H112542   3.844   4.009  14.637  0.7359  0.8550  0.2979
  850MPD2    H212543   3.418   4.011  14.665  0.3753  0.5248 -1.4652
  850MPD2    H312544   3.617   3.928  14.556 -1.3184  1.9647 -0.8238
  850MPD2     N12545   3.888   4.162  14.834  0.0032  1.1049 -0.4915
  850MPD2    H512546   3.965   4.121  14.783  1.2974  1.0829  1.4902
  850MPD2    N112547   3.400   4.163  14.876  0.2944 -0.3135  0.0229
  850MPD2    H712548   3.321   4.123  14.827  1.3786 -0.2416 -1.7799
  851MPD2     C12549   4.080   3.985  15.382 -0.6201 -0.0008 -0.0718
  851MPD2    C112550   3.979   3.972  15.289 -0.2564 -0.1529  0.5336
  851MPD2    C212551   4.009   3.912  15.170 -0.0615 -0.3342  0.2355
  851MPD2    C312552   4.134   3.861  15.145 -0.0877  0.4221  0.7760
  851MPD2    C412553   4.224   3.857  15.248 -0.2763 -0.0726  0.3062
  851MPD2    C512554   4.200   3.917  15.362 -0.1225 -0.1708 -0.1386
  851MPD2     H12555   3.932   3.929  15.096  0.2323 -0.3494 -0.0696
  851MPD2    H112556   4.315   3.799  15.233 -1.2923 -1.1484 -1.6761
  851MPD2    H212557   4.073   4.040  15.475 -0.5540  1.6459 -1.0402
  851MPD2    H312558   4.284   3.915  15.430 -0.0359 -0.7458 -0.2576
  851MPD2     N12559   4.148   3.805  15.018  0.1884 -0.4099  0.1620
  851MPD2    H512560   4.074   3.835  14.955 -0.1765 -1.7493 -0.0477
  851MPD2    N112561   3.857   4.039  15.317 -0.9420  0.3671 -0.3394
  851MPD2    H712562   3.852   4.098  15.400 -0.0846 -0.0910  0.0279
  852MPD2     C12563   3.446   1.649   9.342  0.5120 -0.3069  0.2678
  852MPD2    C112564   3.433   1.626   9.476  0.1582  0.5802  0.0814
  852MPD2    C212565   3.550   1.617   9.553 -0.0478  0.0550 -0.0332
  852MPD2    C312566   3.677   1.629   9.498 -0.4194 -0.3415 -0.0010
  852MPD2    C412567   3.687   1.632   9.355  0.4785 -0.5227 -0.2380
  852MPD2    C512568   3.570   1.652   9.280 -0.4776  0.3092  0.1862
  852MPD2     H12569   3.533   1.605   9.659  0.5014 -0.8472 -0.0460
  852MPD2    H112570   3.780   1.639   9.300 -0.5477 -1.9794 -2.1645
  852MPD2    H212571   3.355   1.653   9.283  1.0462  0.6416 -0.5006
  852MPD2    H312572   3.579   1.665   9.173  0.9442  0.9761  0.3909
  852MPD2     N12573   3.797   1.635   9.579  1.1876 -0.1552  0.5755
  852MPD2    H512574   3.797   1.645   9.680  2.2354  0.9372  0.4664
  852MPD2    N112575   3.307   1.613   9.538 -0.1165 -0.2446  0.5534
  852MPD2    H712576   3.309   1.628   9.638  1.7098  1.1936  0.3008
  853MPD2     C12577   4.574   1.082  12.200  0.0030 -0.3341  0.5675
  853MPD2    C112578   4.624   1.206  12.145 -0.1725 -0.1229  0.1514
  853MPD2    C212579   4.635   1.209  12.004 -0.0561 -0.3070 -0.1498
  853MPD2    C312580   4.593   1.098  11.930 -0.3172  0.3591  0.2811
  853MPD2    C412581   4.555   0.980  11.987 -0.6823  0.0845  0.3677
  853MPD2    C512582   4.543   0.976  12.118  0.2487 -0.3727  0.5530
  853MPD2     H12583   4.683   1.293  11.955 -0.8888 -0.0229 -0.4798
  853MPD2    H112584   4.540   0.888  11.933  2.1686 -0.2133  0.0570
  853MPD2    H212585   4.565   1.069  12.307 -1.8480 -1.8106  0.2343
  853MPD2    H312586   4.507   0.880  12.154  1.2880 -0.5978  0.9938
  853MPD2     N12587   4.592   1.087  11.790 -0.6175 -0.2235  0.0614
  853MPD2    H512588   4.578   0.993  11.755 -1.5818 -0.6334  1.5333
  853MPD2    N112589   4.673   1.322  12.216 -0.1980  0.3429 -0.1851
  853MPD2    H712590   4.705   1.402  12.162  0.6027  0.9854  1.2376
  854MPD2     C12591   2.372   1.266  12.503 -0.1909 -0.4069 -0.7095
  854MPD2    C112592   2.476   1.357  12.480  0.3701  0.6706  0.5144
  854MPD2    C212593   2.604   1.311  12.478 -0.1727 -0.2136 -0.2286
  854MPD2    C312594   2.637   1.178  12.504  0.2643 -0.2969 -0.0914
  854MPD2    C412595   2.536   1.094  12.543 -0.8528 -0.4460 -0.2129
  854MPD2    C512596   2.408   1.138  12.540  0.4702  0.1499 -0.0408
  854MPD2     H12597   2.683   1.378  12.445 -0.0324 -0.2982 -0.0646
  854MPD2    H112598   2.556   0.994  12.579 -0.0962 -0.5267 -0.8576
  854MPD2    H212599   2.266   1.287  12.498  0.3215  2.3632 -0.0700
  854MPD2    H312600   2.331   1.068  12.570  1.6612  0.0278  2.7813
  854MPD2     N12601   2.771   1.121  12.487  0.1261  0.1294 -0.0453
  854MPD2    H512602   2.789   1.025  12.517 -0.0877 -0.3207 -1.3511
  854MPD2    N112603   2.450   1.492  12.466 -0.0716 -1.2427  0.0375
  854MPD2    H712604   2.356   1.526  12.451  0.2097  0.1361  1.3684
  855MPD2     C12605   3.645   1.232  13.035 -0.4885 -0.2942  0.6932
  855MPD2    C112606   3.515   1.192  13.063  0.1495 -0.3480 -0.7424
  855MPD2    C212607   3.429   1.160  12.957 -0.9657 -0.0802  0.2144
  855MPD2    C312608   3.469   1.170  12.822 -0.0141 -0.1698 -0.0151
  855MPD2    C412609   3.601   1.210  12.798 -0.0876 -0.2311 -0.7055
  855MPD2    C512610   3.688   1.240  12.907  0.3907  0.6054 -0.0540
  855MPD2     H12611   3.331   1.130  12.991 -0.5219 -2.3146 -0.4589
  855MPD2    H112612   3.641   1.203  12.698 -2.3103 -0.9616 -1.5456
  855MPD2    H212613   3.718   1.241  13.115 -1.3367  2.6588  1.1181
  855MPD2    H312614   3.790   1.268  12.884  0.7684 -0.9634 -0.2890
  855MPD2     N12615   3.387   1.142  12.715 -0.8378 -0.1729 -0.5484
  855MPD2    H512616   3.431   1.162  12.625  0.8816  1.0736  0.5710
  855MPD2    N112617   3.462   1.169  13.189 -0.3159 -0.1769 -0.0102
  855MPD2    H712618   3.365   1.141  13.193 -0.4469  0.5464  1.8936
  856MPD2     C12619   0.172   2.042  13.866 -0.2556  0.5007  0.3241
  856MPD2    C112620   0.188   2.178  13.896 -0.2335  0.0317 -0.5755
  856MPD2    C212621   0.084   2.264  13.874  0.1759  0.4263 -0.2848
  856MPD2    C312622   4.704   2.219  13.820 -0.2114 -0.5248  0.4520
  856MPD2    C412623   4.693   2.089  13.787 -0.1541  1.0006 -0.4673
  856MPD2    C512624   0.052   2.002  13.815  0.6305 -0.2379  0.1258
  856MPD2     H12625   0.102   2.369  13.898  2.8683  0.3243 -1.9693
  856MPD2    H112626   4.598   2.054  13.747  0.5367 -0.1947 -1.0522
  856MPD2    H212627   0.244   1.961  13.871  0.6513  1.3134  0.3688
  856MPD2    H312628   0.042   1.899  13.782  0.3557 -0.5341  1.1493
  856MPD2     N12629   4.594   2.302  13.790  0.3569  0.0360  0.1395
  856MPD2    H512630   4.532   2.268  13.717  0.4050 -0.2390  0.2261
  856MPD2    N112631   0.314   2.232  13.928 -0.2949  0.0615  0.5621
  856MPD2    H712632   0.313   2.333  13.917  0.6221  0.0751  0.6711
  857MPD2     C12633   1.628   4.269  12.903 -0.4091 -0.2442 -0.8399
  857MPD2    C112634   1.759   4.260  12.862  0.3330  0.4090 -0.5619
  857MPD2    C212635   1.841   4.374  12.853  0.0580  0.5883  0.8380
  857MPD2    C312636   1.783   4.495  12.865  0.6366 -0.3738  0.0660
  857MPD2    C412637   1.652   4.510  12.906 -0.4763  0.7166 -0.4329
  857MPD2    C512638   1.581   4.392  12.937  0.3192 -0.0530  0.2931
  857MPD2     H12639   1.946   4.368  12.827  0.2525  0.0721  1.7221
  857MPD2    H112640   1.609   4.607  12.925 -0.0439  0.9777 -0.7853
  857MPD2    H212641   1.562   4.184  12.919 -1.1015 -0.3479 -4.3533
  857MPD2    H312642   1.479   4.401  12.973  0.3421 -2.5638  0.9583
  857MPD2     N12643   1.859   4.612  12.851 -0.3993 -0.2271  0.1645
  857MPD2    H512644   1.959   4.598  12.849 -0.1920  1.1766  0.5118
  857MPD2    N112645   1.798   4.131  12.837 -0.6108  0.3008 -0.0678
  857MPD2    H712646   1.739   4.055  12.868 -0.2071  0.0014 -0.0254
  858MPD2     C12647   2.297   3.755  16.036  0.2663 -0.0541  0.8180
  858MPD2    C112648   2.321   3.650  16.118 -0.4232  0.2834  0.0637
  858MPD2    C212649   2.344   3.661  16.253  0.1901  0.1617  0.2440
  858MPD2    C312650   2.340   3.788  16.309 -0.2405  0.1933 -0.1170
  858MPD2    C412651   2.315   3.895  16.224  0.1811 -0.1778  0.3473
  858MPD2    C512652   2.287   3.881  16.088  0.1500  0.1303 -0.1099
  858MPD2     H12653   2.373   3.577  16.315  2.4072  0.2607 -0.6298
  858MPD2    H112654   2.310   3.994  16.269 -1.4154 -0.3555  0.5865
  858MPD2    H212655   2.284   3.741  15.929  0.1654  2.5610  0.5001
  858MPD2    H312656   2.261   3.970  16.032  0.5276  0.3741  0.1044
  858MPD2     N12657   2.372   3.824  16.446 -0.2436  0.3810  0.5868
  858MPD2    H512658   2.354   3.921  16.467 -3.4021  0.2553 -1.4571
  858MPD2    N112659   2.328   3.525  16.051  0.0852  0.4317 -0.4382
  858MPD2    H712660   2.312   3.513  15.952 -0.8703  1.1179 -0.3690
  859MPD2     C12661   0.772   0.653  15.686  0.1704 -0.6142 -1.1182
  859MPD2    C112662   0.782   0.636  15.554  0.1259  1.2578  0.5723
  859MPD2    C212663   0.704   0.539  15.495  0.0915  0.2087 -0.0763
  859MPD2    C312664   0.636   0.442  15.573 -0.6661  0.1663  0.2899
  859MPD2    C412665   0.624   0.469  15.706 -0.2715  0.1457  0.0363
  859MPD2    C512666   0.690   0.576  15.762  0.7632 -0.0505 -0.2590
  859MPD2     H12667   0.714   0.526  15.388  0.0364 -1.8217  0.1668
  859MPD2    H112668   0.567   0.393  15.758  0.1190 -0.6495 -0.7093
  859MPD2    H212669   0.810   0.741  15.738 -0.3823 -0.6764 -0.5970
  859MPD2    H312670   0.680   0.597  15.868 -2.6160 -0.5346 -0.4702
  859MPD2     N12671   0.574   0.323  15.522  0.4534 -0.1643  0.5907
  859MPD2    H512672   0.515   0.270  15.586 -0.1768  2.9352  2.5913
  859MPD2    N112673   0.846   0.730  15.464 -0.5527  0.3332  0.0485
  859MPD2    H712674   0.831   0.717  15.365 -1.8138  0.0559  0.2739
  860MPD2     C12675   3.571   1.742  11.111  0.9078 -1.0899 -0.2590
  860MPD2    C112676   3.617   1.637  11.191 -0.0488  0.2231  0.4234
  860MPD2    C212677   3.521   1.548  11.241  0.3896 -0.3552  0.1221
  860MPD2    C312678   3.387   1.568  11.210 -1.5033  0.6283  0.2424
  860MPD2    C412679   3.349   1.672  11.127  0.1118 -0.3327 -0.3847
  860MPD2    C512680   3.440   1.755  11.071  0.6571  0.3770  0.0970
  860MPD2     H12681   3.562   1.466  11.298  1.2517 -0.2632 -0.3618
  860MPD2    H112682   3.243   1.678  11.102  0.2323  1.3896 -0.5242
  860MPD2    H212683   3.633   1.820  11.068  2.1867 -2.9116 -1.6573
  860MPD2    H312684   3.400   1.836  11.011  0.0776 -1.5960 -2.1841
  860MPD2     N12685   3.294   1.466  11.262 -0.0382 -0.6961  0.1803
  860MPD2    H512686   3.339   1.385  11.305 -1.1682 -2.0304 -1.1310
  860MPD2    N112687   3.757   1.612  11.229  0.3495  0.2686 -0.2377
  860MPD2    H712688   3.768   1.536  11.295 -1.9134 -1.5311 -1.9356
  861MPD2     C12689   1.607   3.905  11.090 -0.4633 -0.0725  0.4668
  861MPD2    C112690   1.702   4.005  11.108  0.0860 -0.2298  0.3247
  861MPD2    C212691   1.704   4.110  11.022 -0.2890  0.2894 -0.4230
  861MPD2    C312692   1.628   4.117  10.910  0.0485  0.3234  0.9582
  861MPD2    C412693   1.545   4.012  10.883  0.0186  0.4663  0.3353
  861MPD2    C512694   1.533   3.910  10.977 -0.1232 -0.2851  0.3473
  861MPD2     H12695   1.777   4.187  11.043 -0.6317  0.6833 -0.6716
  861MPD2    H112696   1.479   4.015  10.796 -1.0771 -1.3015  1.0993
  861MPD2    H212697   1.599   3.826  11.164  1.0511  0.9905  1.7563
  861MPD2    H312698   1.460   3.831  10.960 -1.4084  0.9020  0.3881
  861MPD2     N12699   1.629   4.224  10.823 -0.4260  0.2675  0.1948
  861MPD2    H512700   1.567   4.220  10.744  1.0182 -0.1533 -0.9167
  861MPD2    N112701   1.787   3.991  11.217 -0.4026  0.1869  0.1806
  861MPD2    H712702   1.752   3.925  11.286 -1.2121 -0.1317 -0.5394
  862MPD2     C12703   1.685   4.342  10.143  0.5465  0.6677  0.5318
  862MPD2    C112704   1.622   4.316  10.258 -0.2342 -0.6156 -0.1730
  862MPD2    C212705   1.540   4.208  10.266  0.1294  0.0689 -0.3774
  862MPD2    C312706   1.515   4.115  10.168 -0.1534  0.4766 -0.1028
  862MPD2    C412707   1.586   4.143  10.051 -0.1588  0.0934  0.7646
  862MPD2    C512708   1.677   4.250  10.041 -0.1053 -0.8352 -0.3381
  862MPD2     H12709   1.497   4.190  10.364  0.2915 -2.8841 -0.8312
  862MPD2    H112710   1.593   4.068   9.974 -1.4738  1.3708 -0.5959
  862MPD2    H212711   1.750   4.425  10.117  1.5375  0.1828  1.4881
  862MPD2    H312712   1.738   4.252   9.951  0.6316 -0.6696  0.1607
  862MPD2     N12713   1.447   3.997  10.176  0.4527 -0.6959 -0.0692
  862MPD2    H512714   1.454   3.936  10.095 -1.2135 -0.9551 -0.0095
  862MPD2    N112715   1.631   4.401  10.368  0.4186  0.6341 -0.0966
  862MPD2    H712716   1.566   4.408  10.445 -0.2531 -0.8580 -0.5336
  863MPD2     C12717   0.439   2.879  16.901 -0.1756  0.8916  0.4780
  863MPD2    C112718   0.477   2.834  16.777 -0.4535  0.0309  0.4668
  863MPD2    C212719   0.613   2.818  16.749  0.1318 -0.2062 -0.0956
  863MPD2    C312720   0.704   2.828  16.855 -0.0577 -0.7352 -0.1300
  863MPD2    C412721   0.658   2.865  16.979  0.8209  0.6307 -0.3744
  863MPD2    C512722   0.524   2.891  16.999  0.8518 -0.2568  0.0951
  863MPD2     H12723   0.647   2.796  16.649  2.0443  0.0362  0.5103
  863MPD2    H112724   0.724   2.864  17.066 -1.0856  2.1402  1.1044
  863MPD2    H212725   0.341   2.915  16.928 -1.7262 -1.8295 -1.4697
  863MPD2    H312726   0.482   2.920  17.095 -0.4558 -0.7484 -0.3196
  863MPD2     N12727   0.844   2.797  16.844  0.3474 -0.4005 -0.3582
  863MPD2    H512728   0.893   2.821  16.930 -0.3680  1.9446 -0.5985
  863MPD2    N112729   0.372   2.828  16.681  0.0220 -0.3334 -0.0679
  863MPD2    H712730   0.279   2.854  16.713 -0.3858 -1.2680 -0.4987
  864MPD2     C12731   1.339   3.425  16.993  0.6085  0.6993  0.3328
  864MPD2    C112732   1.362   3.359  16.875 -0.5135 -0.0266 -0.4963
  864MPD2    C212733   1.473   3.393  16.795  0.0939 -0.3315 -0.2699
  864MPD2    C312734   1.560   3.496  16.841 -0.2734 -0.5411 -0.8701
  864MPD2    C412735   1.525   3.563  16.954 -0.2729  0.5145  0.5953
  864MPD2    C512736   1.414   3.534  17.030 -0.0425  0.0808 -0.4754
  864MPD2     H12737   1.487   3.343  16.700  3.5956 -1.1833  0.6880
  864MPD2    H112738   1.583   3.646  16.993  0.5479  0.0257  0.4339
  864MPD2    H212739   1.247   3.401  17.045  1.0070  3.1635  2.1929
  864MPD2    H312740   1.393   3.587  17.122  1.0160  0.5847 -0.5174
  864MPD2     N12741   1.685   3.537  16.775 -0.0794  0.0620 -0.1739
  864MPD2    H512742   1.741   3.603  16.827  0.4568 -1.8025  1.6316
  864MPD2    N112743   1.266   3.259  16.841  0.0926 -0.2063  1.2339
  864MPD2    H712744   1.196   3.239  16.911 -1.2382 -0.4774 -0.1568
  865MPD2     C12745   1.690   4.153  16.334 -0.2786  0.2824 -0.1257
  865MPD2    C112746   1.688   4.020  16.366  0.3718  0.8506  0.3507
  865MPD2    C212747   1.763   3.978  16.470  0.0130  0.1584  0.3291
  865MPD2    C312748   1.830   4.063  16.563 -0.4776  0.2875 -0.1192
  865MPD2    C412749   1.815   4.200  16.535  0.1779 -0.5905  0.4153
  865MPD2    C512750   1.750   4.246  16.418 -0.4495 -0.7133  0.6207
  865MPD2     H12751   1.764   3.871  16.490  0.3037  0.1167  0.0847
  865MPD2    H112752   1.851   4.282  16.597  1.5045 -0.7015 -0.2108
  865MPD2    H212753   1.630   4.190  16.252  1.1249 -0.1260 -1.3462
  865MPD2    H312754   1.743   4.352  16.396  0.1140 -1.1835 -1.7943
  865MPD2     N12755   1.924   4.026  16.667  0.0967  0.5226  0.2073
  865MPD2    H512756   1.957   4.112  16.710 -2.4088  1.8644 -0.5343
  865MPD2    N112757   1.632   3.929  16.274 -0.0655 -0.4318  0.1486
  865MPD2    H712758   1.592   3.960  16.186  0.1019  0.4645  0.3898
  866MPD2     C12759   2.742   4.580  11.609  0.0462 -0.3433  0.2187
  866MPD2    C112760   2.757   4.520  11.490 -0.1359  0.4542 -0.1153
  866MPD2    C212761   2.643   4.521  11.398 -0.7926  0.0666 -0.0982
  866MPD2    C312762   2.522   4.574  11.437 -0.4893 -0.0022  0.5855
  866MPD2    C412763   2.514   4.627  11.565  0.0409 -0.0417  0.1153
  866MPD2    C512764   2.622   4.638  11.650 -0.0565  0.4289 -0.4788
  866MPD2     H12765   2.651   4.474  11.301  0.7757  4.1789 -1.9415
  866MPD2    H112766   2.417   4.660  11.601  0.8973  0.5472  1.8767
  866MPD2    H212767   2.826   4.571  11.678  0.3415 -2.0404 -0.3584
  866MPD2    H312768   2.616   4.676  11.751  1.2256  0.0598 -0.2762
  866MPD2     N12769   2.409   4.573  11.350 -0.3980 -0.4120  0.8425
  866MPD2    H512770   2.324   4.617  11.382 -0.0833  0.4815  0.4412
  866MPD2    N112771   2.884   4.472  11.449 -0.2787  0.1570 -0.2138
  866MPD2    H712772   2.969   4.500  11.496 -0.4522 -0.6754  0.6077
  867MPD2     C12773   4.439   4.161  16.460 -0.3130 -0.2486 -0.1256
  867MPD2    C112774   4.558   4.099  16.500 -0.2959  0.0705 -0.2941
  867MPD2    C212775   4.641   4.175  16.578 -0.2657  0.3274  0.1989
  867MPD2    C312776   4.613   4.305  16.611  0.1321 -0.3496 -0.2226
  867MPD2    C412777   4.506   4.372  16.555  0.2184 -0.0901 -0.2454
  867MPD2    C512778   4.424   4.292  16.477 -0.4848 -0.5002  0.8257
  867MPD2     H12779   4.728   4.125  16.621 -0.3455 -1.4008 -1.6482
  867MPD2    H112780   4.484   4.472  16.588  2.2046  0.3954 -0.4181
  867MPD2    H212781   4.369   4.101  16.404  0.3578  0.9983 -2.2793
  867MPD2    H312782   4.324   4.324  16.449 -0.3081 -0.7656 -0.1021
  867MPD2     N12783   4.697   4.385  16.691  0.0946 -0.4444 -0.0535
  867MPD2    H512784   4.665   4.480  16.711  2.6878  0.4506 -0.1923
  867MPD2    N112785   4.560   3.955  16.489 -0.0632 -0.5205  0.2367
  867MPD2    H712786   4.477   3.918  16.443  0.6334 -0.1990 -1.2782
  868MPD2     C12787   1.934   3.294  13.145  0.5623 -0.0551  0.2498
  868MPD2    C112788   1.966   3.193  13.235  0.4958 -0.1515 -0.0379
  868MPD2    C212789   1.927   3.223  13.369 -0.1834  0.4063  0.2718
  868MPD2    C312790   1.853   3.337  13.402  0.2785  0.5572  0.2191
  868MPD2    C412791   1.842   3.439  13.309  0.6474  0.1148 -0.9207
  868MPD2    C512792   1.881   3.415  13.181 -0.6583 -0.3415  0.3582
  868MPD2     H12793   1.933   3.152  13.450 -0.2860 -1.6797 -1.5525
  868MPD2    H112794   1.806   3.538  13.335 -0.5466 -0.4013 -0.6001
  868MPD2    H212795   1.949   3.279  13.039 -0.2328 -1.0081  0.2755
  868MPD2    H312796   1.870   3.481  13.095  1.5237  1.2652  1.3023
  868MPD2     N12797   1.811   3.357  13.538 -0.1653 -0.3314  0.1373
  868MPD2    H512798   1.836   3.283  13.603 -1.7051  1.7427  3.0896
  868MPD2    N112799   2.044   3.082  13.187 -0.7119  0.0013  0.1644
  868MPD2    H712800   2.060   3.065  13.088  0.8065 -0.2087  0.4559
  869MPD2     C12801   2.570   0.366  17.672  0.2867 -0.6611  0.0911
  869MPD2    C112802   2.486   0.420   0.015  0.2581  0.3847  0.2867
  869MPD2    C212803   2.522   0.533   0.090 -0.5919  0.3059  0.1855
  869MPD2    C312804   2.645   0.590   0.072 -0.0208  0.3619  0.1302
  869MPD2    C412805   2.729   0.537  17.733 -0.3287  0.8473 -0.0892
  869MPD2    C512806   2.693   0.421  17.661 -0.2605 -0.3803 -0.4585
  869MPD2     H12807   2.448   0.584   0.152 -1.5506 -0.4080 -0.3850
  869MPD2    H112808   2.827   0.577  17.711 -0.4374 -0.5695 -3.1382
  869MPD2    H212809   2.545   0.273  17.624  0.4000 -0.0074 -1.2402
  869MPD2    H312810   2.764   0.378  17.590  1.7252  1.2361  0.5266
  869MPD2     N12811   2.681   0.711   0.140 -0.1535  0.0024  0.2023
  869MPD2    H512812   2.767   0.752   0.107  0.6121 -0.8143  1.1598
  869MPD2    N112813   2.370   0.344   0.036  0.1922 -0.0613  0.6823
  869MPD2    H712814   2.358   0.262  17.734  0.0677 -0.1500  0.8325
  870MPD2     C12815   3.563   4.193   1.610 -0.5063 -0.1731 -0.1769
  870MPD2    C112816   3.439   4.159   1.559  0.3542  0.7559 -0.2098
  870MPD2    C212817   3.341   4.257   1.542  0.2032 -0.3560  0.4442
  870MPD2    C312818   3.372   4.387   1.573  0.5728  1.1145  0.2505
  870MPD2    C412819   3.496   4.418   1.622 -0.2933  0.0317 -0.4309
  870MPD2    C512820   3.596   4.325   1.630 -0.1741  0.1486  0.0034
  870MPD2     H12821   3.258   4.251   1.473 -0.1716 -0.6923  0.9282
  870MPD2    H112822   3.526   4.517   1.656 -0.3933 -0.9628  2.5375
  870MPD2    H212823   3.644   4.121   1.607  0.9999  1.6034 -2.2130
  870MPD2    H312824   3.690   4.353   1.676 -0.6541  1.6452  0.0475
  870MPD2     N12825   3.269   4.479   1.549 -0.1317 -0.1321 -0.2530
  870MPD2    H512826   3.183   4.449   1.503 -1.5413  4.0688 -0.3710
  870MPD2    N112827   3.408   4.022   1.527 -0.1071  0.0744  0.0264
  870MPD2    H712828   3.487   3.959   1.540 -0.4924 -0.8376 -2.0865
  871MPD2     C12829   3.663   4.273  16.217 -0.1510 -0.4872 -0.4780
  871MPD2    C112830   3.638   4.192  16.328 -0.7035 -0.2536  0.6623
  871MPD2    C212831   3.687   4.061  16.337  0.0175  0.4884 -0.6169
  871MPD2    C312832   3.763   4.018  16.228 -0.3759  0.3301 -0.0987
  871MPD2    C412833   3.780   4.095  16.112 -0.3828 -0.6395 -0.2006
  871MPD2    C512834   3.734   4.223  16.116 -0.1541  0.0294  0.2470
  871MPD2     H12835   3.682   3.992  16.420  3.0325  0.4253 -0.4774
  871MPD2    H112836   3.827   4.051  16.024  0.6872 -0.4744  0.2847
  871MPD2    H212837   3.630   4.376  16.218 -0.5675 -0.6446  1.2001
  871MPD2    H312838   3.747   4.291  16.033  0.5916  0.7747  0.9775
  871MPD2     N12839   3.806   3.883  16.218 -0.3917  0.8814  0.0438
  871MPD2    H512840   3.758   3.831  16.291  1.8223  2.1300  2.4029
  871MPD2    N112841   3.560   4.251  16.432 -0.3216 -0.2278  0.5089
  871MPD2    H712842   3.536   4.348  16.418 -0.5821 -0.5174 -1.0603
  872MPD2     C12843   4.518   1.938  13.306 -0.5621 -0.1273  0.4960
  872MPD2    C112844   4.562   1.851  13.408  0.0761 -0.0903 -0.1861
  872MPD2    C212845   4.463   1.795  13.484 -0.2326 -1.0010 -0.0255
  872MPD2    C312846   4.329   1.829  13.477  0.4993  0.1186 -0.0869
  872MPD2    C412847   4.288   1.901  13.370 -0.5074 -0.1594 -0.2035
  872MPD2    C512848   4.388   1.960  13.298 -0.1494 -0.4063 -0.9308
  872MPD2     H12849   4.478   1.723  13.564  3.5261 -0.5604 -0.3216
  872MPD2    H112850   4.184   1.922  13.346  0.0709 -0.1746 -2.7432
  872MPD2    H212851   4.588   1.991  13.242  0.8896 -2.8031 -0.1399
  872MPD2    H312852   4.358   2.033  13.224 -1.0484 -0.4619 -0.6130
  872MPD2     N12853   4.236   1.774  13.566  0.2939  0.9279 -0.1802
  872MPD2    H512854   4.271   1.745  13.657  0.6875 -1.8564 -1.2552
  872MPD2    N112855   4.703   1.831  13.417 -0.2022  0.0034  0.2335
  872MPD2    H712856   0.025   1.889  13.361 -2.1405  0.8448 -1.0190
  873MPD2     C12857   1.683   1.383   0.671 -0.0718 -0.0907  0.9233
  873MPD2    C112858   1.567   1.379   0.746  0.1356 -0.0331 -0.0463
  873MPD2    C212859   1.500   1.256   0.755 -0.5951  0.9722 -0.0087
  873MPD2    C312860   1.547   1.139   0.701  0.1436 -0.5723 -0.3272
  873MPD2    C412861   1.670   1.146   0.634 -0.9019  0.1174  0.3853
  873MPD2    C512862   1.728   1.267   0.616  0.9851 -0.0141 -0.4076
  873MPD2     H12863   1.407   1.252   0.810  0.5497 -1.0182  1.7678
  873MPD2    H112864   1.711   1.061   0.580 -0.0057  0.5157  0.4401
  873MPD2    H212865   1.734   1.478   0.658  2.2428 -1.1444  2.3232
  873MPD2    H312866   1.819   1.262   0.558  0.5481  0.7295 -1.1661
  873MPD2     N12867   1.493   1.011   0.725 -0.9535  0.1812  0.4162
  873MPD2    H512868   1.552   0.933   0.700  0.4958  1.1216  0.8901
  873MPD2    N112869   1.518   1.501   0.809 -0.0084 -0.0008  0.4284
  873MPD2    H712870   1.581   1.581   0.806 -0.5169  0.3846  0.0585
  874MPD2     C12871   1.297   1.505  16.023  0.4551 -0.1449  0.5344
  874MPD2    C112872   1.353   1.526  16.144  0.0098 -0.4249  1.0290
  874MPD2    C212873   1.454   1.617  16.146 -0.1298 -0.1240 -0.6521
  874MPD2    C312874   1.509   1.668  16.026  0.0652 -0.1838 -0.1370
  874MPD2    C412875   1.454   1.638  15.902  0.2652 -0.4019  0.3827
  874MPD2    C512876   1.343   1.554  15.906  0.1349  0.5651  0.4594
  874MPD2     H12877   1.502   1.644  16.239 -0.5802 -0.5406 -0.2905
  874MPD2    H112878   1.504   1.675  15.813  0.5074  1.1878  1.1745
  874MPD2    H212879   1.220   1.429  16.018  0.4212 -0.0370 -0.5746
  874MPD2    H312880   1.299   1.506  15.820 -0.1178  2.3888 -0.4322
  874MPD2     N12881   1.623   1.750  16.049 -0.3327  0.3766  0.7236
  874MPD2    H512882   1.627   1.785  16.144 -0.8525  1.0876  0.4838
  874MPD2    N112883   1.300   1.471  16.260  0.2067  0.0683  0.4005
  874MPD2    H712884   1.235   1.395  16.242  0.3697 -0.0326  0.2368
  875MPD2     C12885   1.759   4.584  14.700 -0.3071 -0.1078  0.1914
  875MPD2    C112886   1.832   4.657  14.605 -0.1606 -0.0284 -1.3068
  875MPD2    C212887   1.933   0.004  14.640 -0.3964  0.0207 -0.1771
  875MPD2    C312888   1.965   0.022  14.775 -0.2612  0.2768 -0.3575
  875MPD2    C412889   1.905   4.679  14.869 -0.2879 -0.2835  0.1507
  875MPD2    C512890   1.799   4.596  14.831 -0.4011 -0.0525 -0.5524
  875MPD2     H12891   1.984   0.057  14.560 -2.1145  1.0632 -0.5979
  875MPD2    H112892   1.934   4.703  14.971 -0.3381 -1.7547  0.5189
  875MPD2    H212893   1.683   4.513  14.670  0.2639 -0.1764 -1.0820
  875MPD2    H312894   1.742   4.546  14.908 -1.8310  1.3162 -0.7133
  875MPD2     N12895   2.061   0.119  14.820 -0.0433 -0.7942 -0.4756
  875MPD2    H512896   2.085   0.109  14.918  2.3919  1.0309 -0.8714
  875MPD2    N112897   1.817   4.647  14.461  0.2096 -0.2935 -0.0568
  875MPD2    H712898   1.875   4.699  14.396  1.7317 -1.4539  0.3731
  876MPD2     C12899   1.075   1.171  15.993 -0.6770 -0.5564 -0.0297
  876MPD2    C112900   1.209   1.152  15.956 -0.2615 -0.1126  0.1728
  876MPD2    C212901   1.287   1.064  16.029  0.2066  0.2101  0.1325
  876MPD2    C312902   1.235   1.002  16.142  0.7323  0.2372  0.3571
  876MPD2    C412903   1.102   1.029  16.180 -0.4524 -0.2943 -0.4971
  876MPD2    C512904   1.023   1.107  16.101 -0.0442  0.1050  0.6119
  876MPD2     H12905   1.388   1.031  16.005 -0.7540 -1.9288 -1.0025
  876MPD2    H112906   1.055   0.979  16.264  0.4011 -0.5697 -0.1792
  876MPD2    H212907   1.012   1.244  15.945  1.3017  0.1179 -1.6090
  876MPD2    H312908   0.920   1.124  16.132 -0.1560  2.3219 -0.9208
  876MPD2     N12909   1.315   0.903  16.202 -0.4476 -0.2928  0.0852
  876MPD2    H512910   1.406   0.893  16.157  0.2677  0.0767  1.4737
  876MPD2    N112911   1.259   1.220  15.846 -0.4597 -0.4017 -0.5229
  876MPD2    H712912   1.191   1.270  15.790 -0.7544 -0.3460 -0.1147
  877MPD2     C12913   1.128   1.321  15.114 -0.7047 -0.7658  0.2422
  877MPD2    C112914   1.262   1.352  15.131  0.7342 -0.6039 -0.2331
  877MPD2    C212915   1.353   1.356  15.025  0.2566  0.3951  0.4971
  877MPD2    C312916   1.302   1.333  14.899  1.0865  0.2774  0.0646
  877MPD2    C412917   1.170   1.303  14.882  0.2595 -0.3622 -0.6687
  877MPD2    C512918   1.084   1.303  14.988  0.0461 -0.0166 -0.1606
  877MPD2     H12919   1.456   1.388  15.031  0.0393  1.2952 -0.4212
  877MPD2    H112920   1.139   1.280  14.781 -1.6179 -0.2973 -0.1100
  877MPD2    H212921   1.048   1.323  15.187 -0.4932  0.9610  0.4424
  877MPD2    H312922   0.981   1.278  14.965  0.4877 -1.6524 -0.3515
  877MPD2     N12923   1.383   1.346  14.784  0.1468  0.2811  0.0383
  877MPD2    H512924   1.345   1.329  14.692 -0.6855 -1.2365  0.6615
  877MPD2    N112925   1.311   1.379  15.255 -0.6933  0.0448  0.2201
  877MPD2    H712926   1.412   1.385  15.261 -0.5919 -0.6771 -0.8693
  878MPD2     C12927   1.174   0.626  12.713  0.4075 -0.3000 -0.2948
  878MPD2    C112928   1.177   0.763  12.730  0.3770 -0.1039 -0.1144
  878MPD2    C212929   1.213   0.811  12.856 -0.1840 -0.5753  0.1912
  878MPD2    C312930   1.217   0.733  12.965  0.3719  0.3027  0.2243
  878MPD2    C412931   1.216   0.594  12.950  0.2668  0.1181 -0.2984
  878MPD2    C512932   1.203   0.549  12.822  0.1150  0.1164 -0.7777
  878MPD2     H12933   1.227   0.917  12.873 -0.2672 -0.6174  0.5235
  878MPD2    H112934   1.249   0.522  13.024 -2.0386 -0.6841 -0.0437
  878MPD2    H212935   1.158   0.580  12.616 -0.8989  0.1548 -0.2936
  878MPD2    H312936   1.208   0.443  12.799 -0.1186  0.0833 -0.6762
  878MPD2     N12937   1.259   0.787  13.087  0.3608  0.0365 -0.2959
  878MPD2    H512938   1.308   0.876  13.085  0.2326  0.1258  0.5803
  878MPD2    N112939   1.142   0.849  12.624  0.6030 -0.3910  0.4400
  878MPD2    H712940   1.138   0.798  12.536  0.2468 -1.7521  1.2378
  879MPD2     C12941   1.401   2.343  17.199 -0.0379 -0.7836  0.0268
  879MPD2    C112942   1.480   2.380  17.098 -0.3918 -0.6156 -0.2358
  879MPD2    C212943   1.468   2.315  16.977 -0.1924  0.4737  0.4714
  879MPD2    C312944   1.374   2.213  16.965 -0.5414 -0.0786  0.8309
  879MPD2    C412945   1.307   2.169  17.076 -0.6697  0.2414 -0.0948
  879MPD2    C512946   1.322   2.232  17.197 -0.3372  0.0520 -0.1633
  879MPD2     H12947   1.525   2.342  16.889 -1.3186  0.9357 -0.1177
  879MPD2    H112948   1.252   2.076  17.079  1.6957 -1.1198  0.8858
  879MPD2    H212949   1.400   2.403  17.289 -4.2518  1.6830 -1.6229
  879MPD2    H312950   1.264   2.212  17.286  1.5413  2.5970  1.6181
  879MPD2     N12951   1.346   2.155  16.840  0.6613 -0.0737  0.2668
  879MPD2    H512952   1.288   2.072  16.834 -0.0260  0.5624 -2.0303
  879MPD2    N112953   1.586   2.469  17.126  0.2789  0.4037  0.7715
  879MPD2    H712954   1.593   2.498  17.222 -1.4084  0.5311  0.8403
  880MPD2     C12955   2.533   3.950   0.303 -0.2388  0.2125 -0.3362
  880MPD2    C112956   2.620   4.007   0.396  0.3427  0.4709 -0.5190
  880MPD2    C212957   2.712   3.928   0.461 -0.5133 -0.2515  0.0954
  880MPD2    C312958   2.726   3.798   0.428 -0.5332  0.7974 -0.4848
  880MPD2    C412959   2.652   3.738   0.325 -0.9175 -0.2264  0.8334
  880MPD2    C512960   2.557   3.819   0.267  0.3589 -0.3133 -0.2524
  880MPD2     H12961   2.783   3.966   0.533  0.6943 -0.4050 -1.0338
  880MPD2    H112962   2.665   3.637   0.287  0.0277 -0.1839  1.0325
  880MPD2    H212963   2.460   4.012   0.252 -0.1996  0.3230 -0.2555
  880MPD2    H312964   2.496   3.777   0.188 -2.4811  0.9078  1.2927
  880MPD2     N12965   2.838   3.734   0.494 -0.0702  0.6625  0.2581
  880MPD2    H512966   2.882   3.788   0.568  1.7003  0.3280 -0.5562
  880MPD2    N112967   2.624   4.148   0.425  0.7353 -0.2917 -0.5200
  880MPD2    H712968   2.546   4.202   0.388  1.3033  1.4472  0.7900
  881MPD2     C12969   2.400   4.722  17.614 -0.9103  0.0301 -0.3693
  881MPD2    C112970   2.535   0.003  17.666  0.7969 -0.1073  0.1292
  881MPD2    C212971   2.563   4.694   0.037 -0.3198  0.2731 -0.9866
  881MPD2    C312972   2.463   4.672   0.128 -0.4149  0.0591 -0.0442
  881MPD2    C412973   2.331   4.678   0.080  0.1430 -0.2948  0.3028
  881MPD2    C512974   2.303   4.703  17.706  0.5071 -0.0046 -0.3020
  881MPD2     H12975   2.664   4.689   0.078 -0.5504 -1.0720 -0.5840
  881MPD2    H112976   2.252   4.652   0.149  0.3980 -0.4199  0.5484
  881MPD2    H212977   2.377   0.016  17.514 -1.4767  0.3266 -0.1402
  881MPD2    H312978   2.198   4.701  17.677  0.4177  0.7049 -0.0251
  881MPD2     N12979   2.478   4.641   0.262  0.2397  0.3033 -0.1140
  881MPD2    H512980   2.397   4.616   0.318  1.3179  0.4238  1.5056
  881MPD2    N112981   2.628   0.005  17.567 -0.3966 -0.1884 -0.3723
  881MPD2    H712982   2.586   4.733  17.476 -1.8494  3.5679 -0.1789
  882MPD2     C12983   1.327   1.357  14.091 -0.1589  0.0310  0.2716
  882MPD2    C112984   1.282   1.411  14.214 -0.0162 -0.1806 -0.6252
  882MPD2    C212985   1.147   1.419  14.247 -0.5255  0.7901  0.1246
  882MPD2    C312986   1.051   1.367  14.158 -0.3611  0.3061  0.3318
  882MPD2    C412987   1.096   1.319  14.035 -0.0348 -0.0589 -0.3374
  882MPD2    C512988   1.233   1.307  14.010  0.0801  0.6873  1.0726
  882MPD2     H12989   1.114   1.462  14.341  2.3638 -1.1043  2.0057
  882MPD2    H112990   1.026   1.285  13.960  0.6110  1.4751 -1.6350
  882MPD2    H212991   1.426   1.356  14.048 -0.5973  0.8343 -0.7666
  882MPD2    H312992   1.270   1.259  13.921 -1.0547 -0.2263  1.0901
  882MPD2     N12993   0.920   1.371  14.205 -0.2527  0.0819 -0.6301
  882MPD2    H512994   0.895   1.377  14.303  0.6792 -2.5686 -0.2613
  882MPD2    N112995   1.369   1.462  14.310  0.3976 -0.3102 -0.3094
  882MPD2    H712996   1.327   1.507  14.391  3.0534  0.1630  0.7974
  883MPD2     C12997   3.200   1.997  16.146  0.1087 -0.1172  0.3963
  883MPD2    C112998   3.271   1.997  16.031 -0.4195 -0.7440 -0.2035
  883MPD2    C212999   3.375   2.090  16.013 -0.1628 -0.1008  0.1860
  883MPD2    C313000   3.409   2.176  16.119  0.0373 -0.0734  0.2224
  883MPD2    C413001   3.336   2.173  16.234 -0.1299  0.2064  0.2615
  883MPD2    C513002   3.235   2.084  16.246 -0.6273 -0.4865 -0.3543
  883MPD2     H13003   3.430   2.088  15.920 -1.9795  2.5779 -0.9566
  883MPD2    H113004   3.368   2.232  16.319 -0.3110 -0.2666  0.6609
  883MPD2    H213005   3.125   1.921  16.166  1.9346 -1.4667  2.2126
  883MPD2    H313006   3.181   2.080  16.340  0.8378  1.1287  0.5762
  883MPD2     N13007   3.519   2.271  16.103  0.2085 -0.6762 -0.1028
  883MPD2    H513008   3.570   2.256  16.017 -0.4209  3.2117 -1.1477
  883MPD2    N113009   3.241   1.927  15.917 -0.1412 -0.3738 -0.4067
  883MPD2    H713010   3.280   1.962  15.830 -0.3216 -1.6590 -1.0070
  884MPD2     C13011   0.557   2.287  15.190  0.4682  0.1231 -0.0749
  884MPD2    C113012   0.503   2.339  15.070 -0.4308  0.5945  0.2354
  884MPD2    C213013   0.367   2.345  15.058  0.6720 -0.3940  0.3666
  884MPD2    C313014   0.287   2.316  15.163 -0.1695 -0.6986  0.0838
  884MPD2    C413015   0.340   2.258  15.272  0.2295  0.0354  0.0285
  884MPD2    C513016   0.472   2.246  15.284  0.1254 -0.2902  0.1242
  884MPD2     H13017   0.317   2.391  14.974  2.4770 -0.4282 -0.7418
  884MPD2    H113018   0.274   2.214  15.346 -1.3398 -0.4521 -1.6587
  884MPD2    H213019   0.663   2.297  15.211  0.2601 -1.7470  1.7833
  884MPD2    H313020   0.526   2.206  15.369 -0.9837 -0.6837  0.6486
  884MPD2     N13021   0.142   2.340  15.157 -1.0320 -0.1854  0.1256
  884MPD2    H513022   0.097   2.375  15.074 -1.2064  0.1628  0.3657
  884MPD2    N113023   0.601   2.385  14.977  0.1031 -0.1289  0.0089
  884MPD2    H713024   0.696   2.393  15.012  0.3505  0.3195 -0.7698
  885MPD2     C13025   3.576   3.291   0.184  1.0298  0.2172 -0.0494
  885MPD2    C113026   3.539   3.158   0.175 -0.5366 -0.0330 -0.6920
  885MPD2    C213027   3.561   3.092   0.053 -1.1345  0.4600  0.0520
  885MPD2    C313028   3.618   3.150  17.698  0.7286  0.3534 -0.0219
  885MPD2    C413029   3.646   3.286  17.710 -0.1412 -0.0606 -0.8520
  885MPD2    C513030   3.623   3.344   0.076 -0.6195  0.2130  0.5589
  885MPD2     H13031   3.533   2.988   0.039  0.5187  0.0076  0.0751
  885MPD2    H113032   3.683   3.343  17.626  0.3073  0.0545 -0.5733
  885MPD2    H213033   3.567   3.359   0.268 -1.0430 -0.2003  0.0470
  885MPD2    H313034   3.642   3.451   0.078  1.2632 -0.0992 -0.7822
  885MPD2     N13035   3.642   3.078  17.573  0.0107 -1.1588 -0.3965
  885MPD2    H513036   3.622   2.978  17.573 -0.2163 -1.1151 -0.1916
  885MPD2    N113037   3.482   3.094   0.288 -0.6067  0.7920 -0.1392
  885MPD2    H713038   3.464   3.155   0.366 -2.8287 -0.0285 -0.0260
  886MPD2     C13039   0.198   1.638  15.778  0.1009 -0.4895  0.0836
  886MPD2    C113040   0.217   1.503  15.744  0.2910  0.0340 -0.1823
  886MPD2    C213041   0.203   1.469  15.610 -0.7401  0.0999 -0.1384
  886MPD2    C313042   0.158   1.564  15.519 -0.2780 -0.0099 -0.1001
  886MPD2    C413043   0.140   1.695  15.554 -0.4906 -0.0553 -0.5618
  886MPD2    C513044   0.149   1.731  15.685 -0.5369 -0.0981  0.7337
  886MPD2     H13045   0.221   1.368  15.575  0.7753  0.6027 -0.8273
  886MPD2    H113046   0.105   1.772  15.486 -1.0649  0.2971  0.1249
  886MPD2    H213047   0.196   1.673  15.880 -1.1349 -1.5055  0.4058
  886MPD2    H313048   0.118   1.833  15.703 -0.8687  0.0821 -0.8328
  886MPD2     N13049   0.168   1.521  15.389  0.0408  0.3259  0.1081
  886MPD2    H513050   0.210   1.430  15.371  2.2531  1.2947  0.3429
  886MPD2    N113051   0.263   1.410  15.839 -0.5879  0.2397  0.2231
  886MPD2    H713052   0.282   1.444  15.933  1.8284  3.0365 -1.2734
  887MPD2     C13053   0.828   1.453  16.257  0.2408 -0.4206 -0.3606
  887MPD2    C113054   0.782   1.430  16.127 -0.0106  0.1003  1.2139
  887MPD2    C213055   0.847   1.501  16.029  0.4452 -0.0686 -0.2176
  887MPD2    C313056   0.925   1.609  16.053 -0.4077 -0.5313  0.2196
  887MPD2    C413057   0.969   1.634  16.181  0.2828  0.0448  0.2620
  887MPD2    C513058   0.918   1.549  16.278  0.5703  0.8359 -1.2524
  887MPD2     H13059   0.810   1.490  15.928 -0.9724 -1.8449  0.4871
  887MPD2    H113060   1.043   1.712  16.199  0.5496  0.2062 -1.6036
  887MPD2    H213061   0.790   1.402  16.345  0.3030 -0.2743 -0.2497
  887MPD2    H313062   0.934   1.581  16.381  0.6946 -0.7332 -0.7874
  887MPD2     N13063   0.962   1.685  15.937  0.0745 -0.2552 -0.3874
  887MPD2    H513064   0.955   1.646  15.844 -1.3629 -1.3628  0.1870
  887MPD2    N113065   0.675   1.352  16.089  0.9005  0.4160 -0.2918
  887MPD2    H713066   0.654   1.343  15.990 -0.4127  2.3282 -0.1821
  888MPD2     C13067   2.588   0.942  14.857  0.4571  0.3060  0.7235
  888MPD2    C113068   2.488   1.012  14.926  0.0927 -0.0613 -0.6066
  888MPD2    C213069   2.473   1.151  14.898 -0.5964 -0.3638  0.3903
  888MPD2    C313070   2.562   1.214  14.814  0.3100 -0.2907  0.2442
  888MPD2    C413071   2.658   1.144  14.748  0.2769 -0.7892 -0.1451
  888MPD2    C513072   2.681   1.009  14.781  0.3013  0.8994  0.1500
  888MPD2     H13073   2.402   1.206  14.958 -0.6079 -0.2544  0.2747
  888MPD2    H113074   2.725   1.185  14.673 -2.0298  0.7464 -1.3584
  888MPD2    H213075   2.611   0.839  14.880  0.6054  0.0793 -0.4312
  888MPD2    H313076   2.746   0.956  14.711  0.3313 -1.2239  1.7940
  888MPD2     N13077   2.549   1.356  14.806 -0.3385  0.3763 -0.4049
  888MPD2    H513078   2.473   1.399  14.858 -1.1192  0.9089 -1.9929
  888MPD2    N113079   2.399   0.953  15.017  0.1911  0.1448 -0.1625
  888MPD2    H713080   2.335   1.011  15.070 -0.2367  0.7331 -1.3224
  889MPD2     C13081   2.044   0.677  12.572  0.4216  0.2818 -0.3553
  889MPD2    C113082   1.973   0.637  12.681  0.3019 -0.0941  0.0152
  889MPD2    C213083   1.852   0.709  12.695 -0.3513  0.0077  0.3567
  889MPD2    C313084   1.814   0.815  12.610  0.4792 -0.3758 -0.3910
  889MPD2    C413085   1.901   0.868  12.519 -0.7864  0.3887  0.5188
  889MPD2    C513086   2.015   0.793  12.499  0.1994  0.5060 -0.4352
  889MPD2     H13087   1.792   0.703  12.784  0.6709  1.3222  1.1390
  889MPD2    H113088   1.890   0.966  12.473  1.6139  0.0177 -0.8319
  889MPD2    H213089   2.141   0.629  12.562  1.5563  2.6083 -0.5906
  889MPD2    H313090   2.091   0.824  12.428  1.1965  0.4593  0.5903
  889MPD2     N13091   1.695   0.878  12.646  0.2353 -0.8243  0.9863
  889MPD2    H513092   1.655   0.846  12.733 -0.9569 -0.3807  0.6004
  889MPD2    N113093   2.004   0.520  12.751 -0.0898 -0.0841  0.0201
  889MPD2    H713094   2.094   0.479  12.732 -1.0844 -1.4606 -1.7149
  890MPD2     C13095   1.072   2.438  14.488  0.0401  0.0549 -0.1651
  890MPD2    C113096   1.200   2.458  14.466  0.2682 -0.0212 -0.3791
  890MPD2    C213097   1.282   2.341  14.455  0.5517  1.5393  0.2067
  890MPD2    C313098   1.235   2.218  14.495  0.3900 -0.0667  0.3846
  890MPD2    C413099   1.103   2.207  14.528  0.6238  0.0515 -0.3062
  890MPD2    C513100   1.021   2.311  14.517  0.1951 -0.1349  0.6152
  890MPD2     H13101   1.388   2.344  14.435  0.3374  1.0900 -0.9717
  890MPD2    H113102   1.060   2.113  14.561 -0.4209  0.8176  0.5151
  890MPD2    H213103   1.003   2.521  14.503  1.5303  0.6538  3.4193
  890MPD2    H313104   0.915   2.302  14.537  0.3354 -1.6964  0.6161
  890MPD2     N13105   1.331   2.109  14.509  0.0051 -0.0874 -0.0462
  890MPD2    H513106   1.423   2.130  14.473 -0.0747 -2.6877 -1.7714
  890MPD2    N113107   1.253   2.594  14.456 -0.0484  0.1029  0.2547
  890MPD2    H713108   1.191   2.673  14.450  0.0718  0.0425 -1.9557
  891MPD2     C13109   4.378   1.632  17.224  0.2177  0.1115 -0.2934
  891MPD2    C113110   4.283   1.540  17.190 -0.1126  0.0792  1.5443
  891MPD2    C213111   4.303   1.408  17.214  0.3524 -0.1708 -0.3709
  891MPD2    C313112   4.428   1.372  17.267 -0.1903 -0.1815  0.0171
  891MPD2    C413113   4.523   1.464  17.294 -0.3971 -0.0037  0.5352
  891MPD2    C513114   4.496   1.597  17.280  0.7059  0.1640 -0.2542
  891MPD2     H13115   4.233   1.331  17.186  1.8972 -2.0330  0.8509
  891MPD2    H113116   4.609   1.429  17.350 -0.3076 -2.4381 -1.1627
  891MPD2    H213117   4.368   1.738  17.203 -2.7098 -0.4398 -1.6820
  891MPD2    H313118   4.574   1.668  17.306 -0.1321  1.5885 -1.5861
  891MPD2     N13119   4.450   1.236  17.308 -0.0164 -0.1229  0.2161
  891MPD2    H513120   4.367   1.179  17.292 -1.3198  2.0592 -0.8829
  891MPD2    N113121   4.164   1.586  17.132 -0.0432  0.1669 -0.1923
  891MPD2    H713122   4.166   1.685  17.107 -1.4211  0.1114 -0.5281
  892MPD2     C13123   0.772   1.711  14.926 -0.3044  0.1617 -0.0881
  892MPD2    C113124   0.654   1.719  14.863 -0.6006 -0.3447 -0.3058
  892MPD2    C213125   0.627   1.623  14.759  0.3036 -0.2897  0.5478
  892MPD2    C313126   0.721   1.523  14.731 -0.0606 -0.5163  0.0940
  892MPD2    C413127   0.832   1.508  14.808 -0.0213 -0.2332  0.1000
  892MPD2    C513128   0.861   1.607  14.896  0.4938  0.4908  0.9035
  892MPD2     H13129   0.529   1.629  14.713  0.0705 -1.0590  0.9376
  892MPD2    H113130   0.913   1.438  14.789  0.2191  0.4095 -1.2186
  892MPD2    H213131   0.796   1.776  15.009  1.1227  0.2902 -0.5874
  892MPD2    H313132   0.953   1.598  14.953  0.3502 -0.3250  1.0088
  892MPD2     N13133   0.698   1.435  14.624 -0.0646 -0.1341  0.0290
  892MPD2    H513134   0.778   1.386  14.586  2.2844  2.7594  1.2128
  892MPD2    N113135   0.558   1.816  14.885  0.1102 -0.2369 -0.3888
  892MPD2    H713136   0.476   1.811  14.825 -0.2518 -1.0158  0.1760
  893MPD2     C13137   1.701   4.553   1.478  0.3230  0.4672 -0.2731
  893MPD2    C113138   1.615   4.630   1.405  0.7081 -0.6962 -0.5576
  893MPD2    C213139   1.486   4.589   1.381 -0.0970 -0.1740 -0.3197
  893MPD2    C313140   1.433   4.476   1.441 -0.8928  0.3461  0.3059
  893MPD2    C413141   1.519   4.395   1.515  0.4241  0.6598 -0.3408
  893MPD2    C513142   1.653   4.435   1.534 -0.3825  0.1921 -0.0207
  893MPD2     H13143   1.425   4.667   1.337  1.2271  1.3945  0.5996
  893MPD2    H113144   1.490   4.302   1.561 -1.5867  1.9524  0.9914
  893MPD2    H213145   1.806   4.572   1.497  0.1152  0.5621  0.7707
  893MPD2    H313146   1.711   4.379   1.606 -1.0403  0.4840  0.7364
  893MPD2     N13147   1.298   4.433   1.427  0.0096 -0.7109 -0.1514
  893MPD2    H513148   1.281   4.349   1.482 -2.3495 -0.0016  0.1899
  893MPD2    N113149   1.680   4.738   1.350  0.2406 -0.2918 -0.5782
  893MPD2    H713150   1.781   4.739   1.356  0.0865  0.2436  2.1341
  894MPD2     C13151   4.694   2.446   0.977 -0.4284 -0.2485 -1.0381
  894MPD2    C113152   4.723   2.508   1.098 -0.3219  0.1041 -0.6364
  894MPD2    C213153   0.062   2.626   1.094 -0.4306  0.1227  0.1460
  894MPD2    C313154   0.086   2.690   0.968  0.3700  0.3356 -0.7636
  894MPD2    C413155   0.055   2.618   0.855  0.2562 -0.0501 -0.3968
  894MPD2    C513156   4.731   2.499   0.865  0.4729 -0.0296 -0.0359
  894MPD2     H13157   0.079   2.670   1.192 -1.8924  0.2684  0.3335
  894MPD2    H113158   0.071   2.652   0.754 -0.0311  0.8126 -0.1525
  894MPD2    H213159   4.641   2.352   0.968 -1.3966 -0.0480  2.4834
  894MPD2    H313160   4.709   2.457   0.767 -2.0686 -2.6265  1.6372
  894MPD2     N13161   0.143   2.821   0.964 -0.5079  0.5601  0.0380
  894MPD2    H513162   0.155   2.866   1.054  0.5607  0.6658 -0.1557
  894MPD2    N113163   4.659   2.466   1.217 -0.0406 -0.3591  0.1700
  894MPD2    H713164   4.687   2.521   1.297  0.4726  1.2827 -1.1376
  895MPD2     C13165   4.665   1.083  13.079 -0.2407  0.4269  0.0313
  895MPD2    C113166   4.628   1.176  13.173 -0.1153 -0.2165  0.2693
  895MPD2    C213167   4.642   1.148  13.306 -0.0348  0.0982  0.2353
  895MPD2    C313168   4.679   1.021  13.348  0.2857  0.9178 -0.1522
  895MPD2    C413169   4.711   0.928  13.250 -0.1893 -0.0033  0.0169
  895MPD2    C513170   4.698   0.955  13.120 -0.0738  0.1967 -0.2653
  895MPD2     H13171   4.618   1.231  13.371  0.6619  0.9829 -0.6264
  895MPD2    H113172   0.011   0.834  13.286  0.0235  0.3500  0.7283
  895MPD2    H213173   4.641   1.103  12.975 -0.8470  0.8574  0.2513
  895MPD2    H313174   4.708   0.873  13.049  0.1691  0.3725 -0.4364
  895MPD2     N13175   4.671   0.975  13.486  0.0418 -0.1459 -0.1516
  895MPD2    H513176   4.679   0.875  13.500  3.1014  0.2923  1.2617
  895MPD2    N113177   4.558   1.285  13.123  0.1687 -0.1174  0.3295
  895MPD2    H713178   4.527   1.351  13.194  0.2124  0.5256 -0.2483
  896MPD2     C13179   2.073   3.193   1.414  0.0405  0.3416 -0.2249
  896MPD2    C113180   2.026   3.260   1.302  0.0567  0.0885 -0.0210
  896MPD2    C213181   1.920   3.196   1.234  0.6370  0.3977 -0.3556
  896MPD2    C313182   1.882   3.064   1.259 -0.7828 -0.5293 -0.7092
  896MPD2    C413183   1.925   3.011   1.370  0.0811  0.6730 -0.7106
  896MPD2    C513184   2.033   3.066   1.440  0.3522  0.5008  0.1279
  896MPD2     H13185   1.878   3.239   1.144  0.7192 -0.7165 -0.9215
  896MPD2    H113186   1.889   2.914   1.403  2.1317 -0.6747 -2.4161
  896MPD2    H213187   2.152   3.238   1.472 -0.6410  0.5411  0.5510
  896MPD2    H313188   2.079   3.013   1.523  0.3758 -1.7682 -1.3653
  896MPD2     N13189   1.780   3.005   1.186  0.2827  0.7564 -0.2026
  896MPD2    H513190   1.733   3.073   1.128  0.5727  0.3272 -0.9482
  896MPD2    N113191   2.063   3.394   1.284 -0.3157 -0.0763 -0.3651
  896MPD2    H713192   2.135   3.438   1.340 -0.9178  0.2201  0.1836
  897MPD2     C13193   3.254   0.558  10.002 -1.0287 -0.0796 -0.5713
  897MPD2    C113194   3.125   0.597  10.037 -0.3593 -0.1294 -0.0732
  897MPD2    C213195   3.062   0.528  10.138 -0.5706  0.7992 -0.1388
  897MPD2    C313196   3.121   0.415  10.194 -0.7265  0.2792 -0.7652
  897MPD2    C413197   3.239   0.360  10.141  0.1662  0.0953 -0.3574
  897MPD2    C513198   3.308   0.442  10.056 -0.5459  0.4220  0.2032
  897MPD2     H13199   2.956   0.550  10.153 -0.4211  2.1227 -1.0137
  897MPD2    H113200   3.267   0.257  10.161 -0.2166 -0.0604 -0.6237
  897MPD2    H213201   3.315   0.609   9.929  1.0094 -1.6942  0.0269
  897MPD2    H313202   3.398   0.402  10.011  0.8084  2.0213  1.5223
  897MPD2     N13203   3.048   0.355  10.296  0.5357  0.9496  0.2058
  897MPD2    H513204   2.957   0.396  10.311  1.2908  2.2923  1.1217
  897MPD2    N113205   3.058   0.699   9.965  0.1145 -0.8321  0.0124
  897MPD2    H713206   3.105   0.742   9.886  0.7908 -0.4040  0.6549
  898MPD2     C13207   0.144   1.480  17.185 -0.1298  0.7525 -0.5875
  898MPD2    C113208   0.193   1.460  17.305  0.1684  0.3079  0.5119
  898MPD2    C213209   0.171   1.559  17.399 -0.1035  0.0365 -0.3103
  898MPD2    C313210   0.109   1.676  17.376 -0.1410  0.0971  0.4318
  898MPD2    C413211   0.069   1.695  17.245 -0.3885 -0.2967  0.3624
  898MPD2    C513212   0.081   1.599  17.153 -0.6606 -0.6973  0.3653
  898MPD2     H13213   0.203   1.519  17.495  0.6235 -1.0459 -0.9947
  898MPD2    H113214   0.036   1.794  17.217  1.2957 -0.3302 -1.7445
  898MPD2    H213215   0.141   1.408  17.104  1.8141 -0.3124  0.2743
  898MPD2    H313216   0.053   1.619  17.050 -0.2066 -1.3176  0.1231
  898MPD2     N13217   0.090   1.767  17.483  0.2003 -0.1979 -0.1803
  898MPD2    H513218   0.105   1.729  17.575 -0.6824  0.6016  0.2946
  898MPD2    N113219   0.262   1.344  17.336 -0.1133  0.0672  0.5106
  898MPD2    H713220   0.267   1.314  17.433  1.7982  0.6345  0.5803
  899MPD2     C13221   0.959   2.062  16.728  0.6772 -0.0945 -0.3811
  899MPD2    C113222   0.940   2.142  16.837  0.7583  0.7107 -0.2030
  899MPD2    C213223   0.893   2.088  16.958 -0.5613  1.0858  0.0508
  899MPD2    C313224   0.853   1.958  16.959 -0.2572 -1.3826 -0.5416
  899MPD2    C413225   0.863   1.874  16.847  0.4162 -0.6200  0.5148
  899MPD2    C513226   0.909   1.932  16.729 -0.1573 -0.5873  0.1143
  899MPD2     H13227   0.914   2.144  17.048 -0.4713  0.3718  0.4709
  899MPD2    H113228   0.843   1.767  16.842  4.5160 -1.4777  1.8873
  899MPD2    H213229   1.001   2.096  16.634 -0.2041  1.7318 -0.1147
  899MPD2    H313230   0.925   1.863  16.647  1.1520 -0.5248  0.3272
  899MPD2     N13231   0.805   1.899  17.075  0.2572  0.0686  0.3213
  899MPD2    H513232   0.773   1.803  17.079 -1.6263  0.7475  1.4742
  899MPD2    N113233   0.987   2.277  16.825  0.2743 -0.1883  0.3975
  899MPD2    H713234   1.019   2.309  16.734 -1.2326 -2.2107 -0.8518
  900MPD2     C13235   0.851   3.691  12.414  0.1724  0.1350 -0.1299
  900MPD2    C113236   0.738   3.622  12.457  0.4071  0.4840  0.1467
  900MPD2    C213237   0.610   3.662  12.413  0.1041  0.0518  0.1001
  900MPD2    C313238   0.601   3.764  12.316  0.3737  0.1565  0.0598
  900MPD2    C413239   0.720   3.832  12.267  0.0727  0.4903  1.4505
  900MPD2    C513240   0.835   3.794  12.321 -0.2167 -0.1591 -0.0924
  900MPD2     H13241   0.518   3.611  12.440 -0.0759  0.7469  0.8102
  900MPD2    H113242   0.720   3.911  12.193  1.2376  1.6213  2.6527
  900MPD2    H213243   0.951   3.668  12.448 -0.4066  1.4115  2.4090
  900MPD2    H313244   0.923   3.843  12.281  0.2710 -0.4362  0.6441
  900MPD2     N13245   0.474   3.802  12.273 -0.5545  0.7972  0.0470
  900MPD2    H513246   0.399   3.756  12.324  0.6458 -1.1383  0.0852
  900MPD2    N113247   0.763   3.502  12.537 -0.3517  0.4148 -0.3403
  900MPD2    H713248   0.855   3.460  12.538  0.6490  2.6336 -0.5600
  901MPD2     C13249   0.224   2.604  12.458 -0.4970  0.3671  0.8448
  901MPD2    C113250   0.335   2.558  12.516 -0.2314  0.4874  0.5250
  901MPD2    C213251   0.417   2.650  12.573  0.4412 -0.2615 -0.9186
  901MPD2    C313252   0.381   2.785  12.573  0.5151 -0.1855 -0.2860
  901MPD2    C413253   0.258   2.823  12.522  0.7236 -0.5641  0.1726
  901MPD2    C513254   0.181   2.734  12.460  0.4968  0.3548 -1.2239
  901MPD2     H13255   0.515   2.619  12.608 -0.0973 -0.6156  0.2773
  901MPD2    H113256   0.238   2.930  12.522  1.7235 -0.3763 -0.7925
  901MPD2    H213257   0.180   2.529  12.392  1.1882 -1.4101  1.7556
  901MPD2    H313258   0.091   2.763  12.408 -1.7217 -1.5193  1.5492
  901MPD2     N13259   0.478   2.873  12.626 -0.1965 -0.0886 -0.0788
  901MPD2    H513260   0.568   2.832  12.647  0.7533  1.3012 -1.4563
  901MPD2    N113261   0.371   2.432  12.488 -0.0252 -0.2701 -0.1887
  901MPD2    H713262   0.320   2.381  12.416 -0.8951 -0.5504  0.6216
  902MPD2     C13263   4.459   1.645  12.643  0.1634 -0.2774 -0.0781
  902MPD2    C113264   4.383   1.679  12.537 -0.4614  0.2530  0.4107
  902MPD2    C213265   4.304   1.578  12.484  0.5167 -0.2286 -0.0764
  902MPD2    C313266   4.314   1.445  12.530  0.3093  0.0110  0.4507
  902MPD2    C413267   4.397   1.416  12.635  0.6590  0.0157  0.6485
  902MPD2    C513268   4.469   1.514  12.684  0.2396  0.4837  0.3310
  902MPD2     H13269   4.238   1.597  12.401  0.1492  0.3612  0.3496
  902MPD2    H113270   4.403   1.321  12.688 -0.9242  0.1454  1.0542
  902MPD2    H213271   4.518   1.727  12.683 -3.0321 -0.3390  4.7758
  902MPD2    H313272   4.541   1.499  12.764 -0.2407 -0.6322  0.5521
  902MPD2     N13273   4.237   1.342  12.473 -0.1903  0.3597  0.1974
  902MPD2    H513274   4.276   1.255  12.506 -0.1680  0.1573 -0.3536
  902MPD2    N113275   4.372   1.812  12.494  0.1940  0.1528  0.1261
  902MPD2    H713276   4.431   1.882  12.537 -0.2320 -0.3060  1.4592
  903MPD2     C13277   4.275   0.970  11.697  0.2222  0.6116  0.4200
  903MPD2    C113278   4.254   1.073  11.788  0.3297  0.6515  0.1206
  903MPD2    C213279   4.216   1.192  11.736 -0.9242 -0.3779  0.0821
  903MPD2    C313280   4.205   1.213  11.599 -0.1579 -0.1349 -0.8283
  903MPD2    C413281   4.241   1.117  11.513 -0.7060  0.5773 -0.2872
  903MPD2    C513282   4.278   0.999  11.567  0.4657  0.3007  0.2842
  903MPD2     H13283   4.184   1.275  11.798 -1.0060 -0.0726 -0.3688
  903MPD2    H113284   4.255   1.124  11.406  2.0970 -3.9703 -0.2378
  903MPD2    H213285   4.293   0.869  11.732 -2.5210 -0.7045 -1.9283
  903MPD2    H313286   4.305   0.922  11.496  0.2926  0.2995  0.2194
  903MPD2     N13287   4.160   1.339  11.556  0.0858  0.2731  0.1067
  903MPD2    H513288   4.121   1.403  11.625 -1.8380 -2.5196  1.6469
  903MPD2    N113289   4.255   1.043  11.926  0.8099  0.2149  0.5096
  903MPD2    H713290   4.271   0.947  11.955 -1.9897 -1.0357 -2.0040
  904MPD2     C13291   3.820   0.157  13.994  0.5209 -0.4389  0.2813
  904MPD2    C113292   3.863   0.282  13.998 -0.7394 -0.8183  0.0178
  904MPD2    C213293   4.002   0.301  13.991  0.3141 -0.1483  0.0644
  904MPD2    C313294   4.090   0.198  13.980  0.7872  0.5486 -0.1438
  904MPD2    C413295   4.041   0.073  13.967 -0.1277 -0.0404  0.2923
  904MPD2    C513296   3.906   0.056  13.974  0.4092 -0.0396 -0.5453
  904MPD2     H13297   4.052   0.397  13.999 -0.3941  0.3052 -1.0735
  904MPD2    H113298   4.103   4.724  13.954  0.1857  0.2162  0.0325
  904MPD2    H213299   3.716   0.133  13.978  0.1143  1.0498  0.7083
  904MPD2    H313300   3.850   4.705  13.952 -1.8863  1.2213  0.1113
  904MPD2     N13301   4.231   0.222  13.985 -0.6053  0.0348  0.4235
  904MPD2    H513302   4.269   0.315  14.004  0.7054 -0.4227  0.0247
  904MPD2    N113303   3.785   0.398  14.020  0.0254  0.0935  0.2891
  904MPD2    H713304   3.825   0.491  14.010 -1.6627  0.7762 -0.0441
  905MPD2     C13305   3.877   1.181  13.995  0.4006 -0.4298  0.0620
  905MPD2    C113306   3.900   1.052  13.965 -0.2529 -0.1818 -0.8542
  905MPD2    C213307   4.027   1.022  13.916 -0.7044  0.0364 -0.6125
  905MPD2    C313308   4.132   1.120  13.911  0.2026 -0.0910 -0.2403
  905MPD2    C413309   4.105   1.248  13.952  0.2342 -0.1549 -0.0454
  905MPD2    C513310   3.980   1.281  13.992 -0.2641  0.7191 -0.5300
  905MPD2     H13311   4.039   0.917  13.894  4.5211  0.4699  0.2246
  905MPD2    H113312   4.185   1.321  13.960 -0.4053  0.2924  2.4773
  905MPD2    H213313   3.784   1.215  14.038  0.4763 -2.0958  1.5348
  905MPD2    H313314   3.954   1.381  14.024  1.0272  0.6259  0.7958
  905MPD2     N13315   4.267   1.084  13.894  0.1726 -0.0004 -0.5028
  905MPD2    H513316   4.330   1.161  13.917  0.1348 -0.7543  2.0354
  905MPD2    N113317   3.791   0.965  13.977 -0.7526  0.2153 -0.1452
  905MPD2    H713318   3.707   0.998  14.023 -1.9213 -2.8563 -0.0221
  906MPD2     C13319   1.847   0.479  11.407 -0.4975  0.2420  0.3268
  906MPD2    C113320   1.743   0.463  11.313 -0.3696 -0.5269  0.5349
  906MPD2    C213321   1.619   0.426  11.355 -0.4434  0.1531  0.3648
  906MPD2    C313322   1.592   0.399  11.487  0.3625 -0.4551  0.0076
  906MPD2    C413323   1.693   0.417  11.584  0.3740 -0.8846 -0.4682
  906MPD2    C513324   1.820   0.456  11.542 -0.4330  0.1084  0.2027
  906MPD2     H13325   1.549   0.411  11.273 -1.3658  2.6380  0.7010
  906MPD2    H113326   1.679   0.399  11.690 -0.5540  2.6866  0.0279
  906MPD2    H213327   1.943   0.516  11.373 -1.1854  1.9838  0.2813
  906MPD2    H313328   1.891   0.478  11.620 -0.4552  0.9549 -0.0124
  906MPD2     N13329   1.461   0.350  11.521  0.1788 -0.8976  0.2784
  906MPD2    H513330   1.396   0.335  11.445  0.3880 -0.9681  0.1115
  906MPD2    N113331   1.764   0.468  11.170 -0.1751  0.1374 -0.1344
  906MPD2    H713332   1.689   0.425  11.117 -0.8092  0.3361  0.5960
  907MPD2     C13333   0.278   4.587  16.161 -0.1630 -0.0389  0.1444
  907MPD2    C113334   0.263   4.477  16.078 -0.0314  0.3542 -0.2515
  907MPD2    C213335   0.352   4.371  16.090  0.0407 -0.2635  0.7504
  907MPD2    C313336   0.451   4.384  16.183  0.3705 -0.9352  0.0102
  907MPD2    C413337   0.474   4.501  16.248 -0.1547 -1.4467 -0.1830
  907MPD2    C513338   0.384   4.601  16.240 -0.3952 -0.3128 -0.1841
  907MPD2     H13339   0.341   4.284  16.028  0.9905 -0.3681  0.7410
  907MPD2    H113340   0.553   4.522  16.320 -2.1738 -0.1439  1.6512
  907MPD2    H213341   0.216   4.676  16.157 -2.0401 -1.2854  1.6114
  907MPD2    H313342   0.396   4.692  16.297  1.3889 -0.6403 -0.0218
  907MPD2     N13343   0.534   4.269  16.210 -0.7125 -0.1381 -0.6379
  907MPD2    H513344   0.511   4.190  16.152 -0.4684  0.1690 -1.1541
  907MPD2    N113345   0.160   4.471  15.985  0.0339  0.0115 -0.5822
  907MPD2    H713346   0.165   4.385  15.932  3.0741  0.5210 -1.0680
  908MPD2     C13347   2.643   0.545   9.209 -0.2013  0.1814  0.1080
  908MPD2    C113348   2.694   0.476   9.315  0.4808 -0.5211 -0.0158
  908MPD2    C213349   2.734   0.546   9.428  0.0266  0.3865 -0.0639
  908MPD2    C313350   2.731   0.681   9.438 -0.6181  0.0758 -0.0152
  908MPD2    C413351   2.668   0.748   9.332  0.3733 -0.3440 -0.9157
  908MPD2    C513352   2.624   0.682   9.221  0.5885  0.6316 -0.0423
  908MPD2     H13353   2.762   0.493   9.518 -0.3956 -0.4461 -0.4258
  908MPD2    H113354   2.658   0.855   9.326  1.8448 -0.2589 -1.8481
  908MPD2    H213355   2.619   0.508   9.110  2.2999 -2.2662  0.4202
  908MPD2    H313356   2.580   0.733   9.136  0.1492 -0.4557 -0.4556
  908MPD2     N13357   2.777   0.749   9.555 -0.0063 -0.0363  0.2052
  908MPD2    H513358   2.812   0.680   9.621  2.7344 -0.2417 -1.4600
  908MPD2    N113359   2.694   0.333   9.307 -0.0150  0.5279 -0.4670
  908MPD2    H713360   2.678   0.293   9.215  2.0167 -1.1163 -0.1132
  909MPD2     C13361   3.549   3.487  11.736  0.9048  0.2082  0.1252
  909MPD2    C113362   3.489   3.582  11.654  0.3224  0.5523 -0.5500
  909MPD2    C213363   3.359   3.617  11.687  0.2329 -0.3333  0.0076
  909MPD2    C313364   3.293   3.561  11.786 -0.7240  0.5298 -0.7995
  909MPD2    C413365   3.361   3.469  11.873 -1.1569  0.3448 -0.1346
  909MPD2    C513366   3.492   3.440  11.845  0.0222 -0.0751  0.9413
  909MPD2     H13367   3.309   3.690  11.624 -0.7039 -1.9885 -1.1676
  909MPD2    H113368   3.309   3.426  11.958  0.3926  0.5527  0.9287
  909MPD2    H213369   3.654   3.458  11.735  1.2292  1.4826 -2.4463
  909MPD2    H313370   3.537   3.367  11.912 -0.5919 -1.4454 -0.1501
  909MPD2     N13371   3.153   3.597  11.793 -0.0992  0.0789 -0.1244
  909MPD2    H513372   3.113   3.657  11.722  0.2750  0.1803 -0.2481
  909MPD2    N113373   3.550   3.640  11.540 -0.8257 -0.1337 -0.4473
  909MPD2    H713374   3.498   3.711  11.490  0.6767  3.3508  2.9400
  910MPD2     C13375   4.621   0.534  16.417 -0.4248 -0.8417 -0.4519
  910MPD2    C113376   4.627   0.436  16.317 -0.6063  0.4184  0.5212
  910MPD2    C213377   4.563   0.449  16.199  0.6891 -0.3522  0.4887
  910MPD2    C313378   4.502   0.572  16.172  0.6028  0.3717  0.9755
  910MPD2    C413379   4.507   0.667  16.272 -0.0130 -0.0435  0.1275
  910MPD2    C513380   4.561   0.652  16.394  0.0287 -0.1302 -0.2304
  910MPD2     H13381   4.578   0.369  16.127  1.8185  0.1979  0.0944
  910MPD2    H113382   4.459   0.762  16.252  0.5758  0.4338  0.9800
  910MPD2    H213383   4.663   0.523  16.517 -1.1083 -1.3081 -0.2167
  910MPD2    H313384   4.543   0.732  16.465  0.2084 -1.0780  0.8817
  910MPD2     N13385   4.437   0.616  16.056  0.0316  0.6418 -0.1862
  910MPD2    H513386   4.392   0.707  16.056 -0.8808  0.2013 -2.4801
  910MPD2    N113387   4.692   0.318  16.339 -0.4485 -0.2855  0.3363
  910MPD2    H713388   4.696   0.264  16.253  1.5176  0.1363  0.1610
  911MPD2     C13389   2.714   0.808  16.312  0.6622  0.1464  0.4280
  911MPD2    C113390   2.719   0.943  16.318 -0.6360 -0.0819 -0.7881
  911MPD2    C213391   2.701   1.021  16.208 -0.0516  0.0378  0.1955
  911MPD2    C313392   2.690   0.958  16.082 -0.1063 -0.1958 -0.1448
  911MPD2    C413393   2.676   0.815  16.078 -0.1379 -0.2180 -0.7631
  911MPD2    C513394   2.690   0.744  16.196 -0.0572  0.0680 -0.3182
  911MPD2     H13395   2.706   1.129  16.203  0.8129 -0.0528 -0.9037
  911MPD2    H113396   2.672   0.769  15.980 -0.3884  1.1408 -1.3899
  911MPD2    H213397   2.722   0.741  16.396 -0.4357  1.4984  1.6000
  911MPD2    H313398   2.696   0.636  16.186 -0.2205 -0.1591  2.1511
  911MPD2     N13399   2.686   1.040  15.959 -0.0214  0.1389  0.1236
  911MPD2    H513400   2.693   0.993  15.870 -0.4391 -1.3873  0.9009
  911MPD2    N113401   2.748   0.993  16.439  0.0023  0.0429  0.0191
  911MPD2    H713402   2.760   0.926  16.514  0.0938  1.4027  1.2185
  912MPD2     C13403   2.462   0.764  15.453  0.0663 -0.7185  0.4877
  912MPD2    C113404   2.454   0.875  15.537 -0.0045 -0.3354 -0.7911
  912MPD2    C213405   2.395   0.867  15.655 -0.2325  0.5401 -0.0173
  912MPD2    C313406   2.338   0.747  15.697 -0.2350 -0.3877  0.2925
  912MPD2    C413407   2.343   0.641  15.609 -0.3718 -0.5706  0.3721
  912MPD2    C513408   2.408   0.650  15.488 -0.6611  0.4124 -0.0412
  912MPD2     H13409   2.394   0.944  15.732 -1.2805 -0.3804  0.8838
  912MPD2    H113410   2.308   0.542  15.634 -0.7343 -0.8181 -1.0762
  912MPD2    H213411   2.518   0.772  15.361  0.1083 -0.4451  0.5361
  912MPD2    H313412   2.428   0.561  15.429 -1.0862  0.1128  0.2672
  912MPD2     N13413   2.287   0.736  15.830  0.1603  0.3522 -0.1463
  912MPD2    H513414   2.262   0.820  15.882 -1.1398  0.4097 -0.8916
  912MPD2    N113415   2.539   0.991  15.501  0.2998 -0.7198 -0.5007
  912MPD2    H713416   2.604   0.985  15.424  2.0468  0.1111  0.9032
  913MPD2     C13417   2.363   2.113  10.146  0.0600  0.3998  1.0953
  913MPD2    C113418   2.446   2.167  10.238 -0.1929 -0.1919  0.3655
  913MPD2    C213419   2.496   2.295  10.217 -0.7837  0.3479  1.2429
  913MPD2    C313420   2.471   2.361  10.098 -0.1948 -0.5097 -0.4214
  913MPD2    C413421   2.387   2.303   9.998 -0.4836 -0.5259  1.2039
  913MPD2    C513422   2.333   2.187  10.036 -0.2397 -0.3896  0.5715
  913MPD2     H13423   2.560   2.340  10.292  1.1045 -0.9447  0.4110
  913MPD2    H113424   2.369   2.353   9.903 -0.6553 -1.8979  0.5196
  913MPD2    H213425   2.308   2.021  10.164  1.9833 -0.2328  3.7875
  913MPD2    H313426   2.264   2.141   9.967  1.1645  1.0123 -1.7907
  913MPD2     N13427   2.514   2.492  10.069  0.1155  0.0787 -0.8206
  913MPD2    H513428   2.486   2.530   9.979 -0.1656  1.0392 -0.3218
  913MPD2    N113429   2.475   2.088  10.353  0.0745 -0.3929 -0.3933
  913MPD2    H713430   2.414   2.009  10.371 -1.0299  0.3493 -0.8584
  914MPD2     C13431   1.034   2.624  12.150 -0.0849 -0.2599  0.2063
  914MPD2    C113432   0.926   2.665  12.216  1.1725 -0.1552 -0.5239
  914MPD2    C213433   0.833   2.570  12.265  0.1805 -0.1018  0.0226
  914MPD2    C313434   0.854   2.436  12.238  0.1883  1.2153 -0.1936
  914MPD2    C413435   0.973   2.398  12.177  0.2955  0.0132 -0.2547
  914MPD2    C513436   1.056   2.493  12.120  0.3149  0.2051 -0.8799
  914MPD2     H13437   0.737   2.599  12.308 -0.6278 -2.6697 -0.0390
  914MPD2    H113438   1.003   2.295  12.166 -3.2028 -1.0089 -0.0678
  914MPD2    H213439   1.112   2.687  12.108  0.3868 -0.7288  0.3714
  914MPD2    H313440   1.130   2.466  12.045  2.0055 -0.9879  1.2111
  914MPD2     N13441   0.754   2.341  12.272  0.4275 -0.3278 -0.5048
  914MPD2    H513442   0.664   2.379  12.301  1.0856  0.2251  0.8219
  914MPD2    N113443   0.904   2.807  12.227  0.1265 -0.1756 -1.1537
  914MPD2    H713444   0.963   2.872  12.177 -2.4406  1.2982 -2.2861
  915MPD2     C13445   3.760   2.504  15.280  0.8646  0.4979  0.5173
  915MPD2    C113446   3.629   2.495  15.247  0.7666 -0.2486 -0.3615
  915MPD2    C213447   3.529   2.536  15.328 -0.1754 -0.1956  0.1651
  915MPD2    C313448   3.559   2.599  15.451  0.5813  0.0160 -0.4705
  915MPD2    C413449   3.689   2.597  15.495 -0.0134 -0.0959  0.9728
  915MPD2    C513450   3.785   2.550  15.410  0.1489 -0.0532 -0.3819
  915MPD2     H13451   3.424   2.517  15.311 -0.0217 -0.6615 -0.2649
  915MPD2    H113452   3.724   2.634  15.590  2.6885  3.4967 -1.4438
  915MPD2    H213453   3.847   2.476  15.223  1.1644  0.7762  0.8386
  915MPD2    H313454   3.890   2.559  15.433  0.3312  0.3900 -1.4318
  915MPD2     N13455   3.456   2.644  15.535  0.1702  0.4273 -0.4211
  915MPD2    H513456   3.364   2.614  15.505  0.6547 -1.3293 -0.1287
  915MPD2    N113457   3.589   2.433  15.124  0.9333  0.0975  0.3565
  915MPD2    H713458   3.654   2.366  15.085  0.8537  0.1612  0.1169
  916MPD2     C13459   1.806   0.765  15.886 -0.4286  1.7847  0.4589
  916MPD2    C113460   1.766   0.641  15.948 -0.7375 -0.4083 -0.6050
  916MPD2    C213461   1.810   0.525  15.889  0.4654  0.3566 -0.6033
  916MPD2    C313462   1.893   0.525  15.779  0.5895  0.0676 -0.3329
  916MPD2    C413463   1.935   0.641  15.728 -0.9773 -0.0831 -0.1365
  916MPD2    C513464   1.901   0.761  15.780  0.2957  0.0008  0.5084
  916MPD2     H13465   1.793   0.433  15.944 -2.3208  0.0458 -1.9956
  916MPD2    H113466   2.001   0.638  15.642  0.0167  0.5194  0.6017
  916MPD2    H213467   1.763   0.862  15.907 -0.1535  1.6142  1.7871
  916MPD2    H313468   1.940   0.857  15.749 -0.9224 -0.2333 -1.7885
  916MPD2     N13469   1.940   0.403  15.730 -0.0691 -0.2253  0.5434
  916MPD2    H513470   1.909   0.320  15.780 -0.1599 -0.6790 -0.2529
  916MPD2    N113471   1.694   0.652  16.070 -0.6961 -0.5783  0.1279
  916MPD2    H713472   1.678   0.746  16.108 -1.4555 -0.5325 -0.3118
  917MPD2     C13473   1.483   2.431  11.005 -0.1335  0.4763  0.0471
  917MPD2    C113474   1.572   2.487  11.102 -0.5271  0.4694 -0.4251
  917MPD2    C213475   1.649   2.593  11.058  0.1692 -0.0975 -0.2979
  917MPD2    C313476   1.629   2.651  10.933 -0.2474  0.0957  0.4929
  917MPD2    C413477   1.527   2.601  10.848 -0.0247 -0.4099 -0.3712
  917MPD2    C513478   1.457   2.492  10.883  0.5475 -0.1650  0.1208
  917MPD2     H13479   1.718   2.651  11.118 -0.1823  0.0040  0.0083
  917MPD2    H113480   1.499   2.635  10.748  1.7644 -1.6105 -1.2820
  917MPD2    H213481   1.415   2.351  11.030  1.4942 -0.3860  1.7413
  917MPD2    H313482   1.375   2.460  10.820 -1.0216  1.0376  1.5281
  917MPD2     N13483   1.710   2.761  10.874  0.1632 -0.1657  0.7726
  917MPD2    H513484   1.690   2.776  10.776  1.4271  0.1686  0.5720
  917MPD2    N113485   1.572   2.431  11.232  0.2351  0.0221 -0.6759
  917MPD2    H713486   1.500   2.362  11.249  0.6964 -0.0366  1.0303
  918MPD2     C13487   1.707   3.105  11.990  0.6463  0.4405 -0.2988
  918MPD2    C113488   1.811   3.041  11.929 -0.1482 -0.6824  0.7372
  918MPD2    C213489   1.779   2.931  11.853 -1.1572  0.1534  0.2013
  918MPD2    C313490   1.649   2.882  11.827 -0.4663  0.4949 -0.2455
  918MPD2    C413491   1.545   2.947  11.888  0.0105 -0.7262 -0.2548
  918MPD2    C513492   1.570   3.059  11.964 -0.0032 -0.6463 -0.0060
  918MPD2     H13493   1.865   2.894  11.800 -0.9721 -1.4245  1.6080
  918MPD2    H113494   1.445   2.914  11.861 -0.5306  1.0885 -0.5159
  918MPD2    H213495   1.734   3.195  12.044 -0.0547  0.0503  0.7009
  918MPD2    H313496   1.482   3.106  12.008 -0.5406 -1.0610 -0.6328
  918MPD2     N13497   1.648   2.767  11.753 -0.2391  0.1383  0.0272
  918MPD2    H513498   1.740   2.734  11.726 -0.5954 -1.2844  0.5370
  918MPD2    N113499   1.951   3.059  11.951  0.3617  0.2051 -0.3258
  918MPD2    H713500   2.021   3.022  11.888  1.6168  1.2110  0.4692
  919MPD2     C13501   2.662   2.031  11.581  0.5549 -0.5821 -0.8533
  919MPD2    C113502   2.583   1.923  11.538  0.4178 -0.4491  0.2730
  919MPD2    C213503   2.534   1.931  11.409  0.2090 -0.1779  0.2987
  919MPD2    C313504   2.548   2.042  11.327 -0.5102 -0.7445 -0.3659
  919MPD2    C413505   2.628   2.144  11.373 -0.3420 -0.6334  0.3822
  919MPD2    C513506   2.675   2.134  11.497  0.0494  0.7760 -0.5336
  919MPD2     H13507   2.467   1.854  11.373 -0.2541  0.0360  0.7177
  919MPD2    H113508   2.647   2.234  11.316 -0.9789  0.2190  1.5064
  919MPD2    H213509   2.698   2.032  11.683  1.1421 -3.1091 -1.0375
  919MPD2    H313510   2.730   2.221  11.531 -1.4366  0.9692  1.4073
  919MPD2     N13511   2.485   2.056  11.205  0.3738  0.0928  0.0355
  919MPD2    H513512   2.492   2.148  11.163  3.2535  0.2330  0.7858
  919MPD2    N113513   2.570   1.800  11.606  0.3506  0.1598 -0.1364
  919MPD2    H713514   2.515   1.729  11.558 -2.6915  0.9259  2.1697
  920MPD2     C13515   2.297   2.554  10.341  0.4154  0.4866  0.2191
  920MPD2    C113516   2.199   2.460  10.357  0.1657 -0.1047 -0.1529
  920MPD2    C213517   2.204   2.362  10.455 -0.0539  0.3776  0.3078
  920MPD2    C313518   2.301   2.376  10.555 -0.6457 -0.4010  0.3561
  920MPD2    C413519   2.408   2.465  10.532  0.3653  0.4644 -0.6497
  920MPD2    C513520   2.405   2.553  10.429 -0.4191 -0.1052  0.5592
  920MPD2     H13521   2.128   2.286  10.466 -0.2172  0.7216  1.6552
  920MPD2    H113522   2.495   2.469  10.597 -0.4882  1.9796  0.3841
  920MPD2    H213523   2.292   2.641  10.277  3.0845  0.4002 -0.1062
  920MPD2    H313524   2.475   2.635  10.426 -0.0831 -0.4866 -1.8578
  920MPD2     N13525   2.293   2.288  10.667 -0.1328 -0.2433 -0.3010
  920MPD2    H513526   2.201   2.244  10.670 -1.2854  2.2059 -0.2837
  920MPD2    N113527   2.085   2.459  10.271 -0.0358  0.0043  0.4195
  920MPD2    H713528   2.013   2.392  10.297  2.4911 -2.2476  1.6308
  921MPD2     C13529   3.243   1.759  17.050 -1.1409  0.6403  0.0207
  921MPD2    C113530   3.334   1.694  16.983  0.9473  0.1247  0.0707
  921MPD2    C213531   3.296   1.587  16.909 -0.3845  0.0909  0.1928
  921MPD2    C313532   3.159   1.559  16.900  0.3075  0.2216 -0.5505
  921MPD2    C413533   3.059   1.643  16.957  0.2131 -0.0923 -0.2634
  921MPD2    C513534   3.109   1.732  17.039 -0.1184 -0.4423  0.5919
  921MPD2     H13535   3.363   1.528  16.848  1.6904  0.6949  1.9079
  921MPD2    H113536   2.952   1.626  16.955 -0.1247  2.0848 -1.1827
  921MPD2    H213537   3.280   1.837  17.114 -0.4793  1.1373 -0.9621
  921MPD2    H313538   3.042   1.797  17.094 -1.3734 -1.4653  0.2828
  921MPD2     N13539   3.119   1.449  16.821 -0.4733 -0.6603  0.2412
  921MPD2    H513540   3.193   1.396  16.776  1.8974  1.8190  1.1840
  921MPD2    N113541   3.475   1.725  16.994  0.1988 -0.2564  0.1135
  921MPD2    H713542   3.502   1.817  17.030 -0.8966  0.0375  0.1690
  922MPD2     C13543   3.915   3.779  16.850  0.0287  0.0723  0.2852
  922MPD2    C113544   3.899   3.791  16.988 -0.3271  0.2327  0.4297
  922MPD2    C213545   3.835   3.690  17.051 -0.0223  0.7497  0.1277
  922MPD2    C313546   3.779   3.578  16.983 -0.5231  0.0369 -0.0709
  922MPD2    C413547   3.793   3.573  16.848  0.2107  0.2907 -0.2973
  922MPD2    C513548   3.861   3.668  16.788  0.0178  0.3509 -0.3432
  922MPD2     H13549   3.813   3.703  17.156 -1.4556 -0.3299 -0.0427
  922MPD2    H113550   3.737   3.503  16.786  0.7197  0.4231 -0.9097
  922MPD2    H213551   3.966   3.853  16.789  0.9823 -1.4093 -0.7083
  922MPD2    H313552   3.860   3.665  16.679  0.9603 -0.1988 -0.3360
  922MPD2     N13553   3.689   3.490  17.051 -0.0991 -0.2275 -0.3624
  922MPD2    H513554   3.651   3.519  17.141  1.4439  1.6333 -0.3321
  922MPD2    N113555   3.940   3.905  17.057  0.3258 -1.0911 -0.6656
  922MPD2    H713556   3.914   3.914  17.154 -0.1098 -0.7213 -0.8171
  923MPD2     C13557   0.796   0.404   9.823  0.0795  0.3697  0.2808
  923MPD2    C113558   0.770   0.528   9.772 -0.0727 -0.2953  0.2609
  923MPD2    C213559   0.859   0.630   9.797  0.8715 -0.0798 -0.2371
  923MPD2    C313560   0.974   0.615   9.874 -0.5191 -0.3800 -0.1863
  923MPD2    C413561   0.999   0.492   9.926 -0.3261 -0.2794  0.4697
  923MPD2    C513562   0.908   0.389   9.905  0.4089 -0.4738  0.1968
  923MPD2     H13563   0.849   0.726   9.749  0.1489 -0.5172 -0.9629
  923MPD2    H113564   1.083   0.476   9.992 -0.7227 -0.9595  0.8156
  923MPD2    H213565   0.734   0.320   9.796  0.9195  0.1815 -1.0424
  923MPD2    H313566   0.927   0.291   9.947  1.6205 -1.0533 -1.6938
  923MPD2     N13567   1.067   0.715   9.907  0.0808 -0.1904 -0.1449
  923MPD2    H513568   1.153   0.690   9.955 -1.4283 -1.1916  2.0317
  923MPD2    N113569   0.651   0.537   9.692  0.0555  0.3578 -0.6035
  923MPD2    H713570   0.585   0.461   9.678 -0.5026  0.8876 -0.8532
  924MPD2     C13571   0.342   3.895  15.652 -0.1457  0.3850 -0.5120
  924MPD2    C113572   0.348   3.809  15.757  0.2734  0.0398  0.2005
  924MPD2    C213573   0.455   3.823  15.844 -0.3740 -0.1330  0.6465
  924MPD2    C313574   0.552   3.924  15.825  0.0544  0.6238 -0.0444
  924MPD2    C413575   0.538   4.015  15.727  0.5929  0.4518 -0.7029
  924MPD2    C513576   0.432   4.004  15.637 -0.3095 -0.4168 -0.3040
  924MPD2     H13577   0.475   3.752  15.923 -0.3149 -1.7820 -0.8460
  924MPD2    H113578   0.614   4.090  15.709  0.1306  1.7142  2.5838
  924MPD2    H213579   0.262   3.887  15.580  0.9869  1.4141 -1.9060
  924MPD2    H313580   0.414   4.073  15.555  0.6274  0.4315  0.2150
  924MPD2     N13581   0.665   3.943  15.913 -0.0273 -0.0258 -0.3495
  924MPD2    H513582   0.723   4.025  15.897  0.7731 -0.9129 -2.0568
  924MPD2    N113583   0.247   3.714  15.781 -0.1409  0.1296 -0.2840
  924MPD2    H713584   0.149   3.736  15.765 -0.1078 -0.3314 -1.1054
  925MPD2     C13585   4.325   1.578  14.258 -0.4670  0.2610 -0.3954
  925MPD2    C113586   4.198   1.645  14.266 -0.0441 -0.3448  0.3426
  925MPD2    C213587   4.152   1.682  14.396  0.0757 -0.7799 -0.4845
  925MPD2    C313588   4.229   1.656  14.511  0.6779  0.3581  1.1475
  925MPD2    C413589   4.353   1.603  14.496  0.3915  0.6850 -0.2128
  925MPD2    C513590   4.402   1.565  14.374 -0.2624  0.4095  0.2672
  925MPD2     H13591   4.050   1.718  14.407  1.6078  3.0964  1.2820
  925MPD2    H113592   4.422   1.581  14.577 -2.5134 -1.5235  1.6771
  925MPD2    H213593   4.366   1.522  14.175 -1.3222 -1.2597  0.1933
  925MPD2    H313594   4.486   1.497  14.373 -1.1989 -0.7730  2.2954
  925MPD2     N13595   4.186   1.676  14.646  0.4867  0.3393  0.3938
  925MPD2    H513596   4.258   1.668  14.717 -0.0672 -1.7962  0.7021
  925MPD2    N113597   4.120   1.667  14.147 -0.3727 -0.7644  0.2358
  925MPD2    H713598   4.027   1.705  14.144 -1.0043 -2.3203 -0.1394
  926MPD2     C13599   3.292   4.668  13.378 -0.2250 -0.1808  0.3964
  926MPD2    C113600   3.224   0.048  13.359 -0.0495 -0.2457 -0.3920
  926MPD2    C213601   3.294   0.154  13.302  0.0664 -0.2554  0.8661
  926MPD2    C313602   3.435   0.147  13.282  0.7326 -0.0403 -0.4252
  926MPD2    C413603   3.498   0.035  13.317 -0.2628 -0.3754 -0.0181
  926MPD2    C513604   3.426   4.665  13.364  0.7721  0.0848 -0.0250
  926MPD2     H13605   3.244   0.248  13.281  0.7813 -0.0070  0.2769
  926MPD2    H113606   3.602   0.013  13.296 -0.5461 -0.0555 -1.7081
  926MPD2    H213607   3.233   4.579  13.396 -0.4465 -0.0485  0.3281
  926MPD2    H313608   3.491   4.582  13.388  0.0535 -0.9942 -1.8179
  926MPD2     N13609   3.499   0.260  13.230  0.1261  0.7835 -0.5582
  926MPD2    H513610   3.439   0.334  13.196  0.6943  0.6445 -1.8869
  926MPD2    N113611   3.094   0.075  13.399  0.4885  0.2478  0.0600
  926MPD2    H713612   3.064   0.172  13.408 -2.2353 -0.7312  1.7052
  927MPD2     C13613   2.559   2.745  17.234 -0.2039  0.3189 -0.3987
  927MPD2    C113614   2.607   2.647  17.327  0.3710 -0.0167 -0.4596
  927MPD2    C213615   2.727   2.587  17.296  0.4666  0.5578  0.4632
  927MPD2    C313616   2.797   2.621  17.176 -1.3194  0.1500 -0.5220
  927MPD2    C413617   2.751   2.723  17.091 -0.2717 -0.1319 -0.6181
  927MPD2    C513618   2.625   2.781  17.120 -0.0815 -0.0564  0.4639
  927MPD2     H13619   2.763   2.502  17.352  1.5133  0.8270  0.1994
  927MPD2    H113620   2.808   2.755  17.005 -1.0789 -0.0220 -1.1169
  927MPD2    H213621   2.471   2.804  17.256  0.0934  0.6989 -0.2350
  927MPD2    H313622   2.581   2.845  17.044 -1.2387 -1.8279 -0.3563
  927MPD2     N13623   2.912   2.541  17.149  0.3020  0.8976  0.4933
  927MPD2    H513624   2.934   2.463  17.210 -2.9023  1.0110  1.7887
  927MPD2    N113625   2.541   2.633  17.445 -0.5681  0.0855 -0.0030
  927MPD2    H713626   2.456   2.686  17.463 -1.4162 -1.0220 -0.7868
  928MPD2     C13627   0.467   0.320   0.609  0.6334 -0.3706 -0.4577
  928MPD2    C113628   0.436   0.436   0.671  0.0910 -0.0562 -0.3267
  928MPD2    C213629   0.447   0.555   0.611  0.2364 -0.1325 -0.2704
  928MPD2    C313630   0.502   0.564   0.478 -0.6741 -0.4135  0.3254
  928MPD2    C413631   0.532   0.439   0.411 -0.3253 -0.6828 -0.9887
  928MPD2    C513632   0.512   0.319   0.482  1.3431 -0.3159  0.1960
  928MPD2     H13633   0.430   0.653   0.654  2.0896 -0.6978  1.7459
  928MPD2    H113634   0.581   0.437   0.315  0.2853 -3.5715 -0.6174
  928MPD2    H213635   0.457   0.227   0.664 -1.9418 -0.4320 -1.0236
  928MPD2    H313636   0.519   0.222   0.435 -0.4202 -0.8040  0.9373
  928MPD2     N13637   0.535   0.690   0.410 -0.4689  0.1760  0.0707
  928MPD2    H513638   0.593   0.679   0.327  1.9640  0.0744  1.7767
  928MPD2    N113639   0.407   0.429   0.813 -0.0504 -0.1282 -0.2246
  928MPD2    H713640   0.425   0.341   0.860 -0.1451 -0.0890 -0.1136
  929MPD2     C13641   1.203   1.242  10.178  0.2966  0.0961  0.8452
  929MPD2    C113642   1.071   1.189  10.191  0.2224 -0.3020  0.1027
  929MPD2    C213643   0.959   1.265  10.183  0.2030  0.8216  0.4491
  929MPD2    C313644   0.969   1.396  10.144  0.0633 -0.3149  0.2542
  929MPD2    C413645   1.097   1.447  10.136  0.1185  0.0426 -0.0064
  929MPD2    C513646   1.212   1.377  10.162 -0.7971  0.1266  0.1381
  929MPD2     H13647   0.864   1.212  10.190  0.4122  0.3113 -0.5072
  929MPD2    H113648   1.108   1.554  10.119 -0.6505 -0.1895 -1.9849
  929MPD2    H213649   1.296   1.188  10.178 -0.7491 -1.7225  0.1497
  929MPD2    H313650   1.310   1.421  10.151 -0.1935 -1.3783 -0.5116
  929MPD2     N13651   0.853   1.471  10.107 -0.8668  0.1483 -0.3537
  929MPD2    H513652   0.860   1.572  10.093 -0.3733 -0.0458 -1.5407
  929MPD2    N113653   1.055   1.048  10.218  0.0414 -0.2162  0.1911
  929MPD2    H713654   1.139   0.999  10.248 -0.1074  0.0325  1.0091
  930MPD2     C13655   2.416   2.136  13.704  0.7806 -0.2488  0.4527
  930MPD2    C113656   2.432   2.266  13.750  0.3075 -0.6182  0.5587
  930MPD2    C213657   2.452   2.372  13.660 -0.7385  1.1404 -0.5436
  930MPD2    C313658   2.443   2.350  13.521 -0.0362  0.0768 -0.4981
  930MPD2    C413659   2.436   2.222  13.485 -0.4788  0.3879 -0.2227
  930MPD2    C513660   2.436   2.119  13.567  0.1633 -0.6086 -0.5911
  930MPD2     H13661   2.484   2.470  13.692 -1.0612  1.1913 -0.3770
  930MPD2    H113662   2.438   2.194  13.381 -0.5284  2.3864 -0.7750
  930MPD2    H213663   2.401   2.043  13.759  1.4117 -1.3163 -1.1892
  930MPD2    H313664   2.436   2.019  13.527  1.6268 -1.1138  0.6312
  930MPD2     N13665   2.463   2.447  13.420  0.0262 -0.3982  0.1286
  930MPD2    H513666   2.486   2.425  13.324 -2.3222 -1.6260 -0.1467
  930MPD2    N113667   2.440   2.298  13.888  0.4409  0.2450 -0.0405
  930MPD2    H713668   2.462   2.396  13.900 -0.7053  0.6108 -0.9319
  931MPD2     C13669   2.881   2.309   0.297  0.5107  0.2618  0.8519
  931MPD2    C113670   2.751   2.341   0.314  0.1796  0.0141 -0.3040
  931MPD2    C213671   2.670   2.265   0.400  0.6534 -0.5852  0.4640
  931MPD2    C313672   2.735   2.157   0.466 -0.2816  0.3120 -0.3046
  931MPD2    C413673   2.864   2.123   0.444 -0.0584  0.6068 -0.0566
  931MPD2    C513674   2.939   2.198   0.358  0.4416 -0.1214  0.2044
  931MPD2     H13675   2.562   2.262   0.398  0.7111 -0.9111 -2.1433
  931MPD2    H113676   2.906   2.042   0.502  0.7492  0.9551 -0.1568
  931MPD2    H213677   2.941   2.373   0.234 -0.7374  3.1999  2.6424
  931MPD2    H313678   3.042   2.165   0.360  0.4090 -0.3882 -3.2496
  931MPD2     N13679   2.666   2.066   0.548  0.3324  0.2475 -0.2155
  931MPD2    H513680   2.715   1.980   0.570  1.5127  1.2399  1.0040
  931MPD2    N113681   2.701   2.455   0.251 -0.4509 -0.3952 -0.0853
  931MPD2    H713682   2.763   2.507   0.191  0.6885 -0.4667  1.0263
  932MPD2     C13683   3.519   1.552  10.788  0.5144  0.3913 -0.5276
  932MPD2    C113684   3.659   1.570  10.810  0.2603 -0.2035 -0.4468
  932MPD2    C213685   3.727   1.477  10.891  0.2118  0.2489  0.0066
  932MPD2    C313686   3.660   1.371  10.949 -0.0432  0.1631 -0.2546
  932MPD2    C413687   3.528   1.354  10.922  0.4111 -0.1234  0.2618
  932MPD2    C513688   3.464   1.443  10.840 -0.7803 -0.1176 -1.3255
  932MPD2     H13689   3.832   1.490  10.916  0.2644  0.4878 -0.3371
  932MPD2    H113690   3.473   1.276  10.974 -2.7806  1.0199 -1.3329
  932MPD2    H213691   3.452   1.613  10.729 -0.0686 -0.7113 -1.0104
  932MPD2    H313692   3.358   1.432  10.822 -1.3632  1.1930  1.1959
  932MPD2     N13693   3.721   1.277  11.039  0.1526  0.5284 -0.9585
  932MPD2    H513694   3.661   1.201  11.071  0.9560  0.5859  0.6853
  932MPD2    N113695   3.731   1.684  10.773 -0.0483  0.0013  0.4355
  932MPD2    H713696   3.829   1.695  10.799  0.3572  2.5925 -2.2266
  933MPD2     C13697   4.620   0.362   1.545 -0.2349 -0.3229 -0.2817
  933MPD2    C113698   4.647   0.440   1.435  0.1990  0.1572 -1.1561
  933MPD2    C213699   4.557   0.531   1.395 -0.1401 -0.2033 -0.7035
  933MPD2    C313700   4.428   0.536   1.446  0.2688 -0.0899 -0.2205
  933MPD2    C413701   4.395   0.452   1.551  0.3882 -0.7571 -0.0600
  933MPD2    C513702   4.495   0.371   1.599 -0.2925  0.1678  0.2462
  933MPD2     H13703   4.571   0.597   1.311  0.4981 -0.0352 -0.4624
  933MPD2    H113704   4.300   0.438   1.600  1.1772 -1.8072  1.1672
  933MPD2    H213705   4.677   0.272   1.567 -0.5361 -0.6113 -0.6781
  933MPD2    H313706   4.482   0.288   1.667 -4.0960  1.1360  0.6973
  933MPD2     N13707   4.337   0.607   1.371  0.0759  0.0570  1.1996
  933MPD2    H513708   4.378   0.655   1.291  0.0908 -0.2602  1.0137
  933MPD2    N113709   0.041   0.449   1.377 -0.7493  0.4320  0.3332
  933MPD2    H713710   0.101   0.379   1.420 -0.9854 -0.6241 -1.0549
  934MPD2     C13711   1.653   2.684   1.650  0.9983 -0.3812 -0.2393
  934MPD2    C113712   1.687   2.634   1.524 -0.4849  0.3639  0.4125
  934MPD2    C213713   1.589   2.588   1.441  0.7726  1.1238 -0.2043
  934MPD2    C313714   1.457   2.607   1.471  0.0212  0.2285  0.3931
  934MPD2    C413715   1.422   2.667   1.588  0.8261  0.2288  0.2561
  934MPD2    C513716   1.518   2.699   1.672 -0.3356  0.1710  0.5449
  934MPD2     H13717   1.625   2.525   1.361 -1.3629  1.8592 -1.7565
  934MPD2    H113718   1.318   2.692   1.607  0.6842 -1.8892  2.3076
  934MPD2    H213719   1.722   2.730   1.720  1.6686  0.3106 -1.3587
  934MPD2    H313720   1.492   2.755   1.761 -1.0270  0.0796  0.3947
  934MPD2     N13721   1.351   2.561   1.386 -0.4644  0.0572 -0.0354
  934MPD2    H513722   1.260   2.601   1.410  0.1923  1.6611 -0.2177
  934MPD2    N113723   1.822   2.612   1.487 -0.2063  0.0627 -0.5608
  934MPD2    H713724   1.841   2.578   1.394 -0.0755 -3.1364  0.6357
  935MPD2     C13725   1.479   1.950   0.630  0.0712 -0.1475 -0.1122
  935MPD2    C113726   1.342   1.964   0.637 -0.3550 -0.2097 -0.4590
  935MPD2    C213727   1.281   2.072   0.704  0.0120 -0.5226 -0.5612
  935MPD2    C313728   1.355   2.154   0.786  0.3517 -0.4041 -0.0439
  935MPD2    C413729   1.489   2.134   0.781  0.1973 -0.3651 -0.3722
  935MPD2    C513730   1.550   2.035   0.703 -0.1678  0.2938  0.6155
  935MPD2     H13731   1.174   2.066   0.722 -0.0098 -0.8544 -0.7886
  935MPD2    H113732   1.550   2.192   0.849  0.0375  1.0984 -1.4741
  935MPD2    H213733   1.526   1.882   0.559  0.5400 -1.6261  1.5971
  935MPD2    H313734   1.658   2.030   0.702 -0.2902 -2.6021  2.0571
  935MPD2     N13735   1.295   2.240   0.874  0.2139  0.4876  0.5587
  935MPD2    H513736   1.361   2.295   0.929  1.2178 -0.1453 -0.0211
  935MPD2    N113737   1.250   1.870   0.587  0.2774  0.6215 -0.2746
  935MPD2    H713738   1.152   1.888   0.606  0.8178  0.4656  2.5617
  936MPD2     C13739   0.362   4.587  12.406 -0.5028  0.6647  0.1705
  936MPD2    C113740   0.443   4.553  12.514  0.0595 -0.0096 -0.0422
  936MPD2    C213741   0.578   4.557  12.500  0.3246  0.4596  0.6473
  936MPD2    C313742   0.645   4.597  12.388 -0.2246  0.2594  0.8962
  936MPD2    C413743   0.565   4.639  12.283 -0.2013 -0.2346 -0.1660
  936MPD2    C513744   0.430   4.634  12.292  0.6625 -0.6770 -0.0876
  936MPD2     H13745   0.651   4.541  12.579  0.7287  1.1062  0.4096
  936MPD2    H113746   0.612   4.664  12.188  0.6083 -0.9571  0.0389
  936MPD2    H213747   0.254   4.577  12.407 -0.5941  1.5526 -0.7259
  936MPD2    H313748   0.371   4.671  12.209  0.6514 -1.5959 -0.4937
  936MPD2     N13749   0.786   4.594  12.391 -0.3994  0.4472 -0.6313
  936MPD2    H513750   0.837   4.589  12.478  0.1261 -1.4702 -1.0555
  936MPD2    N113751   0.394   4.510  12.643 -0.0142  0.8756  0.0158
  936MPD2    H713752   0.465   4.476  12.708 -0.7702 -0.2781  0.2318
  937MPD2     C13753   2.681   1.191  11.352  0.4583 -0.2343 -0.4749
  937MPD2    C113754   2.633   1.320  11.350 -0.3168 -0.3453 -0.4209
  937MPD2    C213755   2.687   1.401  11.253  0.3847 -0.6301 -0.6180
  937MPD2    C313756   2.764   1.357  11.155  0.2025  0.2626  0.4835
  937MPD2    C413757   2.793   1.220  11.146  0.0341  0.3024  0.0384
  937MPD2    C513758   2.745   1.136  11.248  0.1192 -0.2221  0.9303
  937MPD2     H13759   2.671   1.508  11.261 -0.0759 -0.7682  0.2968
  937MPD2    H113760   2.866   1.182  11.075  0.2826  1.2897 -0.2308
  937MPD2    H213761   2.656   1.129  11.438  0.7205  0.2903 -0.0223
  937MPD2    H313762   2.775   1.032  11.255  0.8161 -0.0269  0.8725
  937MPD2     N13763   2.824   1.450  11.063 -0.7408  0.6419  0.4180
  937MPD2    H513764   2.818   1.547  11.090 -0.9409  0.4826  0.9644
  937MPD2    N113765   2.571   1.383  11.458 -0.2562 -0.3292 -0.0877
  937MPD2    H713766   2.548   1.482  11.452  1.1391  0.0738  1.3610
  938MPD2     C13767   0.225   2.236   0.728  0.5102  0.0023  0.2209
  938MPD2    C113768   0.304   2.326   0.796  0.3507  0.2543  0.5270
  938MPD2    C213769   0.316   2.323   0.933  0.0783 -0.5523  0.3583
  938MPD2    C313770   0.234   2.242   1.012  0.3122  1.6204 -0.8034
  938MPD2    C413771   0.138   2.165   0.946 -0.1125  0.6791 -0.1108
  938MPD2    C513772   0.140   2.162   0.807 -0.2554  1.2702 -0.2494
  938MPD2     H13773   0.380   2.393   0.986  1.1987 -1.5444  0.3249
  938MPD2    H113774   0.072   2.109   1.011  1.7666  0.4915  1.6151
  938MPD2    H213775   0.219   2.224   0.620 -0.9394  0.1581  0.2844
  938MPD2    H313776   0.086   2.079   0.763  1.0240  0.6649 -0.6759
  938MPD2     N13777   0.245   2.233   1.152  0.0950 -0.6955  1.0372
  938MPD2    H513778   0.167   2.192   1.202 -1.1141 -1.2436 -1.3077
  938MPD2    N113779   0.376   2.422   0.717  0.4666  0.3763 -0.6831
  938MPD2    H713780   0.430   2.483   0.777  1.1888 -0.1546 -0.8019
  939MPD2     C13781   1.520   3.335   0.617  0.0277  1.1873  0.7474
  939MPD2    C113782   1.566   3.466   0.634  0.1694 -0.6350 -0.2455
  939MPD2    C213783   1.623   3.540   0.525  0.2268 -0.2641  0.4976
  939MPD2    C313784   1.633   3.479   0.401  0.0729  0.1927 -0.4171
  939MPD2    C413785   1.573   3.351   0.378  0.6105 -0.6540 -0.4199
  939MPD2    C513786   1.528   3.281   0.490 -0.3843  0.1643 -0.9905
  939MPD2     H13787   1.633   3.648   0.533  0.1890 -0.3032  1.0598
  939MPD2    H113788   1.575   3.292   0.287  0.6037 -1.5935  0.1985
  939MPD2    H213789   1.486   3.270   0.697 -0.6770 -0.2767 -0.7407
  939MPD2    H313790   1.493   3.181   0.466 -0.6998 -0.0480  0.3718
  939MPD2     N13791   1.706   3.551   0.302 -0.3145 -0.2586  0.4179
  939MPD2    H513792   1.757   3.633   0.334  0.3902  0.1571 -1.7876
  939MPD2    N113793   1.560   3.531   0.764  0.3964  0.3319 -0.1461
  939MPD2    H713794   1.602   3.623   0.776  1.5143 -0.3703  1.2039
  940MPD2     C13795   1.058   4.518  13.789  0.2383  0.0713  0.8921
  940MPD2    C113796   0.959   4.448  13.715  0.0113 -0.7490 -0.1478
  940MPD2    C213797   0.968   4.421  13.576  0.2445 -0.5034  0.4022
  940MPD2    C313798   1.088   4.462  13.517  0.1237 -0.9893  0.8712
  940MPD2    C413799   1.179   4.541  13.582 -0.8375  0.0290  0.2369
  940MPD2    C513800   1.166   4.562  13.718 -0.2835  0.2704 -0.0118
  940MPD2     H13801   0.883   4.374  13.529 -0.0228  1.5577 -1.1864
  940MPD2    H113802   1.267   4.578  13.529 -0.3852  1.9943  2.3856
  940MPD2    H213803   1.050   4.547  13.892  0.7569  0.8275  0.7186
  940MPD2    H313804   1.242   4.624  13.765 -0.0278 -0.7198  0.8821
  940MPD2     N13805   1.119   4.431  13.385 -0.6359  0.2492 -0.3505
  940MPD2    H513806   1.207   4.463  13.345 -0.1680  1.3134  1.5182
  940MPD2    N113807   0.830   4.418  13.772  0.0628  1.1204 -0.4951
  940MPD2    H713808   0.768   4.364  13.713 -0.4309  0.6701  0.4305
  941MPD2     C13809   4.192   3.858   9.792  0.3677  0.1290  0.3091
  941MPD2    C113810   4.274   3.771   9.854  0.4401  0.5691 -0.3498
  941MPD2    C213811   4.225   3.658   9.919 -0.5760 -0.5112  0.0510
  941MPD2    C313812   4.087   3.639   9.919 -0.3291 -0.3100  0.0426
  941MPD2    C413813   4.004   3.727   9.861 -0.2880 -0.2183  0.2965
  941MPD2    C513814   4.056   3.837   9.795 -0.0498 -0.0077  0.0246
  941MPD2     H13815   4.287   3.595   9.983  0.7424  2.6146  1.9119
  941MPD2    H113816   3.896   3.720   9.859 -0.3118  0.4750 -1.4952
  941MPD2    H213817   4.213   3.959   9.758 -0.0133  0.4999  1.1585
  941MPD2    H313818   3.988   3.914   9.759 -1.2044 -0.8973  0.3114
  941MPD2     N13819   4.025   3.525   9.974  0.1988  0.3984 -0.5059
  941MPD2    H513820   3.923   3.524   9.977  0.2238  0.9444  0.9834
  941MPD2    N113821   4.412   3.799   9.855 -0.1342  0.4922  0.1992
  941MPD2    H713822   4.473   3.735   9.906  0.3192 -0.0227 -0.9921
  942MPD2     C13823   3.537   4.593   9.676  0.1146 -0.2762  0.0606
  942MPD2    C113824   3.601   4.715   9.691 -0.1949  0.5027  0.2943
  942MPD2    C213825   3.741   4.722   9.697  0.4208 -0.0998  0.2676
  942MPD2    C313826   3.823   4.609   9.669  0.8979 -0.5261 -0.0705
  942MPD2    C413827   3.751   4.490   9.661  0.5790  0.3273  0.2393
  942MPD2    C513828   3.614   4.483   9.669  0.1088  0.6214  0.3785
  942MPD2     H13829   3.787   0.081   9.697  0.7763 -0.2728 -0.4544
  942MPD2    H113830   3.809   4.401   9.639  0.8203  0.1920  1.4076
  942MPD2    H213831   3.433   4.578   9.651 -0.3323  1.2004  1.0466
  942MPD2    H313832   3.570   4.389   9.639 -0.8524  1.0217  0.5487
  942MPD2     N13833   3.965   4.617   9.667  0.3638  0.5659  0.1513
  942MPD2    H513834   4.013   4.528   9.656 -0.1252  0.4765 -1.1908
  942MPD2    N113835   3.536   0.104   9.696 -0.2141  0.7296 -0.2648
  942MPD2    H713836   3.598   0.184   9.707  1.0344 -0.2300 -0.3186
  943MPD2     C13837   3.414   3.770   9.968  0.0184  0.7936  0.2635
  943MPD2    C113838   3.451   3.781  10.104  0.8002  0.2681 -0.0119
  943MPD2    C213839   3.472   3.900  10.175  0.4118  0.7462 -0.6204
  943MPD2    C313840   3.451   4.011  10.091 -0.0413  0.8674 -0.1205
  943MPD2    C413841   3.413   4.006   9.959 -0.0150 -1.2999 -0.1841
  943MPD2    C513842   3.400   3.884   9.896 -0.1664  0.1331  0.6242
  943MPD2     H13843   3.494   3.917  10.280  1.2847  0.3305 -0.7439
  943MPD2    H113844   3.403   4.094   9.896  2.0989 -0.0450  1.2665
  943MPD2    H213845   3.401   3.676   9.915 -1.6601  0.7473  0.7492
  943MPD2    H313846   3.362   3.883   9.794  1.9089  0.0496 -0.1451
  943MPD2     N13847   3.457   4.145  10.152  0.2260  0.0911  0.3013
  943MPD2    H513848   3.469   4.142  10.253 -0.8246 -0.6714  0.4087
  943MPD2    N113849   3.460   3.657  10.165 -0.5832  0.2691 -0.5140
  943MPD2    H713850   3.445   3.576  10.107  0.5936 -0.4785  0.2186
  944MPD2     C13851   3.497   2.776  11.175 -0.3940  0.2650  0.0515
  944MPD2    C113852   3.363   2.812  11.167  0.3308  0.2924  0.3460
  944MPD2    C213853   3.311   2.884  11.277  0.1164 -0.0621  0.8078
  944MPD2    C313854   3.398   2.932  11.379 -0.7499 -0.0936  0.9686
  944MPD2    C413855   3.524   2.902  11.376  0.8810  0.3570 -0.6011
  944MPD2    C513856   3.578   2.823  11.277 -0.4828  0.6181 -0.2151
  944MPD2     H13857   3.209   2.920  11.272  0.4858  0.8614 -0.0683
  944MPD2    H113858   3.588   2.932  11.459 -0.7658 -2.5831  1.7365
  944MPD2    H213859   3.544   2.719  11.096 -0.7461 -1.4786  1.1037
  944MPD2    H313860   3.685   2.809  11.279 -0.7485 -1.5864 -1.2638
  944MPD2     N13861   3.333   3.025  11.465  0.3386 -0.0571  0.3310
  944MPD2    H513862   3.232   3.040  11.465  0.5073  1.0975  0.1138
  944MPD2    N113863   3.288   2.764  11.056  0.4590 -0.0641 -0.4342
  944MPD2    H713864   3.344   2.718  10.984  0.1249 -0.0309 -0.7159
    1TMC1    C113865   1.160   4.086  14.775  0.0114  0.5593  0.1434
    1TMC1    C213866   1.188   3.957  14.815 -0.6174  0.6960  0.3747
    1TMC1    C313867   1.310   3.924  14.860  0.3491  0.2075  0.3876
    1TMC1    C413868   1.256   4.181  14.769  0.0263  0.0323  0.4327
    1TMC1    C513869   1.383   4.148  14.814 -0.1560  0.1185  0.4653
    1TMC1    C613870   1.408   4.021  14.860  0.1677  0.1562 -0.0655
    1TMC1     C13871   1.028   4.119  14.735  0.2541  0.1258 -0.2026
    1TMC1     O13872   0.928   4.051  14.771  0.1689 -0.7194 -0.0267
    1TMC1     H13873   1.108   3.884  14.814 -1.8208  2.0230 -3.7614
    1TMC1    H113874   1.217   4.282  14.759  0.5847  0.0530 -1.4643
    1TMC1    H213875   1.514   4.001  14.876  0.8803  2.1529 -2.2182
    1TMC1    C713876   1.488   4.247  14.800 -0.1876  0.3948 -0.2975
    1TMC1    C813877   1.324   3.800  14.913  0.2939 -0.3739 -0.6861
    1TMC1    O113878   1.595   4.243  14.857  0.2845 -0.3059 -0.5014
    1TMC1    O213879   1.278   3.695  14.872  0.3281  0.1846 -0.5456
    1TMC1    O313880   1.465   4.306  14.683 -0.1821  0.0132 -0.1369
    1TMC1    H313881   1.386   4.274  14.635 -0.7212  0.4626  0.4517
    1TMC1    O513882   1.369   3.815  15.035  0.7151 -0.0551  0.0704
    1TMC1    H513883   1.402   3.900  15.071  1.7157 -0.3324 -0.1928
    2MPD2     C13884   0.748   4.355  14.362 -1.0416  0.0916 -0.6066
    2MPD2    C113885   0.870   4.421  14.380 -0.3111 -0.7376  0.0551
    2MPD2    C213886   0.962   4.376  14.477  0.0626  0.2026  0.4058
    2MPD2    C313887   0.925   4.277  14.562 -0.2877 -0.5186 -0.0223
    2MPD2    C413888   0.794   4.230  14.557 -0.6523  0.0871 -0.3211
    2MPD2    C513889   0.710   4.271  14.460 -0.2304  0.7470 -0.0866
    2MPD2     H13890   1.067   4.403  14.485  0.8943 -3.1692  0.8905
    2MPD2    H113891   0.766   4.153  14.628 -0.5704 -0.7620 -1.2106
    2MPD2    H213892   0.680   4.377  14.280 -0.6545  1.9040 -0.4264
    2MPD2    H313893   0.612   4.225  14.452 -0.6209  1.5659  0.0074
    2MPD2     N13894   1.028   4.226  14.641 -0.3466 -0.2605 -0.0937
    2MPD2    H513895   1.119   4.267  14.626  0.6650 -1.9763  1.2751
    2MPD2    N113896   0.887   4.533  14.298 -0.3699  0.4593 -0.4397
    2MPD2    H713897   0.815   4.555  14.230 -0.8844  0.0029 -0.0410
    3TMC2    C113898   0.988   4.706  14.170 -0.5888  0.0916 -0.0595
    3TMC2    C213899   0.875   0.044  14.163  0.8543  0.4589 -0.1379
    3TMC2    C313900   0.878   0.154  14.086 -0.4834  0.3561 -0.2249
    3TMC2    C413901   1.107   0.003  14.113  0.1797  0.6002 -0.1610
    3TMC2    C513902   1.105   0.116  14.037  0.2767 -0.1195 -0.1976
    3TMC2    C613903   0.990   0.197  14.022 -0.0782  0.2828  0.3795
    3TMC2     C13904   1.000   4.605  14.276  0.3951  0.0858  0.1264
    3TMC2     O13905   1.110   4.581  14.324 -0.0654  0.0964  0.2742
    3TMC2     H13906   0.780   0.021  14.211  0.2727  1.2986 -0.8838
    3TMC2    H113907   1.195   4.682  14.133  0.3514  1.3595  1.3771
    3TMC2    H213908   0.995   0.293  13.971  0.7645  0.2672  0.4185
    3TMC2    C713909   1.227   0.149  13.962 -0.2354 -0.4776 -0.2325
    3TMC2    C813910   0.759   0.248  14.101 -0.2612 -0.2744 -0.2209
    3TMC2    O113911   1.333   0.121  14.014  0.4760  0.0373  0.6542
    3TMC2    O213912   0.680   0.239  14.193  0.5691  0.1207  0.7127
    3TMC2    O513913   0.759   0.330  13.998  0.1889  0.2237  0.7283
    3TMC2    H513914   0.791   0.299  13.911  1.8602 -0.4088  1.5734
    4TMC2    C113915   0.960   0.256  13.027 -0.4752  0.3053 -0.2256
    4TMC2    C213916   1.063   0.215  12.944  0.5365  0.0130  0.5668
    4TMC2    C313917   1.189   0.215  13.002 -0.2910  0.8129  0.4742
    4TMC2    C413918   0.991   0.300  13.156  0.0696  0.4574 -0.0114
    4TMC2    C513919   1.121   0.306  13.196  0.1414  0.3684 -0.4331
    4TMC2    C613920   1.227   0.266  13.123 -0.9541 -0.6936  0.4646
    4TMC2     C13921   0.833   0.257  12.965  0.5351  1.0337 -0.2956
    4TMC2     O13922   0.830   0.270  12.842  0.7743 -0.2616 -0.2614
    4TMC2     H13923   1.049   0.187  12.840 -1.4373 -0.1066  0.8757
    4TMC2    H113924   0.915   0.346  13.219 -0.5528  2.4479 -2.2270
    4TMC2    H213925   1.330   0.253  13.154 -0.5160 -0.4317 -0.8854
    4TMC2    C713926   1.133   0.306  13.342  0.2530  0.4187  0.0950
    4TMC2    C813927   1.294   0.163  12.916 -0.1696  0.3031 -0.1242
    4TMC2    O113928   1.029   0.279  13.405 -0.3150 -0.2058  0.6603
    4TMC2    O213929   1.267   0.146  12.797 -0.1147 -0.2963  0.3380
    4TMC2    O513930   1.347   0.059  12.984 -0.4025 -0.0771 -0.1544
    4TMC2    H513931   1.383   0.088  13.070  0.2862  0.9809 -0.8176
    5MPD2     C13932   0.315   0.146  12.958  0.0731  0.9525 -0.0781
    5MPD2    C113933   0.403   0.177  12.859  0.0606 -0.2290  0.4402
    5MPD2    C213934   0.540   0.212  12.889 -0.0740  0.1633  0.4052
    5MPD2    C313935   0.591   0.206  13.016  0.6668  0.2217 -0.5656
    5MPD2    C413936   0.492   0.175  13.120  0.9500 -1.1488 -0.6388
    5MPD2    C513937   0.355   0.154  13.089 -0.2926  0.2807  1.5259
    5MPD2     H13938   0.607   0.238  12.808 -0.8514 -0.7947 -0.5454
    5MPD2    H113939   0.523   0.178  13.224 -4.2329  0.7323  0.8399
    5MPD2    H213940   0.210   0.124  12.941  0.0154  2.2151 -1.3938
    5MPD2    H313941   0.281   0.147  13.168  0.4767 -2.1719  2.0441
    5MPD2     N13942   0.727   0.230  13.054  0.4267  0.2714 -0.2703
    5MPD2    H513943   0.745   0.219  13.153  0.1665 -0.7506 -0.3384
    5MPD2    N113944   0.352   0.185  12.729 -0.5957  0.7854 -0.0826
    5MPD2    H713945   0.255   0.161  12.715 -0.4362  1.7788 -2.7979
    6MPD1     C13946   0.525   1.991  12.035  0.4364  0.2794 -0.7251
    6MPD1    C113947   0.407   1.946  12.095  0.6411  0.4719 -0.5421
    6MPD1    C213948   0.412   1.814  12.150 -0.3946  0.2280 -0.1934
    6MPD1    C313949   0.516   1.731  12.134  0.4212  0.3720  0.0310
    6MPD1    C413950   0.622   1.773  12.055  0.5560  0.1717  0.7756
    6MPD1    C513951   0.630   1.905  12.024  0.3035  0.0789  0.2486
    6MPD1     H13952   0.320   1.782  12.198  0.0105  2.0682  1.8195
    6MPD1    H113953   0.708   1.708  12.045 -0.4168 -0.8901 -0.9248
    6MPD1    H213954   0.543   2.093  12.005  1.7869  0.0928 -0.5267
    6MPD1    H313955   0.726   1.938  11.985 -0.3485  2.0791  0.3415
    6MPD1     N13956   0.512   1.600  12.178  0.5166  0.2983 -0.0140
    6MPD1    H513957   0.586   1.539  12.144  1.2090  1.5852 -0.7815
    6MPD1    N113958   0.304   2.038  12.120 -0.5532 -0.3623  0.5626
    6MPD1    H613959   0.218   1.985  12.132 -1.5787  1.2369  0.1947
    6MPD1    H713960   0.287   2.087  12.032  0.6051 -0.5615  0.2277
    7MPD2     C13961   0.160   0.957  12.711  0.1856 -0.3034  0.1870
    7MPD2    C113962   0.193   0.936  12.580  0.2459 -0.1018  0.0243
    7MPD2    C213963   0.179   0.810  12.536 -0.2447  0.3821 -0.1225
    7MPD2    C313964   0.145   0.701  12.610  0.1471  1.1347  0.6298
    7MPD2    C413965   0.123   0.728  12.740  0.8079  0.2081  0.0401
    7MPD2    C513966   0.118   0.856  12.789  0.7588 -0.8705  0.1912
    7MPD2     H13967   0.187   0.802  12.428  1.2946 -2.6452  0.2218
    7MPD2    H113968   0.093   0.652  12.811 -1.2875  0.9544 -0.0562
    7MPD2    H213969   0.184   1.052  12.757 -4.4740  2.0226 -2.1502
    7MPD2    H313970   0.107   0.863  12.897  0.0972 -1.8821  0.1808
    7MPD2     N13971   0.135   0.564  12.565  0.4362 -0.0689  0.4425
    7MPD2    H513972   0.101   0.498  12.635 -0.3909 -0.5761 -0.4402
    7MPD2    N113973   0.246   1.032  12.495  0.4310  1.1780  0.7105
    7MPD2    H713974   0.249   1.006  12.397 -0.1686  1.6637  0.5631
    8TMC3    C113975   0.186   0.380  12.421  0.6034 -0.2917  0.2878
    8TMC3    C213976   0.236   0.305  12.523  0.3702 -0.2384 -0.5600
    8TMC3    C313977   0.341   0.222  12.500 -0.2571 -0.6542  0.5208
    8TMC3    C413978   0.248   0.362  12.295  0.2498 -0.2420 -0.6638
    8TMC3    C513979   0.362   0.289  12.278  0.6005  1.0205  0.2310
    8TMC3    C613980   0.401   0.211  12.379  0.0949  0.6841 -0.3323
    8TMC3     C13981   0.171   0.523  12.438 -0.0678  0.1991  0.2256
    8TMC3     O13982   0.216   0.596  12.348 -0.0947 -0.4993 -0.1942
    8TMC3     H13983   0.208   0.311  12.627  1.4409 -0.9481 -0.2365
    8TMC3    H113984   0.210   0.418  12.210 -1.7361 -1.1959 -0.3780
    8TMC3    H213985   0.487   0.147  12.365  0.7124  1.6167 -0.7879
    8TMC3    C713986   0.460   0.362  12.194 -0.1852 -0.1033 -0.0514
    8TMC3    C813987   0.424   0.212  12.615 -0.2427 -0.5597 -0.2629
    8TMC3    O113988   0.562   0.302  12.173 -0.1673  0.0035  0.4786
    8TMC3    O213989   0.545   0.222  12.599 -0.0417 -0.2324  0.0034
    9TMC3    C113990   0.414   1.402  12.279  0.1895 -0.4183  0.0499
    9TMC3    C213991   0.476   1.320  12.190 -0.3195  0.0816 -0.0194
    9TMC3    C313992   0.478   1.184  12.216 -0.0277  0.3548  0.0232
    9TMC3    C413993   0.354   1.354  12.394 -0.5609 -0.1111 -0.0358
    9TMC3    C513994   0.359   1.218  12.415  0.6789  0.4208  0.7310
    9TMC3    C613995   0.434   1.130  12.332  1.1510  0.3272 -0.2450
    9TMC3     C13996   0.413   1.549  12.259 -0.1916  0.4103 -0.0660
    9TMC3     O13997   0.324   1.606  12.325 -0.4109  0.0694 -0.0926
    9TMC3     H13998   0.504   1.361  12.094  2.0840 -2.0738 -0.2247
    9TMC3    H113999   0.304   1.417  12.467 -1.0509  0.7798 -1.1473
    9TMC3    H214000   0.463   1.027  12.345 -2.5229 -0.8360 -1.5967
    9TMC3    C714001   0.280   1.159  12.524 -0.1960 -0.3898 -0.1687
    9TMC3    C814002   0.546   1.089  12.118  0.1521  0.2186 -0.2155
    9TMC3    O114003   0.261   1.231  12.621 -0.1221  0.7962  0.7952
    9TMC3    O214004   0.647   1.123  12.058  0.3836  0.0303 -0.1026
   10MPD2     C14005   0.626   0.580  12.068  0.4548 -0.6729 -0.0424
   10MPD2    C114006   0.515   0.601  12.144  0.0838 -1.0699 -0.6158
   10MPD2    C214007   0.467   0.733  12.160 -0.0598  0.3351 -0.3885
   10MPD2    C314008   0.537   0.839  12.101  0.0352 -0.0839 -0.2658
   10MPD2    C414009   0.645   0.820  12.018 -0.2266 -1.0515 -0.9567
   10MPD2    C514010   0.690   0.686  12.010  0.1015 -0.1920  0.3022
   10MPD2     H14011   0.378   0.749  12.221  0.5734 -0.5747  0.7671
   10MPD2    H114012   0.703   0.896  11.967  0.1158 -0.1930  0.7030
   10MPD2    H214013   0.661   0.480  12.046 -0.5121 -1.2165  0.8552
   10MPD2    H314014   0.773   0.652  11.949  0.2146  1.1497 -0.2698
   10MPD2     N14015   0.487   0.968  12.135  0.0367  0.4163  0.4738
   10MPD2    H514016   0.406   0.968  12.197 -0.3653 -2.7008 -0.0562
   10MPD2    N114017   0.426   0.497  12.185 -0.4003  0.0386 -0.0551
   10MPD2    H714018   0.341   0.525  12.233  1.0911  1.4432  1.7525
   11MPD2     C14019   1.415   0.240  13.768 -0.4117  0.4749  0.2783
   11MPD2    C114020   1.281   0.233  13.744  0.8463 -0.0584  0.1001
   11MPD2    C214021   1.227   0.263  13.622 -0.1969  0.5422 -0.0147
   11MPD2    C314022   1.311   0.308  13.512  0.3450  0.1171  0.8217
   11MPD2    C414023   1.443   0.317  13.546  0.7436 -0.7090 -0.0343
   11MPD2    C514024   1.491   0.297  13.670  0.2563 -0.0033  0.7088
   11MPD2     H14025   1.119   0.263  13.615 -0.1030 -0.2563 -1.4124
   11MPD2    H114026   1.512   0.359  13.474  0.4478  0.1854  0.2080
   11MPD2    H214027   1.467   0.214  13.859 -0.8855 -0.3549  0.3054
   11MPD2    H314028   1.595   0.319  13.691 -0.3579  0.0703  3.7264
   11MPD2     N14029   1.266   0.326  13.382 -0.3525 -0.4624  1.3366
   11MPD2    H514030   1.339   0.358  13.318  0.7809 -1.8668  1.9220
   11MPD2    N114031   1.192   0.200  13.840 -0.3470  0.1454 -0.1781
   11MPD2    H714032   1.093   0.204  13.819 -0.9874 -0.4198  2.7580
    1MPD1     C14033   4.010   2.678  16.106  0.5512 -0.2488  0.3163
    1MPD1    C114034   4.062   2.551  16.084  0.6473 -0.1344  0.5210
    1MPD1    C214035   4.010   2.444  16.158  0.4114  0.1155  0.4199
    1MPD1    C314036   3.931   2.472  16.267 -0.2552  0.3071  0.2732
    1MPD1    C414037   3.900   2.597  16.302  0.0778 -0.8970 -0.3857
    1MPD1    C514038   3.940   2.704  16.218 -0.3984  0.1594 -0.5487
    1MPD1     H14039   4.058   2.349  16.141 -3.5195 -0.9951 -4.5746
    1MPD1    H114040   3.828   2.618  16.381 -1.4894 -0.0017 -2.0507
    1MPD1    H214041   4.036   2.765  16.046 -0.7507  0.6196  1.0240
    1MPD1    H314042   3.913   2.809  16.219 -0.6984  0.0732  1.2718
    1MPD1     N14043   3.869   2.369  16.346  0.7683 -0.2375  0.4931
    1MPD1    H514044   3.818   2.399  16.428 -0.0201  0.4786 -0.2647
    1MPD1    N114045   4.146   2.526  15.976  0.4205 -0.0472 -0.6131
    1MPD1    H614046   4.211   2.451  15.995 -0.8531 -0.2982  2.7375
    1MPD1    H714047   4.210   2.603  15.959  1.6323 -1.3311 -1.8449
    2MPD1     C14048   3.383   1.588  15.924 -0.1296 -0.1121  0.3610
    2MPD1    C114049   3.492   1.671  15.888 -0.3460  0.0707 -1.0367
    2MPD1    C214050   3.536   1.767  15.977  0.2020 -0.6585  0.7976
    2MPD1    C314051   3.495   1.768  16.112 -0.7830 -0.1739  0.3384
    2MPD1    C414052   3.392   1.688  16.147 -0.1557  0.1687  0.7773
    2MPD1    C514053   3.330   1.609  16.053 -0.0233  0.2074 -0.2700
    2MPD1     H14054   3.609   1.838  15.939 -0.9330 -0.7217 -1.5190
    2MPD1    H114055   3.350   1.689  16.247  3.3123  0.0957  2.2406
    2MPD1    H214056   3.330   1.531  15.849  0.2480  1.1774 -0.9050
    2MPD1    H314057   3.237   1.559  16.080  0.5988 -0.5488  0.4650
    2MPD1     N14058   3.554   1.859  16.203 -0.1247 -0.0628 -0.7673
    2MPD1    H514059   3.595   1.942  16.162  1.0351 -0.5880 -0.6553
    2MPD1    N114060   3.538   1.669  15.756 -0.0427 -0.2652 -0.1544
    2MPD1    H614061   3.636   1.696  15.750  0.2345 -1.2929 -0.3330
    2MPD1    H714062   3.529   1.580  15.707 -0.3623 -0.2482 -0.1256
    3TMC3    C114063   3.602   1.990  16.400  0.0060 -0.4786 -0.2494
    3TMC3    C214064   3.572   2.034  16.528  0.2516  0.1216 -0.4032
    3TMC3    C314065   3.656   2.127  16.586  0.0875 -0.3284 -0.8659
    3TMC3    C414066   3.703   2.048  16.332  0.4354 -0.0465 -0.3392
    3TMC3    C514067   3.769   2.154  16.391 -0.0632  0.1028 -0.0824
    3TMC3    C614068   3.755   2.193  16.522 -0.0104  0.4930  0.7210
    3TMC3     C14069   3.529   1.879  16.336 -0.6238 -0.0506 -0.4614
    3TMC3     O14070   3.472   1.807  16.412  0.5884  0.3533  0.0306
    3TMC3     H14071   3.495   1.984  16.586  0.6098  0.4998  0.3963
    3TMC3    H114072   3.725   2.028  16.228 -2.2821  1.7677 -1.2578
    3TMC3    H214073   3.833   2.259  16.558  1.6641 -1.6310  0.9991
    3TMC3    C714074   3.853   2.237  16.302 -0.2586  0.1214 -0.7884
    3TMC3    C814075   3.647   2.133  16.736  0.0845 -0.3659  0.5266
    3TMC3    O114076   3.892   2.199  16.192 -0.0579 -0.4807 -0.3598
    3TMC3    O214077   3.585   2.037  16.793  0.1630  0.2827 -0.3441
    4MPD1     C14078   3.932   2.283  17.130 -0.0023  0.0254  0.1782
    4MPD1    C114079   3.923   2.389  17.044 -0.1329  0.2940  0.2582
    4MPD1    C214080   3.851   2.362  16.930  0.3342 -0.5150  0.2621
    4MPD1    C314081   3.778   2.252  16.913 -0.2180  0.7277  0.2596
    4MPD1    C414082   3.788   2.150  17.003 -0.6555  0.5081 -0.3216
    4MPD1    C514083   3.869   2.168  17.111  0.3679 -0.7578  0.0996
    4MPD1     H14084   3.845   2.439  16.854 -1.4339  0.8946  1.8134
    4MPD1    H114085   3.721   2.064  17.003  0.5959 -0.4637  0.8829
    4MPD1    H214086   3.991   2.281  17.221  0.9695 -1.8027 -0.4866
    4MPD1    H314087   3.879   2.096  17.190  0.9393 -0.9333 -0.1374
    4MPD1     N14088   3.712   2.239  16.788  0.1360  0.0496 -0.3665
    4MPD1    H514089   3.730   2.313  16.720  0.0930  1.7869  1.5340
    4MPD1    N114090   4.001   2.496  17.066 -0.4592 -0.1955  0.5552
    4MPD1    H614091   3.974   2.584  17.023 -0.2795 -0.3769  0.0617
    4MPD1    H714092   3.998   2.518  17.165 -1.2461  1.8904  0.0522
    1TCq1    O114093   0.305   1.278  11.839 -0.6146 -0.2326 -0.1707
    1TCq1    C114094   0.240   1.191  11.918 -0.3394 -0.1722  0.1983
    1TCq1    O214095   0.225   1.206  12.039  0.1272  0.2476  0.6023
    1TCq1    C214096   0.268   1.058  11.853  0.0675 -0.3747 -0.4279
    1TCq1    C314097   0.387   1.045  11.782  0.2791  0.6569  0.1237
    1TCq1    C414098   0.422   0.925  11.732  0.0044  0.7652  0.2180
    1TCq1    C514099   0.348   0.814  11.767 -0.0534 -0.1779  0.0311
    1TCq1    C614100   0.228   0.830  11.840 -0.3337  0.9919 -0.0446
    1TCq1    C714101   0.184   0.951  11.878  0.4424  0.2492 -0.4157
    1TCq1    C814102   0.171   0.719  11.918 -0.4105 -0.1536 -0.0310
    1TCq1    O414103   0.069   0.745  11.981  0.0176  0.4791 -0.0325
    1TCq1    C914104   0.558   0.894  11.696 -0.6790  0.3634 -0.4958
    1TCq1    O514105   0.566   0.772  11.662 -0.1625 -0.7481  0.5022
    1TCq1    O614106   0.644   0.984  11.699  0.1385 -0.1269 -0.1876
    1TCq1    H114107   0.271   1.254  11.750  0.5052 -1.1047 -0.3574
    1TCq1    H214108   0.475   1.107  11.799  0.4648 -0.0982  1.9221
    1TCq1    H314109   0.377   0.718  11.728  0.2944 -0.6311  1.4238
    1TCq1    H414110   0.102   0.967  11.948  1.7988  1.3215  0.9251
    2MPD1     C14111   0.117   0.214  11.959 -0.7311  0.5510  0.4112
    2MPD1    C114112   0.244   0.238  11.917  0.9791  0.2483 -0.3406
    2MPD1    C214113   0.283   0.370  11.904  0.3240  0.6830 -0.1333
    2MPD1    C314114   0.195   0.472  11.934  0.0021  0.5119  0.6090
    2MPD1    C414115   0.062   0.446  11.958 -0.3657  0.1083 -0.1620
    2MPD1    C514116   0.027   0.316  11.977 -0.9073  0.1172 -0.2601
    2MPD1     H14117   0.385   0.402  11.886  0.0235  1.8608  0.2380
    2MPD1    H114118   4.726   0.522  11.972  0.4130  1.0577 -1.1930
    2MPD1    H214119   0.085   0.111  11.969  0.2379  0.2173 -0.0213
    2MPD1    H314120   4.664   0.293  12.002 -0.7797 -1.1073 -0.8263
    2MPD1     N14121   0.247   0.604  11.919 -0.3808  0.2882  0.1157
    2MPD1    H514122   0.337   0.617  11.874  1.5084 -1.6007  3.3908
    2MPD1    N114123   0.338   0.134  11.917  0.0728  0.0288 -0.1873
    2MPD1    H614124   0.298   0.044  11.890  3.8727 -1.5141 -0.7255
    2MPD1    H714125   0.407   0.156  11.846  0.4603  0.6505  0.3785
    1TMC1    C114126   3.120   1.570   0.443 -0.4330  0.7831 -0.2440
    1TMC1    C214127   3.133   1.486   0.554 -0.1200 -0.0008  0.0297
    1TMC1    C314128   3.027   1.492   0.647 -0.1331  0.4324  0.0968
    1TMC1    C414129   3.015   1.652   0.423  0.5116  0.2240  0.2200
    1TMC1    C514130   2.917   1.658   0.518  0.2758 -0.6440  0.3225
    1TMC1    C614131   2.921   1.575   0.628  0.0351 -0.0817  0.4779
    1TMC1     C14132   3.229   1.568   0.344 -0.5016  0.4762 -0.3971
    1TMC1     O14133   3.303   1.474   0.350 -0.1000 -0.0078 -0.1961
    1TMC1     H14134   3.209   1.409   0.555 -0.9435 -0.8235  0.1026
    1TMC1    H114135   3.013   1.731   0.348  0.0956 -2.3336 -2.4811
    1TMC1    H214136   2.849   1.591   0.707  1.6226  2.0176  1.4901
    1TMC1    C714137   2.822   1.765   0.510  1.0971  0.0575  0.4813
    1TMC1    C814138   3.043   1.456   0.784 -0.3339 -0.0718 -0.7665
    1TMC1    O114139   2.805   1.825   0.407 -0.0093 -0.5640 -1.0373
    1TMC1    O214140   2.951   1.415   0.851  0.1949  0.3075 -0.1971
    1TMC1    O314141   2.804   1.825   0.631 -0.4801 -0.0713  0.3885
    1TMC1    H314142   2.843   1.773   0.704  0.1196 -0.6251 -0.3218
    1TMC1    O514143   3.168   1.419   0.790 -0.4272  0.1670 -0.3753
    1TMC1    H514144   3.225   1.482   0.742  1.3071 -0.5951  0.6677
    2MPD1     C14145   3.488   1.738  17.696  0.3657  0.0787  0.8601
    2MPD1    C114146   3.410   1.840  17.739 -0.0341 -0.2822  0.2796
    2MPD1    C214147   3.338   1.816   0.100  0.1553  0.1438 -0.8721
    2MPD1    C314148   3.329   1.690   0.151 -0.0423  0.4931  0.5406
    2MPD1    C414149   3.389   1.580   0.094 -0.1112  0.0234 -0.2196
    2MPD1    C514150   3.476   1.617  17.754 -0.1072 -0.2205  0.9816
    2MPD1     H14151   3.296   1.900   0.155 -2.4884 -1.8370  0.1455
    2MPD1    H114152   3.355   1.480   0.118  0.7412 -0.4151 -0.8525
    2MPD1    H214153   3.551   1.742  17.608 -1.2196 -4.4337 -0.5055
    2MPD1    H314154   3.542   1.540  17.715  0.1718  0.7339 -0.4448
    2MPD1     N14155   3.242   1.681   0.260  0.0929  1.1684  0.6869
    2MPD1    H514156   3.191   1.766   0.282 -2.1220 -0.0934  0.3961
    2MPD1    N114157   3.428   1.967  17.675 -0.7529 -0.0392  0.7499
    2MPD1    H614158   3.460   1.962  17.578 -0.5158 -2.4391  0.9414
    2MPD1    H714159   3.343   2.022  17.688 -0.9887  0.0230 -0.9788
    1MPD1     C14160   2.161   0.543  12.142 -0.3830 -0.7786 -0.2543
    1MPD1    C114161   2.235   0.599  12.041  0.7409 -0.3646 -0.8058
    1MPD1    C214162   2.195   0.716  11.986  0.0339 -0.4117 -0.2918
    1MPD1    C314163   2.074   0.776  12.020  0.1737  0.2456 -0.1822
    1MPD1    C414164   2.005   0.725  12.123  0.2638 -0.0196  0.2066
    1MPD1    C514165   2.049   0.607  12.182  0.5913 -0.8978  0.0554
    1MPD1     H14166   2.253   0.752  11.902  0.6117  1.1375  0.7671
    1MPD1    H114167   1.933   0.777  12.185 -0.0918  1.2772 -1.2976
    1MPD1    H214168   2.183   0.455  12.202  0.8551  0.0828  0.5355
    1MPD1    H314169   1.992   0.558  12.260 -0.7535  1.0018  0.2700
    1MPD1     N14170   2.040   0.893  11.950  0.5680  0.2344  0.0707
    1MPD1    H514171   2.113   0.924  11.887  1.5519  1.0306  1.6210
    1MPD1    N114172   2.336   0.518  11.986  0.0106  0.5666 -0.6098
    1MPD1    H614173   2.343   0.523  11.885 -0.0152 -0.7539 -0.6763
    1MPD1    H714174   2.308   0.426  12.018 -1.0685  0.9742 -0.3914
    2MPD1     C14175   1.240   0.548  11.290  0.1370  0.5346  0.2367
    2MPD1    C114176   1.356   0.625  11.285  0.5445 -0.5157  0.3768
    2MPD1    C214177   1.415   0.638  11.161 -0.3082  0.3464  0.4770
    2MPD1    C314178   1.367   0.578  11.041  0.3915  0.7865  0.9770
    2MPD1    C414179   1.261   0.494  11.058 -0.2070 -0.7177 -0.3853
    2MPD1    C514180   1.192   0.487  11.174  0.3882 -0.8166  0.3645
    2MPD1     H14181   1.499   0.706  11.150  0.4158 -1.0048 -2.3508
    2MPD1    H114182   1.215   0.437  10.978  0.7336  0.6392 -1.8990
    2MPD1    H214183   1.179   0.540  11.379  2.3083 -0.6025  1.6372
    2MPD1    H314184   1.108   0.420  11.189 -0.4596  0.1395 -0.1122
    2MPD1     N14185   1.421   0.597  10.909  0.1843 -0.5149  0.5000
    2MPD1    H514186   1.359   0.554  10.842  0.9142  0.6946 -0.9295
    2MPD1    N114187   1.402   0.707  11.387 -0.2783 -0.2113 -0.5790
    2MPD1    H614188   1.380   0.672  11.480 -0.0463  0.0232 -0.4372
    2MPD1    H714189   1.502   0.721  11.378 -0.1265 -0.5123  0.7016
    3MPD1     C14190   1.179   0.232  10.161  0.3749 -0.2076  0.1307
    3MPD1    C114191   1.108   0.281  10.274  0.5399 -0.2533 -0.0268
    3MPD1    C214192   1.178   0.363  10.368 -0.0834 -0.6462 -0.1066
    3MPD1    C314193   1.304   0.410  10.341 -0.0451 -0.1824 -0.2753
    3MPD1    C414194   1.362   0.374  10.217 -0.1007 -0.1408  0.5570
    3MPD1    C514195   1.301   0.286  10.135  0.0195  0.0549  0.5385
    3MPD1     H14196   1.133   0.383  10.464  2.7549  5.2966  0.0188
    3MPD1    H114197   1.467   0.395  10.202  0.4069 -2.5029  0.6985
    3MPD1    H214198   1.148   0.147  10.101  1.7010  0.1319 -1.0500
    3MPD1    H314199   1.362   0.246  10.055 -0.6989  1.1565 -0.5703
    3MPD1     N14200   1.365   0.491  10.437  0.0630 -0.4231 -0.7187
    3MPD1    H514201   1.322   0.504  10.528  0.8934 -0.4791 -0.3184
    3MPD1    N114202   0.990   0.215  10.307 -0.5417 -0.6103 -0.4802
    3MPD1    H614203   0.923   0.202  10.232 -0.9798 -0.3808 -0.1303
    3MPD1    H714204   0.933   0.260  10.379  1.5280 -1.8151  1.9313
    4MPD2     C14205   1.680   1.630  11.748 -0.5061  0.1503 -0.2657
    4MPD2    C114206   1.815   1.597  11.724 -0.4472 -0.3140 -0.5947
    4MPD2    C214207   1.882   1.636  11.612 -0.3450 -0.6185  0.6453
    4MPD2    C314208   1.817   1.720  11.523 -0.7108  0.1094 -0.7155
    4MPD2    C414209   1.689   1.765  11.554 -0.1330  0.0431 -0.1070
    4MPD2    C514210   1.624   1.715  11.659 -0.5823  0.2929 -0.4806
    4MPD2     H14211   1.977   1.586  11.595  0.4119 -0.0357  3.0408
    4MPD2    H114212   1.631   1.829  11.488 -1.6853 -0.3866  0.8243
    4MPD2    H214213   1.630   1.601  11.839  0.3157 -3.6516 -1.0189
    4MPD2    H314214   1.519   1.743  11.668 -0.4318  0.4987  0.6599
    4MPD2     N14215   1.889   1.756  11.403 -0.3071 -0.2159 -0.0531
    4MPD2    H514216   1.987   1.731  11.399  0.0505  1.4316 -1.3716
    4MPD2    N114217   1.868   1.494  11.799 -0.1194  0.2263  0.5800
    4MPD2    H714218   1.957   1.464  11.762  0.3764  1.6904  0.6157
    5TMC3    C114219   1.901   1.313  11.946  0.0841 -0.7637 -0.0192
    5TMC3    C214220   1.845   1.186  11.963  0.0918 -0.0967  0.0977
    5TMC3    C314221   1.920   1.091  11.904  0.6072 -0.0415 -0.7281
    5TMC3    C414222   2.025   1.336  11.883 -0.2356 -0.4737 -0.4458
    5TMC3    C514223   2.083   1.238  11.812  0.5108 -0.1216  0.7243
    5TMC3    C614224   2.029   1.113  11.812  0.2833 -0.2377  0.1703
    5TMC3     C14225   1.811   1.422  11.906  0.0240 -0.3885 -0.8424
    5TMC3     O14226   1.698   1.423  11.952 -0.2196  0.4376  0.0603
    5TMC3     H14227   1.760   1.168  12.028 -1.1981 -0.7496 -1.7707
    5TMC3    H114228   2.067   1.436  11.879 -0.4841 -0.4174 -1.7665
    5TMC3    H214229   2.075   1.027  11.765 -0.5170 -0.2373 -0.6072
    5TMC3    C714230   2.134   1.291  11.685  1.1420  0.0292 -0.3841
    5TMC3    C814231   1.914   0.960  11.965  0.3056  0.0993 -0.3104
    5TMC3    O114232   2.097   1.399  11.645 -0.6265  0.3303 -0.6354
    5TMC3    O214233   1.805   0.941  12.017  0.2428 -0.0607  0.0865
    6TMC3    C114234   1.535   0.718  10.734 -0.1589 -0.1516 -0.6812
    6TMC3    C214235   1.501   0.625  10.640  0.1088  0.3843 -0.1894
    6TMC3    C314236   1.509   0.666  10.506 -1.0203 -0.5035 -0.2625
    6TMC3    C414237   1.575   0.842  10.705  0.5783  0.1040 -0.5841
    6TMC3    C514238   1.585   0.874  10.569  0.0149  0.3831 -0.3167
    6TMC3    C614239   1.544   0.793  10.466  0.1419  0.5409  0.5973
    6TMC3     C14240   1.518   0.684  10.880 -0.5362 -0.7491 -0.9866
    6TMC3     O14241   1.572   0.768  10.950  0.0171  0.7602 -0.7479
    6TMC3     H14242   1.459   0.530  10.670  1.0915 -0.1867 -0.5800
    6TMC3    H114243   1.604   0.910  10.784 -1.6317 -0.5088  0.7473
    6TMC3    H214244   1.560   0.819  10.362 -0.7237  0.9596  0.5670
    6TMC3    C714245   1.626   1.011  10.526 -0.0121 -0.9650 -1.0576
    6TMC3    C814246   1.466   0.577  10.404  0.0778  0.0639 -0.2263
    6TMC3    O114247   1.571   1.052  10.430 -0.7071 -0.3506  0.2567
    6TMC3    O214248   1.489   0.613  10.291  0.3573  0.1554  0.0067
    7MPD2     C14249   2.317   1.242  11.207 -0.2565  0.1338  0.2351
    7MPD2    C114250   2.233   1.329  11.261 -0.1586 -0.0963  0.3232
    7MPD2    C214251   2.181   1.312  11.388 -0.5807  0.4768  0.4783
    7MPD2    C314252   2.224   1.205  11.470 -0.3081 -0.6539 -0.4399
    7MPD2    C414253   2.297   1.104  11.404  0.0484  0.4916  0.0099
    7MPD2    C514254   2.347   1.125  11.281  0.0854 -0.3560 -0.0890
    7MPD2     H14255   2.108   1.380  11.430 -1.8130 -1.0600  0.8298
    7MPD2    H114256   2.341   1.021  11.457 -0.0624 -1.3301 -2.7264
    7MPD2    H214257   2.358   1.263  11.109 -3.0926  1.3776 -0.6861
    7MPD2    H314258   2.416   1.052  11.241  0.9476  0.6752 -0.4895
    7MPD2     N14259   2.183   1.191  11.604 -0.0716  0.6057  0.0325
    7MPD2    H514260   2.201   1.105  11.656 -1.0822  1.0411  1.0908
    7MPD2    N114261   2.183   1.434  11.179 -0.2257  0.3226 -0.4110
    7MPD2    H714262   2.208   1.433  11.081  1.0052  0.6003 -0.1063
    8TMC3    C114263   2.079   1.645  11.130  0.4438  0.3342 -0.1151
    8TMC3    C214264   2.003   1.593  11.034 -0.0889  0.2093  0.6778
    8TMC3    C314265   1.876   1.632  11.007 -0.7912  0.1636 -0.4823
    8TMC3    C414266   2.041   1.761  11.193  0.5216  0.4808  0.4169
    8TMC3    C514267   1.911   1.805  11.175  0.7907 -0.3158 -0.3997
    8TMC3    C614268   1.837   1.744  11.074 -0.3563  0.1039  0.1649
    8TMC3     C14269   2.127   1.551  11.226  0.2338  0.2117  0.9070
    8TMC3     O14270   2.118   1.590  11.342 -0.0887  0.0720 -0.1210
    8TMC3     H14271   2.031   1.495  10.995  0.6215  0.1274  1.4013
    8TMC3    H114272   2.106   1.807  11.266  2.3213 -2.0231  0.3821
    8TMC3    H214273   1.741   1.791  11.054 -2.2432 -3.9667 -0.3852
    8TMC3    C714274   1.833   1.832  11.298 -0.2716 -0.2083 -0.1340
    8TMC3    C814275   1.820   1.612  10.874 -0.2193  0.3174  0.1183
    8TMC3    O114276   1.721   1.879  11.276  0.4851 -0.7373 -0.5709
    8TMC3    O214277   1.753   1.708  10.827  0.1722 -0.4211  0.4576
    9MPD2     C14278   1.708   1.510  10.630  0.6275 -0.1076 -0.3685
    9MPD2    C114279   1.756   1.430  10.730 -0.3361  0.3071  0.2726
    9MPD2    C214280   1.727   1.294  10.736 -0.2451  0.0328  0.0642
    9MPD2    C314281   1.671   1.236  10.628 -0.4024  0.3010  0.6100
    9MPD2    C414282   1.623   1.319  10.528 -0.3084  0.4135  0.4177
    9MPD2    C514283   1.627   1.454  10.534 -0.4181  0.3391  0.1700
    9MPD2     H14284   1.770   1.232  10.814 -0.5341  2.7207  2.3930
    9MPD2    H114285   1.562   1.286  10.444 -0.8847  1.5553  0.3945
    9MPD2    H214286   1.725   1.617  10.628 -1.6694  0.2544 -1.1209
    9MPD2    H314287   1.582   1.513  10.456  3.5789  1.3529 -1.3838
    9MPD2     N14288   1.677   1.092  10.627  0.1145  0.6600 -0.0118
    9MPD2    H514289   1.722   1.044  10.704  2.2547 -0.8715 -2.2044
    9MPD2    N114290   1.821   1.481  10.838 -0.1194 -0.2487 -0.1495
    9MPD2    H714291   1.870   1.415  10.897  0.4412 -0.2995 -0.6697
    1MPD1     C14292   1.286   3.548  16.547 -0.4527 -0.3861 -0.2445
    1MPD1    C114293   1.309   3.673  16.595 -0.2550 -0.0979  0.1851
    1MPD1    C214294   1.298   3.775  16.503 -0.3057 -0.8571  0.0746
    1MPD1    C314295   1.275   3.758  16.368  0.6309 -0.2177  0.9517
    1MPD1    C414296   1.253   3.627  16.323  0.3557  0.0595 -0.4309
    1MPD1    C514297   1.256   3.530  16.411 -0.1161  0.8253  0.2724
    1MPD1     H14298   1.311   3.876  16.542 -2.3060  1.2022 -4.6425
    1MPD1    H114299   1.227   3.618  16.218  0.4447  0.9699 -0.5368
    1MPD1    H214300   1.283   3.458  16.608 -0.1816  0.1901  0.6180
    1MPD1    H314301   1.258   3.430  16.368  0.8587  1.1165 -0.3623
    1MPD1     N14302   1.258   3.856  16.274 -0.1860 -0.2654 -0.4799
    1MPD1    H514303   1.220   3.837  16.182 -1.1404  1.3050 -0.4030
    1MPD1    N114304   1.301   3.704  16.735 -0.8261 -0.0862  0.2761
    1MPD1    H614305   1.337   3.632  16.796 -0.0123 -1.4555 -1.7968
    1MPD1    H714306   1.347   3.793  16.754  0.7612 -0.9844  0.6829
    2TMC2    C114307   1.283   4.271  16.078  0.0094 -0.3319 -0.1167
    2TMC2    C214308   1.179   4.245  15.993 -0.4331 -0.4022  0.9169
    2TMC2    C314309   1.119   4.122  15.999  0.0904 -0.0502 -0.2729
    2TMC2    C414310   1.322   4.189  16.176 -0.9064 -0.1042  0.2345
    2TMC2    C514311   1.249   4.077  16.195 -0.7656  0.1335 -0.5928
    2TMC2    C614312   1.148   4.040  16.104 -0.3117  0.0925  0.2634
    2TMC2     C14313   1.355   4.398  16.064  0.0060  0.3851  0.5552
    2TMC2     O14314   1.332   4.468  15.966 -0.2853 -0.1605 -0.2594
    2TMC2     H14315   1.159   4.315  15.913 -2.9713 -1.0351  0.9982
    2TMC2    H114316   1.404   4.219  16.240 -1.3547 -0.2003  0.8505
    2TMC2    H214317   1.081   3.956  16.120  0.5521 -0.8531 -1.0760
    2TMC2    C714318   1.293   3.988  16.297 -0.6934  0.2877  0.6029
    2TMC2    C814319   0.997   4.105  15.927  0.5530  0.3093  0.3810
    2TMC2    O114320   1.347   4.046  16.391  0.8316  0.5521  0.2475
    2TMC2    O214321   0.938   4.000  15.897 -0.6106  0.1676  0.2917
    2TMC2    O514322   0.926   4.226  15.941 -0.1617 -0.0629 -0.0058
    2TMC2    H514323   0.978   4.300  15.980 -1.2048  0.6676  0.0025
    3MPD1     C14324   1.762   4.682  16.172 -0.5823 -0.4172 -0.0433
    3MPD1    C114325   1.714   4.637  16.297  0.0867 -0.2316 -0.5803
    3MPD1    C214326   1.597   4.559  16.293  0.3623  0.6142  0.1554
    3MPD1    C314327   1.524   4.532  16.175  0.5478 -0.2749  0.1776
    3MPD1    C414328   1.566   4.600  16.057 -0.1784 -0.0877 -0.7638
    3MPD1    C514329   1.684   4.668  16.063  0.3662 -0.3815  0.5384
    3MPD1     H14330   1.559   4.508  16.380 -1.0892 -1.2314 -1.5652
    3MPD1    H114331   1.521   4.590  15.959 -0.6920 -1.6179 -0.3712
    3MPD1    H214332   1.862   4.724  16.179 -0.8914  0.8034 -2.8866
    3MPD1    H314333   1.731   4.712  15.976 -0.8967  0.5924  0.3423
    3MPD1     N14334   1.425   4.437  16.175  0.0066 -0.5295 -0.1197
    3MPD1    H514335   1.414   4.389  16.264  0.7559  0.1295  0.3334
    3MPD1    N114336   1.788   4.641  16.421 -0.0639  0.8363 -0.6769
    3MPD1    H614337   1.829   4.730  16.449 -0.5171  0.0089  2.5858
    3MPD1    H714338   1.728   4.614  16.498 -0.3485 -1.7705 -1.8308
    1TMC1    C114339   4.306   3.679  13.093 -0.4818  0.5709 -0.5831
    1TMC1    C214340   4.235   3.717  13.207 -0.5721  0.1137 -0.1215
    1TMC1    C314341   4.131   3.642  13.238  0.1215  0.4030  0.2424
    1TMC1    C414342   4.267   3.584  13.005  0.3365 -0.0388 -0.1920
    1TMC1    C514343   4.154   3.516  13.037 -0.1004  0.2341  0.1783
    1TMC1    C614344   4.089   3.537  13.159  0.2440 -0.7215 -0.3319
    1TMC1     C14345   4.379   3.787  13.037 -0.1182  0.2369 -0.2973
    1TMC1     O14346   4.379   3.807  12.917  0.2252 -0.0347  0.3192
    1TMC1     H14347   4.267   3.795  13.274  2.3494  0.0120 -1.4103
    1TMC1    H114348   4.327   3.567  12.916  2.9481  1.4689  1.2990
    1TMC1    H214349   4.006   3.473  13.187 -0.0221 -0.3076 -0.1906
    1TMC1    C714350   4.116   3.398  12.957 -0.5773  0.4583  0.0247
    1TMC1    C814351   4.057   3.677  13.360 -0.5833  0.6572 -0.1278
    1TMC1    O114352   4.049   3.313  13.009  0.4770 -0.1548 -0.2640
    1TMC1    O214353   4.072   3.790  13.402 -0.1944 -0.4067 -0.6157
    1TMC1    O314354   4.115   3.447  12.830 -0.1823  0.1936  0.2674
    1TMC1    H314355   4.148   3.538  12.813  0.7577  0.2225  2.2257
    1TMC1    O514356   4.046   3.565  13.426 -0.4154 -0.5995 -0.3580
    1TMC1    H514357   4.089   3.493  13.375  0.7664  1.6675 -2.5637
    2MPD2     C14358   4.560   4.021  13.008  0.2635 -0.3331  0.2265
    2MPD2    C114359   4.570   3.918  13.107  0.1008 -0.5511  0.2441
    2MPD2    C214360   4.679   3.912  13.189 -0.5033  0.4625 -0.0070
    2MPD2    C314361   0.034   4.012  13.179  0.3423 -0.2925 -0.0800
    2MPD2    C414362   0.025   4.108  13.081  0.2139  0.2299  0.3619
    2MPD2    C514363   4.661   4.108  12.989  0.1368 -0.0708  0.0143
    2MPD2     H14364   4.683   3.830  13.261 -1.5832  0.3130 -0.1126
    2MPD2    H114365   0.101   4.185  13.072 -1.4492  1.7333 -0.6777
    2MPD2    H214366   4.473   4.038  12.947  0.6330 -0.4689 -0.3371
    2MPD2    H314367   4.655   4.191  12.920  0.6849 -1.1442 -1.3280
    2MPD2     N14368   0.135   4.013  13.282  0.2104  0.1380 -0.4745
    2MPD2    H514369   0.137   3.932  13.342 -4.4376  0.8205  0.5769
    2MPD2    N114370   4.469   3.826  13.127  0.0566 -0.0923  0.5082
    2MPD2    H714371   4.478   3.781  13.218  3.2749  0.5984  0.5520
    3TCq1    O114372   0.584   4.321  13.584 -0.1080  0.0484  0.2428
    3TCq1    C114373   0.640   4.213  13.533  0.3412 -0.1167 -0.8866
    3TCq1    O214374   0.750   4.172  13.564 -0.2155  0.0809  0.3037
    3TCq1    C214375   0.541   4.122  13.495 -0.6394  0.6132  0.4545
    3TCq1    C314376   0.560   3.997  13.542 -0.9163  0.3034 -0.1517
    3TCq1    C414377   0.450   3.907  13.527  0.0848  0.9499  0.4416
    3TCq1    C514378   0.338   3.952  13.468 -0.1582 -0.4255  0.0603
    3TCq1    C614379   0.333   4.083  13.414  0.5037  0.5522  0.7938
    3TCq1    C714380   0.429   4.170  13.444  0.2816 -0.8097 -0.7841
    3TCq1    C814381   0.221   4.119  13.323  0.2820 -1.3413  0.0672
    3TCq1    O414382   0.230   4.230  13.284  0.1707  0.2920  0.0039
    3TCq1    C914383   0.459   3.766  13.559  0.3280  0.3258  0.3295
    3TCq1    O514384   0.573   3.720  13.581  0.2383  0.1947  0.0140
    3TCq1    O614385   0.357   3.695  13.537 -0.2221  0.1338 -0.2160
    3TCq1    H114386   0.487   4.321  13.567  0.5816 -0.7654 -3.6709
    3TCq1    H214387   0.657   3.958  13.572 -1.5351  0.0555  1.5201
    3TCq1    H314388   0.253   3.885  13.471  0.2094 -0.8660  0.7203
    3TCq1    H414389   0.424   4.271  13.405 -0.7827 -0.3279  0.6102
    1MPD2     C14390   3.725   4.548  14.642  0.2369  0.8912 -0.4275
    1MPD2    C114391   3.595   4.530  14.620 -0.8384  0.2297  0.0020
    1MPD2    C214392   3.555   4.441  14.520  0.3787 -0.1090 -0.2129
    1MPD2    C314393   3.641   4.371  14.442  0.7456  0.5190 -1.0921
    1MPD2    C414394   3.774   4.386  14.468 -0.3046 -0.1174 -0.0043
    1MPD2    C514395   3.815   4.473  14.563  0.3084  1.3979  0.0048
    1MPD2     H14396   3.452   4.410  14.514 -0.5502  2.7467  1.0133
    1MPD2    H114397   3.854   4.331  14.421  1.2009  0.3087  2.0527
    1MPD2    H214398   3.762   4.602  14.729 -0.1317 -0.5950  0.6524
    1MPD2    H314399   3.920   4.469  14.590  0.5355 -0.3794 -1.1506
    1MPD2     N14400   3.582   4.289  14.347  0.2849 -0.0042 -0.0334
    1MPD2    H514401   3.481   4.294  14.340  0.5054  3.0101 -1.3796
    1MPD2    N114402   3.501   4.593  14.701  0.4761  0.1871 -0.2475
    1MPD2    H714403   3.538   4.651  14.776  2.1398 -0.9392 -0.2180
    2TMC3    C114404   3.302   4.653  14.803 -0.2267 -0.1402 -0.3087
    2TMC3    C214405   3.204   4.567  14.836 -0.9681  0.3527  0.3003
    2TMC3    C314406   3.071   4.606  14.848  0.0612  0.1016  0.3651
    2TMC3    C414407   3.269   0.044  14.786 -0.0922 -0.8007 -0.5284
    2TMC3    C514408   3.135   0.079  14.813 -0.0534 -0.5661 -0.1010
    2TMC3    C614409   3.029   4.736  14.835  0.5102  0.0822  0.8502
    2TMC3     C14410   3.367   4.592  14.688 -0.1382  0.3914 -0.8742
    2TMC3     O14411   3.286   4.547  14.607  0.1883 -0.9199  0.0695
    2TMC3     H14412   3.228   4.461  14.842 -0.2911  0.5869  1.8773
    2TMC3    H114413   3.337   0.115  14.741  2.3280 -0.9597  2.8925
    2TMC3    H214414   2.930   0.037  14.857  0.1803  0.6493 -1.6753
    2TMC3    C714415   3.132   0.203  14.892 -0.5339 -0.0081  0.3426
    2TMC3    C814416   2.982   4.513  14.780  0.2034 -0.0371 -0.0600
    2TMC3    O114417   3.022   0.249  14.910  0.2137  0.5621  0.0501
    2TMC3    O214418   2.864   4.524  14.814  0.5490 -0.9983 -0.5494
    3TCq1    O114419   4.165   0.893  15.179  0.3438  0.1791  0.3958
    3TCq1    C114420   4.063   0.862  15.259  0.4926  0.1929 -0.3469
    3TCq1    O214421   3.995   0.946  15.322 -0.4694 -0.1391 -0.5756
    3TCq1    C214422   3.995   0.749  15.199 -0.0222  0.3980 -0.0918
    3TCq1    C314423   4.064   0.667  15.109 -0.1887  0.5747  0.1782
    3TCq1    C414424   3.992   0.594  15.017 -0.2290 -0.0831  0.1876
    3TCq1    C514425   3.856   0.610  15.010 -0.4762 -0.3013  0.4737
    3TCq1    C614426   3.786   0.677  15.111 -0.6809  0.0240  0.4921
    3TCq1    C714427   3.861   0.756  15.191  0.0733 -0.8560 -0.2394
    3TCq1    C814428   3.640   0.682  15.115 -0.2346 -1.0316  0.4965
    3TCq1    O414429   3.588   0.792  15.142  0.4095  0.0468 -0.0885
    3TCq1    C914430   4.060   0.482  14.946 -0.7056  0.0830  0.0014
    3TCq1    O514431   4.181   0.491  14.908 -0.0387  0.0023 -0.2601
    3TCq1    O614432   3.980   0.389  14.916 -0.1725  0.4939 -0.4662
    3TCq1    H114433   4.220   0.821  15.141 -2.4078 -1.0988 -1.1203
    3TCq1    H214434   4.167   0.635  15.119  0.0534  1.1064 -0.5975
    3TCq1    H314435   3.798   0.545  14.945  0.1577 -0.3230 -0.0718
    3TCq1    H414436   3.806   0.820  15.259 -0.6369  0.5360 -2.1365
    4MPD2     C14437   3.343   0.625  15.086  0.1425  0.3187  0.4637
    4MPD2    C114438   3.446   0.543  15.045  0.7958 -0.2428  0.1373
    4MPD2    C214439   3.411   0.415  15.001 -0.2784  0.5954 -0.0272
    4MPD2    C314440   3.283   0.375  14.987  0.0913 -0.3737 -0.4976
    4MPD2    C414441   3.183   0.458  15.034 -0.1156  0.7236  0.6881
    4MPD2    C514442   3.210   0.585  15.078 -0.3056 -0.7272 -0.3323
    4MPD2     H14443   3.489   0.351  14.962 -0.0881  0.7484  0.0971
    4MPD2    H114444   3.077   0.433  15.033 -0.7735  3.5739 -1.8817
    4MPD2    H214445   3.353   0.727  15.122  2.1812  0.7033 -1.2423
    4MPD2    H314446   3.122   0.641  15.106 -0.4862 -2.1806  2.0036
    4MPD2     N14447   3.258   0.245  14.933 -0.0726  0.2718  0.0851
    4MPD2    H514448   3.332   0.179  14.914  0.2734  0.2910  1.3500
    4MPD2    N114449   3.586   0.568  15.055  0.7428 -0.5708  0.5385
    4MPD2    H714450   3.644   0.488  15.033  0.6585 -0.1124 -1.3017
    5TMC2    C114451   3.302   4.080  14.228 -0.4193 -0.6445  0.7232
    5TMC2    C214452   3.311   3.944  14.257 -0.0013  0.4172  0.5779
    5TMC2    C314453   3.436   3.898  14.259 -0.0703 -0.2937  0.1641
    5TMC2    C414454   3.414   4.159  14.197 -0.4701 -0.0725 -0.5019
    5TMC2    C514455   3.542   4.103  14.210  0.2095  0.1257 -0.1009
    5TMC2    C614456   3.550   3.965  14.226  0.1037 -0.1853 -0.1315
    5TMC2     C14457   3.238   4.150  14.329  0.2241 -1.0074 -0.5532
    5TMC2     O14458   3.309   4.236  14.377 -0.0845  0.0191 -0.1651
    5TMC2     H14459   3.226   3.878  14.271 -0.7440  1.5896  1.6735
    5TMC2    H114460   3.388   4.260  14.166 -0.7470 -0.1113 -0.3964
    5TMC2    H214461   3.641   3.916  14.258 -0.5978 -1.0698  0.5045
    5TMC2    C714462   3.636   4.179  14.288 -0.0009  0.2015 -0.1348
    5TMC2    C814463   3.462   3.757  14.304  0.5412 -0.0930 -0.2216
    5TMC2    O114464   3.752   4.139  14.300 -0.3094  0.0728  0.2224
    5TMC2    O214465   3.541   3.681  14.248 -0.5044  0.7458 -0.3137
    5TMC2    O514466   3.367   3.727  14.394 -0.0540  0.7494  0.1128
    5TMC2    H514467   3.326   3.796  14.451  0.3497  2.3111 -1.4809
    6MPD2     C14468   2.890   4.258  14.672 -0.1318 -0.4542  0.6626
    6MPD2    C114469   2.989   4.334  14.616 -0.1030  0.7622 -0.1044
    6MPD2    C214470   3.062   4.273  14.519 -0.5377  0.4885 -0.2179
    6MPD2    C314471   3.036   4.147  14.472  0.5634 -0.2965 -0.8606
    6MPD2    C414472   2.924   4.077  14.516  0.3775 -0.0060 -0.1265
    6MPD2    C514473   2.851   4.130  14.617 -0.9053 -0.5860 -0.4806
    6MPD2     H14474   3.136   4.332  14.467 -0.3082 -0.1905 -0.6661
    6MPD2    H114475   2.898   3.978  14.480 -0.2233  0.9035 -2.2345
    6MPD2    H214476   2.831   4.293  14.756 -1.4589  1.5657 -1.1050
    6MPD2    H314477   2.766   4.079  14.660 -0.6213  0.4403  1.2931
    6MPD2     N14478   3.122   4.092  14.375  0.2979  0.1312 -0.3561
    6MPD2    H514479   3.090   4.009  14.327 -1.3559  1.0568 -0.8294
    6MPD2    N114480   3.045   4.445  14.682  1.0233 -0.3510 -0.6683
    6MPD2    H714481   3.143   4.465  14.663  0.9773  0.2259 -0.2709
  945NH4     N114482   2.794   4.610  15.920 -0.6856  0.0712  0.9646
  945NH4     H214483   2.848   4.525  15.943  1.5783  1.6659  1.4831
  945NH4     H314484   2.872   4.675  15.897  0.0032 -0.6711  1.2186
  945NH4     H414485   2.741   4.643  16.003  0.4921  0.4444  1.5553
  945NH4     H514486   2.734   4.585  15.838  1.2607 -0.6854 -0.2220
  946SOD     NA14487   2.702   4.349  13.758  0.2792 -0.0053  0.0576
  947SOD     NA14488   4.504   2.352  17.143  0.0929 -0.7224 -0.4124
  948SOD     NA14489   3.246   1.529  12.269 -0.4144 -0.2391 -0.3551
  949SOD     NA14490   0.672   2.593  16.516 -0.5091  0.5677  0.1411
  950SOD     NA14491   4.506   3.758   6.438 -0.4577  0.2974 -0.0546
  951SOD     NA14492   0.868   0.788  11.434 -0.0250 -0.1405 -0.6429
  952SOD     NA14493   2.037   2.972  13.616 -0.0777  0.1894 -0.0124
  953SOL     OW14494   2.142   3.539   7.176  0.3651 -0.3590 -0.4057
  953SOL    HW114495   2.052   3.510   7.191 -0.9903  1.1922 -5.6796
  953SOL    HW214496   2.169   3.587   7.255 -1.0246 -0.3931  0.0923
  954SOL     OW14497   0.215   4.703   1.835  0.7236 -0.0343  0.3685
  954SOL    HW114498   0.158   0.002   1.902  0.0904  1.2461 -0.9041
  954SOL    HW214499   0.298   0.002   1.863 -1.6223  2.7436  3.5501
  955SOL     OW14500   2.959   4.139   1.884 -0.5587 -0.5878 -0.5451
  955SOL    HW114501   2.957   4.231   1.910 -1.0859 -0.3481 -1.4091
  955SOL    HW214502   3.052   4.117   1.892 -0.0250  0.9567 -2.2308
  956SOL     OW14503   4.164   1.204   1.603  0.3055  0.3016 -0.1590
  956SOL    HW114504   4.110   1.192   1.681  3.8363  2.7475  2.6606
  956SOL    HW214505   4.101   1.191   1.532  0.9833  1.5828 -1.0049
  957SOL     OW14506   3.192   3.390   8.769  0.1164 -0.0807  0.5552
  957SOL    HW114507   3.252   3.344   8.710  0.3107  1.0717 -0.1461
  957SOL    HW214508   3.244   3.369   8.846  0.8836  0.2393  0.1171
  958SOL     OW14509   3.140   2.864   1.725  0.2934  0.0527 -0.5098
  958SOL    HW114510   3.114   2.876   1.816 -0.7537  0.8395 -0.9191
  958SOL    HW214511   3.153   2.770   1.717  3.7437  0.3751  1.0680
  959SOL     OW14512   2.404   3.055   5.221  0.1586 -0.1886  0.2201
  959SOL    HW114513   2.381   2.963   5.234  2.3987 -0.4272  2.4589
  959SOL    HW214514   2.367   3.091   5.302  1.5170  0.8562  0.3777
  960SOL     OW14515   2.795   0.119   7.080  0.1152  0.2426 -0.2116
  960SOL    HW114516   2.806   0.070   7.161  0.2135  0.4730 -0.0852
  960SOL    HW214517   2.711   0.087   7.047 -2.0052  3.9535  1.5533
  961SOL     OW14518   3.166   1.383   6.748  0.0047  0.0830  0.4528
  961SOL    HW114519   3.251   1.360   6.786  0.3819  1.0427  0.1826
  961SOL    HW214520   3.156   1.331   6.668 -2.0651  0.6133  0.3830
  962SOL     OW14521   3.619   4.084  16.966 -0.4403  0.7545  0.1456
  962SOL    HW114522   3.712   4.100  16.950 -0.4816  0.6643 -0.1971
  962SOL    HW214523   3.588   4.170  16.996 -0.5889  0.1196  1.7720
  963SOL     OW14524   3.952   0.691   8.962 -0.0715 -0.4125 -0.3022
  963SOL    HW114525   3.897   0.665   8.888 -0.8919  2.2060 -0.6175
  963SOL    HW214526   4.041   0.696   8.928  0.4285  0.1914  1.1186
  964SOL     OW14527   2.911   1.553   9.205 -0.2427  0.2842  0.0216
  964SOL    HW114528   2.992   1.522   9.244  0.2713  1.3536 -0.2107
  964SOL    HW214529   2.856   1.526   9.279 -1.1028  0.6312 -0.4871
  965SOL     OW14530   4.141   0.479   0.689 -0.4421 -0.2773 -0.3523
  965SOL    HW114531   4.158   0.392   0.725  1.2018  0.2653  0.1982
  965SOL    HW214532   4.119   0.532   0.766  0.3800 -1.8033  0.9348
  966SOL     OW14533   0.385   4.738  14.530  0.4663 -0.0572  0.5549
  966SOL    HW114534   0.320   0.060  14.564  0.2026  0.9849 -1.8460
  966SOL    HW214535   0.358   4.658  14.574 -0.1047  0.4193  1.0756
  967SOL     OW14536   3.756   3.136  11.642  0.5682 -0.8339 -0.1933
  967SOL    HW114537   3.794   3.058  11.683 -0.6682 -0.8685  0.9082
  967SOL    HW214538   3.664   3.113  11.655  0.3263  0.2609  0.0696
  968SOL     OW14539   0.161   3.222   9.216  0.0964  0.2156  0.0308
  968SOL    HW114540   0.123   3.136   9.200  1.4709  0.0368 -2.2117
  968SOL    HW214541   0.253   3.197   9.213 -0.0762 -0.5995  1.7946
  969SOL     OW14542   4.081   0.680   2.048 -0.2838  0.3646  0.2063
  969SOL    HW114543   4.048   0.653   1.962 -0.8542  2.9395 -0.3617
  969SOL    HW214544   4.175   0.687   2.032 -0.6571  1.9313 -1.2040
  970SOL     OW14545   4.284   2.538  15.577 -0.0127 -0.0228 -0.1584
  970SOL    HW114546   4.248   2.594  15.646 -0.4465  0.3004 -0.6504
  970SOL    HW214547   4.354   2.596  15.545  0.4883 -1.4282 -1.6498
  971SOL     OW14548   2.595   0.561   2.555  0.2622 -0.0287 -0.1854
  971SOL    HW114549   2.557   0.563   2.467  0.4903  1.6717 -0.2456
  971SOL    HW214550   2.520   0.517   2.596 -0.4966  0.6175 -0.8730
  972SOL     OW14551   0.168   0.186   2.860 -0.1628 -0.2595  0.3353
  972SOL    HW114552   0.234   0.210   2.794 -0.5425 -1.8310 -0.6168
  972SOL    HW214553   0.125   0.111   2.819  1.3253  0.1239 -1.9802
  973SOL     OW14554   3.487   1.540   6.737  0.7283 -0.6787 -0.1536
  973SOL    HW114555   3.562   1.485   6.715  1.3059 -0.1131  0.4152
  973SOL    HW214556   3.443   1.473   6.789 -3.1341  0.2591 -2.1661
  974SOL     OW14557   2.458   2.787   7.931  0.0777  0.2573 -0.2010
  974SOL    HW114558   2.370   2.755   7.953  0.6165 -1.4246 -0.4887
  974SOL    HW214559   2.447   2.874   7.967 -3.0740 -0.3706  0.3599
  975SOL     OW14560   1.590   3.020   6.408  0.6799 -0.7945  0.3488
  975SOL    HW114561   1.584   2.925   6.404  0.3365 -0.7787  0.4942
  975SOL    HW214562   1.661   3.036   6.345 -0.0225 -2.0222 -0.7613
  976SOL     OW14563   0.462   1.420   5.360  0.1135 -0.1576  0.5311
  976SOL    HW114564   0.412   1.418   5.278  0.2003  2.5342  0.3954
  976SOL    HW214565   0.434   1.339   5.402  2.0654 -1.2514 -0.3125
  977SOL     OW14566   1.806   0.803   4.375  0.4259  0.2944  0.2725
  977SOL    HW114567   1.769   0.833   4.458  1.2794 -0.2949  0.8648
  977SOL    HW214568   1.732   0.764   4.330  0.3021  1.6534 -0.7051
  978SOL     OW14569   0.540   4.500   2.411  0.1814 -0.0790 -0.3996
  978SOL    HW114570   0.529   4.460   2.325 -0.1280  2.5333 -1.5727
  978SOL    HW214571   0.455   4.477   2.448  0.8676  0.3093  1.4329
  979SOL     OW14572   0.731   4.528   6.904  0.6058 -0.2924 -0.4302
  979SOL    HW114573   0.714   4.600   6.844  0.6296 -0.2108 -0.3395
  979SOL    HW214574   0.646   4.513   6.945  1.6465  0.5700  2.0510
  980SOL     OW14575   1.995   0.331   8.420  0.2504  0.1347  0.4733
  980SOL    HW114576   1.978   0.264   8.354 -3.1341  1.6823 -0.2493
  980SOL    HW214577   1.911   0.341   8.466  0.5778  1.0414  0.8894
  981SOL     OW14578   0.191   1.233   3.549  0.0180  0.1805  0.1329
  981SOL    HW114579   0.117   1.263   3.497 -1.2858  0.7022  2.3337
  981SOL    HW214580   0.150   1.181   3.618  1.8937 -2.4341 -0.6996
  982SOL     OW14581   2.292   3.652   4.212 -0.3283  0.1490 -0.3195
  982SOL    HW114582   2.280   3.743   4.187 -2.0934 -0.5929 -2.1546
  982SOL    HW214583   2.365   3.638   4.152  1.8969  3.6808  1.5541
  983SOL     OW14584   2.910   1.101  12.879  0.4019 -0.0982 -0.3212
  983SOL    HW114585   3.000   1.128  12.863  0.7116 -0.4578  0.7874
  983SOL    HW214586   2.914   1.094  12.975  0.9680  2.8735 -0.1364
  984SOL     OW14587   3.777   3.554   4.737  0.2957 -0.4795  0.3631
  984SOL    HW114588   3.705   3.531   4.795 -0.4435 -1.4331 -0.9282
  984SOL    HW214589   3.807   3.640   4.767 -0.5286  0.5769 -1.7835
  985SOL     OW14590   4.403   0.071   0.389  0.0296  0.1088  0.0490
  985SOL    HW114591   4.408   0.163   0.417 -0.2177  0.9806 -2.7423
  985SOL    HW214592   4.327   0.041   0.440  0.4832 -2.4839 -0.8332
  986SOL     OW14593   3.397   3.443   7.307 -0.6584 -0.2447  0.0013
  986SOL    HW114594   3.456   3.504   7.351 -0.6924 -0.2444  0.0463
  986SOL    HW214595   3.427   3.365   7.354 -1.2415  1.8867  3.9241
  987SOL     OW14596   1.623   0.111   7.047 -0.4659 -0.6655  0.1574
  987SOL    HW114597   1.540   0.088   7.007  0.6117 -0.2591 -2.2711
  987SOL    HW214598   1.600   0.198   7.080 -1.4590 -0.8212 -0.1341
  988SOL     OW14599   2.285   0.222  12.054 -0.5877  0.2292  0.0206
  988SOL    HW114600   2.316   0.175  11.977 -1.4201  0.6072 -0.5450
  988SOL    HW214601   2.352   0.196  12.117  0.2515 -0.8349 -1.3175
  989SOL     OW14602   3.024   0.406   7.717  0.2630 -0.3822  0.1635
  989SOL    HW114603   2.999   0.323   7.758  1.5674 -0.4734  0.7762
  989SOL    HW214604   3.069   0.377   7.638 -0.9654  1.3560 -1.1705
  990SOL     OW14605   0.994   0.153   2.258  0.1552 -0.4181  0.1597
  990SOL    HW114606   1.003   0.079   2.317 -0.6881  1.9601  3.2387
  990SOL    HW214607   1.076   0.197   2.280  1.5859 -2.4283 -1.2047
  991SOL     OW14608   0.656   0.287   7.647  0.2036 -0.1864 -0.3763
  991SOL    HW114609   0.623   0.316   7.562 -0.5650  3.8537  1.3160
  991SOL    HW214610   0.750   0.290   7.631  0.7567  0.1332  2.9587
  992SOL     OW14611   3.045   0.938   2.764  0.3768  0.0678  0.0549
  992SOL    HW114612   2.959   0.979   2.765  0.1499 -0.4117  0.1676
  992SOL    HW214613   3.081   0.944   2.852  1.5018  0.1260 -0.4044
  993SOL     OW14614   1.679   0.096  12.412  0.3136  0.0603  0.3742
  993SOL    HW114615   1.660   0.182  12.376  0.7122 -0.3563 -0.8063
  993SOL    HW214616   1.772   0.082  12.397  0.7707  2.9791  0.5940
  994SOL     OW14617   2.114   0.592   5.521 -0.2596 -0.4607  0.6098
  994SOL    HW114618   2.072   0.628   5.442  0.3729 -0.5036  0.2520
  994SOL    HW214619   2.059   0.631   5.589  4.1098 -0.7165  4.2771
  995SOL     OW14620   3.740   3.581  15.779  0.3212  0.3072 -0.0549
  995SOL    HW114621   3.684   3.626  15.716  0.8666  2.1782  0.7907
  995SOL    HW214622   3.826   3.616  15.755  1.0544 -0.1811  1.8476
  996SOL     OW14623   0.875   0.799   5.961  0.0777 -0.5791  0.0010
  996SOL    HW114624   0.941   0.747   5.915 -0.0613  0.8083 -1.7672
  996SOL    HW214625   0.893   0.883   5.918 -1.7211 -0.1282  0.1447
  997SOL     OW14626   4.325   3.417   7.480  0.1537 -0.2385  0.4643
  997SOL    HW114627   4.409   3.374   7.461  0.8445  2.1395 -1.7670
  997SOL    HW214628   4.285   3.364   7.549 -1.3507  0.5079  0.1487
  998SOL     OW14629   0.717   3.318   2.989  0.8055  0.6629  0.2001
  998SOL    HW114630   0.642   3.264   2.961  1.2072  0.1771  0.0680
  998SOL    HW214631   0.777   3.310   2.914  1.0420  2.0161  0.2605
  999SOL     OW14632   0.788   2.353   2.696  0.1422  0.6628  0.1810
  999SOL    HW114633   0.865   2.315   2.653  1.0462  1.6564  0.9146
  999SOL    HW214634   0.743   2.273   2.724 -0.1807  0.5174 -0.7370
 1000SOL     OW14635   3.695   3.061  13.329 -0.0673  0.3843  0.1995
 1000SOL    HW114636   3.604   3.082  13.351 -1.0814 -2.0560 -1.6323
 1000SOL    HW214637   3.713   3.148  13.292  2.1694  0.2703  1.0649
 1001SOL     OW14638   2.429   4.027   6.299  0.8742  0.2544  0.0788
 1001SOL    HW114639   2.493   4.025   6.370  0.5053 -0.3771  0.3925
 1001SOL    HW214640   2.391   3.939   6.303  1.9484 -0.2789 -1.4765
 1002SOL     OW14641   3.477   3.995  11.684 -0.5576 -0.5157 -0.2189
 1002SOL    HW114642   3.563   3.983  11.725 -0.0018 -0.5067 -1.3990
 1002SOL    HW214643   3.450   3.905  11.668  1.9202 -1.5410  1.4385
 1003SOL     OW14644   4.434   4.386   0.847  0.6413  0.4579  0.4790
 1003SOL    HW114645   4.410   4.437   0.769  0.0881  0.5833  0.7260
 1003SOL    HW214646   4.528   4.370   0.839  0.6273 -0.4788  2.2125
 1004SOL     OW14647   2.378   1.669   2.255 -0.3710 -1.2288  0.3913
 1004SOL    HW114648   2.353   1.707   2.171 -0.7609 -1.5180  0.3789
 1004SOL    HW214649   2.339   1.582   2.263 -0.4316 -0.8597  3.9632
 1005SOL     OW14650   3.604   2.280   7.028 -0.4222  0.0692 -0.5484
 1005SOL    HW114651   3.543   2.273   7.102 -0.0599  0.3696 -0.2245
 1005SOL    HW214652   3.547   2.320   6.962 -1.0146 -0.2870 -0.2616
 1006SOL     OW14653   3.784   1.605   3.692 -0.0203 -0.5186  0.2536
 1006SOL    HW114654   3.765   1.563   3.775  2.8869 -2.1889  0.1068
 1006SOL    HW214655   3.736   1.547   3.632 -1.3730  2.0131 -1.1238
 1007SOL     OW14656   4.153   2.386   4.487  0.1012  0.1568  0.2450
 1007SOL    HW114657   4.203   2.309   4.515 -0.6134 -0.3722  0.0738
 1007SOL    HW214658   4.165   2.438   4.567  0.1477  0.0783  0.2891
 1008SOL     OW14659   3.993   0.177   6.078 -0.1957 -0.1931  0.1956
 1008SOL    HW114660   3.918   0.165   6.021  0.1777 -1.3791 -0.0480
 1008SOL    HW214661   4.040   0.095   6.060  0.0416 -0.2393  0.9920
 1009SOL     OW14662   4.617   0.731   5.416  0.0278  0.3614 -0.0796
 1009SOL    HW114663   4.604   0.663   5.482 -2.8500 -0.0181 -1.0521
 1009SOL    HW214664   4.531   0.760   5.387 -0.3713 -0.2727  0.4595
 1010SOL     OW14665   2.076   0.320   4.791  0.4719  0.1266  0.1852
 1010SOL    HW114666   2.026   0.326   4.872  0.1238 -0.2829  0.0001
 1010SOL    HW214667   2.048   0.396   4.741 -0.7167 -1.2719 -1.2972
 1011SOL     OW14668   2.916   0.575   2.788  0.0817 -0.1689 -0.4144
 1011SOL    HW114669   2.957   0.597   2.871 -1.0993  1.3937 -0.2461
 1011SOL    HW214670   2.825   0.595   2.811 -0.5075 -0.4343 -2.5156
 1012SOL     OW14671   3.089   3.641   8.002  0.0237  0.1371  0.5666
 1012SOL    HW114672   3.054   3.592   8.077  0.8258  0.6507  1.2732
 1012SOL    HW214673   3.154   3.581   7.965  0.7952  1.7605 -0.6965
 1013SOL     OW14674   3.322   4.641   6.337 -0.2124 -0.2710  1.1082
 1013SOL    HW114675   3.284   4.579   6.275 -0.4068  0.7749  0.1770
 1013SOL    HW214676   3.262   4.636   6.411 -1.5485 -0.2876  0.0280
 1014SOL     OW14677   0.255   4.438   1.882 -0.1195 -0.2228 -0.5273
 1014SOL    HW114678   0.203   4.518   1.885  1.2908  0.7007 -0.5291
 1014SOL    HW214679   0.258   4.413   1.975  4.1901  0.7391 -0.4079
 1015SOL     OW14680   2.002   2.122   5.448 -0.3320 -0.1281  0.9848
 1015SOL    HW114681   2.048   2.086   5.373 -1.7674  0.0697  0.0140
 1015SOL    HW214682   2.009   2.218   5.441 -1.1504 -0.1646 -0.2619
 1016SOL     OW14683   0.742   2.302   2.261  0.3850  0.1234 -0.1655
 1016SOL    HW114684   0.649   2.309   2.279 -0.1536  0.1205 -2.9660
 1016SOL    HW214685   0.765   2.392   2.284 -1.5936  0.4334  0.5684
 1017SOL     OW14686   2.917   3.373  16.383 -0.0261 -0.2560  0.0265
 1017SOL    HW114687   2.845   3.430  16.411  0.3895  0.1328  0.2840
 1017SOL    HW214688   2.891   3.363  16.291  1.8416 -0.6391 -0.4529
 1018SOL     OW14689   2.637   4.184  11.395  0.3018 -0.6298 -0.0729
 1018SOL    HW114690   2.626   4.095  11.364  1.3641 -1.1622  1.0645
 1018SOL    HW214691   2.699   4.238  11.345  1.4177 -0.7147  1.2042
 1019SOL     OW14692   0.511   2.463   6.639 -0.3013  0.3447  0.0316
 1019SOL    HW114693   0.571   2.501   6.703 -0.6895 -2.7036  2.2158
 1019SOL    HW214694   0.443   2.531   6.645 -1.5897 -1.1252  2.2425
 1020SOL     OW14695   4.319   1.912   5.244  0.1133 -0.1600  0.2828
 1020SOL    HW114696   4.407   1.885   5.272 -0.2850 -0.3011  1.4081
 1020SOL    HW214697   4.318   2.004   5.272 -2.5974  0.6764 -2.5654
 1021SOL     OW14698   0.188   0.612  15.265 -0.1127 -0.1045 -0.6373
 1021SOL    HW114699   0.131   0.651  15.198 -1.8897  2.9325  2.5769
 1021SOL    HW214700   0.247   0.687  15.273 -1.5546  1.1358 -1.4486
 1022SOL     OW14701   1.059   4.164   7.873  0.0824 -0.2018 -0.1959
 1022SOL    HW114702   1.122   4.165   7.800 -1.4154  0.0716 -1.4876
 1022SOL    HW214703   1.075   4.248   7.916  0.0632  0.1969 -0.9552
 1023SOL     OW14704   3.301   1.349   1.685 -0.2344 -0.1527 -0.1348
 1023SOL    HW114705   3.240   1.413   1.648  0.5671  0.5576 -0.2385
 1023SOL    HW214706   3.366   1.338   1.615  1.8367  0.6431  1.6478
 1024SOL     OW14707   3.246   4.233   3.297  0.0569  0.5088 -0.0165
 1024SOL    HW114708   3.341   4.247   3.306  0.2406 -0.7254 -0.0293
 1024SOL    HW214709   3.230   4.150   3.340 -0.3635  0.3434 -0.4898
 1025SOL     OW14710   1.857   4.002   4.863  0.0614 -0.5279 -0.4453
 1025SOL    HW114711   1.921   3.932   4.853  0.0262 -0.3672 -1.8178
 1025SOL    HW214712   1.770   3.964   4.870 -0.3833  0.6748  0.7839
 1026SOL     OW14713   2.611   2.547   8.544 -0.0287 -0.2901  0.0983
 1026SOL    HW114714   2.587   2.514   8.630 -2.1492  0.3888 -0.2445
 1026SOL    HW214715   2.703   2.572   8.559 -0.0282 -0.7383  0.8023
 1027SOL     OW14716   2.218   4.364   4.392  0.1775 -0.2922  0.7359
 1027SOL    HW114717   2.131   4.403   4.377  0.5620  1.1270  2.1516
 1027SOL    HW214718   2.203   4.281   4.346  1.7909 -1.1576  1.7677
 1028SOL     OW14719   4.634   3.439   1.743 -0.1929 -0.3460 -0.1419
 1028SOL    HW114720   4.614   3.498   1.670  0.3056  0.1319  0.1063
 1028SOL    HW214721   4.723   3.420   1.713 -0.3290 -0.3645 -0.5273
 1029SOL     OW14722   2.004   4.064   4.397  0.1515 -0.2711  0.0858
 1029SOL    HW114723   1.997   4.064   4.302  3.3758  0.3983 -0.1311
 1029SOL    HW214724   1.938   3.997   4.417  0.9343 -1.3910 -1.0364
 1030SOL     OW14725   2.368   2.103   6.652  0.2282 -0.0193 -0.3717
 1030SOL    HW114726   2.320   2.023   6.669  1.1372  0.4169  4.3314
 1030SOL    HW214727   2.334   2.168   6.713 -0.3026 -0.4084 -0.2534
 1031SOL     OW14728   3.215   0.691   6.650  0.2556  0.4204  1.1736
 1031SOL    HW114729   3.257   0.620   6.698  0.7559  0.0072  0.1240
 1031SOL    HW214730   3.242   0.674   6.559  1.4387  1.4299  1.3456
 1032SOL     OW14731   1.139   0.079   5.071  0.7063 -0.5891 -0.6289
 1032SOL    HW114732   1.150   0.173   5.086 -2.1693 -0.2022 -0.9245
 1032SOL    HW214733   1.073   0.060   5.137 -1.1860  0.5018 -2.2028
 1033SOL     OW14734   3.095   1.919   2.803  0.2160 -0.1050 -0.3964
 1033SOL    HW114735   3.043   1.921   2.722 -1.7959  2.0956  0.9444
 1033SOL    HW214736   3.033   1.946   2.871  0.0842 -1.3373 -0.0295
 1034SOL     OW14737   1.763   1.691   9.927  0.0210  0.1709  0.4071
 1034SOL    HW114738   1.673   1.724   9.926  0.0955  0.3874  1.1957
 1034SOL    HW214739   1.796   1.745   9.999  2.6851 -1.9396  0.7358
 1035SOL     OW14740   3.353   2.978  16.329  0.2062 -0.1637 -0.3236
 1035SOL    HW114741   3.375   3.070  16.317 -1.4297  0.5005  1.7750
 1035SOL    HW214742   3.437   2.940  16.355  0.3582  2.5393  3.2105
 1036SOL     OW14743   1.441   2.126   1.368  0.0636 -0.2991  0.0637
 1036SOL    HW114744   1.451   2.080   1.285 -2.6667 -1.5390  0.4229
 1036SOL    HW214745   1.347   2.118   1.380 -0.2579 -0.7366 -2.7885
 1037SOL     OW14746   1.815   4.602   7.617  0.2134  0.0632 -0.6317
 1037SOL    HW114747   1.738   4.570   7.665  0.0684 -0.7162 -1.3682
 1037SOL    HW214748   1.879   4.590   7.687  0.9271  0.9083 -1.1485
 1038SOL     OW14749   4.524   0.909   2.559 -0.1125 -0.2708  0.6880
 1038SOL    HW114750   4.502   0.925   2.651 -2.2891 -1.4553  0.3844
 1038SOL    HW214751   4.600   0.964   2.538 -1.0455  1.3950  1.6937
 1039SOL     OW14752   2.025   2.817   2.186  0.3271  0.3279  0.0631
 1039SOL    HW114753   2.000   2.728   2.212 -1.1329  0.9180  0.6623
 1039SOL    HW214754   2.120   2.807   2.188  0.3932  0.7980 -1.0381
 1040SOL     OW14755   4.516   4.668  12.893 -0.3890 -0.2753  0.1241
 1040SOL    HW114756   4.514   0.022  12.914 -2.3418 -0.3499  0.2454
 1040SOL    HW214757   4.592   4.632  12.938  1.4117  0.0453 -2.6368
 1041SOL     OW14758   3.866   4.190   9.796  0.3345 -0.0044 -0.1174
 1041SOL    HW114759   3.886   4.131   9.869  1.6086 -0.3258 -0.7364
 1041SOL    HW214760   3.780   4.149   9.780 -0.8833  1.4844  2.7093
 1042SOL     OW14761   3.145   2.648  11.368  0.4759  0.1490 -0.2676
 1042SOL    HW114762   3.142   2.698  11.450  0.5424  0.9461 -0.7632
 1042SOL    HW214763   3.124   2.712  11.301  4.9317  2.2722  0.3544
 1043SOL     OW14764   0.766   3.776   5.928  0.1008 -0.3345  0.1303
 1043SOL    HW114765   0.858   3.750   5.934  0.1253 -0.1410  0.6100
 1043SOL    HW214766   0.755   3.786   5.833 -1.7671  0.9281  0.4615
 1044SOL     OW14767   2.145   0.644   4.514 -0.1691 -0.6307  0.1355
 1044SOL    HW114768   2.102   0.598   4.586 -1.3089  0.2420  0.0128
 1044SOL    HW214769   2.081   0.637   4.443 -1.0072  0.0632  0.8330
 1045SOL     OW14770   0.594   4.366   8.461  0.2176 -0.9903  0.0908
 1045SOL    HW114771   0.573   4.277   8.432 -0.4927 -0.3065 -1.4678
 1045SOL    HW214772   0.687   4.360   8.437  0.5727  1.2466  0.8675
 1046SOL     OW14773   1.105   2.624   0.317  0.1665  0.2724 -0.5216
 1046SOL    HW114774   1.019   2.594   0.287 -0.3590  0.4185  0.8121
 1046SOL    HW214775   1.140   2.551   0.369 -0.6774  1.1901  1.3378
 1047SOL     OW14776   4.541   3.324   7.970  0.3300  0.0166 -0.3454
 1047SOL    HW114777   4.575   3.404   8.010 -0.3948  0.0684  0.1763
 1047SOL    HW214778   4.624   3.278   7.968 -0.0243 -0.5916 -1.5684
 1048SOL     OW14779   3.059   2.998   5.017  0.3682 -0.3203 -0.2148
 1048SOL    HW114780   3.047   2.903   5.019  1.7905 -0.5159 -0.9660
 1048SOL    HW214781   3.036   3.016   4.926  2.6808  0.3276 -0.6670
 1049SOL     OW14782   0.143   3.164   4.938 -0.1642 -0.6873 -0.2686
 1049SOL    HW114783   0.168   3.245   4.982 -1.3235 -0.9429  0.8964
 1049SOL    HW214784   0.108   3.111   5.010 -1.1098 -1.7051 -1.4652
 1050SOL     OW14785   0.781   4.445   2.578  0.3202  0.5825  0.0405
 1050SOL    HW114786   0.698   4.471   2.539 -0.0189  0.2967  0.5710
 1050SOL    HW214787   0.773   4.352   2.556  0.5047  1.2070 -2.6094
 1051SOL     OW14788   2.148   0.611   7.528 -0.1618  0.1249  0.2048
 1051SOL    HW114789   2.210   0.543   7.505  0.7425  1.1094 -0.2716
 1051SOL    HW214790   2.123   0.650   7.444  0.2305 -0.1223 -0.0236
 1052SOL     OW14791   1.647   1.583   5.802  0.4346  0.7849 -0.2453
 1052SOL    HW114792   1.569   1.638   5.795 -0.8830 -0.9481  0.7658
 1052SOL    HW214793   1.655   1.534   5.720 -2.3532  0.5071 -0.3660
 1053SOL     OW14794   0.826   0.663   4.242 -0.8660  0.1498  0.1485
 1053SOL    HW114795   0.826   0.691   4.151  0.9754 -1.0132 -0.2115
 1053SOL    HW214796   0.782   0.578   4.231 -0.0603 -0.3812  1.0784
 1054SOL     OW14797   1.375   3.015  13.718  0.0825 -0.2483  0.3611
 1054SOL    HW114798   1.300   3.012  13.777  1.6192  0.2439  2.3066
 1054SOL    HW214799   1.367   3.105  13.686 -1.0805 -0.6080 -0.3907
 1055SOL     OW14800   2.833   1.752   8.323  0.5142  0.2510 -0.2209
 1055SOL    HW114801   2.757   1.762   8.266  0.4363  0.1647 -0.1312
 1055SOL    HW214802   2.856   1.660   8.311  0.5522  0.2922 -0.4630
 1056SOL     OW14803   4.525   0.518   0.407  0.4786 -0.4692 -0.1019
 1056SOL    HW114804   4.542   0.606   0.442 -3.3527  0.4346 -0.4899
 1056SOL    HW214805   4.489   0.474   0.484 -0.7798 -0.8914 -0.9371
 1057SOL     OW14806   0.131   1.248   6.380  0.0562 -0.2480 -0.0742
 1057SOL    HW114807   0.063   1.316   6.378  0.8954  0.5520 -1.1453
 1057SOL    HW214808   0.150   1.238   6.287 -0.2295 -0.6356 -0.0952
 1058SOL     OW14809   3.047   0.961   3.047  0.2974 -0.5358  0.6290
 1058SOL    HW114810   3.142   0.956   3.062  0.6046  1.1433 -0.6883
 1058SOL    HW214811   3.017   0.900   3.113 -0.7370  0.2203  0.8433
 1059SOL     OW14812   2.621   1.623   9.672  0.2453  0.0453  0.3289
 1059SOL    HW114813   2.658   1.668   9.596  0.7797  1.4136  1.3994
 1059SOL    HW214814   2.597   1.699   9.725  0.1193 -0.8111  1.4840
 1060SOL     OW14815   2.648   1.054   4.035 -0.4189 -0.3757 -0.3964
 1060SOL    HW114816   2.706   0.991   4.078 -1.6093 -1.9758 -1.1365
 1060SOL    HW214817   2.567   1.058   4.087 -1.0396 -1.5837 -1.2680
 1061SOL     OW14818   4.037   0.443   1.072 -0.3737  0.2592  1.2601
 1061SOL    HW114819   3.999   0.513   1.018  0.1739 -0.3523  0.0820
 1061SOL    HW214820   4.131   0.453   1.064 -0.2367 -1.5501  0.5734
 1062SOL     OW14821   4.132   1.646   6.079  0.5349  0.2437 -0.3020
 1062SOL    HW114822   4.218   1.633   6.037  0.8912  2.2857 -0.2147
 1062SOL    HW214823   4.138   1.736   6.113  1.3778 -0.3673  1.1740
 1063SOL     OW14824   0.957   4.271   9.481  0.5782  0.3529 -0.1407
 1063SOL    HW114825   0.884   4.320   9.442 -0.7041 -1.1091  0.4627
 1063SOL    HW214826   0.944   4.183   9.447  1.3768  0.4652 -0.7302
 1064SOL     OW14827   4.102   0.609   1.767 -0.0859  0.1730 -0.5151
 1064SOL    HW114828   4.047   0.636   1.694  0.3074 -1.9189 -1.5840
 1064SOL    HW214829   4.180   0.664   1.756  0.5071 -0.6504 -0.4454
 1065SOL     OW14830   1.102   4.003  17.026 -0.1134  0.2702  0.2008
 1065SOL    HW114831   1.161   4.078  17.036  0.1690  0.0595  0.0988
 1065SOL    HW214832   1.058   4.027  16.945  2.0800  1.0611 -0.7485
 1066SOL     OW14833   2.205   4.165   6.191 -0.1672 -0.1745  0.5375
 1066SOL    HW114834   2.281   4.141   6.244 -2.4476 -2.9547  2.5413
 1066SOL    HW214835   2.170   4.076   6.188  1.0478 -0.5833 -1.4844
 1067SOL     OW14836   2.991   2.625   5.726  0.0722  0.0964  0.6060
 1067SOL    HW114837   2.959   2.612   5.637 -1.2422  0.0735  1.0699
 1067SOL    HW214838   3.021   2.715   5.718 -3.0248  1.1795  1.0817
 1068SOL     OW14839   1.821   3.031   1.788  0.0401  0.1458  0.4313
 1068SOL    HW114840   1.833   3.104   1.849  2.4109  0.8473 -0.8600
 1068SOL    HW214841   1.803   2.953   1.842 -0.0566  0.9606  1.5732
 1069SOL     OW14842   0.001   3.582  15.183  0.3329  0.0311  0.1280
 1069SOL    HW114843   0.069   3.583  15.116  0.9950 -2.4335  0.7648
 1069SOL    HW214844   4.707   3.493  15.174 -0.2308  0.3400 -0.7519
 1070SOL     OW14845   3.929   2.776   8.728  0.1504 -0.3067 -0.7090
 1070SOL    HW114846   3.911   2.690   8.691 -0.1759 -0.1487 -0.9161
 1070SOL    HW214847   3.970   2.824   8.656 -1.6563  1.9294 -0.2515
 1071SOL     OW14848   4.720   1.149   4.017  0.3985 -0.2600 -0.1521
 1071SOL    HW114849   4.655   1.218   4.006  0.2947 -0.1338  1.3451
 1071SOL    HW214850   4.666   1.079   4.052  0.9396 -0.7563 -0.2981
 1072SOL     OW14851   1.066   0.282   6.617 -0.8763  0.3505  0.0085
 1072SOL    HW114852   1.063   0.378   6.615 -0.1239  0.3652 -0.3825
 1072SOL    HW214853   1.160   0.272   6.628 -0.8062 -1.2041 -2.0795
 1073SOL     OW14854   0.978   4.464  16.077 -0.0404 -0.0816  0.3777
 1073SOL    HW114855   0.979   4.541  16.021  0.4127  0.6409  1.3680
 1073SOL    HW214856   0.970   4.499  16.166  1.9228 -1.8109  1.2185
 1074SOL     OW14857   0.876   1.668   8.619  0.0735 -0.1816 -0.2680
 1074SOL    HW114858   0.805   1.625   8.571 -0.1844  0.4692 -0.4751
 1074SOL    HW214859   0.833   1.754   8.625 -0.2566 -0.2508 -1.7051
 1075SOL     OW14860   3.698   2.122   3.805  0.2588  0.5745  0.1067
 1075SOL    HW114861   3.698   2.031   3.835  0.7088  0.4364 -0.3136
 1075SOL    HW214862   3.791   2.126   3.781  1.1493  1.1970  3.6665
 1076SOL     OW14863   1.655   1.558   7.802 -0.7807 -0.3759 -0.3561
 1076SOL    HW114864   1.632   1.650   7.807 -1.1094 -0.4779 -0.0065
 1076SOL    HW214865   1.727   1.557   7.865 -1.1780 -2.6814  0.0792
 1077SOL     OW14866   4.021   2.298   7.207 -0.6991 -0.4346  0.5905
 1077SOL    HW114867   3.973   2.366   7.158  0.2206 -0.6572 -0.6191
 1077SOL    HW214868   3.964   2.281   7.282  0.2787 -0.4914  1.3094
 1078SOL     OW14869   3.367   3.562  12.861  0.4201  0.0555 -0.5010
 1078SOL    HW114870   3.422   3.485  12.848 -1.4094 -0.5973 -4.2666
 1078SOL    HW214871   3.305   3.547  12.791 -3.1902 -1.4099  2.9911
 1079SOL     OW14872   0.283   1.225   5.306 -0.3671  0.1440 -0.2166
 1079SOL    HW114873   0.308   1.231   5.213  0.5024  2.6577  0.1904
 1079SOL    HW214874   0.289   1.129   5.298  1.0427  0.1745  0.4330
 1080SOL     OW14875   1.916   0.972   6.144  0.4495  0.1962  0.5071
 1080SOL    HW114876   1.922   1.042   6.079  0.5346  0.6464  0.9933
 1080SOL    HW214877   1.967   0.904   6.101  1.5217  0.3612  1.5146
 1081SOL     OW14878   3.168   3.913   6.219  0.1029  0.3400 -0.0820
 1081SOL    HW114879   3.246   3.875   6.260  1.6045  1.5537 -1.7968
 1081SOL    HW214880   3.102   3.876   6.277 -0.0963  1.3653  0.3494
 1082SOL     OW14881   1.370   0.747   2.951 -0.4642  0.4460  0.2717
 1082SOL    HW114882   1.358   0.685   2.879  2.2356 -0.0766  0.2577
 1082SOL    HW214883   1.278   0.756   2.973 -0.3732 -0.4826  1.0584
 1083SOL     OW14884   3.167   2.820   3.594  0.5383 -0.3995  0.3446
 1083SOL    HW114885   3.098   2.848   3.653 -0.5203  0.2252 -1.1931
 1083SOL    HW214886   3.127   2.745   3.549 -0.2624  0.1501  0.1342
 1084SOL     OW14887   1.218   2.707   6.199 -0.4938  0.5570 -0.5929
 1084SOL    HW114888   1.149   2.769   6.220 -2.2173 -1.5422 -0.0788
 1084SOL    HW214889   1.291   2.766   6.179 -0.2166  1.4596  3.0603
 1085SOL     OW14890   3.783   2.468   5.737  0.1651  0.2622  0.1285
 1085SOL    HW114891   3.822   2.401   5.792 -0.0638  1.0697  1.2922
 1085SOL    HW214892   3.746   2.530   5.800  0.6319  0.2463  0.4169
 1086SOL     OW14893   0.097   1.833   3.731  0.4947 -0.2614 -0.4068
 1086SOL    HW114894   0.074   1.842   3.823 -0.0578  0.2941 -0.5938
 1086SOL    HW214895   0.048   1.907   3.694  1.5338 -0.3108 -1.8922
 1087SOL     OW14896   0.212   4.286  17.605  0.0787 -0.1191  0.5710
 1087SOL    HW114897   0.203   4.381  17.604  0.5935 -0.0696  0.2324
 1087SOL    HW214898   0.134   4.269  17.552  0.2950 -0.0022  0.2159
 1088SOL     OW14899   3.089   1.510   5.925  0.0951  0.1433  0.1939
 1088SOL    HW114900   3.066   1.600   5.947  0.9333  0.2774  0.4946
 1088SOL    HW214901   3.178   1.502   5.958  0.3990  0.8305 -0.4657
 1089SOL     OW14902   0.952   0.035   3.614 -0.1882  0.3339  0.1667
 1089SOL    HW114903   0.935   0.110   3.558 -0.2739  0.2664  0.1015
 1089SOL    HW214904   0.896   4.702   3.584  0.9583  0.7152 -2.8481
 1090SOL     OW14905   1.293   0.114   6.951 -0.3667 -0.0071 -0.1570
 1090SOL    HW114906   1.198   0.124   6.961 -0.1110 -0.5640  2.8350
 1090SOL    HW214907   1.330   0.200   6.931  0.1264 -0.0306  0.6287
 1091SOL     OW14908   0.369   3.599  10.807 -0.2509  0.1283 -0.1776
 1091SOL    HW114909   0.315   3.657  10.753  0.5219 -0.6805 -1.8187
 1091SOL    HW214910   0.435   3.657  10.846 -0.1922 -0.3088  0.3802
 1092SOL     OW14911   1.311   1.403   3.726  0.0804  0.1305  0.1310
 1092SOL    HW114912   1.322   1.358   3.643  3.1683 -1.4485  1.4156
 1092SOL    HW214913   1.394   1.401   3.774  0.0671 -0.3565  0.1324
 1093SOL     OW14914   3.474   2.564   2.946  0.3863  0.1515  0.2171
 1093SOL    HW114915   3.569   2.551   2.940  0.1552 -1.7258  0.5693
 1093SOL    HW214916   3.435   2.490   2.899  1.3833 -0.5504  0.4913
 1094SOL     OW14917   3.320   4.180   8.961  0.0756 -0.0983  0.5694
 1094SOL    HW114918   3.357   4.240   8.896  0.1290 -1.2585 -0.4711
 1094SOL    HW214919   3.248   4.154   8.903 -0.0665 -1.2276  1.2640
 1095SOL     OW14920   0.268   0.602   5.262  0.4457  0.0176 -0.0431
 1095SOL    HW114921   0.212   0.558   5.198  1.0043  1.4680 -1.5317
 1095SOL    HW214922   0.219   0.573   5.339 -0.3974 -1.2566 -1.0526
 1096SOL     OW14923   1.754   1.395   9.939  0.3111 -0.0213 -0.3968
 1096SOL    HW114924   1.742   1.489   9.932 -1.5076 -0.0921  1.7216
 1096SOL    HW214925   1.843   1.385   9.907  0.0773 -1.7593 -0.5196
 1097SOL     OW14926   0.211   3.503  11.026 -0.0214  0.1366  0.0009
 1097SOL    HW114927   0.285   3.449  11.052 -1.0462 -0.6630  1.2627
 1097SOL    HW214928   0.254   3.566  10.969 -1.9147 -0.3702 -1.9833
 1098SOL     OW14929   4.007   0.576   0.486 -0.0751 -0.3098  0.6097
 1098SOL    HW114930   4.061   0.518   0.539 -0.1955  0.5896  1.7227
 1098SOL    HW214931   3.998   0.659   0.533 -1.1216 -1.0316  1.6718
 1099SOL     OW14932   2.463   2.450   7.343  0.0537  0.0031 -0.0288
 1099SOL    HW114933   2.372   2.468   7.318  0.7217  2.1074 -1.0114
 1099SOL    HW214934   2.506   2.421   7.263 -2.4794  1.3078 -1.8959
 1100SOL     OW14935   1.190   4.280   1.952 -1.0323  0.3025  0.2045
 1100SOL    HW114936   1.208   4.372   1.934 -0.1424  0.2805  0.9885
 1100SOL    HW214937   1.275   4.237   1.943 -0.9236  0.8537 -1.4472
 1101SOL     OW14938   2.085   4.381  14.228 -0.3631  0.2027 -0.5176
 1101SOL    HW114939   2.093   4.450  14.294 -2.7137  0.3059 -0.3380
 1101SOL    HW214940   2.109   4.314  14.292  2.2790 -0.2517 -1.9747
 1102SOL     OW14941   4.121   2.499  15.348 -0.1747 -0.1535  0.8792
 1102SOL    HW114942   4.172   2.508  15.428  2.1427 -1.1511 -0.4801
 1102SOL    HW214943   4.128   2.588  15.312 -0.3154  0.3015  2.0010
 1103SOL     OW14944   1.809   3.647   6.790  0.1318  0.0363  0.1769
 1103SOL    HW114945   1.772   3.563   6.762 -1.2720  0.7640 -0.1582
 1103SOL    HW214946   1.872   3.662   6.719 -3.1045 -2.3682 -3.2437
 1104SOL     OW14947   2.695   3.741  12.706  0.1690  0.1849 -0.5015
 1104SOL    HW114948   2.657   3.720  12.792  0.1128  2.7451  0.0863
 1104SOL    HW214949   2.617   3.735  12.651 -1.0550 -0.1536  1.2510
 1105SOL     OW14950   3.127   2.829   1.102  0.0092  0.0643  0.6413
 1105SOL    HW114951   3.067   2.759   1.127  0.4571 -0.4758  0.1936
 1105SOL    HW214952   3.080   2.900   1.147 -2.5211 -1.8911  1.0635
 1106SOL     OW14953   2.663   0.640   6.137 -0.0423 -0.0297  0.4048
 1106SOL    HW114954   2.725   0.690   6.189 -0.8788  2.1051 -0.6704
 1106SOL    HW214955   2.579   0.684   6.135  0.9883  1.8907 -0.3434
 1107SOL     OW14956   2.860   2.434   5.888  0.2011 -0.2650 -0.4845
 1107SOL    HW114957   2.932   2.497   5.888  0.0375 -0.0795 -0.1084
 1107SOL    HW214958   2.871   2.391   5.973  1.0742 -0.3514 -0.6408
 1108SOL     OW14959   0.718   2.858  15.416 -0.2291 -0.6667  0.6368
 1108SOL    HW114960   0.714   2.937  15.362  0.3730 -2.4045 -1.9461
 1108SOL    HW214961   0.806   2.825  15.396  0.5501  1.5012  0.5624
 1109SOL     OW14962   0.025   3.593   5.185  0.5962  0.1766 -0.3879
 1109SOL    HW114963   4.701   3.596   5.256  1.4404  0.2559  0.3670
 1109SOL    HW214964   4.709   3.609   5.109  0.9001 -2.9622 -1.2868
 1110SOL     OW14965   0.711   1.274   3.784  0.1254  0.2587  0.0612
 1110SOL    HW114966   0.749   1.187   3.768  0.6130  1.0251 -2.8502
 1110SOL    HW214967   0.632   1.285   3.731 -0.4768  2.9825  1.5180
 1111SOL     OW14968   2.153   0.622   4.018 -0.0300  0.4974 -0.1151
 1111SOL    HW114969   2.081   0.634   3.955 -1.0679 -1.9128  0.6252
 1111SOL    HW214970   2.103   0.634   4.099  0.7152  2.2428  0.0777
 1112SOL     OW14971   3.987   4.571  11.199  0.1821  0.0472  0.2248
 1112SOL    HW114972   3.964   4.480  11.218  0.7677 -0.3050 -0.7634
 1112SOL    HW214973   4.081   4.567  11.181  0.2764 -0.9838  0.9624
 1113SOL     OW14974   0.791   4.165   2.525  0.0754  0.4242  0.3720
 1113SOL    HW114975   0.741   4.171   2.607  0.7141  2.2151  0.6383
 1113SOL    HW214976   0.801   4.070   2.519  0.0509  0.3489  1.5451
 1114SOL     OW14977   4.706   0.565  14.717  0.5983  0.1737 -1.2224
 1114SOL    HW114978   4.702   0.556  14.622  1.7877  1.9052 -1.4315
 1114SOL    HW214979   0.053   0.530  14.736  0.5408  0.5417 -0.2955
 1115SOL     OW14980   3.723   4.538  16.397  0.1548 -0.2698 -0.5381
 1115SOL    HW114981   3.814   4.566  16.409  0.7820 -2.1010 -1.0847
 1115SOL    HW214982   3.679   4.608  16.446  0.9454 -0.7623  0.8932
 1116SOL     OW14983   1.270   3.264  15.598  0.2248  0.0803 -0.5294
 1116SOL    HW114984   1.337   3.227  15.540  1.3494 -1.2835  1.6201
 1116SOL    HW214985   1.260   3.356  15.576  0.2211  0.5189  1.2609
 1117SOL     OW14986   3.008   2.115   9.098  0.0299 -0.0033  0.2894
 1117SOL    HW114987   3.093   2.151   9.071 -0.1006 -0.2967 -0.5269
 1117SOL    HW214988   3.021   2.049   9.166 -4.2564 -0.9840  0.1458
 1118SOL     OW14989   4.012   1.874   2.004 -0.0405  0.2539 -0.4782
 1118SOL    HW114990   3.993   1.806   2.070 -0.4077 -0.2891 -1.1437
 1118SOL    HW214991   4.107   1.865   1.998 -0.1257  0.8003 -2.5327
 1119SOL     OW14992   3.616   1.415  16.719  0.3086  0.3665 -0.9037
 1119SOL    HW114993   3.575   1.427  16.805 -0.3411  1.7436 -1.4106
 1119SOL    HW214994   3.701   1.386  16.752  0.5536  1.8852 -0.1772
 1120SOL     OW14995   2.297   2.688   1.850 -0.6795  0.7640 -0.0571
 1120SOL    HW114996   2.269   2.772   1.887 -2.1687 -0.1200  0.8181
 1120SOL    HW214997   2.392   2.694   1.851 -0.5680 -1.2964  1.7628
 1121SOL     OW14998   3.459   1.313   1.464 -0.1579 -0.2201  0.3003
 1121SOL    HW114999   3.424   1.307   1.375  1.0814 -1.3855 -0.1340
 1121SOL    HW215000   3.543   1.268   1.450 -0.1606 -0.7357  1.9093
 1122SOL     OW15001   3.072   0.045   0.713  0.5292  0.2937  0.1538
 1122SOL    HW115002   3.054   4.704   0.761  0.3774 -0.3501 -0.9647
 1122SOL    HW215003   3.156   0.015   0.678  0.6182  1.3580 -0.5561
 1123SOL     OW15004   1.332   1.760   3.019 -0.0983  0.0633  0.4141
 1123SOL    HW115005   1.313   1.672   3.053 -1.5244  0.2320  0.0511
 1123SOL    HW215006   1.261   1.777   2.957  0.7303  1.6375 -0.1123
 1124SOL     OW15007   1.301   0.384   3.178  0.2038  0.6189  0.0178
 1124SOL    HW115008   1.210   0.410   3.190 -0.4391 -2.2986  1.4874
 1124SOL    HW215009   1.324   0.350   3.264 -2.1355  0.1288  0.4384
 1125SOL     OW15010   1.023   0.844   0.337 -0.3749 -0.3772  0.7193
 1125SOL    HW115011   1.093   0.827   0.400 -1.7262  0.4416  2.4552
 1125SOL    HW215012   0.961   0.774   0.354 -0.2571 -0.8903 -0.9921
 1126SOL     OW15013   3.169   4.360   3.610  0.5027 -0.4584  0.4412
 1126SOL    HW115014   3.197   4.300   3.679  0.0798 -0.7031  0.3988
 1126SOL    HW215015   3.096   4.315   3.568  0.2218 -0.5117  0.9941
 1127SOL     OW15016   3.037   3.977   0.540  0.0781  0.3637  0.1133
 1127SOL    HW115017   3.114   3.979   0.597 -0.2580  0.3125  0.5680
 1127SOL    HW215018   2.974   3.996   0.609 -0.9499 -0.2417 -0.6541
 1128SOL     OW15019   3.016   4.312  11.857  0.1494  0.1584  0.3479
 1128SOL    HW115020   2.940   4.283  11.806  0.6298 -0.4720 -0.0085
 1128SOL    HW215021   3.012   4.261  11.937 -1.5586 -2.6851 -1.5375
 1129SOL     OW15022   0.770   0.550   5.958  0.2500  0.5301  0.0038
 1129SOL    HW115023   0.818   0.632   5.940  1.6475 -0.2594  0.1447
 1129SOL    HW215024   0.769   0.512   5.870 -0.9143  0.1880  0.1659
 1130SOL     OW15025   0.313   2.818   8.382 -0.0718 -0.3256 -0.5463
 1130SOL    HW115026   0.402   2.808   8.414  0.5047 -1.1961 -2.4722
 1130SOL    HW215027   0.321   2.899   8.331  1.3751  0.3212  0.7180
 1131SOL     OW15028   0.292   4.718   6.549 -0.2230  0.3988  0.3894
 1131SOL    HW115029   0.372   0.030   6.555  1.3816 -1.9400 -1.0092
 1131SOL    HW215030   0.265   0.004   6.461 -1.3376 -3.7358 -0.4779
 1132SOL     OW15031   2.997   1.923   5.040 -0.5492  0.4277 -0.4684
 1132SOL    HW115032   3.009   1.946   5.132 -0.0592  1.6101 -0.8278
 1132SOL    HW215033   3.086   1.931   5.006 -0.2537 -1.1817 -0.0728
 1133SOL     OW15034   1.028   2.632   3.710 -0.3057 -0.3221  0.0168
 1133SOL    HW115035   1.083   2.639   3.788 -0.7942  4.0737 -0.0460
 1133SOL    HW215036   1.008   2.539   3.707 -0.7250 -0.2238 -0.2478
 1134SOL     OW15037   0.571   0.873   4.051  0.0267 -0.1543  0.1358
 1134SOL    HW115038   0.646   0.843   4.000 -1.8809 -1.6433 -1.8009
 1134SOL    HW215039   0.571   0.968   4.039  0.1336 -0.4038 -1.8349
 1135SOL     OW15040   2.321   1.300   4.064 -0.2304  0.1445 -0.5438
 1135SOL    HW115041   2.230   1.330   4.069 -0.7902 -1.2142 -2.4810
 1135SOL    HW215042   2.370   1.372   4.101 -1.0229 -0.2640  1.2948
 1136SOL     OW15043   3.560   1.871   9.803  0.2550 -0.2978 -0.3439
 1136SOL    HW115044   3.465   1.879   9.791  0.0551 -1.0300  0.7628
 1136SOL    HW215045   3.586   1.929   9.732  0.7174 -0.8581 -0.6284
 1137SOL     OW15046   2.467   0.629  12.789 -0.5514 -0.0354 -0.1828
 1137SOL    HW115047   2.433   0.716  12.769  1.5919  0.7300 -0.5291
 1137SOL    HW215048   2.529   0.643  12.861  1.0096  0.1114 -1.5376
 1138SOL     OW15049   3.620   1.705   4.219  0.3876 -0.2631  0.9838
 1138SOL    HW115050   3.672   1.764   4.273 -1.3996  1.2803  0.9986
 1138SOL    HW215051   3.679   1.631   4.233  1.4015  0.7133  1.9359
 1139SOL     OW15052   2.775   2.923   3.010 -0.1220  0.3094 -0.1666
 1139SOL    HW115053   2.814   2.977   2.941  3.3425 -1.6394  0.2900
 1139SOL    HW215054   2.847   2.928   3.072 -0.3501 -0.2611  0.1363
 1140SOL     OW15055   3.080   4.422  17.337  0.8085  0.1795  0.2698
 1140SOL    HW115056   3.027   4.360  17.287  1.5417  1.5152 -2.1435
 1140SOL    HW215057   3.170   4.395  17.322  1.0355 -0.2267  2.3801
 1141SOL     OW15058   3.009   4.155  14.998 -0.6718 -0.2806 -0.2400
 1141SOL    HW115059   3.092   4.166  15.044 -1.2092 -0.5095  0.7721
 1141SOL    HW215060   2.963   4.234  15.024 -0.2330 -0.1734  0.2137
 1142SOL     OW15061   0.309   4.340   8.331 -0.3800  0.0862 -0.7692
 1142SOL    HW115062   0.268   4.358   8.246 -1.4954  1.7300  0.1156
 1142SOL    HW215063   0.358   4.259   8.317 -1.3656 -0.6896  0.3030
 1143SOL     OW15064   3.366   0.126   2.719  0.2697  0.0154  0.0829
 1143SOL    HW115065   3.331   0.123   2.808 -0.2510 -1.6690 -0.1946
 1143SOL    HW215066   3.460   0.129   2.737  0.5200  2.7487 -1.5755
 1144SOL     OW15067   2.147   0.930   3.435  0.3057  0.1928 -0.6751
 1144SOL    HW115068   2.233   0.972   3.437  0.6843 -0.7860  2.9436
 1144SOL    HW215069   2.142   0.908   3.528 -3.1668  0.3224 -0.8473
 1145SOL     OW15070   0.993   0.089   5.641  0.1423  0.4594 -0.6020
 1145SOL    HW115071   0.978   4.734   5.644  1.4162  0.3031  0.8211
 1145SOL    HW215072   0.920   0.129   5.688 -1.2597  0.4438 -2.7889
 1146SOL     OW15073   1.989   2.182   7.173  0.3988 -0.5685  0.1697
 1146SOL    HW115074   1.928   2.195   7.101 -1.1131 -2.4492  1.1102
 1146SOL    HW215075   1.972   2.259   7.228 -0.3638 -1.5825  1.3324
 1147SOL     OW15076   0.693   4.102   4.868 -0.5854 -0.5270  0.1276
 1147SOL    HW115077   0.748   4.083   4.944 -1.9602 -1.1083  0.9752
 1147SOL    HW215078   0.611   4.132   4.907 -2.4318 -3.4119 -1.5734
 1148SOL     OW15079   4.005   0.740   6.216 -0.4877 -0.5805  0.5949
 1148SOL    HW115080   3.936   0.754   6.150  0.8454  0.2863 -0.6151
 1148SOL    HW215081   4.080   0.767   6.163 -0.8042  1.9491  1.4702
 1149SOL     OW15082   3.657   1.768   1.368 -0.1016  0.6803 -0.6159
 1149SOL    HW115083   3.564   1.748   1.358 -0.3667  0.7569  1.5749
 1149SOL    HW215084   3.667   1.737   1.458  0.2321  1.6116 -0.3226
 1150SOL     OW15085   2.709   2.035   3.548  0.0830  0.2853  0.2780
 1150SOL    HW115086   2.673   2.104   3.604 -0.0856  0.1489  0.3380
 1150SOL    HW215087   2.735   1.971   3.614  2.3520  0.6396 -0.2621
 1151SOL     OW15088   4.073   0.657  14.011 -0.1760  0.1635  0.2383
 1151SOL    HW115089   4.111   0.743  14.027  1.4149 -0.2645 -1.3163
 1151SOL    HW215090   4.043   0.656  13.920  1.9357 -0.6618 -0.4406
 1152SOL     OW15091   0.236   1.193  10.422  0.1423 -0.0312 -0.2037
 1152SOL    HW115092   0.279   1.174  10.505 -0.5481  2.6296  0.7857
 1152SOL    HW215093   0.288   1.148  10.355 -0.0679  0.0497 -0.4230
 1153SOL     OW15094   1.091   0.986   4.373 -0.2556  0.0096  0.1252
 1153SOL    HW115095   1.019   1.023   4.424  0.6173  2.6416 -0.5265
 1153SOL    HW215096   1.057   0.898   4.354  0.2610 -0.0946 -0.3227
 1154SOL     OW15097   0.231   0.590   7.436  0.3446 -0.9099  0.1412
 1154SOL    HW115098   0.277   0.583   7.520 -0.6243 -0.2353  0.7242
 1154SOL    HW215099   0.179   0.510   7.436 -0.5609 -0.3242  0.1537
 1155SOL     OW15100   1.941   0.213   8.094  0.1159 -1.1274  0.2389
 1155SOL    HW115101   1.980   0.299   8.105 -0.8385 -0.6960  0.2214
 1155SOL    HW215102   1.956   0.201   8.000 -3.8866  1.2290 -0.6724
 1156SOL     OW15103   2.983   0.289  10.864 -0.3763 -0.2851  0.1949
 1156SOL    HW115104   3.029   0.209  10.837  0.3847 -0.5235  2.2051
 1156SOL    HW215105   3.015   0.301  10.953 -0.3717  0.3262  0.1102
 1157SOL     OW15106   4.200   3.266   1.783 -0.7905 -0.5903  0.2707
 1157SOL    HW115107   4.265   3.234   1.846  0.1458 -0.3847 -0.5985
 1157SOL    HW215108   4.113   3.257   1.821 -0.5838 -0.9063  0.6732
 1158SOL     OW15109   0.454   0.095   4.245 -0.4704  0.8012 -0.1848
 1158SOL    HW115110   0.529   0.050   4.205 -0.9960 -0.1428 -0.1146
 1158SOL    HW215111   0.500   0.131   4.320  0.1433  2.6224 -1.4424
 1159SOL     OW15112   3.709   4.396   3.459  0.5545  0.1838 -0.4348
 1159SOL    HW115113   3.629   4.367   3.414  1.0641 -3.2339  0.9091
 1159SOL    HW215114   3.772   4.371   3.392 -0.8329  0.4239 -1.8398
 1160SOL     OW15115   3.936   1.296   8.348 -0.4634 -0.0455  0.1558
 1160SOL    HW115116   3.915   1.345   8.268  2.3815  0.1635 -0.4999
 1160SOL    HW215117   3.990   1.367   8.384  0.7352 -1.5172  1.2425
 1161SOL     OW15118   2.068   1.540  15.067 -0.4904  0.6240  1.2171
 1161SOL    HW115119   2.108   1.596  15.001 -0.2975 -0.7809  0.1320
 1161SOL    HW215120   1.999   1.498  15.015  0.9060  2.0813 -1.7830
 1162SOL     OW15121   0.071   1.716   1.122 -0.9944  0.4369  0.1145
 1162SOL    HW115122   0.057   1.777   1.050  2.3190 -0.7294 -1.5231
 1162SOL    HW215123   0.112   1.641   1.078  0.8791  1.7418 -0.3875
 1163SOL     OW15124   1.041   2.533  10.748  0.1600  0.5531  0.0679
 1163SOL    HW115125   1.009   2.596  10.684 -1.4134  0.6796  0.9904
 1163SOL    HW215126   1.063   2.598  10.814  1.4401 -1.0146  1.1814
 1164SOL     OW15127   3.315   0.677  13.849  0.3150 -0.1374  0.2018
 1164SOL    HW115128   3.370   0.754  13.861 -1.6303  1.0750  1.2554
 1164SOL    HW215129   3.247   0.706  13.909 -0.4118 -1.1422 -0.1256
 1165SOL     OW15130   2.025   3.567  10.886 -0.3277 -0.0022 -0.5479
 1165SOL    HW115131   2.064   3.567  10.799 -0.4193  1.0922 -0.5836
 1165SOL    HW215132   2.074   3.494  10.924  1.6295  1.0760 -1.0242
 1166SOL     OW15133   1.293   3.440   8.000 -0.1304 -0.4618  0.1520
 1166SOL    HW115134   1.233   3.426   8.073 -2.0298  3.0610 -0.7058
 1166SOL    HW215135   1.366   3.479   8.049  0.1287 -0.1251 -0.4951
 1167SOL     OW15136   4.418   3.633   4.392 -0.5402  0.1816 -0.1504
 1167SOL    HW115137   4.420   3.544   4.357 -0.2637  0.3364 -0.5205
 1167SOL    HW215138   4.460   3.624   4.478  0.0223 -1.3954 -0.6038
 1168SOL     OW15139   1.700   2.453  16.521 -0.8430  0.5298 -0.3279
 1168SOL    HW115140   1.607   2.453  16.544 -1.2073  0.0567 -1.7638
 1168SOL    HW215141   1.736   2.436  16.608 -2.2117 -0.7212 -0.0024
 1169SOL     OW15142   0.497   1.113  15.559 -0.0850  0.4195 -0.1076
 1169SOL    HW115143   0.511   1.032  15.608  1.2595  0.6415 -0.1228
 1169SOL    HW215144   0.422   1.083  15.507  0.0665  0.8181 -0.5599
 1170SOL     OW15145   4.152   0.230   2.826  0.4140  0.7046 -0.2757
 1170SOL    HW115146   4.229   0.210   2.773  0.7223 -0.7095  0.6998
 1170SOL    HW215147   4.134   0.152   2.880  0.3703 -0.4844 -2.0060
 1171SOL     OW15148   4.113   3.061   5.400  0.5240  0.0764  0.0593
 1171SOL    HW115149   4.092   3.090   5.489  1.6662  2.1480 -0.3430
 1171SOL    HW215150   4.147   3.142   5.361 -0.4520 -0.1281 -1.2395
 1172SOL     OW15151   3.743   0.221   3.320  0.1089 -0.1945  0.0443
 1172SOL    HW115152   3.748   0.134   3.360 -0.8375 -1.5665 -2.8113
 1172SOL    HW215153   3.699   0.192   3.240  3.6337 -0.7958 -1.6691
 1173SOL     OW15154   2.839   0.187  11.757 -0.8512  0.3253  0.4465
 1173SOL    HW115155   2.764   0.160  11.704 -0.5423 -0.6581  0.5277
 1173SOL    HW215156   2.797   0.194  11.843  1.8004  0.2890  1.7335
 1174SOL     OW15157   4.010   3.322  15.775  0.2908  0.2632 -1.0000
 1174SOL    HW115158   4.037   3.253  15.714 -2.7169 -0.3783 -1.5958
 1174SOL    HW215159   3.962   3.374  15.711  0.5154 -0.6840 -1.9499
 1175SOL     OW15160   0.372   3.124   3.456  0.5952  0.2392  0.2560
 1175SOL    HW115161   0.295   3.128   3.398 -0.3921 -4.0854  1.2618
 1175SOL    HW215162   0.333   3.091   3.537  0.4551 -0.1054  0.0461
 1176SOL     OW15163   2.996   4.439   5.515  0.0610  0.1007 -0.3139
 1176SOL    HW115164   2.909   4.401   5.526  0.7784 -1.1687  0.9973
 1176SOL    HW215165   2.988   4.491   5.435  0.2656  0.4887 -0.0783
 1177SOL     OW15166   0.511   0.437   5.357 -0.2698  0.7517  0.4157
 1177SOL    HW115167   0.572   0.468   5.290 -0.8630  1.1651  0.0626
 1177SOL    HW215168   0.438   0.497   5.340  0.2350  0.9643 -0.9520
 1178SOL     OW15169   4.384   3.117   5.044 -0.0852  0.3585 -0.5976
 1178SOL    HW115170   4.367   3.055   5.114  0.2597  1.2027  0.2332
 1178SOL    HW215171   4.310   3.087   4.991  0.7704 -1.5489 -0.7275
 1179SOL     OW15172   0.558   4.495   6.397 -0.5096 -0.3804  0.0812
 1179SOL    HW115173   0.465   4.474   6.388 -1.1112  1.0287  2.9386
 1179SOL    HW215174   0.572   4.542   6.315 -1.0223 -2.2208 -1.0435
 1180SOL     OW15175   3.889   3.442   5.581  0.6659  0.3812 -0.0709
 1180SOL    HW115176   3.927   3.523   5.546  0.1241  0.5097 -0.3743
 1180SOL    HW215177   3.851   3.397   5.506 -0.2980  1.4900 -0.2528
 1181SOL     OW15178   0.585   3.376   8.632  0.6282  0.5657 -0.1642
 1181SOL    HW115179   0.656   3.328   8.590  1.4152  2.4147 -0.9227
 1181SOL    HW215180   0.511   3.315   8.628  1.6045 -0.7492  1.4788
 1182SOL     OW15181   4.047   3.207   4.966  0.5069  0.0927  0.3348
 1182SOL    HW115182   4.092   3.254   5.036 -3.3069  1.1719  2.0852
 1182SOL    HW215183   4.037   3.279   4.904 -0.4857 -0.0264  0.3484
 1183SOL     OW15184   2.922   0.395  11.161 -0.3875  0.0428 -0.7311
 1183SOL    HW115185   2.926   0.324  11.226 -2.5864 -0.2867 -0.9726
 1183SOL    HW215186   2.952   0.469  11.214 -1.1924 -0.3553  0.2753
 1184SOL     OW15187   0.612   0.096   4.523  0.0670 -0.7140 -0.4723
 1184SOL    HW115188   0.529   0.061   4.555 -0.9513  2.9427  0.9022
 1184SOL    HW215189   0.672   0.040   4.571 -0.6153  1.1360  2.5206
 1185SOL     OW15190   0.778   0.194   4.300 -0.1149  0.4570 -0.4160
 1185SOL    HW115191   0.753   0.278   4.262 -0.8596 -0.6917 -2.4386
 1185SOL    HW215192   0.702   0.176   4.355 -0.9048 -1.5891 -2.2125
 1186SOL     OW15193   2.601   4.238   1.329 -0.0974 -0.4404 -0.1668
 1186SOL    HW115194   2.534   4.306   1.320 -0.5580 -0.5701  2.2534
 1186SOL    HW215195   2.573   4.210   1.417  0.7040 -2.2700 -0.4964
 1187SOL     OW15196   1.672   0.834  12.252  0.2597 -0.3894  0.3890
 1187SOL    HW115197   1.725   0.888  12.193 -1.1728  0.4963 -0.0868
 1187SOL    HW215198   1.701   0.875  12.334 -0.8704  0.5831  0.2948
 1188SOL     OW15199   0.140   2.197  13.133  0.6259  0.4140 -0.0417
 1188SOL    HW115200   0.106   2.108  13.135 -1.8859  1.3004 -2.2401
 1188SOL    HW215201   0.230   2.180  13.107  0.2605 -1.6497  0.0252
 1189SOL     OW15202   1.387   1.820   8.659 -0.5829  0.6523 -0.0854
 1189SOL    HW115203   1.328   1.779   8.722  0.1408  1.6722  1.2639
 1189SOL    HW215204   1.376   1.758   8.588 -2.0743  2.8394 -1.7613
 1190SOL     OW15205   0.748   2.764  16.344  0.2510 -0.3333  0.0570
 1190SOL    HW115206   0.750   2.793  16.253 -2.6385  0.1839  0.1590
 1190SOL    HW215207   0.838   2.748  16.370  0.2186 -3.9051 -1.9823
 1191SOL     OW15208   4.129   2.600   0.142 -0.1655 -0.7079  0.2725
 1191SOL    HW115209   4.051   2.552   0.113 -0.1335 -1.3647  1.2676
 1191SOL    HW215210   4.195   2.563   0.084 -0.1439  1.3905 -1.0329
 1192SOL     OW15211   2.062   4.364   8.071 -0.0827  0.6691 -0.1812
 1192SOL    HW115212   2.041   4.405   7.987 -0.5207 -3.1159 -1.8804
 1192SOL    HW215213   1.989   4.407   8.116  0.1437  2.0802 -1.1637
 1193SOL     OW15214   1.197   3.603   3.268  0.5101  0.7193  0.6139
 1193SOL    HW115215   1.170   3.608   3.360  1.5786 -1.3372  1.0497
 1193SOL    HW215216   1.203   3.696   3.247  3.5000 -0.1476 -2.4198
 1194SOL     OW15217   3.657   2.711   9.625 -0.7025 -0.0322 -0.2015
 1194SOL    HW115218   3.674   2.774   9.555  3.5066  0.3843  1.1981
 1194SOL    HW215219   3.708   2.635   9.596 -1.7196 -0.7573 -0.1121
 1195SOL     OW15220   4.344   1.837   5.899 -0.5445 -0.1013  0.2651
 1195SOL    HW115221   4.341   1.744   5.921 -0.7504 -0.5635 -1.7795
 1195SOL    HW215222   4.346   1.830   5.804  0.4849 -0.7205  0.3213
 1196SOL     OW15223   0.639   3.540   6.575 -0.1832 -0.0310  0.4469
 1196SOL    HW115224   0.645   3.540   6.480 -2.2698 -1.6820  0.3010
 1196SOL    HW215225   0.723   3.512   6.611  0.1548  1.5491  0.8867
 1197SOL     OW15226   1.939   3.778  11.937  0.3008 -0.1663  0.1551
 1197SOL    HW115227   1.917   3.686  11.946  0.6450 -0.2568  0.0469
 1197SOL    HW215228   2.001   3.773  11.865  0.0204  2.2941 -0.2529
 1198SOL     OW15229   0.749   3.772   1.298  0.0508 -0.5994  0.0795
 1198SOL    HW115230   0.768   3.865   1.304  1.0715 -0.7507 -0.9652
 1198SOL    HW215231   0.834   3.728   1.289  0.4368 -0.1564  1.4321
 1199SOL     OW15232   1.016   1.534   7.774  0.8134 -0.0466 -0.5248
 1199SOL    HW115233   1.011   1.557   7.681  0.6778 -0.0768 -0.5241
 1199SOL    HW215234   1.101   1.494   7.757  1.3913  1.4806 -1.2556
 1200SOL     OW15235   4.306   0.902   4.898 -0.4473  0.3628  0.1497
 1200SOL    HW115236   4.371   0.866   4.839  1.3530  1.5334  1.4230
 1200SOL    HW215237   4.268   0.960   4.832 -1.0674  0.0576  0.2346
 1201SOL     OW15238   4.649   0.893   5.699 -0.2009  0.3314  0.1687
 1201SOL    HW115239   4.571   0.941   5.671 -0.9242 -2.4930 -2.5951
 1201SOL    HW215240   4.613   0.813   5.737  2.0600 -1.1336 -0.7543
 1202SOL     OW15241   0.303   3.026  11.811  0.2475  0.4713 -0.2296
 1202SOL    HW115242   0.365   3.038  11.883 -1.1375  2.2549  0.6435
 1202SOL    HW215243   0.365   3.017  11.739 -0.7378  0.6024 -1.0877
 1203SOL     OW15244   2.789   2.886   2.363 -0.4107  0.4082 -0.3495
 1203SOL    HW115245   2.768   2.793   2.366 -0.6578  0.5098  1.3291
 1203SOL    HW215246   2.728   2.913   2.431 -1.1087 -1.5968 -0.1735
 1204SOL     OW15247   0.094   3.155   6.957 -0.3949 -0.7133 -0.5630
 1204SOL    HW115248   4.739   3.144   6.959 -0.4055 -0.5361 -0.0850
 1204SOL    HW215249   0.121   3.085   7.016  0.2711  0.5629  0.6470
 1205SOL     OW15250   1.584   2.813   2.318  0.0457 -0.1706  0.0175
 1205SOL    HW115251   1.601   2.803   2.225  0.1877  2.9478 -0.3203
 1205SOL    HW215252   1.623   2.899   2.334 -0.8244  0.5674 -1.7928
 1206SOL     OW15253   2.573   0.950  13.192 -0.8500  0.1501 -0.0936
 1206SOL    HW115254   2.533   1.007  13.258 -0.1708  0.7987 -0.2273
 1206SOL    HW215255   2.567   1.012  13.120  1.7390 -0.6489 -1.0181
 1207SOL     OW15256   0.559   4.406   1.879 -0.4934 -0.4849 -0.0805
 1207SOL    HW115257   0.576   4.427   1.971 -0.3631 -0.7608 -0.0415
 1207SOL    HW215258   0.466   4.418   1.861 -0.6468  1.3885  2.0532
 1208SOL     OW15259   2.451   0.949   1.149 -0.6591 -0.1334 -0.5746
 1208SOL    HW115260   2.392   0.947   1.225 -1.1428 -0.7941 -0.9666
 1208SOL    HW215261   2.484   1.038   1.155  1.7909 -0.9072 -2.4546
 1209SOL     OW15262   1.795   3.523  11.922 -0.0571 -0.1766 -0.3035
 1209SOL    HW115263   1.705   3.551  11.906 -0.6080 -2.7744 -1.8464
 1209SOL    HW215264   1.810   3.493  11.833  0.2901  1.1469 -0.6842
 1210SOL     OW15265   1.494   2.868   2.042  0.5773 -0.5375 -0.4401
 1210SOL    HW115266   1.429   2.847   1.975 -0.2138  2.3517 -0.6157
 1210SOL    HW215267   1.561   2.802   2.027  3.2048  1.8684  0.5476
 1211SOL     OW15268   2.207   1.166  15.149 -0.5452  0.4730 -0.1502
 1211SOL    HW115269   2.148   1.130  15.083 -0.5384 -0.0102  0.1070
 1211SOL    HW215270   2.157   1.156  15.230 -1.0692  2.5483 -0.2126
 1212SOL     OW15271   2.626   4.407  15.525  0.1657  0.4907 -0.0764
 1212SOL    HW115272   2.647   4.317  15.552  2.6027  1.6212  1.7578
 1212SOL    HW215273   2.583   4.451  15.597  1.4626 -1.1018  1.6935
 1213SOL     OW15274   3.189   2.539   1.281  0.0179 -0.5679  0.2434
 1213SOL    HW115275   3.153   2.621   1.313  0.9028  0.6017 -1.8010
 1213SOL    HW215276   3.190   2.488   1.362  1.7831 -0.2209  0.4576
 1214SOL     OW15277   2.345   1.790   7.036 -0.2875  0.3790 -0.2545
 1214SOL    HW115278   2.367   1.800   6.944 -0.9935 -1.7721 -0.6420
 1214SOL    HW215279   2.279   1.856   7.058 -0.4523  0.5000 -1.1308
 1215SOL     OW15280   0.282   4.271   0.688  0.0897 -0.8512 -0.0665
 1215SOL    HW115281   0.282   4.338   0.756  1.0235  2.0890 -3.0133
 1215SOL    HW215282   0.202   4.221   0.703  0.5243 -1.6375 -0.3616
 1216SOL     OW15283   0.872   1.100   0.314  0.5042 -0.5010  0.3906
 1216SOL    HW115284   0.844   1.109   0.405 -1.6431  0.3753 -0.3787
 1216SOL    HW215285   0.915   1.014   0.314 -1.3164 -1.4166  0.6706
 1217SOL     OW15286   3.917   1.711   8.510 -0.0847  0.4608 -0.5020
 1217SOL    HW115287   3.993   1.687   8.564  0.5250 -1.0929 -2.0461
 1217SOL    HW215288   3.947   1.692   8.421 -0.0734 -1.0942 -0.1646
 1218SOL     OW15289   3.295   0.441   0.114 -0.2440  0.0288  0.3047
 1218SOL    HW115290   3.291   0.496   0.192 -0.0855  0.0885  0.2712
 1218SOL    HW215291   3.205   0.410   0.125 -0.1024  0.0533  1.5473
 1219SOL     OW15292   2.071   3.337  16.372 -0.0616 -0.0823  0.2334
 1219SOL    HW115293   2.098   3.294  16.452 -0.4225 -1.6817 -0.5134
 1219SOL    HW215294   2.155   3.377  16.349 -0.7699 -0.3962 -2.8914
 1220SOL     OW15295   2.392   0.705  17.166  0.3442  0.4524  0.3420
 1220SOL    HW115296   2.484   0.725  17.181  0.7506 -2.1256  1.3434
 1220SOL    HW215297   2.399   0.660  17.082  0.0152  0.3175  0.3855
 1221SOL     OW15298   3.929   3.531   1.890  0.5864  0.0289 -0.5268
 1221SOL    HW115299   3.884   3.493   1.966 -0.9553  1.3926 -0.7482
 1221SOL    HW215300   3.855   3.529   1.830  1.2379  1.8344 -1.3865
 1222SOL     OW15301   3.317   2.752   2.409  0.1489 -0.0959  0.4594
 1222SOL    HW115302   3.411   2.759   2.392  0.1507  0.2597  0.6290
 1222SOL    HW215303   3.300   2.705   2.490  1.8756 -0.4713  0.6049
 1223SOL     OW15304   2.093   0.357   9.054 -0.1648 -0.6135  0.0922
 1223SOL    HW115305   2.001   0.343   9.075 -0.3459  0.0673 -0.2428
 1223SOL    HW215306   2.128   0.420   9.117  0.4927 -1.9710  1.1032
 1224SOL     OW15307   2.208   2.357   8.479  0.3748  0.0184  0.0001
 1224SOL    HW115308   2.298   2.339   8.507 -0.3681 -2.4840  0.6763
 1224SOL    HW215309   2.178   2.267   8.480 -0.0144  0.1449 -0.1701
 1225SOL     OW15310   0.894   3.585   8.498 -0.2346 -0.0724 -0.3029
 1225SOL    HW115311   0.883   3.676   8.525  0.1392  0.3538 -1.5611
 1225SOL    HW215312   0.875   3.536   8.578  2.2930  1.4925  1.2621
 1226SOL     OW15313   2.611   1.680   8.188  0.3136 -0.1952  0.9044
 1226SOL    HW115314   2.594   1.722   8.104 -0.4073 -0.8347  0.7316
 1226SOL    HW215315   2.615   1.591   8.155  2.7042  0.6354 -1.0467
 1227SOL     OW15316   2.232   0.832  17.000  0.3965  0.0139 -0.0519
 1227SOL    HW115317   2.276   0.783  17.069 -0.5157  1.4330  1.5279
 1227SOL    HW215318   2.180   0.763  16.960 -0.0626  0.9989 -1.1614
 1228SOL     OW15319   1.880   3.755   0.412 -0.0952 -0.3309  0.4176
 1228SOL    HW115320   1.838   3.809   0.479 -0.4143 -0.0759  0.0103
 1228SOL    HW215321   1.940   3.712   0.473 -0.3637  0.6127  1.3431
 1229SOL     OW15322   2.350   0.752   6.132 -0.3179  0.1407 -0.2336
 1229SOL    HW115323   2.344   0.719   6.221 -0.6290 -0.4216 -0.4613
 1229SOL    HW215324   2.424   0.812   6.130  1.2279 -1.7095  1.4073
 1230SOL     OW15325   0.012   2.901   3.163  0.0744  0.2161  0.6482
 1230SOL    HW115326   4.691   2.893   3.090 -0.9691 -0.5843  1.6014
 1230SOL    HW215327   0.052   2.814   3.168 -1.2707 -0.4302  0.0715
 1231SOL     OW15328   2.985   3.209   6.166  0.0511  0.2773 -0.0918
 1231SOL    HW115329   3.059   3.269   6.177  0.3878  0.0469 -1.1261
 1231SOL    HW215330   3.023   3.136   6.118 -3.6198 -0.2575 -2.1645
 1232SOL     OW15331   3.521   4.334   4.100 -0.0959  0.1129 -0.0060
 1232SOL    HW115332   3.510   4.408   4.160 -1.6007 -0.3424  0.2549
 1232SOL    HW215333   3.458   4.358   4.032  1.3711  2.1391 -0.6766
 1233SOL     OW15334   2.209   0.650   2.130 -0.4038  1.0155 -0.3877
 1233SOL    HW115335   2.220   0.571   2.077  1.1796  1.6803 -1.0697
 1233SOL    HW215336   2.299   0.685   2.129  0.4639 -1.2316  0.1784
 1234SOL     OW15337   1.721   4.485  15.452  0.3186  0.0319 -0.0574
 1234SOL    HW115338   1.687   4.553  15.509 -0.6718 -1.9069  1.6631
 1234SOL    HW215339   1.648   4.424  15.455  1.5097 -1.4149 -0.0091
 1235SOL     OW15340   0.550   4.443   7.585  0.4584  0.5084 -0.3744
 1235SOL    HW115341   0.507   4.424   7.668 -0.4843 -0.1544 -1.0202
 1235SOL    HW215342   0.636   4.409   7.611  0.7129  0.6223 -1.0849
 1236SOL     OW15343   0.019   3.039  11.884 -0.2438  0.2433 -0.5227
 1236SOL    HW115344   0.109   3.025  11.853 -0.4556 -0.4894 -0.8054
 1236SOL    HW215345   0.037   3.074  11.972  1.4196  2.2201 -1.6570
 1237SOL     OW15346   2.302   0.574   2.824  0.6211  0.0151 -0.2876
 1237SOL    HW115347   2.358   0.512   2.778  0.7387  0.1943 -0.3877
 1237SOL    HW215348   2.248   0.612   2.756  0.7194 -0.6760 -0.7492
 1238SOL     OW15349   2.082   3.018   2.575 -0.3871  0.1456 -0.0515
 1238SOL    HW115350   2.143   2.949   2.604 -1.6576 -1.1829 -0.5378
 1238SOL    HW215351   2.030   3.039   2.652  1.2921  0.3586  1.0236
 1239SOL     OW15352   2.275   3.949   7.264  0.0823  0.4406  0.4905
 1239SOL    HW115353   2.194   3.957   7.214  0.7687 -1.5097 -0.9309
 1239SOL    HW215354   2.248   3.955   7.355 -0.1832  2.1610  0.3071
 1240SOL     OW15355   2.990   2.931   5.768 -0.6305  0.3765  0.2753
 1240SOL    HW115356   2.999   3.021   5.736 -1.4410  0.5894  0.6509
 1240SOL    HW215357   2.915   2.901   5.717 -0.2377 -2.5624  1.4867
 1241SOL     OW15358   1.625   2.897   8.262  0.1595 -0.2474  0.3089
 1241SOL    HW115359   1.711   2.861   8.241  0.5467  0.0368  1.4035
 1241SOL    HW215360   1.565   2.832   8.226  1.8275 -0.9064 -1.2781
 1242SOL     OW15361   2.325   2.215   6.391 -0.1060 -0.2511 -1.0281
 1242SOL    HW115362   2.400   2.179   6.343 -0.6743 -0.5994 -1.6373
 1242SOL    HW215363   2.344   2.194   6.483 -0.7094  1.7493 -0.4280
 1243SOL     OW15364   2.663   0.587   8.712  0.0181  0.0876  0.3033
 1243SOL    HW115365   2.711   0.664   8.742 -1.1621  1.0794 -0.3361
 1243SOL    HW215366   2.581   0.625   8.680 -0.3217  0.0516  1.1222
 1244SOL     OW15367   3.180   0.167   7.293 -0.3284  0.6209 -0.0149
 1244SOL    HW115368   3.247   0.114   7.336 -0.2518  1.0762  0.4339
 1244SOL    HW215369   3.139   0.096   7.242 -0.4998  0.6364  0.0995
 1245SOL     OW15370   1.180   2.099   3.726  0.0573  0.8228  0.2499
 1245SOL    HW115371   1.133   2.046   3.790  0.7575 -1.5203 -1.1616
 1245SOL    HW215372   1.164   2.051   3.644  2.1313  0.1991  0.2017
 1246SOL     OW15373   1.408   3.465   7.264  0.0363 -0.2994  0.0803
 1246SOL    HW115374   1.403   3.415   7.346 -2.4814  0.5933  0.4562
 1246SOL    HW215375   1.316   3.478   7.242  0.7394  0.0764 -2.5785
 1247SOL     OW15376   3.765   0.610   3.312 -0.0015 -0.6420 -0.7011
 1247SOL    HW115377   3.686   0.557   3.296 -0.7268  0.2705 -0.1693
 1247SOL    HW215378   3.828   0.546   3.346  0.1194 -0.4194 -0.5025
 1248SOL     OW15379   1.302   4.696  14.456  0.1216 -0.2182 -0.2241
 1248SOL    HW115380   1.361   4.706  14.382  0.1857  0.4602 -0.0851
 1248SOL    HW215381   1.230   4.650  14.414 -0.6924  2.1687 -1.4571
 1249SOL     OW15382   1.898   2.135   3.425  0.0034 -0.5239  0.5847
 1249SOL    HW115383   1.861   2.217   3.457  0.5398 -0.7576  1.8377
 1249SOL    HW215384   1.981   2.160   3.383 -0.9351  0.0895 -0.9049
 1250SOL     OW15385   3.113   4.542   5.278  0.0177  0.4101 -0.3623
 1250SOL    HW115386   3.096   4.600   5.204 -3.8853 -0.2308  0.0108
 1250SOL    HW215387   3.107   4.450   5.250  1.5040  0.4568 -0.8436
 1251SOL     OW15388   3.583   3.707  15.600 -0.0457  0.0495 -0.3409
 1251SOL    HW115389   3.556   3.736  15.513  0.7020 -0.2867 -0.6920
 1251SOL    HW215390   3.542   3.769  15.660 -1.7588 -0.6361 -0.8003
 1252SOL     OW15391   3.594   3.751   7.728 -0.3649  0.2195 -0.0594
 1252SOL    HW115392   3.662   3.757   7.794 -0.8475  1.1231  0.3555
 1252SOL    HW215393   3.544   3.832   7.734 -1.1893 -0.0823 -2.8795
 1253SOL     OW15394   0.792   1.003  11.498 -0.3785  0.4213 -0.5387
 1253SOL    HW115395   0.836   1.084  11.524  1.5018 -1.1913  1.2825
 1253SOL    HW215396   0.730   0.987  11.569  1.2037 -1.6934  0.3575
 1254SOL     OW15397   4.591   0.436   2.037 -0.1620 -0.2518 -0.7319
 1254SOL    HW115398   4.605   0.435   2.132 -1.3056  1.5294 -0.5427
 1254SOL    HW215399   4.497   0.417   2.038 -0.4432  1.3144  2.0844
 1255SOL     OW15400   1.359   2.697  14.769  0.2819  0.1506 -0.1908
 1255SOL    HW115401   1.264   2.684  14.762  0.1882  1.2446 -0.8758
 1255SOL    HW215402   1.394   2.608  14.763  0.1197 -0.2000  3.9277
 1256SOL     OW15403   4.047   1.437   6.770  0.2663 -0.6511 -0.1197
 1256SOL    HW115404   4.119   1.485   6.728  0.0076 -0.2729 -0.1340
 1256SOL    HW215405   4.022   1.497   6.841  3.1647  1.0860 -0.5589
 1257SOL     OW15406   0.626   4.671   7.775  0.1716 -0.0187  0.3785
 1257SOL    HW115407   0.579   4.734   7.720  1.6495 -0.8456 -1.8554
 1257SOL    HW215408   0.690   4.640   7.710  1.5786  1.7258  0.9630
 1258SOL     OW15409   0.140   2.526   9.040  0.0938 -0.5508 -0.0474
 1258SOL    HW115410   0.085   2.461   8.996 -2.6135  1.2516  0.6702
 1258SOL    HW215411   0.231   2.514   9.013 -0.0768  1.8937 -1.7206
 1259SOL     OW15412   4.109   2.973   5.816 -0.0107  0.4639  0.4229
 1259SOL    HW115413   4.064   3.029   5.753 -0.2048 -0.0659  0.0989
 1259SOL    HW215414   4.052   2.961   5.893 -2.1081 -1.4265 -1.4254
 1260SOL     OW15415   0.250   3.440   7.787 -0.5384  0.5515 -0.0229
 1260SOL    HW115416   0.246   3.376   7.859  0.0250  0.2613 -0.2487
 1260SOL    HW215417   0.165   3.451   7.745 -0.2470 -0.7335 -0.9684
 1261SOL     OW15418   3.938   2.132   5.705 -0.1848 -0.1190  0.4827
 1261SOL    HW115419   4.025   2.142   5.667 -0.9672 -3.8539 -2.2712
 1261SOL    HW215420   3.918   2.039   5.691 -0.1959 -0.1105  0.4421
 1262SOL     OW15421   4.274   2.872   8.726 -0.2717 -0.2605  0.0136
 1262SOL    HW115422   4.248   2.911   8.809 -0.5375  0.8840 -0.6096
 1262SOL    HW215423   4.322   2.792   8.747  0.1535  0.0569  0.2627
 1263SOL     OW15424   2.877   4.214   3.662  0.2465 -0.6205 -0.6723
 1263SOL    HW115425   2.836   4.129   3.648 -0.7760 -0.3272  0.4783
 1263SOL    HW215426   2.799   4.269   3.650  0.4810 -0.2014 -0.2868
 1264SOL     OW15427   4.279   0.001   8.966 -0.4266  0.7463 -0.1511
 1264SOL    HW115428   4.275   0.033   9.056  0.7183 -1.0931  0.5529
 1264SOL    HW215429   4.309   0.075   8.913 -0.6539  1.1618  0.3071
 1265SOL     OW15430   2.311   1.475   3.128  0.7723 -0.1770  0.1115
 1265SOL    HW115431   2.332   1.434   3.212 -0.5878 -0.1870  0.4607
 1265SOL    HW215432   2.351   1.561   3.143 -0.0649  0.2003  0.2062
 1266SOL     OW15433   2.032   0.213  12.103 -0.0376  0.5281  0.5211
 1266SOL    HW115434   2.117   0.221  12.061  0.5617  2.1719  2.0617
 1266SOL    HW215435   1.999   0.292  12.060  1.0731 -0.1809 -1.6351
 1267SOL     OW15436   3.872   0.192  10.592  0.3318 -0.4134  0.2152
 1267SOL    HW115437   3.901   0.114  10.640 -0.1134 -0.5447  0.2765
 1267SOL    HW215438   3.896   0.159  10.506 -1.1354  0.2546 -0.4562
 1268SOL     OW15439   1.550   1.332   8.375  0.5981  0.3056 -0.0163
 1268SOL    HW115440   1.454   1.321   8.377  0.3110  2.8172 -0.7151
 1268SOL    HW215441   1.554   1.408   8.432  0.8618  0.6821 -0.5443
 1269SOL     OW15442   4.445   3.494   1.024 -0.1432  0.5118 -0.5166
 1269SOL    HW115443   4.473   3.458   1.108 -2.1704 -1.2010 -0.5643
 1269SOL    HW215444   4.383   3.558   1.060 -0.4981  0.5128 -1.1231
 1270SOL     OW15445   0.642   3.165   8.011  0.3524  0.1432 -0.0100
 1270SOL    HW115446   0.630   3.071   8.023  1.2037 -0.0572 -0.7358
 1270SOL    HW215447   0.655   3.180   7.917  0.0251 -0.7455 -0.1873
 1271SOL     OW15448   2.462   4.337   7.064  0.5661  0.4669 -0.1330
 1271SOL    HW115449   2.388   4.361   7.120  1.3881  1.6397  0.4675
 1271SOL    HW215450   2.481   4.252   7.102  2.1540 -0.2685 -2.5974
 1272SOL     OW15451   2.887   2.719   1.216  0.0101 -0.1692 -0.0996
 1272SOL    HW115452   2.878   2.797   1.161  2.2344  1.0790  1.2962
 1272SOL    HW215453   2.865   2.762   1.299  0.0463  0.3148 -0.3383
 1273SOL     OW15454   2.082   1.188  13.713  0.0450 -0.0489 -0.5846
 1273SOL    HW115455   2.116   1.275  13.737  0.0820 -0.0395 -0.6703
 1273SOL    HW215456   2.128   1.173  13.630  0.0548  0.5510 -0.6941
 1274SOL     OW15457   1.477   3.393  11.125 -0.0931  0.1482  0.2882
 1274SOL    HW115458   1.499   3.313  11.076 -0.4594  0.5877 -0.5878
 1274SOL    HW215459   1.499   3.466  11.067  0.9276 -0.2962  0.1203
 1275SOL     OW15460   1.659   2.469  14.274 -0.3947  0.2509 -0.1540
 1275SOL    HW115461   1.731   2.494  14.331 -0.0320  0.2403 -0.6122
 1275SOL    HW215462   1.589   2.501  14.330 -1.3511 -3.3958  0.7773
 1276SOL     OW15463   4.535   3.614   7.672 -0.4830  0.3793 -0.5620
 1276SOL    HW115464   4.527   3.645   7.762  1.4297 -1.3496  0.2305
 1276SOL    HW215465   4.486   3.675   7.617  0.2307  0.5069 -1.0530
 1277SOL     OW15466   0.607   2.208  16.850  0.0463 -0.2761  0.4625
 1277SOL    HW115467   0.674   2.142  16.867  0.5609  0.0912 -0.1422
 1277SOL    HW215468   0.562   2.165  16.777 -0.9511  0.6999  0.5003
 1278SOL     OW15469   0.480   4.122   8.356  0.2901 -0.2536 -0.4802
 1278SOL    HW115470   0.473   4.027   8.351 -1.2735 -0.1830  0.5021
 1278SOL    HW215471   0.570   4.137   8.325  0.8673 -0.3018  1.1661
 1279SOL     OW15472   2.866   3.254   6.658  0.2230  0.2174 -0.0303
 1279SOL    HW115473   2.828   3.239   6.571  1.7460 -0.0405 -0.6434
 1279SOL    HW215474   2.788   3.264   6.713 -0.0541  0.2841 -0.4328
 1280SOL     OW15475   0.432   1.591   6.863 -0.5637 -0.1533  0.0182
 1280SOL    HW115476   0.344   1.624   6.879 -0.7469 -2.5558  3.7614
 1280SOL    HW215477   0.421   1.499   6.841 -1.4625 -0.5982  2.3808
 1281SOL     OW15478   3.542   3.498   3.599  0.2552 -0.7661 -0.1075
 1281SOL    HW115479   3.484   3.439   3.649  0.6468 -0.9980  0.0772
 1281SOL    HW215480   3.620   3.445   3.581  1.8378  1.3135  0.7265
 1282SOL     OW15481   2.565   2.057   9.637 -0.4342  0.2281  0.6297
 1282SOL    HW115482   2.481   2.098   9.655  0.0675  1.0536  1.0401
 1282SOL    HW215483   2.605   2.113   9.570 -0.6231 -1.0236 -0.5552
 1283SOL     OW15484   0.268   3.220   7.625  0.2969  0.5637  0.1203
 1283SOL    HW115485   0.242   3.286   7.689 -2.5417  1.1087 -1.5736
 1283SOL    HW215486   0.271   3.268   7.542  3.2897 -2.0936 -1.2824
 1284SOL     OW15487   1.100   0.654   2.921  0.3019  0.0993  0.4618
 1284SOL    HW115488   1.010   0.676   2.945 -0.4804 -1.8857 -0.6457
 1284SOL    HW215489   1.115   0.566   2.957  0.2995  0.4785  1.4061
 1285SOL     OW15490   2.706   4.111   5.969  0.0361 -0.2878  0.4497
 1285SOL    HW115491   2.631   4.135   6.023 -0.2071 -1.0581  0.4683
 1285SOL    HW215492   2.769   4.155   6.025 -1.5361  2.3122  0.1933
 1286SOL     OW15493   4.687   0.209   0.531  0.6884 -0.9510  0.2047
 1286SOL    HW115494   4.718   0.202   0.441 -1.5557 -1.0621 -0.5793
 1286SOL    HW215495   4.652   0.128   0.569 -1.7727 -0.1474 -0.3233
 1287SOL     OW15496   2.021   1.708   0.173  0.0365 -0.0679 -0.0636
 1287SOL    HW115497   1.964   1.645   0.129 -0.6989  1.9627 -1.9941
 1287SOL    HW215498   1.980   1.789   0.143 -0.4357 -0.4400 -0.4082
 1288SOL     OW15499   4.302   0.370   5.485  0.4083 -0.2169 -0.1641
 1288SOL    HW115500   4.371   0.371   5.418  1.1475 -1.7170  0.5573
 1288SOL    HW215501   4.236   0.349   5.419 -0.0985 -1.3094  0.6895
 1289SOL     OW15502   2.157   1.246   6.751  0.4197  0.6604 -0.3401
 1289SOL    HW115503   2.241   1.243   6.706 -0.1385  2.6933 -1.4866
 1289SOL    HW215504   2.097   1.221   6.681  0.0245  0.4871  0.0538
 1290SOL     OW15505   0.002   0.680  10.658  0.0389 -0.1176  0.5099
 1290SOL    HW115506   0.002   0.760  10.710 -0.5748  1.0401 -1.3031
 1290SOL    HW215507   0.027   0.717  10.573  1.0386 -1.7528  0.0926
 1291SOL     OW15508   3.882   1.510  12.154  0.2966 -0.1610 -0.1427
 1291SOL    HW115509   3.943   1.471  12.216  0.9464 -2.7099 -2.3649
 1291SOL    HW215510   3.823   1.553  12.216  1.0980  1.3208 -0.4359
 1292SOL     OW15511   0.615   0.380  17.652  0.3876  0.0977  0.6006
 1292SOL    HW115512   0.608   0.321  17.577 -0.8248  0.8512  0.1289
 1292SOL    HW215513   0.533   0.362  17.698 -1.0327  0.5571 -1.7701
 1293SOL     OW15514   3.168   1.189   6.475  0.3133 -0.6916 -0.3582
 1293SOL    HW115515   3.091   1.241   6.457  0.6306 -0.2077 -0.3076
 1293SOL    HW215516   3.130   1.103   6.491  1.0656 -0.4379  2.8568
 1294SOL     OW15517   4.496   0.390   5.293 -0.6860  0.2643 -0.0633
 1294SOL    HW115518   4.555   0.318   5.311 -0.1677  0.7059  0.0053
 1294SOL    HW215519   4.549   0.430   5.224 -0.2806 -0.2193 -0.0238
 1295SOL     OW15520   2.643   0.118   3.041  0.2239  0.0839 -0.3966
 1295SOL    HW115521   2.616   0.184   2.977 -2.4321  0.3717  0.9989
 1295SOL    HW215522   2.655   0.043   2.983 -1.3045  0.4091 -1.1260
 1296SOL     OW15523   2.133   3.504   8.906  0.3506 -0.1999 -0.8211
 1296SOL    HW115524   2.071   3.458   8.850 -1.5186 -1.0716  1.9394
 1296SOL    HW215525   2.103   3.594   8.892  0.8231  0.2221  0.8720
 1297SOL     OW15526   1.633   2.101   2.440 -0.1256 -0.2827  0.0445
 1297SOL    HW115527   1.638   2.076   2.348 -0.5108 -1.9543  0.4886
 1297SOL    HW215528   1.719   2.078   2.475  0.0470 -0.5369 -0.5439
 1298SOL     OW15529   1.186   3.426   4.842  0.3846 -0.4140  0.5177
 1298SOL    HW115530   1.127   3.355   4.820  1.9505 -2.1891  2.0392
 1298SOL    HW215531   1.169   3.431   4.936 -1.6600 -0.4781  0.1478
 1299SOL     OW15532   0.023   1.308  10.680 -0.5577  0.5152 -0.4945
 1299SOL    HW115533   0.055   1.314  10.771  0.1737 -0.6096 -0.6741
 1299SOL    HW215534   4.680   1.264  10.698  0.0255 -0.1864  0.4892
 1300SOL     OW15535   1.507   4.505   6.401 -0.3085 -0.3263  0.2637
 1300SOL    HW115536   1.595   4.543   6.403  0.3784 -1.8574 -0.3074
 1300SOL    HW215537   1.522   4.464   6.316  0.6195 -1.3917  0.9445
 1301SOL     OW15538   0.634   1.038   4.415 -0.1952 -0.2531 -0.3944
 1301SOL    HW115539   0.702   0.978   4.383 -0.7535 -1.2498  0.2870
 1301SOL    HW215540   0.553   0.989   4.399 -0.3674  0.4659 -1.7401
 1302SOL     OW15541   2.819   2.995   0.572  0.5919  0.4701 -0.4676
 1302SOL    HW115542   2.805   2.972   0.480 -4.5063 -2.1025  1.0020
 1302SOL    HW215543   2.790   2.915   0.615 -1.1637  1.9406  1.0764
 1303SOL     OW15544   3.450   2.527   8.060  0.4773 -0.1801  0.1041
 1303SOL    HW115545   3.496   2.456   8.104  1.2453 -0.6613 -1.4658
 1303SOL    HW215546   3.526   2.585   8.054  1.1466 -1.3812 -2.8370
 1304SOL     OW15547   4.032   3.148   7.894  0.1500 -0.0919 -0.4703
 1304SOL    HW115548   4.042   3.203   7.816  2.0400 -0.2905 -0.3646
 1304SOL    HW215549   3.960   3.187   7.944  0.3835  0.9892 -0.9853
 1305SOL     OW15550   1.031   4.384   0.461  0.3450  0.4613  0.7405
 1305SOL    HW115551   1.019   4.300   0.505  1.6547 -0.0641  0.0661
 1305SOL    HW215552   0.959   4.430   0.506 -0.4612  1.5563 -1.6602
 1306SOL     OW15553   1.551   2.773  14.932 -0.5415 -0.0325 -0.2553
 1306SOL    HW115554   1.623   2.813  14.884 -2.0469  0.4570 -2.1188
 1306SOL    HW215555   1.486   2.747  14.867 -2.1196  0.4244  1.1221
 1307SOL     OW15556   0.325   4.524   9.653  0.2370  0.7637 -0.1781
 1307SOL    HW115557   0.243   4.506   9.607 -0.3279  1.9567  0.3631
 1307SOL    HW215558   0.299   4.518   9.745  1.9396 -0.1488  0.2582
 1308SOL     OW15559   4.179   2.700   7.147 -0.3173  0.3418 -0.3382
 1308SOL    HW115560   4.109   2.637   7.160 -0.4004  0.5361  0.1388
 1308SOL    HW215561   4.242   2.666   7.211 -0.7204  0.5096  0.1429
 1309SOL     OW15562   2.659   2.045   1.745  0.0901  0.1802  0.4887
 1309SOL    HW115563   2.664   2.099   1.666 -3.4204 -0.4816 -0.2004
 1309SOL    HW215564   2.618   2.105   1.807 -0.6503  1.4021 -1.1832
 1310SOL     OW15565   4.263   4.466   0.358  0.4904 -0.5730 -0.8774
 1310SOL    HW115566   4.221   4.389   0.398  0.3617  0.4601  0.9528
 1310SOL    HW215567   4.187   4.524   0.346  0.1467 -0.8738 -0.1601
 1311SOL     OW15568   0.657   1.762   5.198 -1.1635  0.1925 -0.1699
 1311SOL    HW115569   0.620   1.721   5.276 -2.1506  0.4391 -0.5007
 1311SOL    HW215570   0.618   1.713   5.125  0.4936  1.6645 -2.0374
 1312SOL     OW15571   3.752   1.451  11.453 -0.6084  0.1088  0.0623
 1312SOL    HW115572   3.683   1.482  11.511 -0.1096 -1.1600  1.3307
 1312SOL    HW215573   3.821   1.448  11.520  0.5308  2.2829 -1.0091
 1313SOL     OW15574   3.798   3.417   8.471 -0.2517  0.4167 -0.6272
 1313SOL    HW115575   3.769   3.372   8.551  2.6721 -0.6757 -0.1700
 1313SOL    HW215576   3.784   3.510   8.491 -1.6833 -0.4208  2.3346
 1314SOL     OW15577   2.184   1.836  13.603 -0.2921  0.2633  0.3528
 1314SOL    HW115578   2.245   1.831  13.529  2.1117 -1.0363  2.4124
 1314SOL    HW215579   2.109   1.781  13.580  1.9929 -1.3605 -3.2781
 1315SOL     OW15580   4.541   3.929  15.813  0.3355  0.0225  0.3148
 1315SOL    HW115581   4.619   3.894  15.856  0.6570 -1.1838 -1.2679
 1315SOL    HW215582   4.581   3.960  15.732  0.9322  0.5979  0.8261
 1316SOL     OW15583   1.335   1.284   3.494  0.0492 -0.1751  0.0620
 1316SOL    HW115584   1.269   1.214   3.495 -0.6532  0.4798  0.3336
 1316SOL    HW215585   1.414   1.234   3.513  0.9845  1.3411  0.2123
 1317SOL     OW15586   2.629   0.841   5.633  0.1895 -0.0852 -0.1643
 1317SOL    HW115587   2.630   0.765   5.692 -0.9449 -1.3135 -1.7312
 1317SOL    HW215588   2.656   0.909   5.695  3.7056  0.5912 -2.3956
 1318SOL     OW15589   0.106   4.531   4.414 -0.1531 -0.3960  0.1762
 1318SOL    HW115590   0.169   4.566   4.476 -1.0860 -3.1590  2.6772
 1318SOL    HW215591   0.151   4.536   4.329 -1.0971 -2.6126 -0.4646
 1319SOL     OW15592   4.288   2.870   3.936 -0.5841 -0.1774 -0.3390
 1319SOL    HW115593   4.260   2.781   3.913  2.1036 -0.4077 -2.7846
 1319SOL    HW215594   4.324   2.891   3.850 -0.1654 -0.2349 -0.1770
 1320SOL     OW15595   3.383   2.455   1.113 -0.3813  0.0773 -0.4505
 1320SOL    HW115596   3.331   2.490   1.185  0.4752  0.4037 -0.0014
 1320SOL    HW215597   3.420   2.377   1.153 -2.1664  0.1313  1.3126
 1321SOL     OW15598   1.256   3.991   4.074 -0.7154 -0.3810  0.1231
 1321SOL    HW115599   1.169   4.025   4.053 -0.9529 -1.3723 -0.4557
 1321SOL    HW215600   1.308   4.071   4.066 -1.0821 -0.2776 -1.2916
 1322SOL     OW15601   0.842   3.634  12.833 -0.2379 -0.3265  0.3322
 1322SOL    HW115602   0.909   3.688  12.790 -1.3552  1.3847  0.7031
 1322SOL    HW215603   0.883   3.598  12.912 -0.8817  0.2533  0.9254
 1323SOL     OW15604   1.053   0.015   6.209  0.6046  0.3888 -0.1177
 1323SOL    HW115605   1.026   4.662   6.208 -5.4979  2.1768 -0.2225
 1323SOL    HW215606   1.097   0.017   6.293  0.1330 -0.6595  0.1578
 1324SOL     OW15607   2.606   2.203   8.995 -0.4351  0.4985  0.0013
 1324SOL    HW115608   2.686   2.153   8.978 -0.5110  0.8798 -1.4414
 1324SOL    HW215609   2.592   2.245   8.910  2.8363  1.3010 -0.1291
 1325SOL     OW15610   0.017   1.812   3.987 -0.1537  0.3768 -0.1383
 1325SOL    HW115611   4.695   1.868   4.035 -0.4465  1.1645 -1.4199
 1325SOL    HW215612   0.081   1.777   4.049  0.6345  1.2557 -0.4456
 1326SOL     OW15613   0.083   1.235   8.524 -0.1816  0.0700  0.1752
 1326SOL    HW115614   0.125   1.157   8.560 -0.3541  1.0748  2.5394
 1326SOL    HW215615   0.019   1.256   8.591 -1.6131 -1.6393 -0.6517
 1327SOL     OW15616   1.546   2.552   2.799 -0.1059 -0.4767  0.4049
 1327SOL    HW115617   1.547   2.480   2.862  0.5060  1.1468  2.2723
 1327SOL    HW215618   1.495   2.516   2.727 -0.3717 -1.1013  0.9036
 1328SOL     OW15619   1.756   0.318   4.322  0.1767 -0.2111  0.2280
 1328SOL    HW115620   1.763   0.234   4.276  0.4420  0.1017 -0.3027
 1328SOL    HW215621   1.706   0.292   4.399  0.6627 -0.6328  0.3927
 1329SOL     OW15622   0.600   2.237   2.890  0.1611 -0.0099  0.2693
 1329SOL    HW115623   0.594   2.330   2.868 -0.5790  0.3223  1.8585
 1329SOL    HW215624   0.670   2.238   2.955 -0.9077 -0.5907  1.4280
 1330SOL     OW15625   1.839   4.435   2.446  0.7885 -0.0946 -0.0683
 1330SOL    HW115626   1.829   4.399   2.534 -0.7514 -2.4578 -1.1961
 1330SOL    HW215627   1.934   4.427   2.440  0.9307  1.6349 -0.2339
 1331SOL     OW15628   4.271   2.183   0.065 -0.3391 -0.1917 -0.1986
 1331SOL    HW115629   4.207   2.112   0.068 -0.3525 -0.1250  1.1045
 1331SOL    HW215630   4.322   2.158   0.142 -0.7549 -1.4555 -0.3399
 1332SOL     OW15631   0.268   0.775  15.701 -0.1497  0.3835  0.5412
 1332SOL    HW115632   0.331   0.786  15.773  2.4156 -0.2271 -1.6316
 1332SOL    HW215633   0.184   0.787  15.745  0.4562  1.1030  1.5081
 1333SOL     OW15634   2.581   4.038   1.142 -0.1023  0.8390 -0.4771
 1333SOL    HW115635   2.579   3.945   1.168  0.4987  0.5346 -1.5102
 1333SOL    HW215636   2.601   4.085   1.222 -1.4539  0.7422 -0.0854
 1334SOL     OW15637   2.453   3.194   7.922  0.4986  0.2203  0.0196
 1334SOL    HW115638   2.360   3.214   7.932  0.2436 -1.1743  0.3637
 1334SOL    HW215639   2.461   3.109   7.964  0.5618  0.5788  0.7417
 1335SOL     OW15640   3.811   3.257  11.414  0.5716 -0.4652 -0.0310
 1335SOL    HW115641   3.771   3.326  11.467  1.9662  1.3955 -1.4435
 1335SOL    HW215642   3.775   3.188  11.471  2.5124 -0.9012  0.6476
 1336SOL     OW15643   4.082   0.297   5.301  0.1958 -0.3024  0.1549
 1336SOL    HW115644   4.127   0.212   5.296  0.8409  0.1266 -1.3217
 1336SOL    HW215645   3.994   0.280   5.334  0.7456 -0.7390  1.4077
 1337SOL     OW15646   3.896   3.835   8.664  0.8798  0.3119  0.1186
 1337SOL    HW115647   3.814   3.834   8.714 -0.0214 -1.4284 -1.4206
 1337SOL    HW215648   3.891   3.925   8.632 -1.8402 -0.4954 -1.7284
 1338SOL     OW15649   0.292   1.534  16.120  0.2104  0.1119 -0.7843
 1338SOL    HW115650   0.260   1.614  16.162  1.4837 -0.6802  1.6920
 1338SOL    HW215651   0.387   1.540  16.129  0.2543 -1.4187 -0.2473
 1339SOL     OW15652   3.926   4.281  12.239 -0.0655 -0.0128 -0.7820
 1339SOL    HW115653   3.879   4.203  12.269 -1.7141  1.0504 -0.5860
 1339SOL    HW215654   3.986   4.311  12.307  0.4064 -0.9944 -0.7621
 1340SOL     OW15655   0.675   3.365   2.586 -0.4144 -0.1841 -0.0191
 1340SOL    HW115656   0.719   3.365   2.501  0.4727 -1.2409  0.4415
 1340SOL    HW215657   0.587   3.391   2.559 -0.5785 -1.5261 -0.7607
 1341SOL     OW15658   4.027   3.082   2.083 -0.1393  0.3121 -0.8439
 1341SOL    HW115659   3.994   3.141   2.015 -0.1749 -1.7238 -2.5771
 1341SOL    HW215660   3.966   3.009   2.070  0.2969 -0.4417  1.4368
 1342SOL     OW15661   4.232   3.426   3.511 -0.3952  0.1212 -0.0331
 1342SOL    HW115662   4.292   3.474   3.569  1.3156 -0.2694 -1.5123
 1342SOL    HW215663   4.293   3.359   3.479  0.9207  0.9015  0.8464
 1343SOL     OW15664   3.731   0.667   9.319  0.3144 -0.2849 -0.2142
 1343SOL    HW115665   3.736   0.717   9.401 -3.5240  0.7597 -0.5857
 1343SOL    HW215666   3.819   0.677   9.283  0.3594 -0.8465 -0.2543
 1344SOL     OW15667   2.493   1.646  16.257 -0.2632  0.1814  0.0988
 1344SOL    HW115668   2.414   1.648  16.311 -0.8844 -0.8506 -0.7633
 1344SOL    HW215669   2.527   1.561  16.283 -0.3834  0.5645  1.4944
 1345SOL     OW15670   3.120   4.727   5.095  0.3207  0.0714  0.2474
 1345SOL    HW115671   3.042   0.043   5.098  1.0329  1.1157 -0.6352
 1345SOL    HW215672   3.190   0.051   5.077  3.3371 -3.3358  0.0733
 1346SOL     OW15673   2.212   1.272  13.062  0.2796  0.2646 -1.2371
 1346SOL    HW115674   2.265   1.334  13.013 -0.8282  2.5560  0.4554
 1346SOL    HW215675   2.252   1.189  13.036  0.1243 -0.4015  0.6387
 1347SOL     OW15676   2.512   1.105  11.971  0.3956  0.0260 -0.0147
 1347SOL    HW115677   2.517   1.075  12.061 -0.1430 -3.3100 -1.0848
 1347SOL    HW215678   2.565   1.041  11.923  0.1287 -1.2076  1.3519
 1348SOL     OW15679   1.909   0.968   5.681 -0.0668 -0.2235 -0.2518
 1348SOL    HW115680   1.912   0.966   5.586 -2.0781  3.2723 -0.3929
 1348SOL    HW215681   1.917   0.877   5.710  1.9507 -0.3111 -1.0886
 1349SOL     OW15682   0.212   2.015   4.789 -0.0371  0.1701  0.2869
 1349SOL    HW115683   0.132   2.013   4.736 -0.1889  2.6560  0.4562
 1349SOL    HW215684   0.273   1.985   4.721 -1.3717 -1.3765 -0.2480
 1350SOL     OW15685   3.646   0.366   5.494  0.0750 -0.2296 -0.0362
 1350SOL    HW115686   3.677   0.329   5.577 -2.0357  1.0652  1.3234
 1350SOL    HW215687   3.553   0.346   5.496 -0.4574  2.1792 -0.7426
 1351SOL     OW15688   0.477   2.768   3.019 -0.0946 -0.1769  0.0744
 1351SOL    HW115689   0.478   2.714   3.098  0.2778  1.2411  1.0364
 1351SOL    HW215690   0.385   2.769   2.992 -0.3251  0.6020  0.8443
 1352SOL     OW15691   2.636   3.970  14.395  0.0025 -0.2884  0.2005
 1352SOL    HW115692   2.676   3.883  14.389 -0.2748 -0.3486 -0.7513
 1352SOL    HW215693   2.710   4.027  14.415 -0.3497 -0.0552  0.8184
 1353SOL     OW15694   0.590   4.218   8.933  0.1002  0.0179 -0.3398
 1353SOL    HW115695   0.526   4.173   8.988 -1.0421  0.5220 -1.2472
 1353SOL    HW215696   0.625   4.285   8.991  0.7670 -1.6662  1.2097
 1354SOL     OW15697   3.028   1.047   6.984 -0.1302 -0.4054  0.0168
 1354SOL    HW115698   3.108   1.011   6.945 -0.4484 -0.5326 -0.5102
 1354SOL    HW215699   3.008   1.122   6.928  1.0069  1.4829  2.1167
 1355SOL     OW15700   0.848   3.219   9.314  0.2598 -0.4175 -0.0088
 1355SOL    HW115701   0.912   3.229   9.243  1.0650 -0.4691  0.7125
 1355SOL    HW215702   0.906   3.168   9.370  0.7998  1.2964  0.9858
 1356SOL     OW15703   2.872   2.800  12.782 -0.2406 -0.5556 -0.2949
 1356SOL    HW115704   2.932   2.874  12.782  0.1056 -0.8279 -1.9744
 1356SOL    HW215705   2.885   2.757  12.867  1.7938  1.2633  0.3072
 1357SOL     OW15706   0.460   3.158  13.780 -0.3554  0.2509  0.4817
 1357SOL    HW115707   0.457   3.253  13.793  2.8377  0.6622 -1.7055
 1357SOL    HW215708   0.382   3.138  13.831 -0.1921 -0.4262  0.4679
 1358SOL     OW15709   4.531   2.223   8.724 -0.3945 -0.2378  0.1951
 1358SOL    HW115710   4.449   2.193   8.686 -1.1375  0.4142  1.2608
 1358SOL    HW215711   4.592   2.234   8.652  0.0616  3.0195  1.0745
 1359SOL     OW15712   1.214   4.550   5.855 -0.3069 -0.4651 -0.0002
 1359SOL    HW115713   1.167   4.521   5.933  1.5678 -1.0179  0.9306
 1359SOL    HW215714   1.141   4.598   5.816 -0.4565 -0.8064 -0.1361
 1360SOL     OW15715   0.146   3.400   8.297 -0.4859 -0.3470 -0.1138
 1360SOL    HW115716   0.139   3.469   8.363  1.3056 -0.1463 -0.1321
 1360SOL    HW215717   0.118   3.318   8.338  1.0475 -0.3154  0.9753
 1361SOL     OW15718   1.016   2.833   8.515 -0.2985  0.1685 -0.3655
 1361SOL    HW115719   1.057   2.834   8.601 -2.2803 -1.5435  0.5797
 1361SOL    HW215720   1.102   2.834   8.471 -0.4530 -0.3260 -0.6759
 1362SOL     OW15721   4.004   4.439   0.707 -0.4236  0.0522 -0.1366
 1362SOL    HW115722   3.992   4.530   0.682  0.7333  0.7355  1.7846
 1362SOL    HW215723   4.029   4.468   0.795  2.8550 -2.8100 -0.1427
 1363SOL     OW15724   3.488   3.725  16.380 -0.3771  0.0764  0.1795
 1363SOL    HW115725   3.442   3.806  16.356 -2.1534 -1.3390 -1.1849
 1363SOL    HW215726   3.437   3.659  16.332  0.6653 -1.9593  1.9007
 1364SOL     OW15727   3.479   1.785   7.934  0.0351  0.0728 -0.2979
 1364SOL    HW115728   3.516   1.825   8.013  0.4617 -0.7519 -0.0779
 1364SOL    HW215729   3.465   1.693   7.955  0.3116 -0.1666 -1.1518
 1365SOL     OW15730   1.705   2.067  15.710 -0.1280 -0.1199  0.2826
 1365SOL    HW115731   1.692   2.099  15.799 -0.3240 -1.1976  0.6423
 1365SOL    HW215732   1.784   2.014  15.703 -0.5505 -0.8753  1.2818
 1366SOL     OW15733   3.286   0.568   5.440 -0.0044 -0.0911  0.2044
 1366SOL    HW115734   3.370   0.612   5.431 -0.4709  0.4371 -1.6387
 1366SOL    HW215735   3.285   0.527   5.527  0.0520 -2.1859 -0.7864
 1367SOL     OW15736   1.778   4.563   1.804  0.4449 -0.5162 -0.6127
 1367SOL    HW115737   1.808   4.653   1.790  0.0518 -0.0634  1.4806
 1367SOL    HW215738   1.817   4.514   1.732  1.1679  0.0592 -0.6126
 1368SOL     OW15739   1.000   0.456  12.258 -0.0336 -0.5622 -0.1188
 1368SOL    HW115740   0.928   0.396  12.278  0.2745 -0.2245  1.9525
 1368SOL    HW215741   1.068   0.389  12.265  0.7972  0.1784 -1.0980
 1369SOL     OW15742   0.464   3.410   5.264  0.3512  0.2842 -0.2773
 1369SOL    HW115743   0.400   3.440   5.328 -0.0445 -0.1462 -0.4667
 1369SOL    HW215744   0.429   3.457   5.188 -0.4228  0.6610  0.3230
 1370SOL     OW15745   1.114   4.425   7.933 -0.5664  0.2575  0.3207
 1370SOL    HW115746   1.183   4.483   7.963  0.7712 -0.0652 -2.0957
 1370SOL    HW215747   1.056   4.482   7.882 -0.3712  0.6840  0.5753
 1371SOL     OW15748   3.920   1.565   7.586  0.1101 -0.2752  0.2399
 1371SOL    HW115749   3.995   1.598   7.536  1.2387 -3.1605  0.0298
 1371SOL    HW215750   3.961   1.602   7.664  0.7926  0.8765 -0.6576
 1372SOL     OW15751   2.856   3.242  10.615 -0.2311  0.1629  0.1804
 1372SOL    HW115752   2.925   3.306  10.595 -0.4722  0.2588 -0.3562
 1372SOL    HW215753   2.890   3.176  10.555 -0.6687  1.4426 -1.4831
 1373SOL     OW15754   4.166   3.928  12.437 -0.6281 -0.3445  0.1598
 1373SOL    HW115755   4.255   3.892  12.438  0.4454  2.3667  3.9654
 1373SOL    HW215756   4.170   4.005  12.494 -2.8884 -1.3070  1.6071
 1374SOL     OW15757   3.063   1.093  13.777 -0.0286  0.6500 -1.1122
 1374SOL    HW115758   2.984   1.147  13.775 -1.7277 -1.8052  0.1214
 1374SOL    HW215759   3.113   1.152  13.834 -0.0247 -0.0654 -0.3843
 1375SOL     OW15760   0.471   1.691   8.266  0.3980 -0.2424  0.5595
 1375SOL    HW115761   0.432   1.652   8.188  0.1045 -0.0292  0.5989
 1375SOL    HW215762   0.525   1.618   8.295  1.2977 -0.2411 -1.0968
 1376SOL     OW15763   3.715   1.703  11.978  0.1957  0.4463  0.0525
 1376SOL    HW115764   3.791   1.684  12.033  1.7043 -0.4380 -2.3182
 1376SOL    HW215765   3.761   1.738  11.902  1.5202 -0.7257  0.3087
 1377SOL     OW15766   1.154   3.134   6.900 -0.6542  0.3727  0.0519
 1377SOL    HW115767   1.120   3.224   6.900  3.2232  1.8587 -4.5345
 1377SOL    HW215768   1.155   3.136   6.804 -0.2607  1.8906  0.0886
 1378SOL     OW15769   0.343   1.338   6.797 -0.3832  0.6917  0.1820
 1378SOL    HW115770   0.389   1.302   6.722 -0.9164  0.5944 -0.0984
 1378SOL    HW215771   0.296   1.262   6.831 -0.4284 -0.5294 -2.6260
 1379SOL     OW15772   0.220   2.338   7.720 -0.5260 -0.0695 -0.3189
 1379SOL    HW115773   0.231   2.279   7.645  2.4066  0.1294 -0.0481
 1379SOL    HW215774   0.307   2.376   7.733 -0.8337  0.2130  0.8694
 1380SOL     OW15775   3.308   2.397   2.793  0.1428 -0.3223  0.3791
 1380SOL    HW115776   3.252   2.348   2.853 -1.8928 -0.2734 -1.4627
 1380SOL    HW215777   3.249   2.397   2.717  0.4683 -0.4906  0.1263
 1381SOL     OW15778   0.857   2.634   6.369  0.7479 -0.5757  0.6967
 1381SOL    HW115779   0.890   2.575   6.302 -0.3676 -1.5375  1.0074
 1381SOL    HW215780   0.789   2.590   6.419 -0.0482 -1.4024 -1.1709
 1382SOL     OW15781   2.288   4.205  13.263 -0.4833 -0.3444 -0.3188
 1382SOL    HW115782   2.281   4.178  13.172 -1.6435  0.6768 -0.5289
 1382SOL    HW215783   2.290   4.301  13.258  2.5261 -0.4045  0.0198
 1383SOL     OW15784   0.248   1.170  10.021 -0.7438 -0.3354 -0.0229
 1383SOL    HW115785   0.342   1.162  10.035 -0.1508  1.6976 -2.7807
 1383SOL    HW215786   0.237   1.265  10.021  1.5574 -0.0910  0.7199
 1384SOL     OW15787   1.174   3.765  11.180  0.1551 -0.0368  0.5505
 1384SOL    HW115788   1.102   3.819  11.214 -0.1774  0.1237 -0.4298
 1384SOL    HW215789   1.181   3.792  11.089 -0.0497  0.1643  0.5922
 1385SOL     OW15790   0.346   4.361   8.634  0.5184  0.6240  0.1919
 1385SOL    HW115791   0.393   4.330   8.556  0.5594 -0.7355  0.7665
 1385SOL    HW215792   0.408   4.425   8.670 -0.0775  0.7526  0.9783
 1386SOL     OW15793   2.628   4.247  13.229 -0.6056 -0.0602  0.8509
 1386SOL    HW115794   2.723   4.232  13.229 -1.3563 -4.6930  0.8716
 1386SOL    HW215795   2.606   4.199  13.309 -4.4939 -1.4844 -1.1059
 1387SOL     OW15796   3.452   2.264   1.299  0.2616 -0.1082  0.1330
 1387SOL    HW115797   3.432   2.299   1.385  0.0490 -0.1031  0.0818
 1387SOL    HW215798   3.535   2.221   1.317  0.7127  0.3323 -0.8649
 1388SOL     OW15799   3.848   3.837   7.848  1.0154  0.1295  0.2607
 1388SOL    HW115800   3.871   3.753   7.888  2.5823  0.3417 -0.2038
 1388SOL    HW215801   3.851   3.901   7.919 -2.7168  0.5151  0.0572
 1389SOL     OW15802   1.239   1.335   9.145 -0.3775 -0.6304  0.0613
 1389SOL    HW115803   1.314   1.299   9.192 -0.3763  0.1218  0.6480
 1389SOL    HW215804   1.242   1.417   9.195  0.5221 -1.4514  1.3490
 1390SOL     OW15805   2.036   0.602   6.533  0.1549 -0.4413 -0.1277
 1390SOL    HW115806   2.073   0.570   6.450  0.3398 -0.7825  0.0871
 1390SOL    HW215807   2.118   0.614   6.581  0.2352  1.5098 -0.7448
 1391SOL     OW15808   1.239   0.936   7.144 -0.1524  0.0165 -0.0311
 1391SOL    HW115809   1.156   0.936   7.193  1.0723  0.2594  2.0269
 1391SOL    HW215810   1.279   0.854   7.174 -0.1490 -0.4008 -1.1743
 1392SOL     OW15811   2.878   2.792  17.502 -0.3273 -0.1106 -0.2926
 1392SOL    HW115812   2.887   2.861  17.436  0.3593 -0.2375 -0.3298
 1392SOL    HW215813   2.828   2.726  17.453  0.8045 -1.5897  0.5308
 1393SOL     OW15814   1.801   0.732   6.923  0.6191  0.2695  0.1772
 1393SOL    HW115815   1.764   0.752   6.837  0.9890 -0.2137 -0.0962
 1393SOL    HW215816   1.733   0.769   6.980 -0.1751 -0.3232 -0.3867
 1394SOL     OW15817   4.029   2.295   6.355  1.1387  0.2590  0.2692
 1394SOL    HW115818   3.944   2.313   6.397 -0.1760 -0.5971 -2.0430
 1394SOL    HW215819   4.074   2.378   6.370  0.3577  0.4129  1.7671
 1395SOL     OW15820   1.185   0.778  17.094 -0.3186  0.6866 -0.0464
 1395SOL    HW115821   1.261   0.804  17.042 -0.8803  0.9210 -0.7619
 1395SOL    HW215822   1.159   0.693  17.059  0.9795 -0.4504  1.7937
 1396SOL     OW15823   1.816   4.017   5.586 -0.3289 -0.4076 -0.0589
 1396SOL    HW115824   1.903   4.058   5.594 -0.5255  0.1775 -0.8808
 1396SOL    HW215825   1.818   3.953   5.657  0.5704 -1.1873 -0.7963
 1397SOL     OW15826   3.075   1.036   0.499  0.1774 -0.0835  0.4463
 1397SOL    HW115827   2.990   0.994   0.513  0.0433 -0.5703 -1.8017
 1397SOL    HW215828   3.088   1.086   0.579  0.1427  0.9297 -0.1843
 1398SOL     OW15829   4.296   2.984  15.932 -0.4371  0.2457 -0.1184
 1398SOL    HW115830   4.352   3.024  15.999  1.2721 -0.3612 -1.2098
 1398SOL    HW215831   4.262   3.059  15.883  1.9154  0.7272 -1.0084
 1399SOL     OW15832   2.566   3.203   2.926 -0.2203 -0.5793  0.7685
 1399SOL    HW115833   2.512   3.252   2.987  2.5792  0.6115  2.2868
 1399SOL    HW215834   2.551   3.111   2.946 -2.5843 -0.2094  0.6775
 1400SOL     OW15835   0.166   2.548   3.557 -0.3634  0.2305 -0.5190
 1400SOL    HW115836   0.136   2.458   3.566  1.0689 -0.2715 -0.9110
 1400SOL    HW215837   0.109   2.570   3.483  0.1800  1.2875 -0.6243
 1401SOL     OW15838   2.566   2.040   3.863 -0.3094 -0.3538 -0.3078
 1401SOL    HW115839   2.615   2.098   3.804  1.1631 -1.2258  0.0563
 1401SOL    HW215840   2.624   2.055   3.938 -1.8655  0.5382  0.6956
 1402SOL     OW15841   1.235   0.346  15.676 -0.1037  0.5475 -0.1836
 1402SOL    HW115842   1.141   0.362  15.672 -0.2711 -0.6966 -1.1732
 1402SOL    HW215843   1.266   0.391  15.597 -3.1911  2.9670 -0.0275
 1403SOL     OW15844   2.634   1.164   1.084  0.0119 -0.2382  0.1862
 1403SOL    HW115845   2.648   1.250   1.124 -0.4044  0.0723 -0.3478
 1403SOL    HW215846   2.647   1.189   0.993  1.4828 -0.1161  0.4197
 1404SOL     OW15847   3.380   0.225   8.514  0.4946 -0.4554  0.2443
 1404SOL    HW115848   3.368   0.140   8.472 -1.4049 -0.0440 -0.0232
 1404SOL    HW215849   3.332   0.287   8.459  2.6939 -0.1954 -1.3750
 1405SOL     OW15850   4.288   2.522   1.837 -0.5077 -0.7919  0.3924
 1405SOL    HW115851   4.310   2.613   1.855 -1.7490 -0.6670  1.2480
 1405SOL    HW215852   4.359   2.483   1.889  0.2749  1.5419  1.0954
 1406SOL     OW15853   4.465   1.306  13.994  0.2079  0.0545  0.3863
 1406SOL    HW115854   4.555   1.336  13.976 -0.9223  2.4494 -1.3124
 1406SOL    HW215855   4.411   1.361  13.938  0.2894 -0.6639 -0.4059
 1407SOL     OW15856   4.548   2.647   5.146  0.5445  0.2248 -0.1620
 1407SOL    HW115857   4.492   2.641   5.224 -0.0887 -0.4182 -0.6633
 1407SOL    HW215858   4.616   2.584   5.173  1.1463  1.5427  1.3715
 1408SOL     OW15859   2.592   0.480  16.586 -0.5711 -0.4787  0.4800
 1408SOL    HW115860   2.668   0.471  16.528  0.6074  2.0271  1.6288
 1408SOL    HW215861   2.612   0.413  16.651  3.0479 -1.1423 -1.2843
 1409SOL     OW15862   1.978   0.035   4.469 -0.4120 -0.2455  0.0203
 1409SOL    HW115863   2.023   0.056   4.550  0.2919  1.1590 -0.7281
 1409SOL    HW215864   1.888   0.049   4.499 -1.8173 -2.8404 -2.9512
 1410SOL     OW15865   3.865   1.295  16.756 -0.2510 -0.2342 -0.4682
 1410SOL    HW115866   3.933   1.327  16.816 -2.6386  1.2844  1.4342
 1410SOL    HW215867   3.863   1.202  16.781 -0.0119 -0.0623  0.1908
 1411SOL     OW15868   2.877   4.209   8.490 -0.3827 -0.2086  0.0484
 1411SOL    HW115869   2.865   4.124   8.534  0.1645 -0.1712  0.2658
 1411SOL    HW215870   2.847   4.269   8.558 -1.7779 -0.3903 -0.4120
 1412SOL     OW15871   4.374   4.387   2.452  0.0334  0.6156 -0.3357
 1412SOL    HW115872   4.362   4.336   2.532  1.8340 -0.2019 -0.5845
 1412SOL    HW215873   4.456   4.434   2.464  0.0730  0.2645  0.8210
 1413SOL     OW15874   3.109   0.132   9.982  0.0110 -0.0856  0.5216
 1413SOL    HW115875   3.052   0.084  10.043  1.1969 -1.0394  0.8821
 1413SOL    HW215876   3.193   0.116  10.025 -0.2721 -1.3709  0.6077
 1414SOL     OW15877   3.255   2.209   0.273  0.0376  0.3393 -0.1453
 1414SOL    HW115878   3.247   2.177   0.183  0.0568 -1.0478  0.3544
 1414SOL    HW215879   3.300   2.293   0.261 -0.1685  0.3989 -0.4848
 1415SOL     OW15880   1.653   1.684   7.403  0.1595 -0.2005  0.4434
 1415SOL    HW115881   1.737   1.650   7.373  0.6484  1.0482  0.3683
 1415SOL    HW215882   1.660   1.779   7.417 -1.4008  0.0205 -0.3339
 1416SOL     OW15883   1.960   4.421   1.323  0.4136  0.4161  0.2259
 1416SOL    HW115884   1.992   4.355   1.262 -2.0550 -0.8599  0.3389
 1416SOL    HW215885   1.903   4.366   1.377  0.3907 -0.0972 -0.3285
 1417SOL     OW15886   1.474   1.679   7.169  0.3444 -0.7517 -0.0118
 1417SOL    HW115887   1.389   1.666   7.210 -0.5421 -0.7455 -1.8188
 1417SOL    HW215888   1.532   1.673   7.245  0.1011  1.7556  0.3626
 1418SOL     OW15889   1.749   1.839   8.968 -0.0435 -0.2128 -0.1570
 1418SOL    HW115890   1.699   1.918   8.986 -0.1745 -0.1460 -0.8122
 1418SOL    HW215891   1.753   1.851   8.873 -0.0556 -2.3040 -0.4296
 1419SOL     OW15892   0.654   0.620   8.931  0.2869  0.4155 -0.3323
 1419SOL    HW115893   0.627   0.574   9.011  2.8761 -0.3930  0.0787
 1419SOL    HW215894   0.606   0.703   8.927  1.7181  1.2272 -0.6155
 1420SOL     OW15895   1.139   1.757  12.858 -0.0216  0.3898 -0.0935
 1420SOL    HW115896   1.102   1.760  12.770 -1.7924  0.2417  0.6500
 1420SOL    HW215897   1.095   1.677  12.886 -0.7511  0.1692 -1.8544
 1421SOL     OW15898   4.319   0.050   2.224  0.1072  0.0984  0.1102
 1421SOL    HW115899   4.299   0.132   2.178  1.2176 -0.1126 -0.7516
 1421SOL    HW215900   4.234   0.010   2.209  1.1069 -1.2610 -1.9287
 1422SOL     OW15901   0.552   2.560   1.904 -0.1193  0.4004 -0.5099
 1422SOL    HW115902   0.490   2.622   1.943  1.9249  2.0465  0.0657
 1422SOL    HW215903   0.597   2.611   1.838  0.4612 -0.2353 -0.6011
 1423SOL     OW15904   2.345   1.034   5.529  0.0873  0.0113  0.2507
 1423SOL    HW115905   2.434   1.009   5.552 -0.1699 -0.3100  0.9080
 1423SOL    HW215906   2.336   1.122   5.564  2.8311  0.4125 -0.0563
 1424SOL     OW15907   2.426   1.798   5.690 -0.5131  0.2585 -0.2494
 1424SOL    HW115908   2.457   1.761   5.607 -1.4789  0.2920 -0.6282
 1424SOL    HW215909   2.331   1.786   5.681 -0.6737  3.3411 -2.5118
 1425SOL     OW15910   0.890   1.722   6.962 -0.0032 -0.2421 -0.2336
 1425SOL    HW115911   0.967   1.702   6.909 -1.4854  0.1853 -2.5848
 1425SOL    HW215912   0.814   1.721   6.904 -0.3649  0.2431  0.2323
 1426SOL     OW15913   3.041   4.682   2.567 -0.4100  0.3720 -0.1799
 1426SOL    HW115914   3.053   4.710   2.658  1.6875  0.6389 -0.5435
 1426SOL    HW215915   3.082   0.019   2.527 -0.2159 -0.3485 -1.3362
 1427SOL     OW15916   3.464   1.912   9.004 -0.0178 -0.4047  0.1681
 1427SOL    HW115917   3.547   1.863   9.010 -0.3585 -0.9444  0.4341
 1427SOL    HW215918   3.466   1.943   8.914  3.0114  1.6256  0.9181
 1428SOL     OW15919   4.218   0.811   8.302  0.0536  0.4787  0.0464
 1428SOL    HW115920   4.158   0.846   8.368  1.6950  2.6099  0.4008
 1428SOL    HW215921   4.299   0.815   8.352 -0.0797 -0.5088  0.3408
 1429SOL     OW15922   3.198   1.264   4.977 -0.4333 -0.3478 -0.2102
 1429SOL    HW115923   3.234   1.266   5.066  0.3477  0.8038 -0.5491
 1429SOL    HW215924   3.260   1.202   4.937  1.3024 -0.2072  2.2826
 1430SOL     OW15925   0.263   0.640   2.368 -0.6663 -0.7046 -0.3206
 1430SOL    HW115926   0.180   0.680   2.341  0.1955  1.0524 -0.3661
 1430SOL    HW215927   0.301   0.651   2.280  0.8180 -0.5850  0.3307
 1431SOL     OW15928   0.984   1.129  15.643  0.4565  0.5721 -0.4712
 1431SOL    HW115929   0.918   1.116  15.712  1.8220 -1.7517  0.3863
 1431SOL    HW215930   1.058   1.087  15.688  0.6747  1.4501 -0.0133
 1432SOL     OW15931   3.343   0.894   4.133 -0.1189 -0.2091 -0.0648
 1432SOL    HW115932   3.312   0.859   4.216 -0.3055 -0.9540 -0.4428
 1432SOL    HW215933   3.437   0.886   4.149  0.0115  0.8777 -0.2998
 1433SOL     OW15934   3.428   1.498   6.107  0.0627 -0.3788  0.0377
 1433SOL    HW115935   3.392   1.448   6.180  3.3738 -1.5612  0.8682
 1433SOL    HW215936   3.407   1.591   6.120  1.6202  0.0077 -0.2400
 1434SOL     OW15937   4.715   4.297  12.669 -0.3536  0.5874 -0.0841
 1434SOL    HW115938   0.035   4.355  12.621  0.2323 -0.9921 -1.2839
 1434SOL    HW215939   4.729   4.209  12.634 -3.2609 -0.2499  0.7942
 1435SOL     OW15940   0.708   1.993   0.604  0.7887  0.0375 -0.2224
 1435SOL    HW115941   0.613   1.988   0.615  0.9017  0.8715  1.1258
 1435SOL    HW215942   0.721   2.066   0.664  1.3323  0.0974 -0.4101
 1436SOL     OW15943   1.358   1.165   8.935  0.5297  0.2959 -0.3830
 1436SOL    HW115944   1.320   1.155   8.847  2.4395  1.0058 -1.2867
 1436SOL    HW215945   1.325   1.243   8.979  0.5350  0.8166 -1.2932
 1437SOL     OW15946   0.897   1.227  11.594 -0.0956  0.2439  0.1768
 1437SOL    HW115947   0.980   1.263  11.565  0.4443  0.5323  2.0460
 1437SOL    HW215948   0.912   1.207  11.687  3.5887 -0.5195 -0.5824
 1438SOL     OW15949   3.114   2.226  13.360 -0.2073  0.6127  0.1211
 1438SOL    HW115950   3.019   2.221  13.347 -0.6981  1.4659  3.4011
 1438SOL    HW215951   3.132   2.319  13.352  1.4579  0.1916 -1.0348
 1439SOL     OW15952   3.692   3.442  16.024 -0.6356  0.1647 -0.4497
 1439SOL    HW115953   3.726   3.504  15.959 -3.1082 -0.2834 -2.1666
 1439SOL    HW215954   3.611   3.415  15.982 -0.2849  0.0954 -1.0716
 1440SOL     OW15955   1.277   2.597   6.456 -0.4040  0.3232  0.3368
 1440SOL    HW115956   1.199   2.629   6.503 -0.9189  2.0385 -1.6987
 1440SOL    HW215957   1.261   2.620   6.365 -1.3041 -0.9964  0.1745
 1441SOL     OW15958   3.159   2.501   2.566 -0.0266  0.4952  0.2020
 1441SOL    HW115959   3.066   2.519   2.578  0.2538  0.5522  2.3115
 1441SOL    HW215960   3.153   2.482   2.473 -1.7123  0.7693  0.2548
 1442SOL     OW15961   1.836   0.898   2.145 -0.3782  0.6840  0.1543
 1442SOL    HW115962   1.756   0.949   2.157  0.0856  1.6009 -0.6208
 1442SOL    HW215963   1.855   0.910   2.052  0.1424  1.1544  0.3222
 1443SOL     OW15964   1.400   1.077   5.687 -0.0568  0.2137  0.2169
 1443SOL    HW115965   1.411   1.126   5.605 -2.5063  0.1340 -0.1774
 1443SOL    HW215966   1.461   1.120   5.746 -0.6749 -2.7460  2.9852
 1444SOL     OW15967   0.725   0.612   0.201 -0.6576  0.3092 -0.2734
 1444SOL    HW115968   0.733   0.669   0.125 -2.2976  1.8483  0.7076
 1444SOL    HW215969   0.808   0.564   0.203 -0.1037  1.3772  1.5218
 1445SOL     OW15970   3.310   3.145  13.160 -0.2272 -0.2451 -0.0179
 1445SOL    HW115971   3.254   3.080  13.119  1.6909 -1.9592  0.0583
 1445SOL    HW215972   3.374   3.183  13.099  0.9849  0.9746  1.9765
 1446SOL     OW15973   3.792   1.025  15.727  0.2391 -0.0174  0.2024
 1446SOL    HW115974   3.851   0.959  15.691  0.3101  0.8743 -1.3456
 1446SOL    HW215975   3.728   1.036  15.657  3.3532 -0.8168 -2.7575
 1447SOL     OW15976   1.005   0.493   4.946 -0.0676 -0.0562  0.3786
 1447SOL    HW115977   0.990   0.480   4.853  0.8467 -3.1273  0.6618
 1447SOL    HW215978   0.928   0.447   4.981 -0.3405 -0.3080 -0.5699
 1448SOL     OW15979   3.732   2.660   2.809 -0.7112  0.4426  0.0844
 1448SOL    HW115980   3.710   2.658   2.716 -0.0789  1.9077 -0.0886
 1448SOL    HW215981   3.774   2.574   2.809 -3.1591 -0.7567  0.7491
 1449SOL     OW15982   0.397   0.532   3.135 -0.3630  0.1426  0.0122
 1449SOL    HW115983   0.321   0.492   3.091 -0.8200  0.2236  0.7218
 1449SOL    HW215984   0.448   0.454   3.159  0.8886  1.0056  0.1042
 1450SOL     OW15985   3.054   0.914   5.656  0.3416  0.2216 -0.4386
 1450SOL    HW115986   3.046   0.854   5.582 -1.5929 -0.9735  0.7664
 1450SOL    HW215987   2.969   0.957   5.649 -0.2653 -0.6673  1.3998
 1451SOL     OW15988   1.993   2.194  16.466  0.6775  0.4742 -0.2878
 1451SOL    HW115989   1.958   2.197  16.377  3.3585  0.7176 -1.3091
 1451SOL    HW215990   1.959   2.275  16.505 -0.1159 -0.4322  0.9163
 1452SOL     OW15991   4.441   2.463   4.060  0.2026 -0.3002 -0.7782
 1452SOL    HW115992   4.388   2.482   4.138  1.6940  0.3799  0.0532
 1452SOL    HW215993   4.374   2.492   3.997 -0.3583  0.4545  0.1772
 1453SOL     OW15994   0.651   4.274  10.815 -0.1394  0.1782 -0.6796
 1453SOL    HW115995   0.684   4.363  10.804 -3.3248  1.5126  0.5368
 1453SOL    HW215996   0.584   4.288  10.882 -0.1445  0.7447 -0.8072
 1454SOL     OW15997   1.198   2.705   5.552 -0.0911  0.1235 -0.0982
 1454SOL    HW115998   1.270   2.642   5.555  0.2458  0.5760  1.2999
 1454SOL    HW215999   1.246   2.785   5.528 -0.4594  0.3789  0.0190
 1455SOL     OW16000   0.192   0.782  14.628  0.6616  0.5693  0.1170
 1455SOL    HW116001   0.115   0.838  14.630  0.7864  0.6181  3.9884
 1455SOL    HW216002   0.139   0.703  14.638  0.3421  0.9201  1.2408
 1456SOL     OW16003   2.666   1.981   7.430 -0.3827 -0.3102 -0.7223
 1456SOL    HW116004   2.588   2.034   7.448 -1.2235 -1.2452 -1.6317
 1456SOL    HW216005   2.676   1.993   7.336  1.2009 -2.7485 -0.8783
 1457SOL     OW16006   0.526   1.172   7.104 -0.1616  0.1995  0.3826
 1457SOL    HW116007   0.438   1.142   7.084 -0.4685  1.6841 -0.4463
 1457SOL    HW216008   0.574   1.158   7.022 -1.8900  1.6433 -0.8614
 1458SOL     OW16009   1.649   3.276   7.260 -0.0918  0.0183  0.0769
 1458SOL    HW116010   1.617   3.296   7.347 -2.4644  0.0525 -0.8224
 1458SOL    HW216011   1.572   3.290   7.205  0.4562 -1.5137 -1.0808
 1459SOL     OW16012   3.533   1.086  11.156  0.1896 -0.4297  0.5640
 1459SOL    HW116013   3.565   1.003  11.192 -2.7931 -1.6830  0.3172
 1459SOL    HW216014   3.449   1.051  11.127 -0.0584  0.4003  0.2721
 1460SOL     OW16015   0.957   3.854  12.733  0.2289 -0.4812  0.4488
 1460SOL    HW116016   0.862   3.870  12.732 -0.0248 -2.0170 -0.4577
 1460SOL    HW216017   0.986   3.915  12.666  1.1551 -2.7684 -1.2527
 1461SOL     OW16018   3.110   3.271   2.355  0.4906 -0.0600  0.3059
 1461SOL    HW116019   3.098   3.176   2.344 -0.7837 -0.1931  2.7273
 1461SOL    HW216020   3.079   3.289   2.444 -0.7130 -1.0149  0.0887
 1462SOL     OW16021   1.856   3.702   2.223 -0.0494  0.2022  0.0863
 1462SOL    HW116022   1.824   3.687   2.312  1.7150 -0.7810  0.5405
 1462SOL    HW216023   1.784   3.749   2.181  0.1829  0.2557 -0.2526
 1463SOL     OW16024   2.275   0.618   6.702 -0.1665 -0.7433 -0.5147
 1463SOL    HW116025   2.279   0.708   6.735 -0.5173 -0.8936 -0.0636
 1463SOL    HW216026   2.362   0.603   6.667 -0.2415 -1.1173 -0.5431
 1464SOL     OW16027   2.046   2.191   4.845  0.4005  0.0125 -0.2601
 1464SOL    HW116028   2.105   2.140   4.901 -0.8226 -0.7466  0.3407
 1464SOL    HW216029   1.976   2.200   4.910 -1.5331 -1.9985 -2.0630
 1465SOL     OW16030   0.908   4.331   9.758  0.0328 -0.1721 -0.0873
 1465SOL    HW116031   0.892   4.261   9.822  2.5986 -1.3858 -0.7742
 1465SOL    HW216032   0.908   4.272   9.682  0.5970  2.1726 -1.9154
 1466SOL     OW16033   2.410   4.644   1.256 -0.4740 -0.3901 -0.8003
 1466SOL    HW116034   2.351   4.719   1.250 -0.7389 -0.5897 -0.6806
 1466SOL    HW216035   2.484   4.685   1.210  0.4385  0.1249  1.1272
 1467SOL     OW16036   1.950   2.923  16.616  0.1383 -0.5207  0.3308
 1467SOL    HW116037   1.899   3.003  16.622  0.1800 -0.6308  2.0342
 1467SOL    HW216038   1.915   2.867  16.685 -1.2650 -0.5129 -0.3668
 1468SOL     OW16039   2.934   3.009  12.015 -0.3796  0.4276  0.2305
 1468SOL    HW116040   2.918   3.098  12.047 -2.4392  0.2801 -0.4443
 1468SOL    HW216041   2.961   3.034  11.926 -0.1114 -1.4666 -0.2160
 1469SOL     OW16042   3.004   4.626  15.168  0.4365 -0.1960  0.4453
 1469SOL    HW116043   2.930   4.685  15.185  1.0769  1.3481 -2.1122
 1469SOL    HW216044   2.959   4.550  15.131  0.5463 -1.0364  2.0025
 1470SOL     OW16045   1.701   0.903  16.197  0.0175  0.0528  0.4613
 1470SOL    HW116046   1.691   0.992  16.231 -1.4471 -0.4742  1.4113
 1470SOL    HW216047   1.763   0.863  16.257  1.4440 -0.0954 -1.1323
 1471SOL     OW16048   1.382   3.100   3.869  0.6214 -0.0535  0.0637
 1471SOL    HW116049   1.454   3.065   3.817 -0.1197 -0.4424 -0.7005
 1471SOL    HW216050   1.365   3.033   3.936 -0.4530  1.5100  1.3429
 1472SOL     OW16051   0.849   3.355  10.058 -0.0027 -0.0861 -0.0905
 1472SOL    HW116052   0.816   3.401  10.135  0.5270 -1.1563  0.7761
 1472SOL    HW216053   0.876   3.276  10.106 -0.0181  1.3552  2.2998
 1473SOL     OW16054   1.846   3.028   4.073  0.2129  0.5532 -0.2598
 1473SOL    HW116055   1.919   3.048   4.132  0.8715  0.2710 -0.9702
 1473SOL    HW216056   1.774   3.063   4.125  0.3170 -0.5610  0.6265
 1474SOL     OW16057   1.344   0.363   7.837 -0.6207  0.0052  0.2639
 1474SOL    HW116058   1.373   0.348   7.927  0.3856  2.5064  0.3586
 1474SOL    HW216059   1.263   0.316   7.856 -1.7006  0.4403 -3.3015
 1475SOL     OW16060   4.122   2.997   2.626  0.2829  0.1373  0.0983
 1475SOL    HW116061   4.159   2.996   2.538  0.5005  2.2305  0.1710
 1475SOL    HW216062   4.060   2.924   2.623  2.1896 -1.4159 -1.3588
 1476SOL     OW16063   1.515   2.252   7.668  0.2243  0.1070  0.1232
 1476SOL    HW116064   1.497   2.176   7.614 -1.5678 -0.5246  1.6351
 1476SOL    HW216065   1.516   2.217   7.757 -1.8152 -1.4786 -0.4958
 1477SOL     OW16066   0.983   2.480  13.701 -0.0256  0.3736 -0.6717
 1477SOL    HW116067   1.048   2.493  13.770  0.4875 -1.1488 -0.8598
 1477SOL    HW216068   0.919   2.422  13.744 -0.5085  1.5197  0.1529
 1478SOL     OW16069   0.222   3.719   5.560 -0.3922 -0.6908  0.2146
 1478SOL    HW116070   0.200   3.706   5.652  0.0337  0.4893  0.4866
 1478SOL    HW216071   0.291   3.786   5.556  0.4249 -1.6349 -1.3665
 1479SOL     OW16072   0.967   1.562   7.517 -0.5005 -0.4102 -0.0117
 1479SOL    HW116073   0.910   1.561   7.441 -0.8103  0.7102  0.2037
 1479SOL    HW216074   0.990   1.469   7.523  0.6488 -0.2625 -2.2860
 1480SOL     OW16075   0.820   0.873   5.195  0.0836  0.2096 -0.9111
 1480SOL    HW116076   0.888   0.825   5.147  2.0235 -0.4549  2.4996
 1480SOL    HW216077   0.808   0.949   5.138  0.6571  0.3841 -0.8020
 1481SOL     OW16078   2.971   3.259  12.101  0.2870 -0.4905 -0.0941
 1481SOL    HW116079   2.963   3.302  12.185  0.9526  3.0561 -1.8532
 1481SOL    HW216080   3.018   3.322  12.046 -0.7434 -0.3826 -0.8368
 1482SOL     OW16081   2.804   4.722   3.835  0.6598  0.5683  0.0889
 1482SOL    HW116082   2.806   4.660   3.908 -1.1183 -1.8149 -1.8640
 1482SOL    HW216083   2.854   4.671   3.771  1.0119 -1.4441  1.9453
 1483SOL     OW16084   2.932   2.379   3.374  0.1984  0.2640 -0.1244
 1483SOL    HW116085   2.942   2.446   3.442 -2.4546 -0.6574  1.1799
 1483SOL    HW216086   2.922   2.300   3.427  0.0574 -0.1741 -0.8109
 1484SOL     OW16087   4.487   4.641   2.792 -0.0530  0.4537  0.4977
 1484SOL    HW116088   4.395   4.616   2.801  0.3978 -0.9187  1.2220
 1484SOL    HW216089   4.496   4.614   2.701  0.3253 -0.1500  0.7135
 1485SOL     OW16090   2.049   0.495  13.223 -0.1539  0.0274 -0.0628
 1485SOL    HW116091   1.955   0.484  13.214 -0.1045 -1.0735  0.8264
 1485SOL    HW216092   2.065   0.401  13.224 -1.1257 -0.1393 -0.4105
 1486SOL     OW16093   4.550   1.709   1.964  0.1091  0.7039  0.1826
 1486SOL    HW116094   4.582   1.720   1.875 -1.3145 -3.2625 -0.8030
 1486SOL    HW216095   4.547   1.802   1.986  1.0491  0.8168 -0.1867
 1487SOL     OW16096   1.440   0.333   3.421 -0.9731  0.3366 -0.3658
 1487SOL    HW116097   1.507   0.401   3.429 -0.2214 -0.5816  1.1165
 1487SOL    HW216098   1.403   0.330   3.509 -0.3559  0.2941 -0.1052
 1488SOL     OW16099   2.840   1.765  11.417  0.1636 -0.3218 -0.3013
 1488SOL    HW116100   2.807   1.837  11.471  1.2263 -0.4448  0.5091
 1488SOL    HW216101   2.905   1.719  11.471  1.5693 -1.1276 -2.6954
 1489SOL     OW16102   4.525   3.902   6.617 -0.7326 -0.2530  0.4171
 1489SOL    HW116103   4.457   3.933   6.676 -0.1165 -1.0111  1.5179
 1489SOL    HW216104   4.585   3.976   6.606  0.1060 -0.3659  4.4745
 1490SOL     OW16105   4.416   3.921   1.966 -0.1967 -0.2594 -0.1636
 1490SOL    HW116106   4.501   3.905   2.007  1.0105  0.6447 -2.3284
 1490SOL    HW216107   4.381   3.973   2.038 -0.1048 -1.8105  1.0069
 1491SOL     OW16108   2.626   3.791   4.765  0.1886  0.3591 -0.1575
 1491SOL    HW116109   2.704   3.735   4.763 -0.6264 -0.8558  1.8198
 1491SOL    HW216110   2.563   3.721   4.750 -0.2357  0.4137  1.3231
 1492SOL     OW16111   1.010   1.401   4.453 -0.4184  0.2971  0.3525
 1492SOL    HW116112   1.042   1.482   4.412  1.5450 -0.4984  0.3446
 1492SOL    HW216113   1.016   1.343   4.377  2.4412  1.7456 -0.5451
 1493SOL     OW16114   4.577   0.837   1.790  0.5810  0.0290 -0.4281
 1493SOL    HW116115   4.633   0.782   1.737 -2.5638 -0.7035 -2.9677
 1493SOL    HW216116   4.524   0.873   1.719  0.1487 -0.6898 -0.4740
 1494SOL     OW16117   4.414   3.807   7.532 -0.3017  0.2772  0.0341
 1494SOL    HW116118   4.395   3.899   7.546 -0.5387  0.6138 -2.4466
 1494SOL    HW216119   4.324   3.774   7.529 -0.5012  0.7362  1.0662
 1495SOL     OW16120   3.970   4.719  14.736  0.2158  0.2020  0.2063
 1495SOL    HW116121   3.950   0.070  14.762  0.6197  1.5103 -4.0701
 1495SOL    HW216122   3.925   4.728  14.652  1.7722 -0.7718 -0.7429
 1496SOL     OW16123   0.658   0.874   9.896  0.0568 -0.1004 -0.3077
 1496SOL    HW116124   0.651   0.807   9.828  1.2466 -0.0232 -0.5168
 1496SOL    HW216125   0.753   0.883   9.896  0.0335  0.1237  0.3158
 1497SOL     OW16126   3.990   0.225  17.525  0.0841 -0.2918 -0.2743
 1497SOL    HW116127   4.042   0.277  17.465  3.0011 -1.7440  1.0177
 1497SOL    HW216128   4.068   0.208  17.578 -0.7025 -0.2789  0.8948
 1498SOL     OW16129   1.807   4.188   8.831  0.5373 -0.7085 -0.3222
 1498SOL    HW116130   1.818   4.257   8.896 -0.3735  0.7280 -1.6782
 1498SOL    HW216131   1.848   4.230   8.755  0.4283 -0.4817 -0.2569
 1499SOL     OW16132   2.783   2.489  13.518  0.4849 -0.9892 -0.1833
 1499SOL    HW116133   2.804   2.409  13.469  0.0126 -0.9035 -0.5312
 1499SOL    HW216134   2.776   2.442  13.601 -0.9462  3.0778  1.9897
 1500SOL     OW16135   2.487   1.120   4.919  0.3778  0.5876  0.8000
 1500SOL    HW116136   2.445   1.118   5.005 -2.5661 -1.7705 -0.6949
 1500SOL    HW216137   2.427   1.068   4.865  1.5940 -2.1994  2.1306
 1501SOL     OW16138   2.854   2.760   8.593  0.0380 -0.3839 -0.1611
 1501SOL    HW116139   2.914   2.687   8.607  2.2123  1.2373 -0.9657
 1501SOL    HW216140   2.897   2.835   8.635 -0.8994 -0.4459  0.9259
 1502SOL     OW16141   1.473   4.386  13.263 -0.1418  0.1092  0.1664
 1502SOL    HW116142   1.433   4.472  13.247  1.7814  0.7716 -1.1093
 1502SOL    HW216143   1.533   4.410  13.333 -2.1319  2.4828  1.0547
 1503SOL     OW16144   1.312   2.390   0.325  0.5910  0.0875 -0.0043
 1503SOL    HW116145   1.305   2.306   0.371 -0.3598  0.1361 -0.0615
 1503SOL    HW216146   1.373   2.426   0.389 -1.8463  2.4075  0.9843
 1504SOL     OW16147   2.966   3.010  13.030 -0.1918 -0.2708  0.4698
 1504SOL    HW116148   2.979   2.927  12.984  2.0693 -0.5274  1.5836
 1504SOL    HW216149   3.021   2.988  13.105  0.1677 -2.4097 -0.4006
 1505SOL     OW16150   0.509   3.998  10.255 -0.7089  0.4222 -0.3420
 1505SOL    HW116151   0.543   3.930  10.313 -1.5170  0.5915  0.3250
 1505SOL    HW216152   0.453   3.947  10.196  0.1232 -1.4171  0.4399
 1506SOL     OW16153   2.492   2.231   7.729 -0.4412  0.1304  0.3750
 1506SOL    HW116154   2.489   2.238   7.633  0.8146  1.7226  0.4511
 1506SOL    HW216155   2.563   2.168   7.743 -1.3542 -0.6596  1.4558
 1507SOL     OW16156   3.477   1.599   1.512 -0.0851  0.5505 -0.2481
 1507SOL    HW116157   3.382   1.604   1.518 -0.0233  0.7583  0.4997
 1507SOL    HW216158   3.495   1.507   1.490  1.0258  0.7545 -0.1873
 1508SOL     OW16159   1.645   1.179   1.497 -0.9797 -0.4693 -0.9132
 1508SOL    HW116160   1.708   1.240   1.535 -0.3586  1.5496 -5.1769
 1508SOL    HW216161   1.576   1.244   1.486  1.7764  2.3735 -1.4523
 1509SOL     OW16162   4.369   0.131   5.128  0.3313 -0.2279  0.1151
 1509SOL    HW116163   4.392   0.200   5.191 -1.3663  0.8362 -0.4271
 1509SOL    HW216164   4.298   0.085   5.174  0.6759  0.8384  1.7383
 1510SOL     OW16165   4.463   1.532   7.088  0.2791 -0.5434  0.2170
 1510SOL    HW116166   4.529   1.465   7.104 -0.0121 -0.8406  0.1781
 1510SOL    HW216167   4.385   1.493   7.130  0.4426 -1.0687  0.0285
 1511SOL     OW16168   3.391   1.452   5.821  0.1399 -0.1454  1.1537
 1511SOL    HW116169   3.426   1.380   5.873  2.3281 -1.9098 -2.7318
 1511SOL    HW216170   3.436   1.521   5.869 -0.8030 -0.4589  2.4957
 1512SOL     OW16171   1.296   4.412   0.435 -0.0715  0.1906  0.0398
 1512SOL    HW116172   1.203   4.392   0.447 -0.1087 -0.0470 -0.6351
 1512SOL    HW216173   1.285   4.506   0.448  1.9908  0.5759 -1.0561
 1513SOL     OW16174   3.319   2.960   2.087 -0.3090  0.3318 -0.1526
 1513SOL    HW116175   3.314   2.973   1.993  2.2120 -1.1098 -0.4849
 1513SOL    HW216176   3.272   3.039   2.114  1.7816  0.8653  2.0022
 1514SOL     OW16177   2.470   3.000   8.111  0.2267 -0.2322 -0.0949
 1514SOL    HW116178   2.553   2.953   8.111  0.4516  0.1710  1.6129
 1514SOL    HW216179   2.469   3.053   8.190  0.8694 -1.6483  0.8514
 1515SOL     OW16180   2.774   3.360   8.415 -0.6620 -0.5942 -0.3632
 1515SOL    HW116181   2.694   3.389   8.458 -1.0702 -1.3467 -0.6211
 1515SOL    HW216182   2.778   3.268   8.441  3.4660 -0.0787  0.8328
 1516SOL     OW16183   4.477   0.309  13.154  0.2194  0.0513 -0.2527
 1516SOL    HW116184   4.500   0.321  13.062  2.6973  0.9539  0.4870
 1516SOL    HW216185   4.493   0.215  13.162  0.8690  0.3597  2.1074
 1517SOL     OW16186   1.834   1.429   8.720  1.3718 -0.1184 -0.1495
 1517SOL    HW116187   1.840   1.475   8.804 -1.1979 -0.6305  0.3009
 1517SOL    HW216188   1.739   1.428   8.712  1.2684 -1.4319  1.1366
 1518SOL     OW16189   1.572   4.404   8.463  0.2622  0.0089  0.1565
 1518SOL    HW116190   1.569   4.463   8.388  0.6206 -0.3553 -0.1442
 1518SOL    HW216191   1.572   4.317   8.422  0.5400 -0.6078  1.4518
 1519SOL     OW16192   0.178   3.929   9.198  0.4158 -0.2147 -0.4823
 1519SOL    HW116193   0.098   3.972   9.228  0.9423  1.4485 -1.4504
 1519SOL    HW216194   0.194   3.875   9.275 -0.0665 -2.1404 -1.7289
 1520SOL     OW16195   1.479   0.932   7.548  0.5147  0.4918  0.6651
 1520SOL    HW116196   1.447   0.984   7.475  2.2870  1.4217  0.5545
 1520SOL    HW216197   1.541   0.988   7.595 -0.1598  1.0210  0.9408
 1521SOL     OW16198   3.180   4.714   7.604  0.3131 -0.2967 -0.3206
 1521SOL    HW116199   3.127   4.653   7.654 -0.8336 -0.3865 -1.6333
 1521SOL    HW216200   3.263   4.691   7.647  1.2631 -1.8117 -2.9474
 1522SOL     OW16201   4.218   0.754   6.930 -0.0207  0.3896 -0.0935
 1522SOL    HW116202   4.251   0.813   6.862 -2.6971  1.6023 -0.3412
 1522SOL    HW216203   4.127   0.782   6.921 -0.4138 -1.1646 -0.9939
 1523SOL     OW16204   1.252   4.075   2.317  0.1692 -0.9773  0.2159
 1523SOL    HW116205   1.209   4.150   2.276  0.8666 -1.3810 -1.2727
 1523SOL    HW216206   1.207   4.068   2.401  0.6638 -1.4147  0.4473
 1524SOL     OW16207   3.058   3.854   9.452  0.2800 -0.3183  0.6177
 1524SOL    HW116208   3.098   3.941   9.450  0.4982 -0.3797  2.4520
 1524SOL    HW216209   3.135   3.818   9.495  0.8542 -1.0967 -1.0371
 1525SOL     OW16210   0.384   3.005   2.402  0.2556  0.0273 -0.4507
 1525SOL    HW116211   0.340   3.054   2.471  1.5768  0.7177 -0.1029
 1525SOL    HW216212   0.421   2.929   2.447  1.6978  0.7673 -0.4194
 1526SOL     OW16213   3.066   2.467   8.257  0.3709  0.1275 -0.5946
 1526SOL    HW116214   2.974   2.482   8.237  0.2863  0.4991  0.0580
 1526SOL    HW216215   3.103   2.459   8.169 -0.4279 -2.2687 -0.6897
 1527SOL     OW16216   4.018   0.639   0.871 -0.3865 -0.1228  0.8911
 1527SOL    HW116217   3.928   0.659   0.894 -0.2492  0.8268  0.5837
 1527SOL    HW216218   4.050   0.721   0.835 -1.4079  0.3893  1.1512
 1528SOL     OW16219   2.301   1.027  10.909  0.2216  0.0150  0.0281
 1528SOL    HW116220   2.391   1.056  10.927 -1.3070  4.7054  0.0573
 1528SOL    HW216221   2.259   1.037  10.994  1.0511  2.7056  0.1391
 1529SOL     OW16222   3.820   1.255  17.080 -0.0698  0.6949  0.4010
 1529SOL    HW116223   3.756   1.290  17.141 -2.1818 -1.9531 -0.3078
 1529SOL    HW216224   3.889   1.317  17.105  1.9714 -1.2435 -0.5085
 1530SOL     OW16225   3.091   1.858  11.277 -0.2021 -0.3948 -0.1566
 1530SOL    HW116226   3.089   1.900  11.191 -0.2426 -0.4400 -0.1776
 1530SOL    HW216227   3.097   1.769  11.241 -1.0299 -0.4002 -0.2764
 1531SOL     OW16228   4.687   0.077   2.716 -0.3248 -0.3825 -0.1335
 1531SOL    HW116229   4.657   0.168   2.723  2.2871  0.4149  0.6583
 1531SOL    HW216230   4.611   0.026   2.744 -0.0110 -1.3328 -1.0652
 1532SOL     OW16231   2.985   3.738   2.488 -0.7084 -0.1911 -0.2135
 1532SOL    HW116232   3.042   3.663   2.504  0.3495  0.7315  0.3830
 1532SOL    HW216233   2.989   3.765   2.580  1.6783 -0.0534 -0.3665
 1533SOL     OW16234   2.255   4.738  15.016  0.4188 -0.2822 -0.0539
 1533SOL    HW116235   2.242   4.658  15.066 -3.3727  1.1458  1.2615
 1533SOL    HW216236   2.327   4.721  14.955  1.2442 -2.0697  1.4340
 1534SOL     OW16237   2.289   1.971  16.079 -0.2420 -0.3520 -0.5139
 1534SOL    HW116238   2.338   1.974  16.161  1.2637 -1.1928 -1.3884
 1534SOL    HW216239   2.240   2.050  16.100 -1.8989 -2.1737  2.5681
 1535SOL     OW16240   4.047   4.355   9.664 -0.2173 -0.7149 -0.1764
 1535SOL    HW116241   3.988   4.289   9.701  0.5025 -1.3153 -0.0914
 1535SOL    HW216242   4.127   4.305   9.650  1.6654  2.0913  0.5426
 1536SOL     OW16243   1.357   1.597  13.845 -0.0809  0.0733 -0.2575
 1536SOL    HW116244   1.398   1.607  13.759 -0.3716  1.2946 -0.2482
 1536SOL    HW216245   1.277   1.555  13.815 -0.5410 -0.8060  2.1866
 1537SOL     OW16246   0.602   3.639   1.856  0.3611  0.3254 -0.0225
 1537SOL    HW116247   0.618   3.651   1.950 -0.2282 -0.8984  0.2231
 1537SOL    HW216248   0.690   3.657   1.823  0.8712 -0.9165  0.6631
 1538SOL     OW16249   3.558   3.162   8.060  0.1724 -0.4386  0.2632
 1538SOL    HW116250   3.581   3.169   8.153 -1.8370  2.3116  0.5587
 1538SOL    HW216251   3.520   3.249   8.050 -3.3064 -1.8950  0.8090
 1539SOL     OW16252   0.822   4.286   3.811  0.2731 -0.5784 -0.3038
 1539SOL    HW116253   0.909   4.247   3.805  0.9370  0.7775  0.6762
 1539SOL    HW216254   0.769   4.211   3.837  0.9849 -1.2614 -0.8347
 1540SOL     OW16255   0.532   3.855   8.324  0.2209 -0.1576 -0.1615
 1540SOL    HW116256   0.497   3.768   8.344  3.9244 -0.6299  4.5193
 1540SOL    HW216257   0.618   3.830   8.288  0.1729  2.0276 -1.7520
 1541SOL     OW16258   2.377   2.795   5.967 -0.4392  0.4209 -0.2435
 1541SOL    HW116259   2.370   2.703   5.994  1.4059  0.2236 -0.4468
 1541SOL    HW216260   2.349   2.798   5.875 -1.8241 -0.7960  0.1365
 1542SOL     OW16261   4.336   4.439   1.185 -0.2170 -0.9405 -0.4055
 1542SOL    HW116262   4.383   4.356   1.180 -1.2893 -1.4735 -1.6789
 1542SOL    HW216263   4.298   4.434   1.273 -0.1499 -2.3593 -0.4668
 1543SOL     OW16264   1.342   2.774  12.084  0.3453  0.0992 -0.1745
 1543SOL    HW116265   1.406   2.844  12.081 -0.5152  0.9393  1.0544
 1543SOL    HW216266   1.317   2.779  12.176  1.4304  1.0179  0.0547
 1544SOL     OW16267   3.424   0.170   5.541 -0.9870  0.0544  0.3627
 1544SOL    HW116268   3.353   0.133   5.488 -0.3568  1.5791 -1.5359
 1544SOL    HW216269   3.368   0.183   5.617 -0.0606  0.7217  0.9328
 1545SOL     OW16270   0.950   0.752  16.240 -0.3348  0.6909  0.6036
 1545SOL    HW116271   0.942   0.845  16.263 -0.0519  1.0584 -0.8357
 1545SOL    HW216272   0.871   0.706  16.271 -1.7336  2.3835 -0.4328
 1546SOL     OW16273   0.143   1.090   0.978 -0.1021  0.2881 -0.7949
 1546SOL    HW116274   0.110   1.002   0.960 -0.6182  0.5653 -1.1826
 1546SOL    HW216275   0.151   1.086   1.073 -4.0233 -0.0941 -0.4994
 1547SOL     OW16276   1.954   2.475   5.158  0.4188 -0.0077 -0.2186
 1547SOL    HW116277   2.014   2.533   5.111 -0.2152  1.5605  0.9070
 1547SOL    HW216278   1.865   2.510   5.156  0.5579  0.3587  0.0838
 1548SOL     OW16279   1.856   1.292   1.635  0.1450 -0.0503 -0.4104
 1548SOL    HW116280   1.880   1.260   1.722 -2.4444 -2.3522 -0.5344
 1548SOL    HW216281   1.856   1.387   1.642 -3.0388 -0.0163 -0.6764
 1549SOL     OW16282   1.814   0.391   9.145 -0.5824  0.6694  0.5302
 1549SOL    HW116283   1.827   0.484   9.129  1.2588  0.3470  0.1074
 1549SOL    HW216284   1.741   0.365   9.089  0.4136  0.5120 -0.7094
 1550SOL     OW16285   4.235   1.127   7.373  0.4892 -0.1983 -0.3190
 1550SOL    HW116286   4.203   1.148   7.460 -1.2000 -0.2604 -0.9216
 1550SOL    HW216287   4.220   1.034   7.358 -3.0118  0.1793  1.0634
 1551SOL     OW16288   1.753   4.727   5.609 -0.3728  0.6766  0.5956
 1551SOL    HW116289   1.820   0.045   5.571  0.0665  0.0547  0.4141
 1551SOL    HW216290   1.766   4.734   5.704 -2.8280 -0.1112  0.9924
 1552SOL     OW16291   3.106   0.163   8.138 -0.6006 -0.3054  0.1551
 1552SOL    HW116292   3.200   0.169   8.152 -0.7352 -0.1284  0.9658
 1552SOL    HW216293   3.091   0.111   8.217  1.7006 -1.6318 -0.2564
 1553SOL     OW16294   3.727   3.253   5.860  0.2374  0.3727  0.2535
 1553SOL    HW116295   3.679   3.284   5.783 -0.5600  1.9795  1.3996
 1553SOL    HW216296   3.661   3.219   5.920  0.3098 -1.6546 -0.8074
 1554SOL     OW16297   3.930   2.543   8.079  0.1761 -0.5917 -0.9741
 1554SOL    HW116298   3.841   2.576   8.069 -0.2933 -1.5022  0.1365
 1554SOL    HW216299   3.961   2.572   8.164  0.5400  1.0800 -1.6826
 1555SOL     OW16300   0.122   2.473  13.117 -0.0058  0.9242  0.8376
 1555SOL    HW116301   0.028   2.477  13.100  0.2263 -0.2171 -0.6996
 1555SOL    HW216302   0.132   2.381  13.093  0.2342  0.0873  4.1140
 1556SOL     OW16303   3.602   3.655  17.544  0.1967 -0.0460  0.0317
 1556SOL    HW116304   3.653   3.680  17.621 -0.0785 -0.8921  0.4828
 1556SOL    HW216305   3.597   3.730  17.485 -0.8485 -0.1225  0.0316
 1557SOL     OW16306   1.573   1.427   8.643 -0.1443 -0.5640 -0.3079
 1557SOL    HW116307   1.525   1.478   8.708 -1.2051 -3.1163  0.8958
 1557SOL    HW216308   1.563   1.338   8.676 -2.5862 -0.3899 -0.5761
 1558SOL     OW16309   1.972   1.717   6.427  0.8319  0.3445  0.6086
 1558SOL    HW116310   1.906   1.649   6.439 -2.0700  2.7324 -1.4866
 1558SOL    HW216311   1.937   1.780   6.490 -0.7956  0.4802 -0.4162
 1559SOL     OW16312   2.605   1.104   6.421 -0.3448 -0.6998 -0.2375
 1559SOL    HW116313   2.632   1.014   6.441  0.8171 -0.8246 -2.3751
 1559SOL    HW216314   2.646   1.121   6.336 -0.0457  1.9855  0.4681
 1560SOL     OW16315   0.785   4.167   4.611 -0.5537  0.2718  0.0215
 1560SOL    HW116316   0.857   4.104   4.614 -0.7071  0.1521  1.0011
 1560SOL    HW216317   0.730   4.117   4.671 -1.4635  0.1064 -0.9567
 1561SOL     OW16318   2.277   2.236   3.864 -0.1933 -0.6861  0.2798
 1561SOL    HW116319   2.186   2.266   3.869 -0.0986 -0.2244 -0.6856
 1561SOL    HW216320   2.300   2.192   3.945  2.3388 -1.2608 -0.7554
 1562SOL     OW16321   4.640   3.957   4.067  1.0204 -0.0078 -0.0155
 1562SOL    HW116322   4.628   3.881   4.124 -1.1366  0.8782  0.7347
 1562SOL    HW216323   4.697   4.008   4.124  0.8932  0.1003  0.0141
 1563SOL     OW16324   1.789   2.608  12.667 -0.2911 -0.8227  0.1654
 1563SOL    HW116325   1.727   2.540  12.690  1.1152 -1.4509  2.1012
 1563SOL    HW216326   1.734   2.675  12.626 -0.6092 -0.1668  1.6624
 1564SOL     OW16327   0.725   3.428   7.618 -0.1896 -0.1279  0.5163
 1564SOL    HW116328   0.806   3.473   7.641  0.4995  0.6474 -3.4385
 1564SOL    HW216329   0.657   3.479   7.662  0.5506  1.3808 -0.1007
 1565SOL     OW16330   3.405   3.516   3.361 -0.1783 -0.1863 -0.2678
 1565SOL    HW116331   3.468   3.524   3.432  0.5637  0.2232 -0.9768
 1565SOL    HW216332   3.398   3.421   3.361 -1.0693 -0.1358  2.1791
 1566SOL     OW16333   0.859   1.711   5.675  0.4951  0.2977 -0.2801
 1566SOL    HW116334   0.853   1.807   5.675 -0.3981  0.2341  1.1456
 1566SOL    HW216335   0.937   1.701   5.730  0.9612  2.5141 -0.5213
 1567SOL     OW16336   1.596   1.832   4.581 -0.7916  0.2484 -0.0421
 1567SOL    HW116337   1.620   1.897   4.514  0.9974  0.0964  0.4682
 1567SOL    HW216338   1.670   1.772   4.576 -1.3979 -0.3217 -2.2106
 1568SOL     OW16339   0.339   1.199   2.938 -0.5252  0.2798 -0.6876
 1568SOL    HW116340   0.303   1.242   2.860 -1.3714  0.8570  0.0188
 1568SOL    HW216341   0.404   1.146   2.891 -2.3693  0.0123 -2.9092
 1569SOL     OW16342   3.385   0.715  12.422  0.2127 -0.0782 -0.2887
 1569SOL    HW116343   3.382   0.799  12.375  1.3939 -0.1043 -0.4206
 1569SOL    HW216344   3.417   0.737  12.509 -1.1003  2.9481 -0.5591
 1570SOL     OW16345   2.537   0.042   3.326 -0.0268 -0.1404  0.0729
 1570SOL    HW116346   2.453   0.035   3.281 -0.7057  0.5165  1.2454
 1570SOL    HW216347   2.599   0.072   3.259  1.8655 -0.7012  1.5834
 1571SOL     OW16348   2.395   2.708   2.447  0.3242 -0.6408  0.5738
 1571SOL    HW116349   2.443   2.645   2.501  2.5337 -0.2609 -0.9493
 1571SOL    HW216350   2.309   2.694   2.488  1.0897  0.1983  2.4833
 1572SOL     OW16351   0.821   1.163   9.892  0.2337  0.0050 -0.1823
 1572SOL    HW116352   0.770   1.200   9.964 -2.1793 -0.2750 -1.7613
 1572SOL    HW216353   0.854   1.088   9.941  1.7434 -0.2545 -1.6061
 1573SOL     OW16354   0.092   1.560   7.591  0.3611  0.1729  0.4507
 1573SOL    HW116355   0.174   1.510   7.590 -1.4862 -2.7819 -1.9547
 1573SOL    HW216356   0.032   1.505   7.541 -0.7505  0.1659  1.7893
 1574SOL     OW16357   1.955   1.664  13.582  0.1759 -0.0206  0.2244
 1574SOL    HW116358   1.936   1.605  13.509  2.4110 -0.6400  0.1440
 1574SOL    HW216359   1.962   1.605  13.657  1.1406  1.1030  1.0264
 1575SOL     OW16360   3.111   1.313  12.080 -0.2382 -0.2845  0.9100
 1575SOL    HW116361   3.172   1.382  12.052 -0.9857 -0.6421 -1.5726
 1575SOL    HW216362   3.035   1.362  12.111 -0.5434 -1.4634  2.0183
 1576SOL     OW16363   0.923   3.221  13.499  0.2338  0.5934 -0.2091
 1576SOL    HW116364   0.836   3.219  13.539  0.4769 -0.0876  0.2904
 1576SOL    HW216365   0.916   3.306  13.455  1.7751  0.8377  0.0412
 1577SOL     OW16366   4.448   2.515   6.142 -0.2062  0.4783  0.2835
 1577SOL    HW116367   4.477   2.520   6.233 -0.6212  1.6171  0.3622
 1577SOL    HW216368   4.471   2.427   6.114 -2.4213 -0.0491  0.1052
 1578SOL     OW16369   0.885   3.557  17.351 -0.1750  0.1371 -0.1762
 1578SOL    HW116370   0.817   3.562  17.418 -2.0267 -0.4031 -2.0108
 1578SOL    HW216371   0.835   3.560  17.270  0.2252 -0.0164 -0.4334
 1579SOL     OW16372   0.055   2.551   4.601 -0.2223  0.4737  0.2392
 1579SOL    HW116373   0.109   2.606   4.545 -0.6462  0.1223 -0.5103
 1579SOL    HW216374   0.115   2.552   4.675  1.2128 -0.2291 -0.9136
 1580SOL     OW16375   2.124   0.054   6.814 -0.2336  0.1887 -0.4872
 1580SOL    HW116376   2.079   0.137   6.801  0.5162  0.7757  0.6261
 1580SOL    HW216377   2.066   4.730   6.772 -1.5978  2.3089 -1.7763
 1581SOL     OW16378   1.153   3.248   6.623  0.0322 -0.4432 -0.1707
 1581SOL    HW116379   1.104   3.289   6.551 -1.1441 -1.8620 -0.1862
 1581SOL    HW216380   1.153   3.158   6.591 -0.7896 -0.7730  0.7698
 1582SOL     OW16381   3.910   1.004   2.378 -0.3710  0.0519 -0.9351
 1582SOL    HW116382   3.888   0.914   2.354 -0.5508  0.0498 -0.7619
 1582SOL    HW216383   3.968   0.995   2.453 -2.5846 -1.1932  0.6075
 1583SOL     OW16384   1.330   1.126   8.243  0.3620 -0.1340 -0.4242
 1583SOL    HW116385   1.270   1.059   8.210  1.4170 -0.5012 -1.5802
 1583SOL    HW216386   1.415   1.093   8.215  0.6097 -0.3867  0.6203
 1584SOL     OW16387   3.560   4.463   3.677 -0.0048  0.1103 -0.1348
 1584SOL    HW116388   3.619   4.435   3.607  0.0410  0.4640 -0.2390
 1584SOL    HW216389   3.494   4.508   3.624 -0.3346  0.3825  0.5016
 1585SOL     OW16390   3.531   1.206   4.179 -0.9245 -0.1171 -0.3543
 1585SOL    HW116391   3.622   1.186   4.200  0.2927  3.6850 -1.9777
 1585SOL    HW216392   3.497   1.177   4.264 -2.0674  2.2034 -0.0079
 1586SOL     OW16393   2.546   2.248   1.885  0.2802 -0.0671 -0.3879
 1586SOL    HW116394   2.522   2.308   1.955  0.4879  0.4296 -0.7398
 1586SOL    HW216395   2.636   2.272   1.863  1.3106 -0.8855  2.9562
 1587SOL     OW16396   0.443   3.051   7.727 -0.2154 -0.3906 -0.2180
 1587SOL    HW116397   0.531   3.089   7.724 -0.8069  1.2008  2.1394
 1587SOL    HW216398   0.389   3.102   7.667  2.1448  0.3647 -1.7075
 1588SOL     OW16399   0.642   3.830   4.996  0.0820 -0.0689 -0.4489
 1588SOL    HW116400   0.662   3.826   4.902  0.1083 -1.7290 -0.3619
 1588SOL    HW216401   0.727   3.854   5.032 -0.0543  0.1148 -0.2504
 1589SOL     OW16402   1.934   4.071   2.709 -0.7288  0.0541  0.3435
 1589SOL    HW116403   2.001   4.109   2.651 -0.2393 -0.3269  0.6529
 1589SOL    HW216404   1.984   4.004   2.757  0.5971  0.0706 -0.9933
 1590SOL     OW16405   2.557   3.231   5.795  0.4368 -0.3223  0.3648
 1590SOL    HW116406   2.525   3.321   5.800  0.7192 -0.2241  0.3789
 1590SOL    HW216407   2.636   3.247   5.745 -1.1432 -1.2111 -2.4165
 1591SOL     OW16408   0.144   1.802   5.849  0.1506  0.0722 -0.5041
 1591SOL    HW116409   0.067   1.829   5.900 -0.2765  0.2991 -1.2653
 1591SOL    HW216410   0.120   1.726   5.797 -0.0198 -1.0349  1.2260
 1592SOL     OW16411   3.964   3.562   0.478  0.4464 -0.4156  0.1217
 1592SOL    HW116412   3.936   3.565   0.387 -0.3977  0.9443  0.4259
 1592SOL    HW216413   4.041   3.505   0.481 -0.8680 -2.1274  1.5376
 1593SOL     OW16414   3.317   4.338   7.385  0.4583 -0.3229 -0.3303
 1593SOL    HW116415   3.401   4.298   7.410  0.7866  1.0547  0.7645
 1593SOL    HW216416   3.258   4.273   7.423 -2.1571  1.6670 -1.0226
 1594SOL     OW16417   0.070   3.680   4.169  0.6400 -0.3544 -0.6425
 1594SOL    HW116418   0.155   3.723   4.164  0.5982 -0.0434  1.4451
 1594SOL    HW216419   0.024   3.731   4.236  1.6332 -1.7274  1.0695
 1595SOL     OW16420   3.644   2.365   6.666 -0.5601 -0.0287  0.1094
 1595SOL    HW116421   3.581   2.367   6.738 -1.4505  1.2317 -0.7116
 1595SOL    HW216422   3.613   2.287   6.620  1.6727 -1.2429  0.6765
 1596SOL     OW16423   3.166   4.240   3.880 -0.5647 -0.2523 -0.3539
 1596SOL    HW116424   3.213   4.323   3.883 -0.8998 -0.1989  2.8914
 1596SOL    HW216425   3.196   4.200   3.961 -1.1433 -0.7864 -0.4057
 1597SOL     OW16426   1.167   1.159   6.598  0.0269 -0.3872  0.4958
 1597SOL    HW116427   1.165   1.093   6.667  2.9206  0.4872  1.4173
 1597SOL    HW216428   1.220   1.117   6.531 -1.3140  0.8965 -1.3746
 1598SOL     OW16429   0.747   1.383   7.304 -0.2597  0.0613  0.0879
 1598SOL    HW116430   0.784   1.307   7.258 -1.0173  1.3570 -2.6466
 1598SOL    HW216431   0.706   1.334   7.376 -1.4031  1.8022  0.6222
 1599SOL     OW16432   3.695   4.231   5.679 -0.0728 -0.3329 -0.0262
 1599SOL    HW116433   3.691   4.279   5.596 -0.1240 -1.9649 -0.9673
 1599SOL    HW216434   3.600   4.216   5.677 -0.2278  0.3538  2.8429
 1600SOL     OW16435   0.104   2.529   6.847 -0.0397  0.2191  0.9951
 1600SOL    HW116436   0.049   2.509   6.922  1.0431 -2.4219  1.0674
 1600SOL    HW216437   0.096   2.625   6.853  2.8926  0.3668  2.5955
 1601SOL     OW16438   1.728   0.327   4.780  0.3718 -0.2037  0.5960
 1601SOL    HW116439   1.774   0.310   4.862  1.2905  1.4279  0.4313
 1601SOL    HW216440   1.731   0.243   4.736 -1.6679 -0.4839  0.9875
 1602SOL     OW16441   1.394   0.650   8.686  0.3315  0.0162  0.3437
 1602SOL    HW116442   1.342   0.572   8.668  2.2610 -0.6408 -2.3092
 1602SOL    HW216443   1.344   0.691   8.757 -0.3280 -1.6526  0.8397
 1603SOL     OW16444   1.137   1.157  17.050 -0.0794  0.1522  0.0508
 1603SOL    HW116445   1.116   1.069  17.020 -1.7621  0.5265  0.1133
 1603SOL    HW216446   1.215   1.180  17.000  0.1580  1.0317  0.8203
 1604SOL     OW16447   0.764   4.206   2.255  0.0627  0.1935 -0.6958
 1604SOL    HW116448   0.857   4.220   2.240  0.2125  0.5849  0.5585
 1604SOL    HW216449   0.763   4.203   2.351 -1.5843  2.8021 -0.6363
 1605SOL     OW16450   2.719   1.187   7.027 -0.2599 -0.0672  0.1417
 1605SOL    HW116451   2.692   1.273   7.059 -0.2774 -0.9469  2.4458
 1605SOL    HW216452   2.795   1.209   6.973 -0.8009 -0.7505 -0.8919
 1606SOL     OW16453   1.948   2.903  12.551 -0.2405 -0.2207 -0.4597
 1606SOL    HW116454   2.039   2.932  12.545  0.5895 -2.4335  1.4877
 1606SOL    HW216455   1.903   2.986  12.537 -2.0411 -0.8829  1.5274
 1607SOL     OW16456   1.865   0.564  16.869  0.8049  0.0921  0.0033
 1607SOL    HW116457   1.832   0.627  16.932  0.4283 -0.0298 -0.0728
 1607SOL    HW216458   1.949   0.531  16.903  1.3999  1.3251 -0.2885
 1608SOL     OW16459   3.913   3.287   9.288  0.0235  0.0975  0.2704
 1608SOL    HW116460   3.951   3.342   9.219 -1.0722 -0.4780 -0.7921
 1608SOL    HW216461   3.861   3.354   9.333 -1.9524 -0.1860 -1.5670
 1609SOL     OW16462   3.092   4.435   8.687 -0.0521 -0.3222 -0.2172
 1609SOL    HW116463   3.071   4.528   8.672  0.4875 -0.1143  0.2951
 1609SOL    HW216464   3.007   4.393   8.696  0.4382 -0.6917  2.7021
 1610SOL     OW16465   1.213   4.174   7.614  0.1542  0.5659 -0.0735
 1610SOL    HW116466   1.291   4.130   7.648 -0.2304 -0.0823 -0.0126
 1610SOL    HW216467   1.217   4.145   7.523 -0.3850  1.6355 -0.4395
 1611SOL     OW16468   1.904   3.397   1.831  0.0113  0.1063  0.6892
 1611SOL    HW116469   1.842   3.446   1.885  1.7076  0.9151  1.8947
 1611SOL    HW216470   1.925   3.325   1.890 -1.3297 -0.9335 -0.1037
 1612SOL     OW16471   0.145   1.076  14.943  0.4780  0.1818  0.0070
 1612SOL    HW116472   0.054   1.082  14.914  0.0736 -0.6824  1.1204
 1612SOL    HW216473   0.170   0.984  14.937 -1.7833 -0.3442 -1.1736
 1613SOL     OW16474   2.649   0.186   1.945 -0.4833  0.6705  0.3675
 1613SOL    HW116475   2.594   0.129   1.999 -1.5194 -0.0267 -1.4318
 1613SOL    HW216476   2.716   0.215   2.007 -0.8554 -1.6433  1.8784
 1614SOL     OW16477   2.027   0.997   9.173 -0.0179 -0.1513  0.0525
 1614SOL    HW116478   1.937   0.972   9.194 -0.3343  0.8465 -0.1138
 1614SOL    HW216479   2.017   1.022   9.081 -1.5257 -1.6227 -0.1778
 1615SOL     OW16480   0.088   2.138   2.042 -0.0606  0.3519  0.1249
 1615SOL    HW116481   0.179   2.122   2.065  0.0468 -0.5478 -0.9419
 1615SOL    HW216482   0.105   2.181   1.958  1.7240  0.2837  0.4688
 1616SOL     OW16483   4.623   1.933  14.935 -0.2962  0.2700 -0.1059
 1616SOL    HW116484   4.663   1.933  14.848  1.6236  0.8923  0.7719
 1616SOL    HW216485   4.559   2.002  14.923 -1.7330 -1.1846 -0.7213
 1617SOL     OW16486   3.088   3.529  11.135 -0.1171 -0.1764  0.5169
 1617SOL    HW116487   3.053   3.616  11.155  1.1612 -0.0162  2.0295
 1617SOL    HW216488   3.035   3.477  11.196  4.0224 -3.0603  1.6107
 1618SOL     OW16489   2.490   0.417  10.237  0.1503  0.0005  0.3616
 1618SOL    HW116490   2.572   0.378  10.208 -1.0771 -1.2152 -1.4580
 1618SOL    HW216491   2.479   0.370  10.320 -2.3907  1.3192  0.7710
 1619SOL     OW16492   1.018   3.830   3.888  0.5927  0.2262 -0.5054
 1619SOL    HW116493   1.023   3.880   3.969  1.1746 -2.1185  0.9217
 1619SOL    HW216494   1.111   3.812   3.875  1.7582  3.4448  3.3908
 1620SOL     OW16495   0.185   4.268   7.886 -0.6214 -0.3677  0.0681
 1620SOL    HW116496   0.226   4.182   7.896  0.5499  0.0966 -0.7435
 1620SOL    HW216497   0.191   4.280   7.791 -0.4038 -0.8473  0.0205
 1621SOL     OW16498   2.831   1.192   3.282 -0.5081 -0.0531 -0.7152
 1621SOL    HW116499   2.808   1.099   3.290 -1.2572  0.1498 -0.4215
 1621SOL    HW216500   2.878   1.209   3.363  1.1440 -0.8442 -1.5192
 1622SOL     OW16501   3.630   0.856   4.456 -0.3341  0.0319  0.3651
 1622SOL    HW116502   3.588   0.940   4.436  1.1390  0.5204 -0.7157
 1622SOL    HW216503   3.658   0.862   4.547  1.4460 -0.5664 -0.1462
 1623SOL     OW16504   1.893   0.409  12.420 -0.5025  0.4531  0.0024
 1623SOL    HW116505   1.827   0.448  12.477 -0.6856  0.1175  0.0218
 1623SOL    HW216506   1.849   0.418  12.336 -0.3132 -1.3154 -0.2994
 1624SOL     OW16507   3.420   1.301   1.931 -0.0689  0.5458  0.8691
 1624SOL    HW116508   3.428   1.395   1.949 -0.0914  1.0727 -1.8182
 1624SOL    HW216509   3.375   1.307   1.847 -2.0933  1.2471  2.0207
 1625SOL     OW16510   0.316   1.881   0.975 -0.1472  0.2454  0.1288
 1625SOL    HW116511   0.226   1.879   0.942  0.9759 -0.9760 -2.8291
 1625SOL    HW216512   0.306   1.893   1.070  0.2533 -0.9145  0.3157
 1626SOL     OW16513   3.899   0.775  17.012 -0.6414  0.0055 -0.7166
 1626SOL    HW116514   3.857   0.841  17.067  0.1074 -1.3337  1.4614
 1626SOL    HW216515   3.845   0.702  17.043  0.3385 -0.1884  0.5333
 1627SOL     OW16516   3.677   0.481   4.720  0.1220  0.2322  0.2677
 1627SOL    HW116517   3.608   0.435   4.768 -0.5681 -0.6507 -1.5719
 1627SOL    HW216518   3.743   0.458   4.786  0.2340  1.2476  0.5039
 1628SOL     OW16519   0.459   4.404  10.943  0.0352 -0.5586 -0.6151
 1628SOL    HW116520   0.438   4.410  11.036 -1.8386  0.3141 -1.0813
 1628SOL    HW216521   0.377   4.361  10.918  0.0126 -0.1306 -1.2703
 1629SOL     OW16522   0.477   0.648   4.972 -0.4346  0.0917  1.0445
 1629SOL    HW116523   0.451   0.616   4.886  2.9825 -1.0728  0.4285
 1629SOL    HW216524   0.535   0.719   4.944 -1.9171  1.3405  1.1625
 1630SOL     OW16525   2.866   4.739   1.749 -0.0809  0.4631  0.2784
 1630SOL    HW116526   2.881   4.650   1.718 -1.7734 -0.4301  2.0403
 1630SOL    HW216527   2.774   0.003   1.723  0.5400 -2.4144 -2.2760
 1631SOL     OW16528   0.447   0.157  15.824 -0.3442 -0.2053  0.0053
 1631SOL    HW116529   0.434   0.062  15.827  0.1497 -0.2826 -0.2653
 1631SOL    HW216530   0.507   0.178  15.896  0.4591 -1.8113 -0.1846
 1632SOL     OW16531   2.761   3.379   9.190  0.0868  0.1879  0.0341
 1632SOL    HW116532   2.821   3.437   9.237 -0.3787 -0.6228  1.6085
 1632SOL    HW216533   2.742   3.315   9.258 -0.5610 -1.0388 -1.3139
 1633SOL     OW16534   1.404   2.571   9.746  0.1001 -0.3897 -0.1093
 1633SOL    HW116535   1.409   2.538   9.656 -1.3551 -1.4191  0.1758
 1633SOL    HW216536   1.497   2.588   9.763 -0.0258  0.7949 -0.6149
 1634SOL     OW16537   1.579   1.223   4.738  0.0758 -0.3385  0.0889
 1634SOL    HW116538   1.536   1.170   4.805  2.9974 -1.7499  0.8332
 1634SOL    HW216539   1.511   1.223   4.670  0.8664  0.1250 -0.6955
 1635SOL     OW16540   3.200   3.520  12.663 -0.3649 -0.3508  0.2534
 1635SOL    HW116541   3.116   3.550  12.698  0.3000  2.1764 -0.3208
 1635SOL    HW216542   3.164   3.454  12.603  0.4976 -1.5640  1.0728
 1636SOL     OW16543   3.762   4.554  16.132 -0.1886  0.4791  0.0723
 1636SOL    HW116544   3.840   4.608  16.141  0.4657 -0.2794 -1.0571
 1636SOL    HW216545   3.736   4.533  16.222 -0.0505 -1.8161 -0.4398
 1637SOL     OW16546   0.265   4.473   6.648  0.3198 -0.5822  0.1793
 1637SOL    HW116547   0.284   4.567   6.645  1.4953 -0.7723  1.8299
 1637SOL    HW216548   0.305   4.454   6.732 -1.1985  2.1735  1.5253
 1638SOL     OW16549   0.798   0.675   1.460 -0.0071  0.4090  0.1783
 1638SOL    HW116550   0.820   0.672   1.553 -0.7736  0.1054  0.3474
 1638SOL    HW216551   0.829   0.590   1.429  2.6583  1.2436  0.5331
 1639SOL     OW16552   3.182   4.005   6.537 -0.0238  0.9080  0.3545
 1639SOL    HW116553   3.158   3.914   6.551  1.9375  0.5226  1.2335
 1639SOL    HW216554   3.172   4.045   6.624 -0.5484  0.2214  0.6111
 1640SOL     OW16555   2.350   0.574   5.917  0.1390 -0.4572 -0.0189
 1640SOL    HW116556   2.269   0.543   5.958 -0.4347  2.4640  1.1014
 1640SOL    HW216557   2.353   0.656   5.968 -0.5456  0.5336 -1.5649
 1641SOL     OW16558   0.000   1.656   7.983  0.4559 -0.0803 -0.1588
 1641SOL    HW116559   4.725   1.595   8.056 -2.0593  0.7342 -0.0029
 1641SOL    HW216560   0.027   1.732   8.035 -1.5372 -0.9233  2.1015
 1642SOL     OW16561   1.281   4.498   8.424  0.2311  0.4093  0.2758
 1642SOL    HW116562   1.336   4.422   8.438 -2.3899 -1.6944 -0.7960
 1642SOL    HW216563   1.335   4.555   8.369 -4.1232  2.8696 -1.4853
 1643SOL     OW16564   3.576   1.046   5.459  0.4668 -0.2057  0.4643
 1643SOL    HW116565   3.665   1.024   5.488  0.1733  0.2788  1.7438
 1643SOL    HW216566   3.557   1.123   5.513 -0.4089  0.8304 -1.3392
 1644SOL     OW16567   4.660   0.409  10.595  0.2752 -0.9373  0.5222
 1644SOL    HW116568   4.714   0.353  10.651  1.6376 -0.7217 -0.5826
 1644SOL    HW216569   4.692   0.493  10.627  0.5214 -0.9476  0.3038
 1645SOL     OW16570   2.897   1.674  14.727  0.2992  0.0392 -0.2943
 1645SOL    HW116571   2.823   1.721  14.767  0.4406 -0.3278  0.3972
 1645SOL    HW216572   2.932   1.622  14.799  0.6786  1.5344  0.6133
 1646SOL     OW16573   1.900   1.220   2.172 -0.2160  1.3241  0.0294
 1646SOL    HW116574   1.896   1.221   2.267 -0.6745  1.9692  0.0053
 1646SOL    HW216575   1.819   1.257   2.136 -1.2185  0.3586  1.3217
 1647SOL     OW16576   3.187   3.568  16.570 -0.5586 -0.1496  0.0338
 1647SOL    HW116577   3.278   3.555  16.599 -0.8021 -0.6306  0.5792
 1647SOL    HW216578   3.147   3.501  16.626 -3.0850  1.6814  0.4127
 1648SOL     OW16579   2.037   2.954  13.854 -0.0183  0.2022  0.0509
 1648SOL    HW116580   2.047   3.010  13.931  0.9012 -0.4981  0.4403
 1648SOL    HW216581   2.001   2.873  13.892  0.6127 -0.3203 -0.4620
 1649SOL     OW16582   3.618   1.697   6.368  0.5521  0.3591  0.1636
 1649SOL    HW116583   3.645   1.611   6.334  2.4709  0.7032  0.7829
 1649SOL    HW216584   3.703   1.738   6.386  0.1706  1.1962  0.0470
 1650SOL     OW16585   1.507   0.037  12.615 -0.3333  0.2986 -0.4663
 1650SOL    HW116586   1.581   0.044  12.675  0.0413  2.4724 -1.2199
 1650SOL    HW216587   1.562   0.053  12.539  2.2543 -1.7713  0.9523
 1651SOL     OW16588   1.136   2.869   9.119  0.0837  0.4917 -0.4484
 1651SOL    HW116589   1.198   2.924   9.072 -1.2559  1.2637 -1.2952
 1651SOL    HW216590   1.158   2.890   9.210  0.5919  1.6534 -0.8335
 1652SOL     OW16591   3.791   1.522   4.550 -0.5171 -0.6592 -0.3577
 1652SOL    HW116592   3.848   1.520   4.627 -1.3050 -1.0868  0.2216
 1652SOL    HW216593   3.709   1.549   4.591  0.0703  0.5250  0.0254
 1653SOL     OW16594   1.957   1.086   0.986  0.5357 -0.2600  0.3510
 1653SOL    HW116595   1.923   0.998   1.001 -0.4433  0.1709  0.7062
 1653SOL    HW216596   1.949   1.098   0.892  0.5823 -0.1405  0.3626
 1654SOL     OW16597   4.584   4.277   2.941  0.3198 -0.3697 -0.5857
 1654SOL    HW116598   4.523   4.213   2.980  0.8767  0.6127  1.8705
 1654SOL    HW216599   4.538   4.357   2.967 -0.7300 -0.8792 -0.8369
 1655SOL     OW16600   3.461   4.323   8.203  0.7330 -0.1934  0.4820
 1655SOL    HW116601   3.424   4.234   8.204 -0.2106  0.2052  2.6413
 1655SOL    HW216602   3.480   4.341   8.111 -2.3919  3.0082  0.4850
 1656SOL     OW16603   1.149   2.919   2.996  0.6953 -0.2244 -0.2668
 1656SOL    HW116604   1.080   2.905   3.060 -0.1919 -1.3377 -1.4716
 1656SOL    HW216605   1.220   2.860   3.025  0.8610  0.9077  1.5977
 1657SOL     OW16606   0.922   4.592   2.766 -0.5049 -0.4110  0.1384
 1657SOL    HW116607   0.872   4.533   2.709 -2.5484  1.7561 -0.2808
 1657SOL    HW216608   0.932   4.543   2.847 -0.3350 -1.5227 -0.5519
 1658SOL     OW16609   2.599   3.714   1.837  0.1626  0.0920 -0.0447
 1658SOL    HW116610   2.531   3.727   1.902 -1.1516  0.6074 -1.5153
 1658SOL    HW216611   2.654   3.650   1.883 -0.6864  0.1019  0.9746
 1659SOL     OW16612   2.127   2.527  13.597  0.6619  0.4480 -0.4595
 1659SOL    HW116613   2.068   2.456  13.573  0.3527  0.4311  0.3229
 1659SOL    HW216614   2.191   2.528  13.527  1.5587  0.7457  0.3649
 1660SOL     OW16615   3.475   3.525  13.265  0.0091  0.1008  1.1979
 1660SOL    HW116616   3.472   3.492  13.355  0.1229  0.5067  1.3509
 1660SOL    HW216617   3.520   3.456  13.216 -1.5245  0.9993 -1.4972
 1661SOL     OW16618   2.817   2.832   1.440 -0.5968  0.0675  0.1108
 1661SOL    HW116619   2.753   2.806   1.507 -3.9347  0.8694 -2.7839
 1661SOL    HW216620   2.854   2.908   1.485 -0.2885 -0.7310  1.2091
 1662SOL     OW16621   0.669   3.603   9.117 -0.0819  0.3304 -0.7483
 1662SOL    HW116622   0.744   3.554   9.151 -1.8133 -0.9933  1.1461
 1662SOL    HW216623   0.644   3.564   9.033 -0.4164 -0.3245 -0.3443
 1663SOL     OW16624   1.241   2.990  14.950  0.1320 -0.2468 -0.3098
 1663SOL    HW116625   1.174   2.926  14.975 -0.9440  1.2026  0.4956
 1663SOL    HW216626   1.317   2.958  14.998 -0.4783 -1.3955 -0.0967
 1664SOL     OW16627   2.318   1.991   2.124 -0.5119  0.0665 -0.1693
 1664SOL    HW116628   2.237   1.956   2.161 -0.3505  0.1886  0.2888
 1664SOL    HW216629   2.308   1.956   2.035  2.9833 -1.9001  0.2314
 1665SOL     OW16630   0.634   3.686   5.637 -0.2135 -0.3091  0.4286
 1665SOL    HW116631   0.588   3.656   5.716  0.0227 -2.0536 -0.1020
 1665SOL    HW216632   0.638   3.607   5.585  0.8171  0.3424 -0.4826
 1666SOL     OW16633   4.250   1.348   9.343 -0.1237 -0.7392  0.1313
 1666SOL    HW116634   4.243   1.348   9.439 -0.2904 -0.6960  0.1199
 1666SOL    HW216635   4.189   1.276   9.323  0.5461 -1.4440  0.6283
 1667SOL     OW16636   4.040   2.132   6.106 -0.4511  0.0336 -0.3124
 1667SOL    HW116637   4.110   2.162   6.048  1.4413 -2.0648  0.9105
 1667SOL    HW216638   4.046   2.196   6.177 -1.1911  1.5040 -1.5541
 1668SOL     OW16639   0.130   1.520  12.052 -0.3765  0.6795  0.2446
 1668SOL    HW116640   0.104   1.499  11.963 -1.2510  0.7465  0.4865
 1668SOL    HW216641   0.224   1.510  12.038  0.3993  2.4205  4.1154
 1669SOL     OW16642   1.797   1.551   0.402  0.1136 -0.0368 -0.1545
 1669SOL    HW116643   1.772   1.627   0.455 -0.7008  0.0279 -0.6422
 1669SOL    HW216644   1.800   1.588   0.314  0.8585 -0.1700 -0.1911
 1670SOL     OW16645   2.225   2.612   7.969 -0.2086 -0.1174  0.3964
 1670SOL    HW116646   2.263   2.549   8.030 -0.9710 -0.9229  0.0481
 1670SOL    HW216647   2.194   2.550   7.903 -0.3468  0.4127 -0.0443
 1671SOL     OW16648   2.403   1.442   1.414 -0.0394  0.2105  0.0319
 1671SOL    HW116649   2.434   1.501   1.482 -1.5572  1.5654 -0.4471
 1671SOL    HW216650   2.310   1.447   1.438  0.1007 -1.9730  1.0268
 1672SOL     OW16651   3.869   1.554   4.802  0.0761  0.1165  0.5386
 1672SOL    HW116652   3.888   1.552   4.895  1.1504  0.3322  0.3209
 1672SOL    HW216653   3.863   1.646   4.778  1.7810  0.3975  1.2728
 1673SOL     OW16654   1.299   4.248  14.490 -0.1647  0.3772 -0.1171
 1673SOL    HW116655   1.256   4.170  14.455 -2.0571  1.7586 -0.8451
 1673SOL    HW216656   1.298   4.300  14.410 -0.4346  0.7529  0.1311
 1674SOL     OW16657   4.051   1.295   4.837 -0.4471  0.5358 -0.0758
 1674SOL    HW116658   4.060   1.377   4.789  0.3876  0.7789  0.4784
 1674SOL    HW216659   4.135   1.297   4.883  0.7919 -2.6063 -2.1980
 1675SOL     OW16660   3.227   0.570   6.030  0.0971 -0.1208 -0.6546
 1675SOL    HW116661   3.170   0.496   6.051 -2.0767  0.8721 -2.9792
 1675SOL    HW216662   3.166   0.642   6.013 -1.1790 -0.6487  1.6773
 1676SOL     OW16663   1.054   0.511   3.207 -0.8105  0.1209 -0.5482
 1676SOL    HW116664   0.972   0.500   3.158 -1.5858 -0.8090  0.9710
 1676SOL    HW216665   1.018   0.540   3.290  2.4891  1.0649  0.5613
 1677SOL     OW16666   0.292   4.011  10.043  0.1163 -0.0388 -0.2756
 1677SOL    HW116667   0.272   4.102  10.064  1.4971 -0.1076  1.3708
 1677SOL    HW216668   0.350   4.026   9.969  0.7250 -0.7398  0.0564
 1678SOL     OW16669   4.502   4.472   6.320 -0.0481 -0.1975  0.2402
 1678SOL    HW116670   4.416   4.460   6.363  0.8355 -0.3893  1.9657
 1678SOL    HW216671   4.506   4.566   6.333 -0.3506 -0.1780  0.2045
 1679SOL     OW16672   0.179   2.572   2.951  0.4441 -0.0514 -0.2000
 1679SOL    HW116673   0.117   2.608   2.888 -0.8255 -0.5378  0.7516
 1679SOL    HW216674   0.224   2.505   2.900 -0.6249 -0.1270 -1.0528
 1680SOL     OW16675   3.290   4.691   9.076 -0.2869 -0.0004 -0.2498
 1680SOL    HW116676   3.237   4.645   9.011  0.4048 -1.0405 -0.0745
 1680SOL    HW216677   3.313   0.035   9.035  3.3670 -1.1358 -0.5415
 1681SOL     OW16678   3.328   1.623   9.819 -0.7645 -0.0999 -0.6349
 1681SOL    HW116679   3.267   1.632   9.892 -0.7998  0.3463 -0.7192
 1681SOL    HW216680   3.408   1.645   9.866 -0.5767 -0.8155 -0.6261
 1682SOL     OW16681   1.629   3.363  11.344 -0.0112  0.0336 -0.4831
 1682SOL    HW116682   1.584   3.361  11.260 -1.8092 -0.8178  0.4959
 1682SOL    HW216683   1.556   3.381  11.404 -0.2439  1.3793 -1.1678
 1683SOL     OW16684   3.627   4.509   5.073  0.0036 -0.0192  0.1219
 1683SOL    HW116685   3.556   4.570   5.092  0.4723  0.4106  0.4845
 1683SOL    HW216686   3.695   4.542   5.132 -1.3788 -0.5848  2.0278
 1684SOL     OW16687   2.328   3.309   4.275  0.0392  0.3760  0.1105
 1684SOL    HW116688   2.288   3.360   4.345 -1.0520 -0.7787  0.3275
 1684SOL    HW216689   2.323   3.220   4.310  1.1381 -0.1737 -1.0853
 1685SOL     OW16690   1.292   0.819   5.356 -0.2395  0.4651 -0.4972
 1685SOL    HW116691   1.254   0.739   5.320 -0.4956  1.0045 -1.4448
 1685SOL    HW216692   1.227   0.851   5.419  0.0488  1.6187 -0.7815
 1686SOL     OW16693   4.561   4.393  17.318  0.2318  0.3762  0.3158
 1686SOL    HW116694   4.537   4.365  17.229 -0.1063 -0.1758  0.5771
 1686SOL    HW216695   4.636   4.342  17.350  0.8215  1.2970  0.3899
 1687SOL     OW16696   1.942   2.064   0.549  0.1379 -0.2188  0.2082
 1687SOL    HW116697   1.928   2.084   0.457 -1.7096  0.3453  0.6133
 1687SOL    HW216698   1.893   2.131   0.596  0.9757  1.2166 -0.9827
 1688SOL     OW16699   3.648   2.728   2.549 -0.2765 -0.0482  0.0380
 1688SOL    HW116700   3.617   2.712   2.460  0.2556  1.6944 -0.4568
 1688SOL    HW216701   3.605   2.808   2.579 -0.1224 -0.0199  0.1838
 1689SOL     OW16702   2.988   3.095   3.990 -0.0385 -0.3195  0.0286
 1689SOL    HW116703   3.072   3.050   3.984  0.3737  0.1517  2.1301
 1689SOL    HW216704   3.007   3.185   3.965 -0.5650  0.0872  1.0766
 1690SOL     OW16705   3.115   2.889   2.711 -0.9087  0.0368 -0.3665
 1690SOL    HW116706   3.172   2.813   2.699  0.7664  1.2921 -0.3162
 1690SOL    HW216707   3.175   2.948   2.756 -2.4454  0.2651  1.4027
 1691SOL     OW16708   1.553   0.449   8.462  0.5104  0.0268 -0.2220
 1691SOL    HW116709   1.511   0.516   8.408 -2.0463 -0.1336  1.5124
 1691SOL    HW216710   1.579   0.393   8.389 -0.2077 -0.9190  0.2530
 1692SOL     OW16711   1.247   0.803   0.484  0.4764  0.2053 -0.4157
 1692SOL    HW116712   1.276   0.886   0.447  2.2774 -0.2512 -0.0181
 1692SOL    HW216713   1.298   0.745   0.428  0.7330 -0.4382  0.4838
 1693SOL     OW16714   1.616   2.828  12.943  0.1310  0.1113 -0.0139
 1693SOL    HW116715   1.545   2.826  13.007  0.8268 -0.2117  0.7520
 1693SOL    HW216716   1.612   2.741  12.903  0.5756 -0.2215  0.6462
 1694SOL     OW16717   4.344   2.847   7.431  0.4055 -0.6052 -0.2832
 1694SOL    HW116718   4.384   2.867   7.515  1.2575 -0.1145 -0.8003
 1694SOL    HW216719   4.366   2.754   7.425  1.8122 -0.3241  0.8560
 1695SOL     OW16720   2.150   0.803  10.420 -0.0993  0.5361 -0.1835
 1695SOL    HW116721   2.201   0.728  10.391 -0.8285 -0.1530  0.3101
 1695SOL    HW216722   2.196   0.873  10.374  2.9672 -0.6112  1.0977
 1696SOL     OW16723   1.621   1.054  11.264 -0.2057  0.0434  0.2081
 1696SOL    HW116724   1.529   1.069  11.286 -0.2632 -1.9576  1.2368
 1696SOL    HW216725   1.629   0.967  11.301  0.3319 -0.8868 -2.0511
 1697SOL     OW16726   1.064   2.494   2.079 -0.1962  0.5240 -0.3031
 1697SOL    HW116727   1.027   2.509   2.166 -2.1692 -4.0430 -0.3289
 1697SOL    HW216728   0.982   2.501   2.030 -0.3640 -2.9486 -0.5455
 1698SOL     OW16729   1.648   1.139  14.215 -0.1261 -0.3844  0.5073
 1698SOL    HW116730   1.624   1.080  14.144 -0.8773  1.0755 -0.4579
 1698SOL    HW216731   1.609   1.224  14.194  1.0348 -0.6234 -2.5339
 1699SOL     OW16732   0.808   3.161   6.688 -0.1683  0.1367 -0.1869
 1699SOL    HW116733   0.806   3.122   6.775  0.7828  2.5443  0.9150
 1699SOL    HW216734   0.755   3.098   6.639  0.1838 -0.0973 -0.2736
 1700SOL     OW16735   1.010   0.697   6.286 -0.5172  0.1502 -0.4114
 1700SOL    HW116736   1.042   0.703   6.196 -0.1910 -1.1486 -0.3734
 1700SOL    HW216737   1.011   0.791   6.305  0.1081 -0.3505  1.9926
 1701SOL     OW16738   1.194   2.838  12.344 -0.0213 -0.6289 -0.5329
 1701SOL    HW116739   1.212   2.927  12.375 -0.9118 -0.8613  0.6706
 1701SOL    HW216740   1.118   2.821  12.399 -0.4313  0.9449 -0.6027
 1702SOL     OW16741   4.513   4.004   0.603 -0.4768 -0.1170 -0.1679
 1702SOL    HW116742   4.428   3.992   0.562  0.0459  2.8594 -2.1065
 1702SOL    HW216743   4.485   4.031   0.690  0.6111 -1.3043  0.5519
 1703SOL     OW16744   1.266   4.430   2.264  0.1257 -0.2929  0.1635
 1703SOL    HW116745   1.330   4.454   2.197  0.2052 -0.0326  0.3325
 1703SOL    HW216746   1.318   4.450   2.342 -0.2189  1.8764 -0.1480
 1704SOL     OW16747   4.296   0.489   2.979  0.0207  0.1740  0.7680
 1704SOL    HW116748   4.255   0.476   2.893  1.0337  1.1000  0.1313
 1704SOL    HW216749   4.350   0.568   2.973 -0.2363  0.2089 -1.1151
 1705SOL     OW16750   1.336   3.428  14.978  0.1087 -0.1768 -0.5879
 1705SOL    HW116751   1.299   3.356  14.927  0.1196 -0.4894 -0.1633
 1705SOL    HW216752   1.316   3.507  14.929  1.8519  1.9183  2.1003
 1706SOL     OW16753   3.917   2.809   5.546 -0.3334  0.4511  0.3383
 1706SOL    HW116754   4.000   2.764   5.527  0.6145  2.0042  0.8566
 1706SOL    HW216755   3.933   2.895   5.508  2.8411  1.3393  3.6523
 1707SOL     OW16756   3.651   2.831  13.516 -0.1042 -0.2500  0.4869
 1707SOL    HW116757   3.652   2.765  13.447  1.2405 -2.0031  2.1407
 1707SOL    HW216758   3.559   2.853  13.522 -0.0956  0.4285 -2.0793
 1708SOL     OW16759   0.900   2.769   4.319 -0.7228  0.0929  0.4081
 1708SOL    HW116760   0.910   2.761   4.224 -0.6531 -1.1705  0.5223
 1708SOL    HW216761   0.938   2.857   4.326  0.9484 -0.4963 -1.4023
 1709SOL     OW16762   4.016   4.592  17.672 -0.6984  0.1129 -0.1854
 1709SOL    HW116763   4.106   4.599  17.638 -0.4210 -3.8603 -0.2555
 1709SOL    HW216764   4.005   4.680  17.709  1.2283  0.0309  0.5905
 1710SOL     OW16765   0.433   3.552   1.656  0.1544 -0.1325 -0.1830
 1710SOL    HW116766   0.485   3.571   1.734  0.8614 -0.0938 -0.6634
 1710SOL    HW216767   0.485   3.487   1.610  0.9814  0.6324 -0.3291
 1711SOL     OW16768   2.277   2.918   9.079 -0.3215  0.0588 -0.0060
 1711SOL    HW116769   2.366   2.947   9.099 -1.1905  2.1914  0.7379
 1711SOL    HW216770   2.228   2.959   9.151 -0.9245  0.6746 -0.7570
 1712SOL     OW16771   4.674   0.678  13.455  0.6295  0.3077 -0.4471
 1712SOL    HW116772   4.709   0.643  13.373 -1.6043 -1.2768 -0.7175
 1712SOL    HW216773   4.730   0.630  13.516  0.3214 -0.9940 -1.1979
 1713SOL     OW16774   0.635   3.009  16.340 -0.4056 -0.0292  0.0071
 1713SOL    HW116775   0.638   2.913  16.344 -1.7731 -0.0272  1.0108
 1713SOL    HW216776   0.729   3.026  16.336 -0.2934 -0.5056  0.6164
 1714SOL     OW16777   3.401   1.895   7.470  0.7238 -0.6245 -0.0950
 1714SOL    HW116778   3.476   1.938   7.512  0.2911  0.5806 -0.5365
 1714SOL    HW216779   3.378   1.831   7.538  0.7465 -2.0281 -1.4219
 1715SOL     OW16780   2.904   0.395   5.369 -0.0758 -0.0903  0.2397
 1715SOL    HW116781   2.872   0.325   5.425  0.7098  0.0187  0.8316
 1715SOL    HW216782   2.839   0.464   5.383 -0.0811  0.0319 -0.3783
 1716SOL     OW16783   3.016   1.171  15.007  0.2233  0.5685 -0.4169
 1716SOL    HW116784   3.104   1.134  15.015 -0.6587 -1.1548  1.4343
 1716SOL    HW216785   2.978   1.134  15.087  0.1095 -2.4140 -1.8586
 1717SOL     OW16786   3.641   1.392   4.854  0.1680 -0.2054 -0.2394
 1717SOL    HW116787   3.726   1.418   4.819 -0.1595  1.9335  0.5283
 1717SOL    HW216788   3.621   1.454   4.925 -2.2791 -1.2094 -0.0614
 1718SOL     OW16789   3.555   1.736  14.832  0.0318 -0.1064 -0.1108
 1718SOL    HW116790   3.572   1.824  14.797 -0.5524  0.2582  0.5190
 1718SOL    HW216791   3.496   1.774  14.897  0.2293  2.1731 -1.2745
 1719SOL     OW16792   1.130   4.423   6.119  0.0586  0.4867  0.4771
 1719SOL    HW116793   1.097   4.346   6.163 -1.6342  1.0656  0.2437
 1719SOL    HW216794   1.175   4.464   6.192 -0.2031 -1.5383  1.7673
 1720SOL     OW16795   1.270   3.905  11.544  0.1799 -0.6337 -0.2086
 1720SOL    HW116796   1.262   3.975  11.480  0.6983  0.2441  0.7015
 1720SOL    HW216797   1.324   3.841  11.499 -0.8910 -0.7791 -1.2928
 1721SOL     OW16798   1.270   4.286   8.148  0.2202 -0.6162  0.4521
 1721SOL    HW116799   1.228   4.312   8.230 -0.4550  2.1687 -0.7649
 1721SOL    HW216800   1.280   4.192   8.160  2.5351 -0.2163  1.6739
 1722SOL     OW16801   4.720   1.949   7.888  0.3034 -0.7516  0.0003
 1722SOL    HW116802   0.051   2.010   7.913  0.6236 -0.7449 -0.9257
 1722SOL    HW216803   4.711   1.955   7.793  1.1796  1.8370  0.0883
 1723SOL     OW16804   4.272   0.260   6.022 -0.2707  0.3944  0.1178
 1723SOL    HW116805   4.329   0.204   6.075 -2.0563 -1.0659  0.4728
 1723SOL    HW216806   4.231   0.189   5.973  2.5114 -0.9270 -0.3060
 1724SOL     OW16807   2.561   4.501  15.778 -0.1831  0.1158  0.0350
 1724SOL    HW116808   2.468   4.518  15.789 -0.1865  0.2199 -0.1582
 1724SOL    HW216809   2.567   4.442  15.852  1.7037  0.6451  0.3015
 1725SOL     OW16810   1.147   0.320  15.274  0.1837 -0.0112 -0.2225
 1725SOL    HW116811   1.086   0.378  15.228 -1.4523  0.5050  2.5451
 1725SOL    HW216812   1.188   0.384  15.333  2.0000 -0.0398 -1.4560
 1726SOL     OW16813   2.592   0.788   8.353  0.0066  0.2317  0.2042
 1726SOL    HW116814   2.571   0.705   8.309  0.0364  0.7114 -0.6932
 1726SOL    HW216815   2.611   0.845   8.279 -0.8864  2.2943  1.5690
 1727SOL     OW16816   3.707   4.124   0.400  0.3498 -0.0046  0.2901
 1727SOL    HW116817   3.672   4.205   0.362  2.6193  0.7590 -0.1960
 1727SOL    HW216818   3.635   4.082   0.446  0.9099 -1.8471 -0.5348
 1728SOL     OW16819   0.209   3.353   6.645 -0.3701  0.3813  0.3079
 1728SOL    HW116820   0.154   3.373   6.569 -2.0651  2.0548  1.9683
 1728SOL    HW216821   0.278   3.416   6.628  0.2044 -0.2065  0.4685
 1729SOL     OW16822   1.820   0.432   6.628  0.1944 -0.0774 -0.4599
 1729SOL    HW116823   1.908   0.426   6.592  0.1323  0.2907 -0.6722
 1729SOL    HW216824   1.786   0.517   6.597 -0.5629  0.3332  1.5131
 1730SOL     OW16825   3.936   4.559   4.583 -0.0135  0.2407 -0.1194
 1730SOL    HW116826   3.946   4.599   4.669  0.2901 -1.6690  0.7435
 1730SOL    HW216827   3.929   4.466   4.605 -0.4995  0.1072 -0.8619
 1731SOL     OW16828   4.237   1.240  14.836  0.5296  0.1416  0.7780
 1731SOL    HW116829   4.330   1.251  14.814 -0.2292 -1.0251 -3.0560
 1731SOL    HW216830   4.220   1.296  14.911  1.2518 -0.7389  1.6109
 1732SOL     OW16831   4.721   4.364   5.793 -0.3114 -0.1194  0.1491
 1732SOL    HW116832   0.071   4.338   5.816 -0.0887  1.5272  1.1253
 1732SOL    HW216833   4.705   4.380   5.886  1.5262 -0.6091  0.5411
 1733SOL     OW16834   2.530   1.695   3.188 -0.1863  0.7181 -0.8642
 1733SOL    HW116835   2.473   1.685   3.264  0.2141  1.8458 -0.4093
 1733SOL    HW216836   2.604   1.640   3.212 -1.5935 -1.0032 -0.5086
 1734SOL     OW16837   3.092   1.724   6.489 -0.2769  0.1707  0.3519
 1734SOL    HW116838   3.183   1.708   6.514 -1.2491 -0.6742  3.3332
 1734SOL    HW216839   3.055   1.767   6.566  1.6907  1.8671  0.3664
 1735SOL     OW16840   0.391   3.223   8.105  0.1844 -0.0481 -0.1831
 1735SOL    HW116841   0.415   3.316   8.097  0.9273 -0.0896  1.7275
 1735SOL    HW216842   0.479   3.188   8.095  0.1913 -0.2190  0.4549
 1736SOL     OW16843   4.259   1.379   6.423 -0.7435  0.0722  0.1698
 1736SOL    HW116844   4.231   1.438   6.493  0.1877  2.6352 -1.6563
 1736SOL    HW216845   4.203   1.414   6.353 -1.8029 -2.9679 -0.5041
 1737SOL     OW16846   3.571   4.570   4.285  0.1209 -0.1591 -0.4077
 1737SOL    HW116847   3.634   4.634   4.319  0.3361 -0.4410 -0.2739
 1737SOL    HW216848   3.598   4.491   4.331  0.0374  1.5809  2.6348
 1738SOL     OW16849   0.419   4.089   9.119  0.2444  0.5347  0.3265
 1738SOL    HW116850   0.385   4.000   9.120  0.3834  0.4318 -2.5506
 1738SOL    HW216851   0.449   4.106   9.208 -0.7552  1.5514  0.4656
 1739SOL     OW16852   3.844   1.360  13.303  0.4182 -0.1968 -0.0457
 1739SOL    HW116853   3.789   1.434  13.278  0.3137  0.5371  2.3659
 1739SOL    HW216854   3.790   1.286  13.332  1.7942 -0.8625  0.8472
 1740SOL     OW16855   1.633   0.102   6.577 -0.4660 -0.2487  0.1492
 1740SOL    HW116856   1.567   0.082   6.643 -0.7630  0.1758 -0.0192
 1740SOL    HW216857   1.717   0.096   6.623 -0.2742 -0.9527 -0.2915
 1741SOL     OW16858   1.466   1.514   3.351 -0.4487 -0.5192 -0.0776
 1741SOL    HW116859   1.410   1.522   3.274  0.2673 -1.0286 -0.6473
 1741SOL    HW216860   1.433   1.431   3.386 -0.0478 -0.8503 -0.4847
 1742SOL     OW16861   1.304   3.421   1.919  0.2003 -0.5937  0.1003
 1742SOL    HW116862   1.309   3.449   1.828  2.4238  0.6566  0.6108
 1742SOL    HW216863   1.386   3.373   1.929  0.6929 -0.3022 -2.8746
 1743SOL     OW16864   3.788   2.073   8.231  0.2207  0.0772 -0.5658
 1743SOL    HW116865   3.744   2.105   8.152 -1.0571  0.0137  0.1270
 1743SOL    HW216866   3.805   1.982   8.205 -1.2998 -0.7152  1.2348
 1744SOL     OW16867   1.353   4.055   0.705 -0.1282 -0.1560 -0.0223
 1744SOL    HW116868   1.346   3.971   0.660  2.8297  0.8951 -2.4245
 1744SOL    HW216869   1.412   4.043   0.779  0.5601  0.4030 -0.4715
 1745SOL     OW16870   3.157   1.425   1.096  0.1893 -0.0088  0.8697
 1745SOL    HW116871   3.138   1.400   1.005  0.4828  1.4458  0.4103
 1745SOL    HW216872   3.073   1.435   1.141 -0.4539  4.1445 -1.1714
 1746SOL     OW16873   0.119   1.879   1.662  0.2060 -0.0435 -0.2561
 1746SOL    HW116874   0.030   1.856   1.688 -0.7003  1.9966 -1.6329
 1746SOL    HW216875   0.145   1.900   1.752  0.9640  1.3155 -0.8052
 1747SOL     OW16876   4.601   3.387  12.276  0.3682 -0.5822 -0.0221
 1747SOL    HW116877   4.558   3.433  12.204  0.9902 -0.4414 -0.3043
 1747SOL    HW216878   4.585   3.294  12.258 -0.4958 -0.5614  0.6254
 1748SOL     OW16879   2.754   2.205   7.241 -0.0584 -0.3478  0.2774
 1748SOL    HW116880   2.803   2.198   7.322 -1.3043 -2.3566  0.8602
 1748SOL    HW216881   2.662   2.197   7.265  0.7658  2.3642  4.3469
 1749SOL     OW16882   2.699   3.062  16.531 -0.5480 -0.2308  0.1024
 1749SOL    HW116883   2.649   3.124  16.478 -1.9412 -0.4958  1.1074
 1749SOL    HW216884   2.690   3.117  16.609  0.8190  0.0027  0.0960
 1750SOL     OW16885   0.043   4.680   0.593 -0.1059  0.1572 -0.1125
 1750SOL    HW116886   0.032   4.701   0.501  1.4470  1.4640 -0.0026
 1750SOL    HW216887   0.042   4.585   0.595 -1.2990  0.2193  1.7419
 1751SOL     OW16888   4.428   0.647   3.528  0.3654  0.2452  0.6861
 1751SOL    HW116889   4.468   0.575   3.479  1.4937  0.3065  1.5249
 1751SOL    HW216890   4.477   0.725   3.499 -0.6661  0.4832 -0.4290
 1752SOL     OW16891   2.458   3.203   1.936 -0.3120 -0.2412 -0.2052
 1752SOL    HW116892   2.498   3.275   1.984 -0.3551 -1.5944  1.8332
 1752SOL    HW216893   2.423   3.152   2.009  1.9756 -1.4938 -0.0102
 1753SOL     OW16894   2.547   1.978   7.188 -0.1089  0.7323 -0.0745
 1753SOL    HW116895   2.565   1.996   7.096 -0.3164 -0.2954 -0.3232
 1753SOL    HW216896   2.497   1.896   7.191 -2.5994  2.3119  0.8495
 1754SOL     OW16897   0.448   1.802   1.990 -0.6707 -0.3787 -0.1995
 1754SOL    HW116898   0.502   1.882   1.991  1.0920 -1.5722 -2.3685
 1754SOL    HW216899   0.498   1.743   2.047  0.5041  1.4064  0.6216
 1755SOL     OW16900   3.021   3.640   8.776 -0.2141 -0.4155  0.2775
 1755SOL    HW116901   3.036   3.700   8.704  3.7951 -1.5772  0.1635
 1755SOL    HW216902   3.086   3.570   8.778  0.8429  0.5528 -0.4977
 1756SOL     OW16903   3.585   3.728   5.688  0.0884  0.1842 -0.2670
 1756SOL    HW116904   3.595   3.783   5.765 -1.5241  1.5486 -1.0308
 1756SOL    HW216905   3.575   3.802   5.627  1.1035 -0.2046 -0.9068
 1757SOL     OW16906   2.903   1.568   4.045 -0.1512 -0.5412 -0.7067
 1757SOL    HW116907   2.847   1.564   4.123  1.5550 -0.2898  0.5423
 1757SOL    HW216908   2.981   1.532   4.087 -0.5363 -0.8243 -0.2327
 1758SOL     OW16909   4.126   0.177  14.894  0.5616 -0.1359  0.2704
 1758SOL    HW116910   4.072   0.256  14.886  0.3570 -0.1827  1.1675
 1758SOL    HW216911   4.083   0.134  14.968 -2.1613 -1.1005 -1.8708
 1759SOL     OW16912   1.218   2.887   6.939  0.4636 -0.1353  0.0969
 1759SOL    HW116913   1.194   2.979   6.950  0.6793 -0.0619 -0.0580
 1759SOL    HW216914   1.271   2.897   6.860  1.0259 -4.3587 -0.0524
 1760SOL     OW16915   3.813   4.710   8.158 -0.6637  0.8880 -0.1733
 1760SOL    HW116916   3.739   4.653   8.136  0.4958 -0.8130  0.3266
 1760SOL    HW216917   3.791   4.728   8.250 -2.8704  0.5257 -0.6230
 1761SOL     OW16918   2.443   0.751   6.996  0.2573  0.3005 -0.1523
 1761SOL    HW116919   2.400   0.806   7.060  0.2055 -0.5324  0.5249
 1761SOL    HW216920   2.408   0.787   6.914 -0.9567  1.5427  0.9157
 1762SOL     OW16921   0.752   1.948   9.108  0.0706 -0.1915 -0.0139
 1762SOL    HW116922   0.758   1.909   9.195 -1.2481  2.8355  1.4287
 1762SOL    HW216923   0.842   1.969   9.082  0.6865 -0.6044  1.7989
 1763SOL     OW16924   1.114   1.875   8.433 -0.9293 -0.6959 -0.2240
 1763SOL    HW116925   1.018   1.880   8.428 -0.9369 -0.8104 -0.1732
 1763SOL    HW216926   1.133   1.782   8.441 -1.1017 -0.6643  0.5383
 1764SOL     OW16927   4.193   3.013  12.037  0.2966  0.3799  0.4132
 1764SOL    HW116928   4.098   2.997  12.036  0.4852 -0.5274 -1.8366
 1764SOL    HW216929   4.232   2.955  12.103  1.2672 -1.5655 -1.8836
 1765SOL     OW16930   3.116   2.887  16.396  0.6866  0.1518 -0.0750
 1765SOL    HW116931   3.205   2.921  16.384  0.4402  0.9890  0.5222
 1765SOL    HW216932   3.065   2.956  16.354  1.8588  0.3012 -1.2920
 1766SOL     OW16933   1.187   1.714  14.921 -0.1501 -0.1596 -0.5058
 1766SOL    HW116934   1.168   1.629  14.961 -0.6422 -0.4899 -1.4338
 1766SOL    HW216935   1.099   1.748  14.904  1.0324  2.8964 -0.5161
 1767SOL     OW16936   1.266   2.140   2.303  0.3146  0.1596 -1.0291
 1767SOL    HW116937   1.335   2.190   2.260 -0.5668  1.5689 -0.8112
 1767SOL    HW216938   1.264   2.059   2.253 -0.0353 -0.4803  0.0137
 1768SOL     OW16939   2.017   2.865   3.808  0.3211  0.4416 -0.7204
 1768SOL    HW116940   1.926   2.837   3.811  0.5492 -0.3200 -0.8960
 1768SOL    HW216941   2.071   2.793   3.841  2.2822  1.5155 -1.5886
 1769SOL     OW16942   3.411   1.224   5.224 -0.1010 -0.1967  0.1340
 1769SOL    HW116943   3.356   1.259   5.295  0.1232 -0.3781  0.3952
 1769SOL    HW216944   3.399   1.132   5.250 -0.1221 -0.3592 -0.4662
 1770SOL     OW16945   0.759   0.758   9.358 -0.2857  0.2707 -0.1725
 1770SOL    HW116946   0.725   0.754   9.448  2.0667 -1.6964  0.6459
 1770SOL    HW216947   0.755   0.852   9.340 -0.2500 -0.1913 -2.5143
 1771SOL     OW16948   0.887   3.531   9.776 -0.4826 -0.0408 -0.0902
 1771SOL    HW116949   0.905   3.617   9.814  1.7956 -1.7190  2.6397
 1771SOL    HW216950   0.913   3.472   9.847  0.4745 -1.5506 -1.7200
 1772SOL     OW16951   1.473   3.601  15.676  0.3635 -0.2282 -0.1294
 1772SOL    HW116952   1.474   3.512  15.710 -1.3289  0.3709  1.4290
 1772SOL    HW216953   1.385   3.599  15.638 -1.3677  1.6149  3.7800
 1773SOL     OW16954   4.310   3.694   0.621 -0.0754  0.5710  0.1473
 1773SOL    HW116955   4.303   3.681   0.716  2.6040 -0.6018  0.1665
 1773SOL    HW216956   4.303   3.600   0.606 -0.8562  0.5819  0.4041
 1774SOL     OW16957   3.138   2.838   0.266  0.1215 -0.7789 -0.6690
 1774SOL    HW116958   3.083   2.905   0.224 -2.2772 -1.1600  1.8377
 1774SOL    HW216959   3.220   2.859   0.222 -0.9368  1.2748 -1.6916
 1775SOL     OW16960   3.423   3.050   3.202  0.0665 -0.1977 -0.5374
 1775SOL    HW116961   3.493   3.077   3.143  1.0921 -2.0603 -0.1512
 1775SOL    HW216962   3.451   2.960   3.212 -0.8044 -0.2347  1.8429
 1776SOL     OW16963   3.338   2.682  14.730  0.1720 -0.7767  0.2963
 1776SOL    HW116964   3.344   2.742  14.804 -1.4512  0.5785 -0.6674
 1776SOL    HW216965   3.244   2.667  14.720 -0.1023 -0.1268  1.8934
 1777SOL     OW16966   2.544   0.314   1.734 -0.1203 -0.2162 -0.4662
 1777SOL    HW116967   2.577   0.268   1.811 -3.1638 -1.3489  0.1522
 1777SOL    HW216968   2.583   0.400   1.751 -3.6941  1.5079 -1.0005
 1778SOL     OW16969   4.471   0.983   2.818  0.8354 -0.6363  0.2902
 1778SOL    HW116970   4.546   0.979   2.876  0.3037  1.2311  1.0966
 1778SOL    HW216971   4.426   1.064   2.842  2.2121 -0.2229  1.4144
 1779SOL     OW16972   3.736   0.100   8.669 -0.2722 -0.0347 -0.5332
 1779SOL    HW116973   3.830   0.117   8.670 -0.1913 -0.5036 -0.3846
 1779SOL    HW216974   3.730   0.027   8.730 -0.3290  1.2271  0.9842
 1780SOL     OW16975   3.704   2.833   3.355  0.4227  0.2882  0.3768
 1780SOL    HW116976   3.683   2.917   3.398  2.4997 -0.0332  2.0122
 1780SOL    HW216977   3.795   2.845   3.328 -0.0216 -2.5433 -2.2596
 1781SOL     OW16978   0.167   0.680   7.800  0.3344 -0.3956  0.1972
 1781SOL    HW116979   0.142   0.615   7.866 -0.9692  1.5990  1.6564
 1781SOL    HW216980   0.229   0.637   7.741  0.3212 -0.0323 -0.0787
 1782SOL     OW16981   2.383   4.052   9.103 -0.2895  0.3124 -0.0771
 1782SOL    HW116982   2.302   4.035   9.055 -1.0534  1.4465  0.8341
 1782SOL    HW216983   2.419   4.123   9.049  1.9420 -0.8980 -0.2124
 1783SOL     OW16984   4.154   3.346  16.031  0.2331 -0.1058 -0.0899
 1783SOL    HW116985   4.092   3.380  15.967  0.7009  1.2440  0.1853
 1783SOL    HW216986   4.098   3.286  16.081  0.1309 -0.7724 -0.9942
 1784SOL     OW16987   0.761   4.697   8.174  0.6552 -0.5366 -0.0571
 1784SOL    HW116988   0.681   4.658   8.210  1.1275 -0.4736  1.0478
 1784SOL    HW216989   0.782   0.015   8.247  0.2518  0.8411 -1.0371
 1785SOL     OW16990   1.192   0.447   8.750  0.4433  0.5942 -0.1476
 1785SOL    HW116991   1.185   0.459   8.845 -2.5917  0.6326 -0.3694
 1785SOL    HW216992   1.236   0.363   8.742  0.2383  0.2808  2.0217
 1786SOL     OW16993   1.778   1.510   3.854  0.1752 -0.2140  0.2165
 1786SOL    HW116994   1.829   1.478   3.779 -0.2289  1.2179 -0.6642
 1786SOL    HW216995   1.842   1.489   3.922 -0.5138 -2.0439  0.3074
 1787SOL     OW16996   0.507   0.589   5.943  0.1079  0.5931 -0.1805
 1787SOL    HW116997   0.595   0.585   5.981  0.7325 -0.0821 -1.6734
 1787SOL    HW216998   0.532   0.563   5.854 -0.7639  0.7313 -0.4693
 1788SOL     OW16999   1.104   1.412   7.070 -0.2078 -0.1373 -0.1522
 1788SOL    HW117000   1.128   1.483   7.010  1.9036 -1.5464 -0.9621
 1788SOL    HW217001   1.192   1.374   7.080 -0.4467 -0.5981  0.2251
 1789SOL     OW17002   0.047   3.245  12.423 -0.1297 -0.2123  0.7774
 1789SOL    HW117003   0.122   3.304  12.428 -0.7780  0.7568 -1.2657
 1789SOL    HW217004   4.717   3.303  12.394  1.3180 -0.8252 -3.9087
 1790SOL     OW17005   0.509   1.091  10.006  0.1547  0.1079 -0.0769
 1790SOL    HW117006   0.543   1.010   9.968 -0.3514  0.4851 -1.3708
 1790SOL    HW217007   0.577   1.155   9.985  0.8291 -0.9583 -1.1447
 1791SOL     OW17008   2.871   1.950   2.964 -0.7091  0.0334 -0.2660
 1791SOL    HW117009   2.827   1.900   2.895 -0.2788  0.4813 -0.8686
 1791SOL    HW217010   2.795   1.973   3.017 -1.0246  0.9203 -1.0883
 1792SOL     OW17011   2.029   3.747   8.844 -0.2910 -0.0193  0.3830
 1792SOL    HW117012   1.950   3.796   8.868 -0.7532 -1.1312  1.1553
 1792SOL    HW217013   2.102   3.806   8.860  2.0097 -2.6448 -0.3759
 1793SOL     OW17014   2.529   3.712   7.281  0.0421 -0.1880  0.5877
 1793SOL    HW117015   2.583   3.760   7.345 -1.4711  1.2622  0.7799
 1793SOL    HW217016   2.450   3.685   7.329 -0.3121  0.1121  0.1749
 1794SOL     OW17017   2.790   0.356  14.857  0.5535  0.3001  0.4171
 1794SOL    HW117018   2.801   0.430  14.916 -1.9097  0.4679  0.6704
 1794SOL    HW217019   2.875   0.315  14.874 -0.6806 -2.1824  0.6216
 1795SOL     OW17020   0.923   4.394   4.718  0.0469  0.4298 -0.0703
 1795SOL    HW117021   0.864   4.326   4.685 -1.0872  0.4976  1.8373
 1795SOL    HW217022   1.009   4.358   4.695  0.1741  1.8083 -1.7542
 1796SOL     OW17023   0.909   1.792  10.015  0.2040  0.5268  0.2776
 1796SOL    HW117024   0.835   1.847  10.037 -1.4960 -1.2446 -1.0008
 1796SOL    HW217025   0.980   1.854   9.997  0.4010  0.5630  1.1787
 1797SOL     OW17026   2.641   1.358  13.088  0.1005  0.0817  0.1143
 1797SOL    HW117027   2.720   1.343  13.139  2.7831  0.6772 -3.8965
 1797SOL    HW217028   2.569   1.313  13.134 -0.2359 -0.3022 -0.7850
 1798SOL     OW17029   4.358   3.675   1.816 -0.2505  0.4340  0.7444
 1798SOL    HW117030   4.376   3.756   1.862  2.3287  0.6024 -0.5501
 1798SOL    HW217031   4.365   3.601   1.876 -0.7740  0.1725  0.4876
 1799SOL     OW17032   3.490   1.624   3.930  0.3471 -0.0485  0.7139
 1799SOL    HW117033   3.425   1.570   3.974 -2.2704  1.5008 -1.2236
 1799SOL    HW217034   3.443   1.706   3.948  1.3011  0.4687  0.8477
 1800SOL     OW17035   0.370   4.647   2.155 -0.0979 -0.3976  0.0755
 1800SOL    HW117036   0.324   4.731   2.159  0.3188 -0.0658 -2.2576
 1800SOL    HW217037   0.461   4.671   2.141 -0.0536 -0.4859  0.2106
 1801SOL     OW17038   2.831   0.477   6.650  0.7359 -0.7081  0.0022
 1801SOL    HW117039   2.884   0.465   6.571 -0.2017  1.9961 -1.0126
 1801SOL    HW217040   2.899   0.485   6.717  1.5112 -0.5768 -0.8037
 1802SOL     OW17041   2.405   3.152   6.018 -0.2681 -0.3728 -0.0150
 1802SOL    HW117042   2.331   3.180   5.965 -0.6322  0.7780  1.1043
 1802SOL    HW217043   2.471   3.165   5.949 -0.0605 -2.3142 -0.1747
 1803SOL     OW17044   3.771   0.714   7.177  0.8682  0.4156  0.3194
 1803SOL    HW117045   3.738   0.700   7.266 -1.0997 -0.5705 -0.5737
 1803SOL    HW217046   3.865   0.721   7.196  1.5066 -0.1522 -2.7277
 1804SOL     OW17047   2.385   1.734   1.969  0.4257 -0.5099 -0.2107
 1804SOL    HW117048   2.319   1.752   1.903  0.8450  1.1285 -0.1653
 1804SOL    HW217049   2.361   1.642   1.985  1.2451 -0.7207 -0.1834
 1805SOL     OW17050   4.004   1.220   5.554  0.1596 -0.3091  0.1451
 1805SOL    HW117051   4.026   1.140   5.506  2.0690 -2.0997  3.9746
 1805SOL    HW217052   3.951   1.271   5.493  1.1549 -1.1483 -1.4336
 1806SOL     OW17053   1.203   2.651  11.022 -0.1320 -0.2415 -0.2333
 1806SOL    HW117054   1.261   2.624  11.094  0.2313  1.2368  0.0179
 1806SOL    HW217055   1.117   2.634  11.060  1.0095  0.8860  2.9077
 1807SOL     OW17056   3.439   0.007  13.808  0.3225 -0.8192 -0.1228
 1807SOL    HW117057   3.502   0.022  13.738  2.7854 -1.4619  1.9493
 1807SOL    HW217058   3.497   4.691  13.861  1.2739  0.8112  0.5356
 1808SOL     OW17059   4.213   3.138   3.879  0.2672 -0.0155 -0.8765
 1808SOL    HW117060   4.243   3.079   3.948  1.4131  0.4882 -0.9460
 1808SOL    HW217061   4.171   3.206   3.933 -0.3612 -1.4061  0.4110
 1809SOL     OW17062   1.865   0.674   7.944 -0.2501 -0.1532  0.2001
 1809SOL    HW117063   1.933   0.740   7.932 -0.2949  0.1832  1.9252
 1809SOL    HW217064   1.790   0.718   7.904 -0.0954 -0.3938 -0.3526
 1810SOL     OW17065   4.507   2.043   6.887 -0.2314  0.0270  0.0283
 1810SOL    HW117066   4.453   1.985   6.832 -1.1371  1.2097 -0.3143
 1810SOL    HW217067   4.593   2.028   6.848  0.2361  0.4066  0.9158
 1811SOL     OW17068   0.067   4.404   8.644  0.7295 -0.2355 -0.1157
 1811SOL    HW117069   0.156   4.375   8.625  0.1469 -1.8104 -0.4771
 1811SOL    HW217070   0.063   4.481   8.587  0.1920  0.4532  0.8603
 1812SOL     OW17071   3.787   3.951  12.615 -0.8154  0.7894 -0.3556
 1812SOL    HW117072   3.703   3.915  12.644 -0.5146  1.2971  1.1215
 1812SOL    HW217073   3.847   3.877  12.615 -0.3782  1.1470  0.4706
 1813SOL     OW17074   4.588   3.261   9.989  0.4980 -0.3033  0.3926
 1813SOL    HW117075   4.636   3.191   9.944  1.1803  1.2965 -1.3473
 1813SOL    HW217076   4.516   3.202  10.012 -0.2175 -1.0049 -3.6628
 1814SOL     OW17077   0.309   1.971   4.331 -0.0732  0.2110 -0.1671
 1814SOL    HW117078   0.254   2.046   4.308 -0.6285 -0.2962 -0.4684
 1814SOL    HW217079   0.397   2.008   4.328  0.8264 -1.7894  1.2473
 1815SOL     OW17080   0.646   1.406   3.022 -0.1103 -0.3829 -0.1749
 1815SOL    HW117081   0.643   1.426   2.929  1.1359 -0.9589 -0.3409
 1815SOL    HW217082   0.561   1.439   3.048  0.0451 -1.7945  2.1651
 1816SOL     OW17083   1.529   1.804   9.834 -0.5995  0.0221  0.0055
 1816SOL    HW117084   1.525   1.803   9.739  1.0196  2.3648 -0.0950
 1816SOL    HW217085   1.528   1.899   9.846  0.7949 -0.0333  0.6410
 1817SOL     OW17086   4.039   1.665   8.275  0.3730  0.4228 -0.1137
 1817SOL    HW117087   4.127   1.629   8.283 -0.8466 -2.2790  1.0029
 1817SOL    HW217088   3.989   1.597   8.230 -2.3833  1.7912  0.8735
 1818SOL     OW17089   3.925   2.692  13.697 -0.4140 -0.2090 -0.0462
 1818SOL    HW117090   3.972   2.629  13.644 -0.3891 -0.5561  0.3861
 1818SOL    HW217091   3.840   2.679  13.655 -0.8910  1.5104  0.3712
 1819SOL     OW17092   3.669   2.086   3.044  0.1720  0.0379 -0.6729
 1819SOL    HW117093   3.659   2.123   2.956  2.9597 -1.2575 -1.5379
 1819SOL    HW217094   3.626   2.002   3.031 -3.5912  1.6783  1.0635
 1820SOL     OW17095   3.119   1.139   1.764  0.7998 -0.0165 -0.1545
 1820SOL    HW117096   3.088   1.213   1.816  1.7722 -0.8226  1.5739
 1820SOL    HW217097   3.187   1.096   1.816  2.1439  1.4921 -0.6592
 1821SOL     OW17098   2.168   1.230   4.908 -0.7291 -0.2393  0.1559
 1821SOL    HW117099   2.197   1.140   4.922 -0.6918 -0.4661 -1.3676
 1821SOL    HW217100   2.106   1.231   4.981 -0.7219 -0.9891  0.1819
 1822SOL     OW17101   4.684   3.881   4.871 -0.1433  0.2791  1.1894
 1822SOL    HW117102   4.693   3.807   4.811  0.0190 -0.5081  2.1825
 1822SOL    HW217103   0.038   3.897   4.887 -0.2764  2.1624  0.0995
 1823SOL     OW17104   2.950   0.042  14.004 -0.1928  0.7723 -0.0869
 1823SOL    HW117105   3.013   4.733  13.951 -0.0309  0.4616  0.3827
 1823SOL    HW217106   3.006   0.096  14.060 -0.3167  3.5918 -2.7263
 1824SOL     OW17107   0.233   0.151   3.229 -0.2048 -0.0305  0.1431
 1824SOL    HW117108   0.245   0.083   3.296  0.5080 -1.4367 -1.4220
 1824SOL    HW217109   0.319   0.144   3.190 -1.2211  0.2490 -2.1507
 1825SOL     OW17110   2.657   2.350   2.527  0.3598  0.2007 -0.0258
 1825SOL    HW117111   2.661   2.438   2.565 -0.5031  0.4987 -0.6269
 1825SOL    HW217112   2.658   2.303   2.610  1.6904 -1.9250 -1.2379
 1826SOL     OW17113   3.271   0.757   2.795  0.3706  0.5646  0.0043
 1826SOL    HW117114   3.329   0.822   2.835  1.5006 -0.3739 -0.0998
 1826SOL    HW217115   3.194   0.812   2.784  0.4020  0.2943 -1.5014
 1827SOL     OW17116   0.371   0.487  14.620 -0.0180  0.6200 -0.4654
 1827SOL    HW117117   0.390   0.393  14.626 -1.3856  0.3464 -0.3976
 1827SOL    HW217118   0.347   0.491  14.527 -1.4955 -0.1426 -0.1135
 1828SOL     OW17119   4.380   0.780   5.318 -0.0279  0.1244  1.0974
 1828SOL    HW117120   4.366   0.859   5.267  0.3267 -1.5559 -1.5763
 1828SOL    HW217121   4.339   0.713   5.263  1.6830  1.8211 -2.2304
 1829SOL     OW17122   4.525   1.259   5.474  0.2739 -0.2700  0.0039
 1829SOL    HW117123   4.456   1.268   5.540 -0.7447  1.9863 -1.3665
 1829SOL    HW217124   4.519   1.168   5.445 -0.8762 -0.5105  0.9688
 1830SOL     OW17125   0.678   3.517   5.436  0.0687 -0.3549 -0.0322
 1830SOL    HW117126   0.693   3.579   5.365 -1.8335 -1.1450 -1.1305
 1830SOL    HW217127   0.620   3.457   5.388 -2.3511  0.8757  1.3157
 1831SOL     OW17128   4.162   2.965   6.649 -0.4182 -0.0276 -0.1644
 1831SOL    HW117129   4.073   2.950   6.680  0.1582 -2.0400  0.5102
 1831SOL    HW217130   4.187   3.033   6.713  0.3809  0.0679 -0.5761
 1832SOL     OW17131   1.502   2.928  10.280 -0.0806 -0.4157  0.2731
 1832SOL    HW117132   1.588   2.895  10.307 -0.1919  2.1372  3.7123
 1832SOL    HW217133   1.459   2.855  10.324  1.3179 -0.9315  0.7779
 1833SOL     OW17134   4.489   2.264   9.162 -0.4301  0.5579  0.4792
 1833SOL    HW117135   4.575   2.254   9.203 -0.7784  1.7297  1.5111
 1833SOL    HW217136   4.459   2.174   9.177 -2.1562  1.1662  0.6694
 1834SOL     OW17137   3.119   0.207   2.341 -0.1785  0.3224 -0.0428
 1834SOL    HW117138   3.178   0.278   2.366  1.6546 -2.2190  2.9397
 1834SOL    HW217139   3.176   0.157   2.282  2.0257 -0.7646  2.9781
 1835SOL     OW17140   2.477   2.411  17.134  0.4437 -0.5521  0.3771
 1835SOL    HW117141   2.480   2.368  17.220 -0.1502 -1.8255 -0.2310
 1835SOL    HW217142   2.547   2.473  17.153  0.7144 -0.1313 -2.0199
 1836SOL     OW17143   0.161   1.268   0.029  0.2155  0.1506 -0.0606
 1836SOL    HW117144   0.164   1.184  17.739  0.6461 -0.4177  1.0008
 1836SOL    HW217145   0.195   1.240   0.114  0.3698  1.4049  0.2955
 1837SOL     OW17146   2.186   2.681   6.243 -0.4702 -0.4085  0.0019
 1837SOL    HW117147   2.252   2.649   6.181  1.7095  2.3872  0.8937
 1837SOL    HW217148   2.231   2.745   6.298 -1.1787 -0.4647  0.6359
 1838SOL     OW17149   3.844   2.569  13.461 -0.5421  0.3314  0.1036
 1838SOL    HW117150   3.933   2.537  13.480 -1.2914 -1.2856  0.8766
 1838SOL    HW217151   3.816   2.516  13.387  2.5627 -2.1910  0.7429
 1839SOL     OW17152   0.307   0.328   1.948  0.5460 -0.1662 -0.1960
 1839SOL    HW117153   0.354   0.272   1.886 -0.8743 -0.1091 -1.3132
 1839SOL    HW217154   0.311   0.274   2.027 -1.8932 -0.8808 -0.5471
 1840SOL     OW17155   4.658   1.865   8.598 -0.1954  0.0176 -0.0847
 1840SOL    HW117156   4.604   1.883   8.676  0.0466  0.9488 -0.1351
 1840SOL    HW217157   4.586   1.835   8.542 -0.7829  1.1293  0.0759
 1841SOL     OW17158   1.509   3.588   9.144  0.8537 -0.0399  0.6292
 1841SOL    HW117159   1.521   3.640   9.065  0.5393 -1.1404 -0.1495
 1841SOL    HW217160   1.599   3.585   9.177  0.7506 -1.1112  0.8289
 1842SOL     OW17161   2.084   3.095   5.164  0.0706 -0.1865 -0.4014
 1842SOL    HW117162   2.076   3.042   5.084 -0.3765 -1.2005  0.3061
 1842SOL    HW217163   2.113   3.178   5.127 -2.6038 -0.5967 -3.4232
 1843SOL     OW17164   2.882   1.830   3.713 -0.1369  0.2647 -0.3150
 1843SOL    HW117165   2.877   1.898   3.781  2.8477 -0.2584  0.4181
 1843SOL    HW217166   2.973   1.809   3.736 -0.4982 -1.1069 -0.1494
 1844SOL     OW17167   1.110   3.374   9.482  0.9832  0.5425 -0.2578
 1844SOL    HW117168   1.101   3.350   9.574 -0.5640  1.1347 -0.2719
 1844SOL    HW217169   1.148   3.298   9.437 -0.5157 -0.2347 -0.2142
 1845SOL     OW17170   2.427   1.627  11.379  0.1636  0.1219 -0.4263
 1845SOL    HW117171   2.392   1.673  11.304  1.2967  0.5500 -0.6990
 1845SOL    HW217172   2.344   1.592  11.410  0.1280  1.4805  1.0187
 1846SOL     OW17173   3.393   1.782   1.715 -0.2402 -0.1629  0.1409
 1846SOL    HW117174   3.435   1.725   1.651  0.5067  3.5225 -2.6785
 1846SOL    HW217175   3.302   1.789   1.689 -0.1172 -1.4656 -0.6274
 1847SOL     OW17176   4.481   0.443   6.085  0.6316 -0.1142 -0.6498
 1847SOL    HW117177   4.480   0.410   6.175  2.4131 -0.0881 -0.6208
 1847SOL    HW217178   4.414   0.401   6.030 -0.2585  0.0494  0.3085
 1848SOL     OW17179   1.851   0.668   2.474  0.6131 -0.0765 -0.0415
 1848SOL    HW117180   1.788   0.653   2.403  0.0347  1.9809  0.0452
 1848SOL    HW217181   1.938   0.670   2.435  1.0562  0.7975  1.0132
 1849SOL     OW17182   3.903   4.372   3.252  0.2169  0.0567  0.2788
 1849SOL    HW117183   3.939   4.358   3.164 -1.0702 -1.1491 -0.0600
 1849SOL    HW217184   3.978   4.409   3.299 -0.3537  1.3396  0.1825
 1850SOL     OW17185   0.616   0.194  17.471 -0.7492 -0.1694  0.2193
 1850SOL    HW117186   0.639   0.120  17.527  1.9318  1.4306  1.2176
 1850SOL    HW217187   0.579   0.142  17.399  0.7673 -1.9891  0.7509
 1851SOL     OW17188   0.000   2.660   2.766  0.3413 -0.0064 -0.3008
 1851SOL    HW117189   4.718   2.747   2.733  1.3230  0.2095 -0.3662
 1851SOL    HW217190   4.670   2.599   2.742  0.5767 -0.2010 -0.4887
 1852SOL     OW17191   4.668   4.733  10.632 -0.6016  0.1484  0.6309
 1852SOL    HW117192   4.693   4.724  10.540  1.9874  2.4259  1.1340
 1852SOL    HW217193   4.711   4.656  10.669  0.2293 -0.5426 -1.7849
 1853SOL     OW17194   2.343   4.034   4.547  0.1341  0.1229 -0.3038
 1853SOL    HW117195   2.283   4.037   4.473  3.4578  0.5118 -2.9333
 1853SOL    HW217196   2.396   3.956   4.532  1.0916  0.5205  1.0000
 1854SOL     OW17197   3.083   3.633  16.335 -0.3596 -0.0137 -0.4347
 1854SOL    HW117198   3.040   3.548  16.326  1.1759 -0.8755  0.3052
 1854SOL    HW217199   3.129   3.615  16.418 -0.9874 -0.6721 -0.2337
 1855SOL     OW17200   2.650   2.229   6.573  0.1645 -0.2860 -0.2279
 1855SOL    HW117201   2.619   2.297   6.513 -0.8215  0.0630  0.6920
 1855SOL    HW217202   2.569   2.177   6.572 -0.1119  0.1393  0.7069
 1856SOL     OW17203   1.097   1.578   3.131 -0.0200 -0.5680  0.1274
 1856SOL    HW117204   1.108   1.553   3.222  0.0691  0.8635  0.5037
 1856SOL    HW217205   1.163   1.518   3.096  1.4712  1.0825  0.1384
 1857SOL     OW17206   3.171   2.568   1.738 -0.0771  0.4953 -0.1741
 1857SOL    HW117207   3.110   2.542   1.807  0.4537  1.3893  0.6315
 1857SOL    HW217208   3.253   2.549   1.784 -1.9522  0.0041  3.0057
 1858SOL     OW17209   1.721   1.633   6.514  0.0112  0.5290  0.5235
 1858SOL    HW117210   1.699   1.698   6.581 -0.7059 -0.8301  1.6235
 1858SOL    HW217211   1.653   1.566   6.524  0.7111 -0.4213 -1.2617
 1859SOL     OW17212   3.248   2.640   9.795  0.6162  0.3684 -0.1746
 1859SOL    HW117213   3.298   2.715   9.763 -1.6931  2.9515  2.2514
 1859SOL    HW217214   3.192   2.627   9.718  0.9192 -0.5008 -0.2474
 1860SOL     OW17215   1.297   4.601   3.180  0.0433  0.1907  1.2068
 1860SOL    HW117216   1.286   4.684   3.133  0.6616 -1.0983 -1.2030
 1860SOL    HW217217   1.390   4.616   3.197  0.1009  2.1558 -0.7438
 1861SOL     OW17218   3.136   3.677   7.129  0.5707 -0.0319  0.0963
 1861SOL    HW117219   3.168   3.723   7.206  2.0370  0.5354 -0.8496
 1861SOL    HW217220   3.084   3.612   7.177  0.3852  0.4884  0.5981
 1862SOL     OW17221   4.559   2.936   5.711 -0.5062 -0.2453  0.2094
 1862SOL    HW117222   4.627   3.003   5.726 -1.1310  0.4260  0.0407
 1862SOL    HW217223   4.555   2.898   5.798 -0.6232  0.3900  0.4856
 1863SOL     OW17224   1.375   3.367   3.816  0.6990  0.0982  0.5630
 1863SOL    HW117225   1.364   3.403   3.728 -1.1217  1.3261  1.2775
 1863SOL    HW217226   1.406   3.278   3.799  0.3652  0.0837  0.0564
 1864SOL     OW17227   4.038   1.200   3.924 -0.3477  0.0652  0.4112
 1864SOL    HW117228   3.981   1.128   3.895 -1.2818  0.5147  1.1120
 1864SOL    HW217229   4.111   1.148   3.959 -0.3213  0.5544  1.0824
 1865SOL     OW17230   2.355   4.662   3.763 -0.5967  0.1464 -0.3302
 1865SOL    HW117231   2.372   4.723   3.691  0.6503  1.9208  1.4871
 1865SOL    HW217232   2.399   4.718   3.827  1.4148 -1.1509 -0.5926
 1866SOL     OW17233   0.752   1.639   6.522 -0.1654  0.1175 -0.4576
 1866SOL    HW117234   0.735   1.557   6.476  2.3281 -0.8880  0.4370
 1866SOL    HW217235   0.727   1.699   6.452  0.3800 -0.0306 -0.7748
 1867SOL     OW17236   2.454   4.161   5.576  0.1005 -0.2222 -0.1552
 1867SOL    HW117237   2.420   4.246   5.548  0.7881  0.4621  1.0552
 1867SOL    HW217238   2.465   4.175   5.670  0.3634  2.0504 -0.5356
 1868SOL     OW17239   2.760   4.396  16.305 -0.8013  0.2908 -0.2757
 1868SOL    HW117240   2.723   4.476  16.343 -0.3172  1.0477 -1.3897
 1868SOL    HW217241   2.849   4.389  16.339 -0.9595 -0.6446 -0.0656
 1869SOL     OW17242   2.270   0.444  12.717 -0.0210 -0.5419 -0.8699
 1869SOL    HW117243   2.349   0.394  12.699  1.9274  2.0882  0.3243
 1869SOL    HW217244   2.316   0.524  12.743 -1.2563 -0.7763  1.9642
 1870SOL     OW17245   1.381   4.497  15.701 -0.3317 -0.0267 -0.4960
 1870SOL    HW117246   1.369   4.492  15.796  2.5801 -2.0197 -0.2265
 1870SOL    HW217247   1.410   4.588  15.696 -0.1825 -0.0351  0.1690
 1871SOL     OW17248   1.957   1.352   0.274  0.1897 -0.0862 -0.1649
 1871SOL    HW117249   1.933   1.420   0.336  1.3857  1.8162 -1.7829
 1871SOL    HW217250   1.878   1.347   0.220 -1.2689  0.3785  1.9473
 1872SOL     OW17251   4.730   4.437   4.757  0.2216 -0.1449 -0.1317
 1872SOL    HW117252   4.694   4.459   4.843  1.7716 -0.2830  0.5418
 1872SOL    HW217253   4.693   4.349   4.746 -0.4525  0.1747 -0.4419
 1873SOL     OW17254   3.385   3.156   7.462 -0.5451  0.2772  0.1282
 1873SOL    HW117255   3.351   3.111   7.384 -2.7632  0.4992  0.9523
 1873SOL    HW217256   3.455   3.096   7.487  0.2948  0.0251 -2.8276
 1874SOL     OW17257   3.341   0.099   0.801 -0.0370  0.4620 -0.1380
 1874SOL    HW117258   3.295   0.069   0.880 -1.1057  2.2692 -0.0677
 1874SOL    HW217259   3.264   0.136   0.759  1.8611  3.5483 -0.8795
 1875SOL     OW17260   4.455   0.142   8.158  0.3428  0.3985 -0.2364
 1875SOL    HW117261   4.372   0.139   8.110  1.5992  0.4352 -2.4029
 1875SOL    HW217262   4.519   0.093   8.107  1.3562  0.7601  0.6860
 1876SOL     OW17263   0.254   2.847   7.506  0.2030  0.5320  0.9353
 1876SOL    HW117264   0.327   2.786   7.517 -0.1896 -0.4180 -1.6722
 1876SOL    HW217265   0.192   2.788   7.465  0.1494  0.7362  0.7248
 1877SOL     OW17266   1.605   2.095   6.876  0.2087 -0.0590 -0.2273
 1877SOL    HW117267   1.530   2.105   6.817 -0.1519 -1.4796 -0.0090
 1877SOL    HW217268   1.568   2.142   6.951 -1.0496  1.7627 -2.0009
 1878SOL     OW17269   2.530   0.823   7.907 -0.5229  0.0743  0.3499
 1878SOL    HW117270   2.525   0.894   7.843  2.4115  2.2660  2.5571
 1878SOL    HW217271   2.591   0.768   7.857 -1.9977 -1.1829 -0.0742
 1879SOL     OW17272   4.455   3.883   9.066  0.2558  0.4195  0.0555
 1879SOL    HW117273   4.506   3.955   9.103 -1.7266  1.3910  0.8931
 1879SOL    HW217274   4.514   3.813   9.096  0.5599 -0.3832 -2.4240
 1880SOL     OW17275   4.274   1.740   7.979  0.0717  0.3812  0.0061
 1880SOL    HW117276   4.350   1.782   7.940  1.5423  0.4479  2.9482
 1880SOL    HW217277   4.282   1.756   8.073 -3.2729  4.2106 -0.3690
 1881SOL     OW17278   0.711   3.896  12.639 -0.5184 -0.2998  0.3459
 1881SOL    HW117279   0.646   3.826  12.634 -0.4551 -0.2684 -0.8734
 1881SOL    HW217280   0.737   3.902  12.547 -0.0163 -2.3689  0.3707
 1882SOL     OW17281   2.456   2.443   4.837 -0.1260 -0.5281  0.1730
 1882SOL    HW117282   2.523   2.483   4.782 -3.4659  2.6527 -1.6052
 1882SOL    HW217283   2.379   2.466   4.784  1.3666 -1.8806 -2.6087
 1883SOL     OW17284   0.611   2.402   4.422  0.0428 -0.3371 -0.2932
 1883SOL    HW117285   0.623   2.366   4.334 -3.5061  0.9325 -1.2676
 1883SOL    HW217286   0.695   2.369   4.456 -0.5553 -1.1013  0.4295
 1884SOL     OW17287   0.219   4.456   2.237 -0.3642 -0.4708  0.4380
 1884SOL    HW117288   0.260   4.441   2.322  0.6482 -0.9425 -0.1352
 1884SOL    HW217289   0.273   4.523   2.195 -0.5410 -0.5422  0.1001
 1885SOL     OW17290   3.549   0.847  10.931  0.2292  0.0369  0.0981
 1885SOL    HW117291   3.535   0.753  10.924  0.1143 -0.0265  1.1908
 1885SOL    HW217292   3.481   0.886  10.985  0.0406 -1.1451  0.6943
 1886SOL     OW17293   0.688   3.513  11.707  0.7913  0.3951 -0.3395
 1886SOL    HW117294   0.742   3.554  11.640 -0.2031  0.6166 -0.9988
 1886SOL    HW217295   0.746   3.454  11.755  0.3015 -0.1716 -0.4307
 1887SOL     OW17296   3.589   4.470  15.950  0.0627  0.1277 -0.1689
 1887SOL    HW117297   3.649   4.506  16.014  0.3525  0.0172 -0.3807
 1887SOL    HW217298   3.641   4.464  15.870 -0.0689  0.2748 -0.2673
 1888SOL     OW17299   2.843   3.605   9.707  0.3798 -0.1039  0.1939
 1888SOL    HW117300   2.901   3.563   9.771  0.4190  2.6875  1.9576
 1888SOL    HW217301   2.772   3.633   9.764 -1.0596  1.6392 -2.4751
 1889SOL     OW17302   1.924   2.310  13.535  0.2262  0.0754  0.3962
 1889SOL    HW117303   1.883   2.340  13.617  0.3633  3.4875 -0.7904
 1889SOL    HW217304   1.970   2.231  13.564  0.9423  0.8076  1.2451
 1890SOL     OW17305   0.933   2.591   7.638  0.2370 -0.2095 -0.1040
 1890SOL    HW117306   1.021   2.566   7.611  0.8643  2.1799 -0.2627
 1890SOL    HW217307   0.947   2.666   7.696 -0.3539  0.2295 -0.5214
 1891SOL     OW17308   3.540   4.423   6.109  0.1964 -0.4571  0.4502
 1891SOL    HW117309   3.570   4.385   6.192 -0.9292  1.2524  1.6591
 1891SOL    HW217310   3.611   4.387   6.056  0.2329  2.2760 -1.3612
 1892SOL     OW17311   0.428   1.801   8.669 -0.5918 -0.0083 -0.0548
 1892SOL    HW117312   0.447   1.759   8.753  0.3231  0.6547  0.0740
 1892SOL    HW217313   0.333   1.808   8.670 -0.4725  1.4227  1.3050
 1893SOL     OW17314   0.584   3.620   7.374 -0.1455 -0.9540 -0.2523
 1893SOL    HW117315   0.622   3.532   7.371  0.0954 -0.8278 -0.8513
 1893SOL    HW217316   0.532   3.616   7.294 -1.0302  1.0110  0.2367
 1894SOL     OW17317   0.380   2.179   2.747  0.1051  0.1352 -0.3245
 1894SOL    HW117318   0.453   2.224   2.788 -0.2550  1.1438 -0.8082
 1894SOL    HW217319   0.433   2.103   2.722 -1.6642 -0.3571 -2.5710
 1895SOL     OW17320   4.496   0.066  10.301 -0.2236 -0.6688 -0.4915
 1895SOL    HW117321   4.452   0.089  10.219  1.1545  0.8094 -0.7998
 1895SOL    HW217322   4.515   0.150  10.343  1.0293 -1.4928  0.5914
 1896SOL     OW17323   1.462   1.020   5.292  0.3854  0.0114 -0.3672
 1896SOL    HW117324   1.492   0.963   5.221  1.6595  0.3690 -0.1273
 1896SOL    HW217325   1.406   0.957   5.336 -2.7941  1.7098 -2.0191
 1897SOL     OW17326   4.309   2.733   3.230  0.3347  0.0968 -0.7389
 1897SOL    HW117327   4.297   2.645   3.195 -2.7093 -0.1724  1.0049
 1897SOL    HW217328   4.246   2.746   3.301  0.5969 -0.0410 -0.4815
 1898SOL     OW17329   0.166   2.789  13.432 -0.0941 -0.0957 -1.0398
 1898SOL    HW117330   0.240   2.796  13.372 -1.4577  0.3216 -2.6851
 1898SOL    HW217331   0.184   2.698  13.453  0.1102  0.3125  0.5903
 1899SOL     OW17332   4.076   1.103   4.224 -0.0132  0.1348 -0.3174
 1899SOL    HW117333   4.169   1.127   4.218 -0.0704  0.7515  1.2065
 1899SOL    HW217334   4.080   1.010   4.204 -2.9578  0.0817 -0.6242
 1900SOL     OW17335   0.064   4.386   9.863  0.1120 -0.0116 -0.0960
 1900SOL    HW117336   0.072   4.331   9.785  3.0419  1.1577 -0.5986
 1900SOL    HW217337   0.133   4.346   9.916 -0.6752 -1.1301  0.0764
 1901SOL     OW17338   2.882   1.129   5.578 -0.6356 -0.4961 -0.3591
 1901SOL    HW117339   2.918   1.178   5.504  2.4751 -0.0577  1.4562
 1901SOL    HW217340   2.937   1.165   5.648 -2.0687  0.8717  0.0849
 1902SOL     OW17341   4.538   0.513   3.769 -0.4055  0.1609  0.2303
 1902SOL    HW117342   4.465   0.527   3.829 -0.6440  0.0605 -0.0377
 1902SOL    HW217343   4.515   0.576   3.700  2.3475  0.1282 -0.7110
 1903SOL     OW17344   1.078   4.461   3.216  0.3249  0.9312  0.1597
 1903SOL    HW117345   1.060   4.485   3.306 -0.1557 -0.3568  0.4041
 1903SOL    HW217346   1.171   4.483   3.212  0.2340  1.0238 -1.4617
 1904SOL     OW17347   0.759   0.054   5.914 -0.1033 -0.1474 -0.2291
 1904SOL    HW117348   0.802   0.059   5.999  0.4022 -1.9760 -0.3860
 1904SOL    HW217349   0.729   4.703   5.913 -0.9445  0.1326  0.0420
 1905SOL     OW17350   4.233   2.758  15.797 -1.0693 -0.2940 -0.4017
 1905SOL    HW117351   4.261   2.839  15.840 -0.5577 -0.1412 -1.0251
 1905SOL    HW217352   4.138   2.770  15.799 -1.1244 -0.7331 -0.1389
 1906SOL     OW17353   1.646   0.082  11.315 -0.3744 -0.2008  0.0939
 1906SOL    HW117354   1.729   0.061  11.357  0.8589  2.0052 -1.2310
 1906SOL    HW217355   1.585   0.047  11.380 -1.3950 -0.0592 -0.7902
 1907SOL     OW17356   3.788   3.883   4.611 -0.6133  0.4273 -0.6277
 1907SOL    HW117357   3.730   3.813   4.582 -2.6390  1.8053  0.1055
 1907SOL    HW217358   3.749   3.961   4.571 -1.2174  0.8453  0.7619
 1908SOL     OW17359   1.576   2.911   5.899  0.3776  0.2656  0.2106
 1908SOL    HW117360   1.520   2.842   5.934 -0.1961  1.7360  2.2386
 1908SOL    HW217361   1.622   2.934   5.980  0.5577 -3.0200  1.0042
 1909SOL     OW17362   0.790   2.674   9.215  0.0291 -0.5295 -0.6663
 1909SOL    HW117363   0.836   2.657   9.297 -1.1943  0.3934  0.2112
 1909SOL    HW217364   0.704   2.642   9.241 -0.4268  1.8730  0.7259
 1910SOL     OW17365   3.599   1.415   2.697 -0.3233  0.8722  0.4026
 1910SOL    HW117366   3.548   1.410   2.616 -0.0944 -0.7399  0.3571
 1910SOL    HW217367   3.687   1.418   2.659  0.5717  0.0846  2.4106
 1911SOL     OW17368   1.526   1.758   6.251  0.6340  0.0104 -0.3448
 1911SOL    HW117369   1.557   1.681   6.203  3.2874 -0.8018  2.6293
 1911SOL    HW217370   1.600   1.818   6.244  1.0245 -0.3787  0.4695
 1912SOL     OW17371   3.908   2.717  10.416  0.3490 -0.2665  0.1540
 1912SOL    HW117372   3.954   2.719  10.500 -0.4734  1.6780  0.5620
 1912SOL    HW217373   3.931   2.808  10.397  0.5879 -0.1192  1.1446
 1913SOL     OW17374   0.995   0.854  14.556  0.4643  0.3869  0.2670
 1913SOL    HW117375   1.053   0.802  14.501  0.6205  1.1150 -0.2526
 1913SOL    HW217376   0.945   0.788  14.605 -1.2237  0.7289 -0.9904
 1914SOL     OW17377   0.449   0.442   8.065  0.1946  0.1986  0.2859
 1914SOL    HW117378   0.405   0.526   8.070  0.0755  0.1929 -0.6676
 1914SOL    HW217379   0.427   0.413   7.977 -2.1433  0.2923  0.8453
 1915SOL     OW17380   2.907   1.933   9.320 -0.1391 -0.3714 -0.0182
 1915SOL    HW117381   2.859   1.897   9.395  0.3717  0.6704  0.8046
 1915SOL    HW217382   2.845   1.915   9.249 -0.8506 -1.4087  0.8621
 1916SOL     OW17383   1.131   2.825   7.225 -0.2240  0.7445  0.4557
 1916SOL    HW117384   1.048   2.795   7.186 -0.7943  2.0098  0.7086
 1916SOL    HW217385   1.185   2.772   7.167  1.7246  2.0709  1.0802
 1917SOL     OW17386   4.183   0.028   5.306  0.5821 -0.0247 -0.1544
 1917SOL    HW117387   4.187   4.722   5.390  1.9143 -2.5636 -1.5922
 1917SOL    HW217388   4.147   4.698   5.251  2.6491 -0.3737 -1.0602
 1918SOL     OW17389   3.482   1.358  14.521  0.3674 -0.0450 -0.2685
 1918SOL    HW117390   3.537   1.433  14.546 -0.6824  0.7267 -0.2897
 1918SOL    HW217391   3.408   1.361  14.582  0.9605 -2.2268  0.5763
 1919SOL     OW17392   2.277   1.255   4.677 -0.0301 -0.6027 -0.1019
 1919SOL    HW117393   2.241   1.242   4.765  0.3996  0.7554  0.2717
 1919SOL    HW217394   2.341   1.184   4.677  0.5887 -0.0542 -1.3722
 1920SOL     OW17395   3.325   1.407   3.216  0.7809  0.2988  0.4503
 1920SOL    HW117396   3.318   1.312   3.227 -0.3886  0.2506 -0.6624
 1920SOL    HW217397   3.245   1.436   3.261  1.7845 -0.5101  2.7509
 1921SOL     OW17398   3.707   0.070   7.526 -0.3268  1.2329 -0.1498
 1921SOL    HW117399   3.652   0.086   7.450 -0.5544  0.8230 -0.0679
 1921SOL    HW217400   3.774   0.138   7.517  0.1217  0.8139  0.0159
 1922SOL     OW17401   4.242   1.646  10.626  0.5096 -0.3521  0.6892
 1922SOL    HW117402   4.336   1.645  10.644  0.6024 -0.1342  0.2234
 1922SOL    HW217403   4.229   1.556  10.596  1.4744  0.3243 -1.7544
 1923SOL     OW17404   1.373   2.148   6.716 -0.4333  0.5880 -0.7629
 1923SOL    HW117405   1.362   2.078   6.652 -1.3367 -0.9051  1.0239
 1923SOL    HW217406   1.342   2.220   6.660 -1.9383  1.3953  1.1320
 1924SOL     OW17407   2.817   3.169  15.044  0.2645 -0.1146  0.4848
 1924SOL    HW117408   2.765   3.092  15.022 -0.0953 -0.0482  1.1210
 1924SOL    HW217409   2.900   3.139  15.008  1.1690  1.6351  1.1231
 1925SOL     OW17410   2.368   0.657  14.206  0.0017  0.5340 -0.0579
 1925SOL    HW117411   2.402   0.735  14.162 -0.0162  1.2627  1.2057
 1925SOL    HW217412   2.383   0.586  14.143 -1.0523  0.6609 -0.4585
 1926SOL     OW17413   1.519   3.887   2.501 -0.0440  0.1557 -0.0882
 1926SOL    HW117414   1.567   3.913   2.579 -0.9503 -0.8767  0.8093
 1926SOL    HW217415   1.431   3.898   2.538  0.7081  4.5497  0.4011
 1927SOL     OW17416   0.696   2.663   3.692  0.1127  0.4717  0.0076
 1927SOL    HW117417   0.712   2.695   3.781 -0.5089 -0.4130  0.4299
 1927SOL    HW217418   0.719   2.747   3.651 -0.8715 -0.0895 -1.6617
 1928SOL     OW17419   3.603   2.905   6.109 -0.1134  0.2713  0.7046
 1928SOL    HW117420   3.603   2.863   6.195  2.5377 -3.4571 -1.1660
 1928SOL    HW217421   3.626   2.995   6.132 -1.1613  0.6447  0.2991
 1929SOL     OW17422   4.068   2.156   6.861 -0.3507 -0.0584  0.0341
 1929SOL    HW117423   4.009   2.232   6.861 -0.9815 -0.5466 -1.2509
 1929SOL    HW217424   4.132   2.204   6.809 -0.4645  0.5942  0.4881
 1930SOL     OW17425   1.820   3.607   5.528  0.5406 -0.3020 -0.3704
 1930SOL    HW117426   1.862   3.555   5.459 -1.9747 -1.1047 -1.2809
 1930SOL    HW217427   1.773   3.538   5.575  2.1331  0.2538  2.0836
 1931SOL     OW17428   3.310   1.943  14.595  0.4237  0.1289  0.4887
 1931SOL    HW117429   3.383   1.954  14.655  1.1887 -0.5220 -0.3161
 1931SOL    HW217430   3.365   1.899  14.530 -0.3178 -0.0697 -0.0016
 1932SOL     OW17431   4.290   3.299   8.884 -0.1484 -0.2728  0.1816
 1932SOL    HW117432   4.328   3.258   8.807  0.7770  1.1684 -0.1369
 1932SOL    HW217433   4.366   3.348   8.916  1.1917 -1.2173 -1.5604
 1933SOL     OW17434   2.251   1.916  10.408  0.6778  0.2669 -0.0452
 1933SOL    HW117435   2.189   1.901  10.337 -1.9457  2.6095  1.7623
 1933SOL    HW217436   2.290   1.828  10.408  0.7290  0.2781 -1.2059
 1934SOL     OW17437   1.705   2.705  10.584  0.4686  0.0316  0.1625
 1934SOL    HW117438   1.615   2.737  10.577  0.9946  1.8337  1.4972
 1934SOL    HW217439   1.738   2.712  10.495 -2.9645  1.5289 -0.9768
 1935SOL     OW17440   1.337   2.941   5.567 -0.4447 -0.1008  0.4060
 1935SOL    HW117441   1.424   2.979   5.555 -1.2498  1.8187  0.7150
 1935SOL    HW217442   1.328   2.926   5.661  0.1416  0.1726  0.5071
 1936SOL     OW17443   2.372   0.137   1.679  0.4131  0.3467  0.2423
 1936SOL    HW117444   2.345   0.147   1.770 -0.8293  0.2376 -0.1101
 1936SOL    HW217445   2.426   0.215   1.677  0.6258  0.2038  0.3694
 1937SOL     OW17446   0.245   1.589   5.463  0.2359  0.1162  0.3075
 1937SOL    HW117447   0.293   1.540   5.530  1.0013 -1.0558 -1.0986
 1937SOL    HW217448   0.153   1.587   5.488  0.0825 -1.0864 -0.4000
 1938SOL     OW17449   0.511   1.677   4.972 -0.4619 -0.2824  0.1215
 1938SOL    HW117450   0.430   1.727   4.958 -1.3945 -2.0246 -0.7160
 1938SOL    HW217451   0.492   1.593   4.932  0.2406 -0.7814  0.8455
 1939SOL     OW17452   0.053   4.524  10.750 -0.3524 -0.0257 -0.1695
 1939SOL    HW117453   0.085   4.458  10.689 -1.8555  1.1395 -2.2012
 1939SOL    HW217454   0.016   4.468  10.818  0.2133  1.3040  1.2369
 1940SOL     OW17455   0.895   3.962   5.023  0.6913  0.0394 -0.4163
 1940SOL    HW117456   0.945   4.039   4.998 -0.6874  0.8101 -0.8176
 1940SOL    HW217457   0.945   3.898   4.972 -0.5787 -0.7766 -0.6471
 1941SOL     OW17458   4.519   3.950  11.907  0.2160  0.5392 -0.1237
 1941SOL    HW117459   4.588   3.982  11.849 -0.6753  3.5015  0.4302
 1941SOL    HW217460   4.469   4.031  11.916 -0.9091 -0.3776  1.9083
 1942SOL     OW17461   3.025   0.468   5.138  0.1907  0.0904 -0.8849
 1942SOL    HW117462   3.011   0.404   5.068  0.6844 -0.3050 -0.6145
 1942SOL    HW217463   2.963   0.431   5.201  0.3717  0.1351 -0.6815
 1943SOL     OW17464   0.153   3.878  10.274  0.2452  0.3591 -0.7071
 1943SOL    HW117465   0.081   3.832  10.229  0.0401 -0.3115  0.3176
 1943SOL    HW217466   0.192   3.925  10.200 -1.0034 -0.4576 -1.8845
 1944SOL     OW17467   1.446   1.327   6.953  0.2631 -0.2105 -0.0701
 1944SOL    HW117468   1.487   1.413   6.943  0.6663 -0.4832 -0.7628
 1944SOL    HW217469   1.384   1.333   6.881  0.3363  1.7740  0.0243
 1945SOL     OW17470   0.609   0.751  11.403 -0.4325 -0.6492  0.4028
 1945SOL    HW117471   0.546   0.817  11.374 -0.0185 -0.8541 -0.9511
 1945SOL    HW217472   0.579   0.750  11.494  1.0169 -0.1661  0.8825
 1946SOL     OW17473   2.932   4.479   7.125 -0.3340  0.0627 -0.5090
 1946SOL    HW117474   2.954   4.388   7.109 -3.1236 -0.9355  1.4551
 1946SOL    HW217475   2.838   4.483   7.142  0.0490 -1.0290  1.8511
 1947SOL     OW17476   1.367   1.382  11.782  0.0189  0.2941 -0.3608
 1947SOL    HW117477   1.384   1.432  11.861 -1.8646  1.4496 -0.7072
 1947SOL    HW217478   1.341   1.300  11.824  1.2605 -0.8501 -1.7985
 1948SOL     OW17479   1.249   0.688   3.317  0.8218 -0.0204  0.5104
 1948SOL    HW117480   1.175   0.710   3.374  0.3782 -0.9176  0.2682
 1948SOL    HW217481   1.210   0.640   3.244  0.5157 -2.0601  2.0257
 1949SOL     OW17482   3.441   3.661   4.853  0.3015  0.0399 -0.5467
 1949SOL    HW117483   3.443   3.609   4.773 -0.8656 -0.1946 -0.4159
 1949SOL    HW217484   3.356   3.705   4.846  1.0709  1.7902  0.9804
 1950SOL     OW17485   3.452   2.482   5.775 -0.0010  0.4058  0.3424
 1950SOL    HW117486   3.447   2.496   5.870 -0.1617 -0.0545  0.4010
 1950SOL    HW217487   3.505   2.556   5.746  1.2877 -0.0298  1.5865
 1951SOL     OW17488   2.629   1.470   2.828  0.4246 -0.4624  0.1657
 1951SOL    HW117489   2.718   1.477   2.863 -0.0947 -1.2913  1.6726
 1951SOL    HW217490   2.612   1.376   2.841 -1.0828 -0.0899  0.8424
 1952SOL     OW17491   1.141   1.401  11.573  0.2716  0.7966  0.1641
 1952SOL    HW117492   1.154   1.458  11.649  5.6358 -1.5363  0.9928
 1952SOL    HW217493   1.082   1.455  11.520 -1.5518 -2.6557 -1.2679
 1953SOL     OW17494   3.146   0.353   3.692 -0.3335 -0.0449 -0.2067
 1953SOL    HW117495   3.183   0.372   3.779 -0.7099 -0.2377 -0.0018
 1953SOL    HW217496   3.144   0.257   3.690  0.3462 -0.0405 -0.8877
 1954SOL     OW17497   3.695   0.712   5.178  0.2071  0.3757  0.2831
 1954SOL    HW117498   3.778   0.759   5.189  0.9645 -0.6755 -0.9506
 1954SOL    HW217499   3.651   0.726   5.262  1.6891 -1.1103  1.3137
 1955SOL     OW17500   1.374   2.431  15.542 -0.5622  0.0337 -0.3865
 1955SOL    HW117501   1.393   2.351  15.492  2.0584 -0.1813  0.9013
 1955SOL    HW217502   1.432   2.418  15.617  1.2732 -2.3301 -2.2149
 1956SOL     OW17503   2.940   3.716  16.811 -0.2222  0.5307  0.2875
 1956SOL    HW117504   3.026   3.681  16.830 -0.7458 -1.9554 -1.9692
 1956SOL    HW217505   2.935   3.716  16.715 -1.4080 -1.4453  0.3432
 1957SOL     OW17506   3.022   2.726   4.985 -0.1242  0.0694  0.1947
 1957SOL    HW117507   3.023   2.681   5.070 -0.3310  0.2837  0.3125
 1957SOL    HW217508   3.116   2.727   4.968 -0.1298  0.1283  0.1673
 1958SOL     OW17509   4.078   1.939   7.543  0.0394 -0.1171 -0.5891
 1958SOL    HW117510   4.066   1.963   7.634  0.1996  0.3105 -0.6835
 1958SOL    HW217511   3.992   1.959   7.505 -0.0628 -1.6563 -1.1961
 1959SOL     OW17512   2.555   1.797   4.090 -0.4124  0.4197 -0.0823
 1959SOL    HW117513   2.603   1.757   4.017 -0.7509  0.1753 -0.1728
 1959SOL    HW217514   2.465   1.776   4.062 -1.2714  1.9240  1.5984
 1960SOL     OW17515   3.191   0.712   7.099 -0.0353  0.0652  0.3212
 1960SOL    HW117516   3.268   0.727   7.045  0.6898 -2.6960  0.6059
 1960SOL    HW217517   3.128   0.719   7.028 -0.0600  0.7807  0.4072
 1961SOL     OW17518   2.183   2.684   0.539 -0.2421  0.0582  0.4494
 1961SOL    HW117519   2.153   2.749   0.601 -2.0191 -0.0976 -0.2459
 1961SOL    HW217520   2.276   2.687   0.561 -0.5757 -0.0979  1.8845
 1962SOL     OW17521   0.537   2.719   5.096 -0.8761  0.6535 -0.1994
 1962SOL    HW117522   0.530   2.811   5.123 -1.7813  0.3523  0.6204
 1962SOL    HW217523   0.613   2.721   5.039  0.2711 -0.6400  1.3009
 1963SOL     OW17524   3.230   3.304   7.636  0.4245  0.5392 -0.5436
 1963SOL    HW117525   3.277   3.263   7.564 -0.4902 -1.3285 -0.0714
 1963SOL    HW217526   3.210   3.235   7.699  2.1183  0.6565  0.1397
 1964SOL     OW17527   0.970   2.980  17.046 -0.0571 -0.2142 -0.2791
 1964SOL    HW117528   1.033   3.038  17.088  0.7223 -1.8071  0.7647
 1964SOL    HW217529   0.976   2.903  17.103 -2.0274  1.3685  2.0579
 1965SOL     OW17530   3.223   3.552   9.785 -0.3400  0.8938 -0.0092
 1965SOL    HW117531   3.149   3.492   9.779  1.4245 -1.2599 -0.0585
 1965SOL    HW217532   3.270   3.494   9.843 -0.6231 -0.2334 -0.9068
 1966SOL     OW17533   0.230   4.270   0.116 -0.4619  0.3385 -0.1870
 1966SOL    HW117534   0.240   4.362   0.140  2.1146 -0.3077  1.2914
 1966SOL    HW217535   0.234   4.276   0.021 -0.4098  1.7032 -0.0982
 1967SOL     OW17536   1.957   1.393   6.121 -0.1696 -0.3243  0.1717
 1967SOL    HW117537   1.961   1.334   6.196 -0.3327 -2.4961 -1.5151
 1967SOL    HW217538   1.885   1.359   6.067 -1.0468  1.9760 -0.0836
 1968SOL     OW17539   1.691   0.015   2.812  0.1126 -0.1773  0.2866
 1968SOL    HW117540   1.730   4.672   2.841 -1.8979 -0.9512  0.7597
 1968SOL    HW217541   1.661   4.725   2.726 -0.3148 -0.8424  0.6631
 1969SOL     OW17542   4.370   3.628   6.251 -0.1509 -0.0228  0.0383
 1969SOL    HW117543   4.339   3.609   6.340  1.5792 -0.9321  0.4474
 1969SOL    HW217544   4.312   3.696   6.217 -0.6069 -0.7898 -0.6914
 1970SOL     OW17545   3.257   4.666   0.545  0.3120  0.1737 -0.2644
 1970SOL    HW117546   3.345   4.700   0.530  0.1325  0.8143  0.1186
 1970SOL    HW217547   3.212   4.660   0.460 -0.4975 -1.1229  0.2480
 1971SOL     OW17548   0.705   2.397  14.378  0.0160 -0.4919  0.2033
 1971SOL    HW117549   0.673   2.328  14.436 -2.0201 -1.5097 -2.1529
 1971SOL    HW217550   0.634   2.460  14.373 -0.0280 -0.8938 -4.2020
 1972SOL     OW17551   0.694   1.010   6.256  0.2256  0.0220  0.6675
 1972SOL    HW117552   0.704   0.917   6.241  2.6809  0.6029 -1.1959
 1972SOL    HW217553   0.697   1.039   6.165  0.9569  1.4050  1.1303
 1973SOL     OW17554   0.663   3.583  17.498  0.5897 -0.4146  0.1396
 1973SOL    HW117555   0.574   3.582  17.462 -0.2158 -0.1229  2.1323
 1973SOL    HW217556   0.633   3.539  17.578 -1.9139  0.8047 -0.1130
 1974SOL     OW17557   0.806   0.599  14.303  0.1107  0.2120 -0.2537
 1974SOL    HW117558   0.728   0.651  14.325  0.1459 -0.4911  1.5861
 1974SOL    HW217559   0.788   0.581  14.211  2.1116  1.7612 -0.9524
 1975SOL     OW17560   2.098   1.986   5.228  0.2544 -0.0296 -0.5271
 1975SOL    HW117561   2.012   1.944   5.234  0.8306 -1.3318 -1.4961
 1975SOL    HW217562   2.118   1.970   5.136 -1.6000 -2.2887 -0.5208
 1976SOL     OW17563   4.185   1.406  10.947  0.1657 -0.2612  0.1536
 1976SOL    HW117564   4.108   1.377  10.995 -0.5594 -0.9340 -1.4060
 1976SOL    HW217565   4.253   1.374  11.006 -0.1168 -0.5614  0.3189
 1977SOL     OW17566   2.186   0.962   1.388  0.3444 -0.3937 -0.7080
 1977SOL    HW117567   2.102   0.999   1.415 -0.0612 -0.1627 -2.2599
 1977SOL    HW217568   2.192   1.012   1.306  1.6489 -0.3380 -0.5635
 1978SOL     OW17569   2.676   4.699   4.237  0.5724  0.2323  0.4687
 1978SOL    HW117570   2.625   4.637   4.290  1.5519 -1.3360 -0.4211
 1978SOL    HW217571   2.646   0.045   4.269 -0.6862  0.5400 -1.5022
 1979SOL     OW17572   1.458   1.612   4.069  0.0818  0.1616 -0.6239
 1979SOL    HW117573   1.434   1.657   3.988 -2.7987  0.0149  0.1532
 1979SOL    HW217574   1.534   1.560   4.040 -0.8918 -0.6698 -1.7092
 1980SOL     OW17575   1.202   4.240   5.674 -0.0952  0.4513 -0.8259
 1980SOL    HW117576   1.233   4.282   5.594  2.3509  1.1812  0.4801
 1980SOL    HW217577   1.282   4.198   5.706 -0.3650 -0.5211 -1.4415
 1981SOL     OW17578   1.943   0.006   8.839 -0.2651  0.0598 -0.4754
 1981SOL    HW117579   2.011   0.058   8.796 -1.5604  0.3037 -2.1976
 1981SOL    HW217580   1.974   0.003   8.930 -1.3122  1.0274 -0.0776
 1982SOL     OW17581   4.024   0.329   6.664 -0.1365  0.3866  0.5793
 1982SOL    HW117582   4.076   0.319   6.743 -0.9342 -2.9965  0.6748
 1982SOL    HW217583   4.055   0.260   6.605 -0.3188  0.8512 -0.0657
 1983SOL     OW17584   2.960   1.237   4.769  0.0147 -0.1532  0.3844
 1983SOL    HW117585   3.035   1.219   4.826  0.2469  1.4023  0.5664
 1983SOL    HW217586   2.893   1.236   4.837  1.0289  1.0730  1.3999
 1984SOL     OW17587   0.077   0.681   6.915 -0.3778  0.2787  0.1472
 1984SOL    HW117588   0.056   0.713   6.827  0.2313 -0.8590 -0.3989
 1984SOL    HW217589   4.729   0.676   6.954 -0.3078 -1.1605  0.1091
 1985SOL     OW17590   4.653   2.237   3.377 -0.7635 -0.1826 -0.0526
 1985SOL    HW117591   4.662   2.194   3.292 -0.9378 -2.0991  0.9136
 1985SOL    HW217592   4.598   2.174   3.423  0.1335 -1.2478 -0.4477
 1986SOL     OW17593   3.521   3.877   2.030  0.1065 -0.6137  0.6451
 1986SOL    HW117594   3.475   3.853   1.949  1.4174 -0.5849 -0.1216
 1986SOL    HW217595   3.495   3.968   2.042 -3.2467 -1.8452  2.5379
 1987SOL     OW17596   3.656   1.604   2.177 -0.3679 -0.5510  0.0938
 1987SOL    HW117597   3.593   1.675   2.164  1.6834  1.2231 -0.1906
 1987SOL    HW217598   3.601   1.530   2.202 -0.9037 -0.8070 -1.8510
 1988SOL     OW17599   0.279   2.919   4.911 -0.7056  0.0804 -0.1083
 1988SOL    HW117600   0.236   3.004   4.923 -1.8456 -0.1981 -2.2424
 1988SOL    HW217601   0.292   2.918   4.817  2.0263 -0.7042  0.2717
 1989SOL     OW17602   2.864   3.091  13.630 -0.4529  0.2388 -0.1365
 1989SOL    HW117603   2.943   3.115  13.581 -0.2998  0.9588  0.4540
 1989SOL    HW217604   2.801   3.161  13.615  0.8182  1.5666  0.6431
 1990SOL     OW17605   4.672   4.542   9.689  0.8069 -0.8390 -0.2537
 1990SOL    HW117606   4.622   4.484   9.631  0.4641  0.0520 -0.8538
 1990SOL    HW217607   4.717   4.484   9.750 -0.0020  2.1940  3.2019
 1991SOL     OW17608   0.420   2.578   3.217 -0.4063 -0.1853  0.0953
 1991SOL    HW117609   0.450   2.583   3.308  0.2389 -1.7387 -0.0238
 1991SOL    HW217610   0.364   2.501   3.230 -1.5092  0.0878 -3.1279
 1992SOL     OW17611   1.874   3.006   5.898  0.1403  0.3285  0.0842
 1992SOL    HW117612   1.814   2.953   5.952  1.3764 -2.1882 -1.0132
 1992SOL    HW217613   1.872   2.953   5.818  1.2563  1.6839 -0.8388
 1993SOL     OW17614   1.117   2.798   4.647  0.1870 -0.0101  0.1024
 1993SOL    HW117615   1.093   2.880   4.691  0.9426  1.2466 -1.8408
 1993SOL    HW217616   1.037   2.760   4.610 -0.9370  4.3052 -1.8485
 1994SOL     OW17617   1.441   3.095   2.215 -0.2845  0.4930  0.4885
 1994SOL    HW117618   1.451   3.028   2.147 -1.2768  0.5587  0.2776
 1994SOL    HW217619   1.512   3.074   2.275  1.0751  1.9331 -0.6186
 1995SOL     OW17620   4.286   2.402   3.130  0.4720 -0.0556 -0.1381
 1995SOL    HW117621   4.373   2.438   3.151 -0.1944  2.3592 -1.5924
 1995SOL    HW217622   4.293   2.308   3.148 -2.4415 -0.2771 -0.2648
 1996SOL     OW17623   4.334   0.328  12.565 -0.4206 -0.5672 -0.2384
 1996SOL    HW117624   4.301   0.245  12.529 -2.4551 -0.2119  0.8227
 1996SOL    HW217625   4.253   0.368  12.597 -0.9889 -1.4578 -0.5426
 1997SOL     OW17626   3.933   4.557   3.592  0.1883  0.7914 -0.1745
 1997SOL    HW117627   3.845   4.536   3.561 -0.0040  2.2777 -0.6294
 1997SOL    HW217628   3.922   4.570   3.687  0.3993 -1.0889  0.1126
 1998SOL     OW17629   4.598   2.869  13.771  0.0881  0.3922  0.5275
 1998SOL    HW117630   4.539   2.855  13.845  0.7749 -2.3716  0.5419
 1998SOL    HW217631   4.543   2.849  13.696 -0.0246  1.4499  0.3345
 1999SOL     OW17632   3.195   1.911   7.148  0.0394  0.1640 -0.7067
 1999SOL    HW117633   3.267   1.930   7.087  2.5227 -0.6396  1.9999
 1999SOL    HW217634   3.116   1.920   7.095  0.1417  3.6762 -0.2487
 2000SOL     OW17635   1.366   0.400   4.975 -0.1393  0.5770  0.3891
 2000SOL    HW117636   1.292   0.430   5.029  0.2417 -0.3719  1.4341
 2000SOL    HW217637   1.329   0.382   4.888  0.1281 -1.1512  0.6301
 2001SOL     OW17638   3.070   0.344   6.036  0.7257  0.3236 -0.1605
 2001SOL    HW117639   3.155   0.301   6.034  0.6917  0.4698 -4.2926
 2001SOL    HW217640   3.024   0.260   6.042 -2.0702  1.7494 -1.1021
 2002SOL     OW17641   4.715   1.195  10.113  0.0349 -0.0491 -0.7287
 2002SOL    HW117642   4.714   1.159  10.201 -2.4883  1.4124 -0.1882
 2002SOL    HW217643   0.068   1.172  10.097  0.7419  0.3082  2.9083
 2003SOL     OW17644   2.199   4.062   5.256 -0.1795 -0.8127 -0.4386
 2003SOL    HW117645   2.189   4.029   5.345 -1.6889  0.3354 -0.1845
 2003SOL    HW217646   2.109   4.057   5.224 -0.5103 -0.4663  0.4116
 2004SOL     OW17647   0.621   0.979   5.377 -0.7146  0.5704  0.2629
 2004SOL    HW117648   0.556   0.939   5.320 -0.4274  0.1284  0.2451
 2004SOL    HW217649   0.700   0.967   5.324 -1.7008 -4.3096 -0.0938
 2005SOL     OW17650   2.574   2.230   1.256  0.1136  0.1141 -0.1414
 2005SOL    HW117651   2.566   2.220   1.161  0.9257  0.9192 -0.2918
 2005SOL    HW217652   2.512   2.299   1.281  1.1933  1.6224 -1.6388
 2006SOL     OW17653   1.258   3.784   1.745 -0.6622  0.5674 -0.3376
 2006SOL    HW117654   1.296   3.808   1.660 -1.3383  0.0762 -0.7729
 2006SOL    HW217655   1.242   3.691   1.734 -0.4995  0.3311  1.5242
 2007SOL     OW17656   2.882   4.638   2.117 -0.5059 -0.0586  0.1602
 2007SOL    HW117657   2.891   4.733   2.126  2.9815 -0.3555 -0.2375
 2007SOL    HW217658   2.800   4.627   2.069 -0.6704  0.4390  0.3316
 2008SOL     OW17659   3.036   3.459   4.590  0.2876 -0.1727  0.1938
 2008SOL    HW117660   3.067   3.391   4.649  0.6050 -2.3913 -2.4960
 2008SOL    HW217661   2.955   3.416   4.563  0.3390 -1.2811  1.8329
 2009SOL     OW17662   1.321   3.663   8.724 -0.1125 -0.3284 -0.1993
 2009SOL    HW117663   1.369   3.623   8.650  1.1131  2.2511 -0.7903
 2009SOL    HW217664   1.270   3.731   8.680  2.3050  0.5565 -1.6444
 2010SOL     OW17665   3.459   3.328   3.831  0.6860  0.0148  0.3711
 2010SOL    HW117666   3.390   3.360   3.889  0.3737 -1.6130  0.9172
 2010SOL    HW217667   3.541   3.360   3.868  2.4049 -2.4573 -1.2459
 2011SOL     OW17668   0.820   4.214   2.796 -0.1520  0.4855  0.1597
 2011SOL    HW117669   0.732   4.190   2.825  0.9563  0.4418  3.4648
 2011SOL    HW217670   0.830   4.302   2.833  0.3202  0.3509  0.3491
 2012SOL     OW17671   2.512   2.192   4.656  0.5875  0.9529  0.4011
 2012SOL    HW117672   2.418   2.206   4.672  0.2110 -0.3468 -0.6396
 2012SOL    HW217673   2.498   2.161   4.566  0.3815  1.0536  0.3981
 2013SOL     OW17674   2.042   0.802  11.200  0.1365 -0.0864  0.3528
 2013SOL    HW117675   1.948   0.815  11.210  0.4960  2.0278  0.9498
 2013SOL    HW217676   2.053   0.707  11.199  1.8712  0.1134 -0.2962
 2014SOL     OW17677   3.784   4.497   8.535 -0.1374  0.2161 -0.5777
 2014SOL    HW117678   3.747   4.470   8.451 -0.7076 -5.1469  1.4113
 2014SOL    HW217679   3.852   4.431   8.545  0.0637  0.2675 -1.6419
 2015SOL     OW17680   2.346   4.127   3.170 -0.9928  0.0175  0.3045
 2015SOL    HW117681   2.333   4.130   3.075 -1.8939  0.3611  0.4357
 2015SOL    HW217682   2.433   4.089   3.181  0.4740  3.2393 -0.3582
 2016SOL     OW17683   0.764   4.007   3.762 -0.4889 -0.6766  0.4848
 2016SOL    HW117684   0.739   3.959   3.683 -0.0578 -3.7586  2.2319
 2016SOL    HW217685   0.847   4.041   3.729 -1.3996 -1.4761 -2.6005
 2017SOL     OW17686   1.612   0.538   4.995  0.7655  0.2306 -0.1534
 2017SOL    HW117687   1.657   0.513   4.914  0.2580 -0.7468 -0.1265
 2017SOL    HW217688   1.532   0.488   4.979 -1.4287  3.7566  0.0081
 2018SOL     OW17689   2.612   2.988  13.590  0.5803  0.0710 -0.4245
 2018SOL    HW117690   2.695   3.034  13.605  1.9596 -2.3409 -0.6777
 2018SOL    HW217691   2.578   2.977  13.678  0.5021 -2.0212 -0.7072
 2019SOL     OW17692   1.390   1.047   6.961 -0.4203 -0.1942  0.1472
 2019SOL    HW117693   1.402   1.141   6.971 -0.2014  0.0432 -2.3584
 2019SOL    HW217694   1.320   1.026   7.023  1.0465 -2.1095  1.1739
 2020SOL     OW17695   0.915   0.710  12.279 -0.2420 -0.5451  0.5038
 2020SOL    HW117696   0.931   0.615  12.278 -0.0536 -0.5048 -0.9527
 2020SOL    HW217697   1.004   0.741  12.296 -0.2948  0.1823 -0.4937
 2021SOL     OW17698   2.367   3.407   7.306 -0.0084  0.1113 -0.4971
 2021SOL    HW117699   2.296   3.470   7.300  1.7100  1.7429 -3.5084
 2021SOL    HW217700   2.337   3.329   7.259  0.3486 -1.0736  1.2222
 2022SOL     OW17701   1.973   0.323   1.711 -0.1307 -0.1321 -0.1970
 2022SOL    HW117702   2.002   0.317   1.619  0.2915  1.2272 -0.1438
 2022SOL    HW217703   1.899   0.382   1.703 -0.9130 -1.4198 -2.6162
 2023SOL     OW17704   3.537   1.273   5.612 -0.3035  0.0507 -0.4003
 2023SOL    HW117705   3.619   1.285   5.660 -0.5057 -2.3255  0.4937
 2023SOL    HW217706   3.475   1.329   5.659 -1.7437 -1.1573 -0.8967
 2024SOL     OW17707   3.841   3.783   6.919 -0.3258  0.7930 -0.8308
 2024SOL    HW117708   3.821   3.710   6.861  0.7395 -1.0413  1.1216
 2024SOL    HW217709   3.817   3.756   7.007 -0.9168 -0.9546 -1.5256
 2025SOL     OW17710   0.640   4.734  13.594 -0.0965 -0.3854  0.5105
 2025SOL    HW117711   0.581   4.695  13.529 -0.2145  0.5342  0.0570
 2025SOL    HW217712   0.577   4.737  13.666  0.6553 -0.9690  1.1763
 2026SOL     OW17713   1.874   3.921   1.463 -0.0721 -0.0271 -0.0821
 2026SOL    HW117714   1.925   3.887   1.537  0.7920 -0.2890 -0.8031
 2026SOL    HW217715   1.819   3.844   1.448 -0.8952  0.4067  0.7076
 2027SOL     OW17716   3.025   3.010   1.506  0.4280 -0.2667  0.0542
 2027SOL    HW117717   3.063   3.014   1.594 -3.3339  1.5211  1.5876
 2027SOL    HW217718   3.036   3.098   1.470 -0.8314  0.3196  1.1201
 2028SOL     OW17719   2.897   1.478   2.939 -0.7120 -0.1337 -0.0417
 2028SOL    HW117720   2.935   1.391   2.944  0.1508  0.1179 -2.0014
 2028SOL    HW217721   2.971   1.530   2.970  1.1147 -3.5182  1.2215
 2029SOL     OW17722   0.291   1.518   6.527 -0.1677  0.3923  0.2573
 2029SOL    HW117723   0.287   1.480   6.615 -2.5020  3.3972  1.4860
 2029SOL    HW217724   0.341   1.451   6.480 -1.5312  0.3978 -1.1820
 2030SOL     OW17725   0.874   0.775   7.117 -1.0064 -0.2296  0.5219
 2030SOL    HW117726   0.925   0.831   7.175  0.9479 -2.0422  0.5580
 2030SOL    HW217727   0.785   0.809   7.122 -0.2313  1.8494  0.0868
 2031SOL     OW17728   4.272   3.168   6.786  0.2370  0.3779  0.1796
 2031SOL    HW117729   4.252   3.244   6.840  0.4199  1.2674 -1.0058
 2031SOL    HW217730   4.338   3.131   6.844 -0.0741 -0.0879  0.2466
 2032SOL     OW17731   2.038   2.887   8.799  0.2645 -0.2264  0.1421
 2032SOL    HW117732   2.133   2.899   8.798 -0.0163  1.9019 -0.9955
 2032SOL    HW217733   2.020   2.930   8.716  2.1034  0.4154  0.0969
 2033SOL     OW17734   0.111   3.538   6.140  0.6491 -0.3562 -0.2019
 2033SOL    HW117735   0.043   3.604   6.145  0.2157 -0.7270 -1.1289
 2033SOL    HW217736   0.191   3.589   6.127  0.0073  0.7093  0.0923
 2034SOL     OW17737   0.317   3.767   4.139 -0.8979  0.0540 -0.2463
 2034SOL    HW117738   0.364   3.806   4.213 -0.2033  2.1764 -1.8325
 2034SOL    HW217739   0.387   3.741   4.079  0.8530  0.5474  1.5487
 2035SOL     OW17740   1.022   0.185   8.553  0.7166 -0.5254 -0.4889
 2035SOL    HW117741   1.096   0.235   8.518  0.4674 -1.5329 -2.4463
 2035SOL    HW217742   1.063   0.100   8.568  0.1262 -0.6877  0.2024
 2036SOL     OW17743   2.380   4.607   7.964  0.2239 -0.1536 -0.1211
 2036SOL    HW117744   2.292   4.629   7.934  0.6207  2.2540  0.4255
 2036SOL    HW217745   2.415   4.571   7.883  1.2621 -1.4321  0.9026
 2037SOL     OW17746   3.041   4.432   1.956  0.3007  0.4348  0.1149
 2037SOL    HW117747   3.009   4.514   1.994  0.9187  0.9540 -0.4905
 2037SOL    HW217748   3.056   4.375   2.031  0.9730  0.1293 -0.2514
 2038SOL     OW17749   4.254   3.092   3.515  0.0674 -0.5011 -0.1038
 2038SOL    HW117750   4.186   3.158   3.500  0.1726 -0.7389 -1.5415
 2038SOL    HW217751   4.318   3.111   3.447  0.6121 -0.8911  0.2984
 2039SOL     OW17752   2.860   1.815   7.958 -0.0681 -0.0030  0.1914
 2039SOL    HW117753   2.769   1.822   7.989 -0.5480  0.0181 -1.2004
 2039SOL    HW217754   2.858   1.782   7.868  0.8209  0.5651 -0.0338
 2040SOL     OW17755   3.038   0.393  11.735 -0.2816  0.4986  0.4497
 2040SOL    HW117756   3.091   0.373  11.812  1.3028 -0.6172 -0.9183
 2040SOL    HW217757   2.987   0.313  11.723  0.4389 -0.1140  1.3991
 2041SOL     OW17758   0.838   3.998   7.587 -0.6138 -0.3940 -0.2663
 2041SOL    HW117759   0.868   3.987   7.497 -1.5191 -0.6239 -0.5466
 2041SOL    HW217760   0.784   3.920   7.601 -0.7854 -0.2870 -0.3265
 2042SOL     OW17761   3.367   1.604   0.710  0.1399  0.2969 -0.0044
 2042SOL    HW117762   3.368   1.687   0.759 -0.5004  0.1987  0.1731
 2042SOL    HW217763   3.457   1.613   0.677 -0.2030 -1.7219 -1.4457
 2043SOL     OW17764   0.886   2.674   8.057 -0.1449  0.2220 -0.1143
 2043SOL    HW117765   0.877   2.704   7.966  1.4659  0.2707 -0.2585
 2043SOL    HW217766   0.924   2.588   8.037  2.1786  0.8253  1.7596
 2044SOL     OW17767   0.769   2.116   5.441  0.5941 -0.0983 -0.6252
 2044SOL    HW117768   0.758   2.186   5.505  1.3755 -2.0818  1.6598
 2044SOL    HW217769   0.684   2.073   5.437 -0.3758  1.7433 -0.0991
 2045SOL     OW17770   0.129   0.103   0.798  0.0626 -0.2608 -0.5007
 2045SOL    HW117771   0.213   0.056   0.805  0.4080  0.1929 -1.5300
 2045SOL    HW217772   0.082   0.053   0.731  2.8149 -0.5388 -2.2706
 2046SOL     OW17773   0.335   2.331   8.951 -0.2844  0.4902 -0.0831
 2046SOL    HW117774   0.408   2.304   8.895 -0.3404 -1.9480  1.0324
 2046SOL    HW217775   0.271   2.336   8.881  0.1871  0.9637 -0.4774
 2047SOL     OW17776   3.797   0.183   3.933 -0.4123  0.2070  0.4531
 2047SOL    HW117777   3.864   0.174   4.001  1.2505 -0.3316 -1.2590
 2047SOL    HW217778   3.858   0.172   3.861 -0.2996  0.3793  0.5213
 2048SOL     OW17779   0.956   4.167   6.530 -0.0901  0.2277 -0.2926
 2048SOL    HW117780   1.038   4.192   6.571  0.6417  0.2418 -1.7757
 2048SOL    HW217781   0.978   4.195   6.441  3.8990 -2.1797 -0.0506
 2049SOL     OW17782   2.684   4.413   9.064 -0.3032 -0.8411 -0.1689
 2049SOL    HW117783   2.648   4.336   9.020 -1.6960  0.3417 -1.0814
 2049SOL    HW217784   2.601   4.448   9.097 -0.3965  0.3977 -1.7367
 2050SOL     OW17785   3.256   4.712  15.133 -0.2093 -0.1659 -0.3374
 2050SOL    HW117786   3.167   4.682  15.150 -0.5944  0.4839 -1.2500
 2050SOL    HW217787   3.252   0.049  15.191 -1.5424 -0.2539 -0.3161
 2051SOL     OW17788   0.459   4.085   9.816  0.3414 -0.5177 -0.0613
 2051SOL    HW117789   0.538   4.030   9.814  0.3821 -0.3902 -1.9679
 2051SOL    HW217790   0.445   4.094   9.722  0.5321 -0.2379 -0.0605
 2052SOL     OW17791   2.645   0.743   0.944 -0.3234 -0.2478  0.1015
 2052SOL    HW117792   2.657   0.780   1.032  0.8807  1.2738 -0.6995
 2052SOL    HW217793   2.705   0.803   0.899  0.3815 -1.2668 -0.3203
 2053SOL     OW17794   2.766   1.062   2.168  0.0037  0.4929  0.2685
 2053SOL    HW117795   2.738   0.985   2.219 -1.2396  0.7558 -0.0055
 2053SOL    HW217796   2.767   1.020   2.082  1.2542 -0.3348  0.6908
 2054SOL     OW17797   1.123   4.146   3.151 -0.0522 -0.3926 -0.1099
 2054SOL    HW117798   1.210   4.112   3.134  0.7016  1.2619  0.3853
 2054SOL    HW217799   1.130   4.227   3.101  0.7235  0.4649  1.3701
 2055SOL     OW17800   4.300   3.203   5.782 -0.7268  0.2756  0.1159
 2055SOL    HW117801   4.348   3.233   5.859  1.6780 -0.5805 -1.0588
 2055SOL    HW217802   4.314   3.110   5.798 -0.4322  0.6947  2.3738
 2056SOL     OW17803   0.015   0.198  16.064 -0.1668  0.1199 -0.0602
 2056SOL    HW117804   0.061   0.115  16.051 -0.0508 -0.2583  2.8253
 2056SOL    HW217805   0.069   0.246  16.001 -1.9588  2.6085  0.3106
 2057SOL     OW17806   2.465   4.476   9.218  0.0126  0.5534  0.0269
 2057SOL    HW117807   2.405   4.512   9.153 -1.6943 -1.3514  0.5274
 2057SOL    HW217808   2.407   4.446   9.288 -1.2970  2.2833 -0.3261
 2058SOL     OW17809   1.117   0.181   6.007 -0.8568 -0.2946  0.0256
 2058SOL    HW117810   1.045   0.242   5.989  0.9630  1.5994 -0.7851
 2058SOL    HW217811   1.087   0.121   6.076  2.3500 -0.0953  1.5605
 2059SOL     OW17812   0.798   4.630   7.562 -0.0408  0.0365 -0.2205
 2059SOL    HW117813   0.842   4.546   7.546  0.4771  0.5623 -1.5741
 2059SOL    HW217814   0.838   4.685   7.494 -0.4212  1.6979  0.9157
 2060SOL     OW17815   2.327   0.376   3.735  0.0766 -0.1096  0.4401
 2060SOL    HW117816   2.369   0.449   3.780 -1.2628 -1.2503  3.5368
 2060SOL    HW217817   2.395   0.315   3.763 -0.0740 -0.3543  0.2697
 2061SOL     OW17818   1.287   1.770   7.981 -1.1389 -0.5969 -0.3778
 2061SOL    HW117819   1.337   1.695   8.012  1.2035 -0.2598 -3.4049
 2061SOL    HW217820   1.205   1.760   8.031 -1.5568  0.3518 -0.8623
 2062SOL     OW17821   1.572   0.152   8.423 -0.0171 -0.1030 -0.0320
 2062SOL    HW117822   1.639   0.205   8.381  1.1456 -0.0868  1.8573
 2062SOL    HW217823   1.624   0.108   8.490  2.8151  0.7018 -1.7165
 2063SOL     OW17824   1.207   3.547   1.138 -0.1555 -0.3639 -0.1902
 2063SOL    HW117825   1.120   3.569   1.170  1.0345 -0.1357  2.8778
 2063SOL    HW217826   1.199   3.546   1.043  0.9469  2.5630 -0.3321
 2064SOL     OW17827   1.709   0.518  17.112  0.0563  0.4986 -0.9365
 2064SOL    HW117828   1.796   0.497  17.147 -1.7722  0.1372  3.3452
 2064SOL    HW217829   1.668   0.543  17.195 -1.8308 -1.6810 -1.2294
 2065SOL     OW17830   3.510   1.159   8.710 -0.2854 -0.6244 -0.2891
 2065SOL    HW117831   3.598   1.173   8.675  0.0919 -0.1433  0.8347
 2065SOL    HW217832   3.484   1.089   8.651  1.9580 -1.6219 -0.1003
 2066SOL     OW17833   0.464   2.096   2.438 -0.4686 -0.4417  0.0659
 2066SOL    HW117834   0.454   2.036   2.364 -1.5730  2.5053 -2.1319
 2066SOL    HW217835   0.474   2.039   2.515 -0.2114  0.3931  0.6489
 2067SOL     OW17836   1.164   3.836   9.956 -0.4328  0.0653  0.0848
 2067SOL    HW117837   1.103   3.847   9.883  0.2255 -0.3705 -0.5360
 2067SOL    HW217838   1.142   3.755  10.002 -0.1370  0.4573  0.8966
 2068SOL     OW17839   0.604   1.257  12.936 -0.1441 -0.5050  0.3226
 2068SOL    HW117840   0.644   1.238  13.021 -0.6059 -0.8462  0.4700
 2068SOL    HW217841   0.661   1.206  12.878 -0.5981 -0.4002 -0.2141
 2069SOL     OW17842   1.425   4.712   4.719  0.2543  0.1325 -0.2418
 2069SOL    HW117843   1.367   4.667   4.781  0.8129 -2.8060 -1.8502
 2069SOL    HW217844   1.372   4.724   4.641 -0.8950 -1.4781  0.2928
 2070SOL     OW17845   1.723   2.311   1.352 -0.0139 -0.4778  0.8380
 2070SOL    HW117846   1.745   2.300   1.445 -0.8814  0.9253  1.2096
 2070SOL    HW217847   1.629   2.326   1.365  0.0883 -1.0905  2.3430
 2071SOL     OW17848   3.323   0.709   3.908 -0.3046 -0.0568  0.1063
 2071SOL    HW117849   3.404   0.664   3.932 -0.2900 -0.7594 -1.3004
 2071SOL    HW217850   3.293   0.751   3.989  0.9391 -2.1945  1.6754
 2072SOL     OW17851   3.564   0.263  10.715  0.9287 -0.1287 -0.5782
 2072SOL    HW117852   3.641   0.300  10.758  0.1517  0.2960  0.4470
 2072SOL    HW217853   3.581   0.256  10.621 -1.5467 -0.5482 -1.0012
 2073SOL     OW17854   2.777   0.769   7.369  0.1850 -0.3735 -0.4598
 2073SOL    HW117855   2.741   0.712   7.301  0.6072  0.4998 -1.4314
 2073SOL    HW217856   2.854   0.810   7.329 -0.2140  1.6612  0.8477
 2074SOL     OW17857   4.731   1.504   2.939 -0.7753 -0.2751 -0.5639
 2074SOL    HW117858   4.651   1.536   2.898 -0.5641 -0.8194 -1.3927
 2074SOL    HW217859   0.049   1.510   2.862  1.0015 -1.2360  0.6986
 2075SOL     OW17860   4.607   0.993   6.517 -0.2454 -0.2500 -0.1902
 2075SOL    HW117861   4.549   0.945   6.459 -0.5324 -0.8276  0.5756
 2075SOL    HW217862   4.551   1.065   6.546 -0.2814 -0.5164  0.4045
 2076SOL     OW17863   2.108   4.245   6.837  0.3507  0.3703 -0.1469
 2076SOL    HW117864   2.040   4.188   6.801 -0.4351  0.4301  1.2646
 2076SOL    HW217865   2.188   4.195   6.820  0.6766  0.0699  2.2570
 2077SOL     OW17866   1.660   3.146   7.646  0.2310  0.0760  0.1657
 2077SOL    HW117867   1.608   3.178   7.719  0.0928  0.6286 -0.1793
 2077SOL    HW217868   1.689   3.227   7.604  0.4926  0.1802  0.5507
 2078SOL     OW17869   1.588   0.085  16.825 -0.1277 -0.2353  0.5140
 2078SOL    HW117870   1.585   0.066  16.919 -0.6200 -0.6062  0.4243
 2078SOL    HW217871   1.623   0.174  16.824 -1.2773  0.2387  2.4621
 2079SOL     OW17872   4.439   3.203   8.697 -0.0367 -0.1382  0.3364
 2079SOL    HW117873   4.525   3.244   8.693 -0.0199 -0.1776  0.2989
 2079SOL    HW217874   4.455   3.116   8.734 -0.4619  0.0700  1.0155
 2080SOL     OW17875   2.381   3.108   4.924 -0.6538 -0.2294  0.1449
 2080SOL    HW117876   2.337   3.027   4.898  0.5761 -1.2964  1.3980
 2080SOL    HW217877   2.391   3.090   5.018  1.4982 -2.2195 -0.4720
 2081SOL     OW17878   3.116   0.251  14.126  0.0435  0.1337  0.5024
 2081SOL    HW117879   3.193   0.253  14.070 -0.4767 -0.3214 -0.2370
 2081SOL    HW217880   3.080   0.339  14.119 -1.5401 -0.5598 -0.1530
 2082SOL     OW17881   1.724   1.028   2.573 -0.0314  0.5946 -0.2223
 2082SOL    HW117882   1.698   0.945   2.613 -1.1290  1.2343  0.3943
 2082SOL    HW217883   1.696   1.018   2.482 -2.3994 -0.2766  0.6069
 2083SOL     OW17884   0.073   1.826   0.869  0.1284 -0.5713  0.2863
 2083SOL    HW117885   4.720   1.835   0.845 -0.0239 -2.5462  0.2069
 2083SOL    HW217886   0.098   1.747   0.822 -2.7052 -1.2720 -0.0208
 2084SOL     OW17887   1.497   0.114   7.507  0.2360 -0.0931 -0.8343
 2084SOL    HW117888   1.592   0.113   7.498  0.0996 -0.1423 -2.2716
 2084SOL    HW217889   1.466   0.042   7.452  1.7901 -2.1259  0.9464
 2085SOL     OW17890   1.868   4.627   0.023 -0.4069 -0.3817  0.5438
 2085SOL    HW117891   1.775   4.651   0.017 -0.2044  0.2754  0.1164
 2085SOL    HW217892   1.868   4.539   0.060  3.2750 -0.0284  1.3736
 2086SOL     OW17893   0.005   1.354   3.379  0.3217  0.0080  0.7876
 2086SOL    HW117894   4.670   1.402   3.417  1.2232  0.3649  2.0933
 2086SOL    HW217895   0.003   1.397   3.293  0.2332 -0.3257  0.6214
 2087SOL     OW17896   4.461   0.565  13.285  0.1022  0.0795  0.8703
 2087SOL    HW117897   4.465   0.482  13.237 -2.7382  0.2508  0.3253
 2087SOL    HW217898   4.554   0.581  13.270  0.2080  0.0872  1.5450
 2088SOL     OW17899   1.821   0.672   3.486  0.2196 -0.0213  0.4488
 2088SOL    HW117900   1.889   0.641   3.427  0.3311  2.2839 -0.6280
 2088SOL    HW217901   1.782   0.742   3.434  1.2378  0.1838 -0.0304
 2089SOL     OW17902   2.636   0.469  11.302 -0.2674 -0.5089 -0.1647
 2089SOL    HW117903   2.683   0.547  11.273  0.4638 -0.3408  1.4793
 2089SOL    HW217904   2.670   0.464  11.392  1.8175  0.2675 -0.9310
 2090SOL     OW17905   1.510   0.719  12.812  0.5317  0.4517 -0.0795
 2090SOL    HW117906   1.581   0.701  12.874 -1.3166  2.0341  2.4978
 2090SOL    HW217907   1.457   0.640  12.804 -0.6873  1.1761  1.0035
 2091SOL     OW17908   0.339   3.740   2.937  0.4303  0.0641  0.0768
 2091SOL    HW117909   0.321   3.776   2.850  0.4144  0.2157  0.1419
 2091SOL    HW217910   0.390   3.661   2.923 -2.2998 -2.2523  3.3463
 2092SOL     OW17911   1.022   4.313   2.212 -0.1804 -0.1614 -0.8899
 2092SOL    HW117912   1.099   4.365   2.236  0.5345 -0.9484 -1.5140
 2092SOL    HW217913   1.044   4.282   2.124  2.1263 -2.0114  0.3487
 2093SOL     OW17914   3.553   2.117   5.718  0.7203 -0.2019  0.3251
 2093SOL    HW117915   3.624   2.053   5.719  0.1446 -0.8007  2.0113
 2093SOL    HW217916   3.501   2.111   5.798  0.1243  1.5131  0.0833
 2094SOL     OW17917   3.822   1.266   2.372  0.3398 -0.2197  0.6833
 2094SOL    HW117918   3.846   1.176   2.390  0.4650 -0.1127  1.0643
 2094SOL    HW217919   3.827   1.299   2.462 -3.1009 -0.3436  0.9106
 2095SOL     OW17920   2.952   0.806   2.010 -0.0883  0.2748  0.0073
 2095SOL    HW117921   3.038   0.819   2.049 -0.1822 -0.7027  0.5417
 2095SOL    HW217922   2.946   0.870   1.939  1.8759  0.4394 -0.0009
 2096SOL     OW17923   0.267   4.269  10.783  0.8011  0.3486 -0.4557
 2096SOL    HW117924   0.324   4.212  10.732 -0.1394 -1.4828  0.5563
 2096SOL    HW217925   0.231   4.315  10.708  1.9912  0.1796 -1.1286
 2097SOL     OW17926   1.500   4.569   2.928  0.5718 -0.3164 -0.2779
 2097SOL    HW117927   1.510   4.596   3.020 -0.5918  0.3383 -0.3464
 2097SOL    HW217928   1.545   4.633   2.872  0.9899 -1.9672 -1.8085
 2098SOL     OW17929   1.718   1.305   5.977 -0.1801  0.1007 -0.2532
 2098SOL    HW117930   1.627   1.330   5.993 -0.4991 -2.0340  1.2220
 2098SOL    HW217931   1.694   1.251   5.902 -0.0299  2.0588 -1.7211
 2099SOL     OW17932   1.447   3.874   6.384  0.6069  0.2042  0.3274
 2099SOL    HW117933   1.451   3.782   6.359 -1.1677  0.0275  0.7087
 2099SOL    HW217934   1.521   3.865   6.445 -2.1475 -2.4758  3.2488
 2100SOL     OW17935   2.763   1.143  13.745 -0.1561  0.4541 -0.2357
 2100SOL    HW117936   2.704   1.081  13.702  0.0991 -0.2643  0.4420
 2100SOL    HW217937   2.704   1.216  13.763  1.0518  1.0639  1.2010
 2101SOL     OW17938   4.375   1.604  15.605  0.2640  0.1002 -0.5548
 2101SOL    HW117939   4.428   1.670  15.562  0.3405 -0.5351 -1.4299
 2101SOL    HW217940   4.329   1.664  15.664  0.0227  0.8235 -1.4951
 2102SOL     OW17941   2.330   0.438  16.438 -0.4611  0.7014  0.2177
 2102SOL    HW117942   2.411   0.449  16.488  0.9685 -1.5433 -1.6146
 2102SOL    HW217943   2.370   0.378  16.376 -0.5218 -1.7464  2.5683
 2103SOL     OW17944   1.123   0.126  15.017 -0.3998  0.3049 -0.2395
 2103SOL    HW117945   1.188   0.069  14.974  0.1780 -0.4793  1.6619
 2103SOL    HW217946   1.174   0.200  15.050 -1.6523  0.5152  1.2096
 2104SOL     OW17947   2.272   3.682   7.387 -0.5599 -0.0359  0.5587
 2104SOL    HW117948   2.254   3.662   7.479 -0.4081 -1.3577  0.3065
 2104SOL    HW217949   2.257   3.776   7.386  0.3152  0.0872 -0.1711
 2105SOL     OW17950   2.822   1.810  15.630  0.6162 -0.1011  0.4017
 2105SOL    HW117951   2.792   1.865  15.703 -1.8511 -2.7785  1.4138
 2105SOL    HW217952   2.786   1.733  15.675  0.8436  0.2061  1.1155
 2106SOL     OW17953   2.148   4.261  13.574 -0.1688 -0.5233 -0.1087
 2106SOL    HW117954   2.170   4.189  13.516 -0.6597 -3.0940  2.9349
 2106SOL    HW217955   2.201   4.337  13.550  0.3830 -1.3470 -1.4926
 2107SOL     OW17956   0.475   2.352   2.332  0.4223 -0.1320 -0.4147
 2107SOL    HW117957   0.469   2.259   2.355 -1.8158  0.3859  1.2122
 2107SOL    HW217958   0.391   2.398   2.324  0.7087  0.8778  2.2063
 2108SOL     OW17959   2.168   2.398   4.423 -0.4702  0.3936  0.2442
 2108SOL    HW117960   2.079   2.391   4.386 -0.8634 -1.1410  1.4774
 2108SOL    HW217961   2.218   2.414   4.343 -0.4215  0.2123  0.2374
 2109SOL     OW17962   3.934   0.720   4.849  0.1102  0.0991  0.2619
 2109SOL    HW117963   3.905   0.632   4.872 -0.5839  0.7482  1.8231
 2109SOL    HW217964   3.994   0.730   4.923 -0.5117  0.3646  0.7298
 2110SOL     OW17965   2.236   2.228   7.300 -0.0070  0.4718 -0.1731
 2110SOL    HW117966   2.212   2.186   7.218  2.7501  1.6106 -1.5362
 2110SOL    HW217967   2.220   2.320   7.279 -2.0101 -0.3382 -2.1159
 2111SOL     OW17968   3.999   1.393   0.576  0.2917 -0.1848 -0.1402
 2111SOL    HW117969   4.064   1.441   0.524 -0.2424  0.3505 -0.3074
 2111SOL    HW217970   3.955   1.464   0.623 -0.9860 -0.5561 -0.7780
 2112SOL     OW17971   2.871   3.033   2.128  0.5120  0.1696  0.2104
 2112SOL    HW117972   2.852   2.981   2.206 -1.7030 -2.2683 -1.9141
 2112SOL    HW217973   2.807   3.103   2.127  2.4398  1.9275 -1.2310
 2113SOL     OW17974   0.708   3.165   8.848  0.2435  0.0936 -0.1086
 2113SOL    HW117975   0.734   3.241   8.795 -0.1301 -0.7111 -1.4355
 2113SOL    HW217976   0.788   3.114   8.842  0.4097  0.1879  1.1387
 2114SOL     OW17977   2.711   2.250   3.717 -0.4610  0.4684  0.5820
 2114SOL    HW117978   2.755   2.324   3.761 -0.4121  0.2849  0.8418
 2114SOL    HW217979   2.654   2.300   3.659  0.4446  2.2105  1.1611
 2115SOL     OW17980   1.137   4.216   1.659  0.4973 -0.5475  0.3207
 2115SOL    HW117981   1.222   4.188   1.692  0.3175 -0.4034  0.9200
 2115SOL    HW217982   1.091   4.251   1.736  0.5134 -4.1814  1.9718
 2116SOL     OW17983   2.585   4.089   1.942 -0.5318  0.4465 -0.1219
 2116SOL    HW117984   2.547   4.172   1.974 -0.7445  0.1932  0.2882
 2116SOL    HW217985   2.640   4.122   1.871  1.4213 -0.9097  0.7676
 2117SOL     OW17986   3.587   2.710   7.511 -0.6285 -0.0522 -0.1976
 2117SOL    HW117987   3.648   2.782   7.499 -0.0170 -0.5798 -0.2457
 2117SOL    HW217988   3.507   2.762   7.505 -1.8691 -2.1473 -2.0581
 2118SOL     OW17989   2.186   0.010   9.871 -0.2483 -0.1139  0.7867
 2118SOL    HW117990   2.216   0.054   9.951 -0.4555  0.5774  0.4858
 2118SOL    HW217991   2.245   4.675   9.859  0.7766  0.8834 -0.4290
 2119SOL     OW17992   1.491   2.210   4.455 -0.0343  0.4173 -0.1940
 2119SOL    HW117993   1.577   2.170   4.442 -0.4103 -0.8474  1.1691
 2119SOL    HW217994   1.463   2.220   4.364  2.6373 -0.3864 -1.1235
 2120SOL     OW17995   3.218   3.753   3.799  0.1124  0.2745 -0.3335
 2120SOL    HW117996   3.186   3.839   3.771 -0.0294  0.8311  1.5130
 2120SOL    HW217997   3.189   3.696   3.728  2.9636  0.6439 -1.8004
 2121SOL     OW17998   2.508   0.385   7.077 -0.2690 -0.2721  0.3927
 2121SOL    HW117999   2.419   0.375   7.043 -0.3957 -0.7842  0.8785
 2121SOL    HW218000   2.505   0.310   7.137  1.5170 -0.6843 -0.0215
 2122SOL     OW18001   0.772   0.415   4.109  0.5239 -0.2625  0.0570
 2122SOL    HW118002   0.689   0.440   4.068  1.7480  0.5418 -1.8852
 2122SOL    HW218003   0.822   0.390   4.032 -0.7756  1.8716 -1.4643
 2123SOL     OW18004   4.256   4.497   6.441 -0.0788  0.2212 -0.0442
 2123SOL    HW118005   4.176   4.533   6.403 -0.2021 -0.2543 -0.2455
 2123SOL    HW218006   4.220   4.458   6.521 -0.5414  1.4008  0.3171
 2124SOL     OW18007   3.335   0.334   7.933 -0.6554  0.7085  0.1677
 2124SOL    HW118008   3.249   0.377   7.934 -1.4101 -0.7917 -0.9348
 2124SOL    HW218009   3.355   0.352   8.025 -4.2118  3.3276  0.4166
 2125SOL     OW18010   2.913   1.891   8.548  0.2241  0.2209 -0.0906
 2125SOL    HW118011   2.883   1.856   8.464 -1.6043 -0.9227  1.0412
 2125SOL    HW218012   2.840   1.896   8.610 -0.1602 -1.3990 -0.4191
 2126SOL     OW18013   2.629   1.005  12.895  0.5220  0.0418  0.1003
 2126SOL    HW118014   2.698   1.071  12.885 -0.8680  1.3367 -1.0019
 2126SOL    HW218015   2.670   0.939  12.841 -1.6125 -1.5538  0.4128
 2127SOL     OW18016   0.960   1.638   6.059  0.0984 -0.6346 -0.2764
 2127SOL    HW118017   1.015   1.598   6.127 -0.7294 -0.0638  0.7240
 2127SOL    HW218018   0.906   1.565   6.030  0.6078 -0.8617 -0.6600
 2128SOL     OW18019   2.876   1.336   2.006 -0.0129  0.0924 -0.0249
 2128SOL    HW118020   2.834   1.257   1.973 -1.3370 -0.1766  2.3511
 2128SOL    HW218021   2.930   1.315   2.081 -1.2665 -0.6092  0.6723
 2129SOL     OW18022   2.989   0.187   7.892  0.3077 -0.0647 -0.1426
 2129SOL    HW118023   3.056   0.164   7.957 -0.7870  1.0476  1.3887
 2129SOL    HW218024   2.912   0.193   7.949  1.1046  1.2092  0.8100
 2130SOL     OW18025   2.053   4.249   1.141 -0.2989  0.5169  0.4325
 2130SOL    HW118026   2.131   4.199   1.166 -2.1019 -1.3097  2.3883
 2130SOL    HW218027   2.084   4.282   1.057 -1.3485  0.3431 -0.0180
 2131SOL     OW18028   0.787   1.726   3.750 -0.1352  0.5476 -0.4141
 2131SOL    HW118029   0.772   1.790   3.820  0.2015 -0.7135  0.8242
 2131SOL    HW218030   0.788   1.642   3.797  0.5476  1.0543  0.4769
 2132SOL     OW18031   2.046   2.601  14.853 -0.5164  0.0505 -0.3673
 2132SOL    HW118032   1.995   2.626  14.930  0.1143  1.1399 -0.3007
 2132SOL    HW218033   2.016   2.511  14.845  0.5614 -0.2521 -0.9865
 2133SOL     OW18034   2.670   0.674   6.555  0.0921 -0.4882 -0.4812
 2133SOL    HW118035   2.732   0.746   6.541 -1.8580  1.0736 -1.0015
 2133SOL    HW218036   2.715   0.608   6.608  0.5193  1.0710  1.0860
 2134SOL     OW18037   3.833   3.301   8.042 -0.2198  0.0808 -0.3384
 2134SOL    HW118038   3.797   3.239   8.106 -3.3520  0.0054 -2.1525
 2134SOL    HW218039   3.864   3.376   8.093 -2.8458  1.6082 -0.9790
 2135SOL     OW18040   1.407   0.345   7.399 -0.3295  0.4597  0.1590
 2135SOL    HW118041   1.396   0.402   7.475 -1.3172  0.7452 -0.2116
 2135SOL    HW218042   1.457   0.273   7.439  3.2678  2.8872  0.0582
 2136SOL     OW18043   3.126   4.690   3.925  0.4604 -0.1117 -0.0182
 2136SOL    HW118044   3.038   4.675   3.959  0.6158  0.8439  0.8201
 2136SOL    HW218045   3.123   0.043   3.903 -0.6471 -0.1395  0.0144
 2137SOL     OW18046   2.380   4.448   6.248 -0.0771 -0.4803  0.4797
 2137SOL    HW118047   2.339   4.530   6.221 -0.4836 -0.5062  1.0132
 2137SOL    HW218048   2.375   4.446   6.343  2.2690  0.8801  0.6499
 2138SOL     OW18049   2.788   2.900  14.627  0.5135  0.1829 -0.0059
 2138SOL    HW118050   2.728   2.903  14.702 -3.0074  0.0667 -2.8155
 2138SOL    HW218051   2.832   2.984  14.638 -1.0200  0.8750  0.8385
 2139SOL     OW18052   3.945   0.128  15.111 -0.2791  0.1809  0.2159
 2139SOL    HW118053   3.910   0.040  15.096 -1.6410  0.9638 -1.1653
 2139SOL    HW218054   4.024   0.113  15.163  1.1604  4.1946 -0.8479
 2140SOL     OW18055   1.418   0.181  11.230 -0.7177  0.6885 -0.4463
 2140SOL    HW118056   1.503   0.146  11.253 -0.4993 -0.2142 -2.6332
 2140SOL    HW218057   1.428   0.223  11.144 -2.1717  2.3837  0.2105
 2141SOL     OW18058   3.025   3.379   7.458  0.1884 -0.0527  0.1074
 2141SOL    HW118059   3.091   3.381   7.528  1.0661 -0.8258 -0.7070
 2141SOL    HW218060   2.979   3.303   7.492  1.5223 -1.6401 -1.6411
 2142SOL     OW18061   1.316   4.617   7.933  0.7788 -0.0729 -0.5642
 2142SOL    HW118062   1.303   4.700   7.978  1.7661  0.4069 -1.1548
 2142SOL    HW218063   1.319   4.650   7.842 -0.8667  0.3717 -0.4510
 2143SOL     OW18064   0.814   3.021   7.421 -0.0215  0.0116 -0.4217
 2143SOL    HW118065   0.801   2.936   7.463 -2.0872 -0.3869 -1.8721
 2143SOL    HW218066   0.798   3.009   7.328 -2.1881  0.5403 -0.1217
 2144SOL     OW18067   0.317   1.794  14.453 -0.7282  0.2471  0.6835
 2144SOL    HW118068   0.264   1.782  14.374 -1.5653 -0.5787  1.3700
 2144SOL    HW218069   0.391   1.843  14.418  1.3006 -2.4041  1.2833
 2145SOL     OW18070   1.969   1.607   4.173  0.0045  0.1002  0.4485
 2145SOL    HW118071   1.942   1.696   4.148 -0.2632 -0.3067 -0.7260
 2145SOL    HW218072   2.049   1.618   4.224  2.2837  0.3892 -3.1217
 2146SOL     OW18073   0.494   3.602   9.752 -0.6160  0.3073  0.1729
 2146SOL    HW118074   0.416   3.629   9.801 -1.9878 -0.8760 -1.3428
 2146SOL    HW218075   0.463   3.516   9.723  1.3593  0.3635 -2.1034
 2147SOL     OW18076   1.674   0.356  16.802 -0.0346  0.2113  0.0302
 2147SOL    HW118077   1.606   0.365  16.736  1.6454 -0.0840 -1.7370
 2147SOL    HW218078   1.722   0.436  16.783  1.7595 -1.0320 -0.7175
 2148SOL     OW18079   3.293   3.139   4.174 -0.0972 -0.4055  0.9221
 2148SOL    HW118080   3.384   3.169   4.179 -0.5384  0.9415  0.9790
 2148SOL    HW218081   3.286   3.092   4.091 -1.8865  1.3132  0.0842
 2149SOL     OW18082   3.553   2.606   4.860 -0.8806  0.1569 -0.1867
 2149SOL    HW118083   3.648   2.614   4.857 -0.8372  0.1310  1.6168
 2149SOL    HW218084   3.528   2.607   4.952 -2.0167  1.0485 -0.5083
 2150SOL     OW18085   0.976   2.946  11.965  0.4347  0.4926 -0.5357
 2150SOL    HW118086   1.033   2.893  11.910 -1.4838 -0.6884 -1.3773
 2150SOL    HW218087   0.896   2.936  11.914  1.4954  1.0773 -2.3068
 2151SOL     OW18088   2.518   0.314   6.278  0.3650  0.4379 -0.1529
 2151SOL    HW118089   2.463   0.237   6.268  0.4111  0.5690 -1.4421
 2151SOL    HW218090   2.533   0.325   6.184 -1.7589 -1.1015 -0.6654
 2152SOL     OW18091   2.632   1.191   8.943  0.1763 -0.6094  0.4491
 2152SOL    HW118092   2.645   1.113   8.996  0.7779  0.3584  1.7468
 2152SOL    HW218093   2.546   1.218   8.976 -0.7154 -1.6844 -1.0222
 2153SOL     OW18094   2.966   3.476   6.774  0.3104 -0.0793 -0.5444
 2153SOL    HW118095   2.942   3.393   6.733 -3.7928 -0.3137  2.3513
 2153SOL    HW218096   2.896   3.490   6.838 -0.7237  2.7685 -2.2846
 2154SOL     OW18097   2.937   4.056   6.408  0.7234 -0.5909 -0.0369
 2154SOL    HW118098   3.028   4.064   6.437  0.5731  2.3468 -0.2953
 2154SOL    HW218099   2.938   3.972   6.363  2.3236 -1.0782  0.9169
 2155SOL     OW18100   0.225   0.859   0.656 -0.1745 -0.4147  0.4382
 2155SOL    HW118101   0.317   0.855   0.632 -0.8303 -0.8204 -2.0278
 2155SOL    HW218102   0.223   0.780   0.711  2.5910 -0.4798  0.4491
 2156SOL     OW18103   4.238   1.978   3.871 -0.0608  0.2870 -0.3139
 2156SOL    HW118104   4.213   2.068   3.848  3.2061  0.9444 -1.3211
 2156SOL    HW218105   4.263   1.982   3.963 -4.3569  0.8488  0.8201
 2157SOL     OW18106   1.586   1.403   2.953 -0.3456 -0.4697  0.2440
 2157SOL    HW118107   1.674   1.411   2.991  0.2482  0.4546 -1.2944
 2157SOL    HW218108   1.606   1.349   2.876 -0.8603  1.1480 -1.0284
 2158SOL     OW18109   4.251   1.697   2.865  0.0982  0.3151  0.2597
 2158SOL    HW118110   4.198   1.705   2.945  0.6328  0.5512  0.5852
 2158SOL    HW218111   4.185   1.657   2.808  0.2241  0.6083 -0.0883
 2159SOL     OW18112   0.888   3.086   6.202 -0.1685 -0.4535 -0.1635
 2159SOL    HW118113   0.834   3.120   6.130  1.1851  0.0404 -0.9288
 2159SOL    HW218114   0.896   3.168   6.252  0.3979 -0.0614 -0.9043
 2160SOL     OW18115   2.480   0.540   2.314 -0.1806 -0.3098 -0.0336
 2160SOL    HW118116   2.446   0.621   2.274 -0.1554 -0.5577 -0.5551
 2160SOL    HW218117   2.537   0.523   2.238  0.1214 -0.7651  0.2969
 2161SOL     OW18118   0.408   1.079   0.730 -0.3552 -0.9052  0.1131
 2161SOL    HW118119   0.312   1.077   0.724 -0.3582  0.4324 -0.2141
 2161SOL    HW218120   0.432   1.007   0.671 -0.9849 -1.4297  0.4847
 2162SOL     OW18121   1.544   4.147  13.595  0.3749 -0.0417  0.1233
 2162SOL    HW118122   1.510   4.216  13.652  0.7816 -0.3414  0.7326
 2162SOL    HW218123   1.639   4.162  13.592 -0.0163  1.9613 -2.2844
 2163SOL     OW18124   4.279   0.294   4.629 -0.4102 -0.2229 -0.0263
 2163SOL    HW118125   4.309   0.257   4.713  1.5857 -0.6894 -0.9508
 2163SOL    HW218126   4.243   0.375   4.664  0.5377  0.5276 -0.7773
 2164SOL     OW18127   3.996   0.445   4.631 -0.6503  0.3950  0.1516
 2164SOL    HW118128   3.961   0.522   4.586 -0.0639  0.1124 -0.8149
 2164SOL    HW218129   4.072   0.489   4.670  0.0424  0.0795 -0.8334
 2165SOL     OW18130   3.789   2.909  11.025 -0.4062 -0.4308 -0.9162
 2165SOL    HW118131   3.855   2.968  11.061  0.2209 -2.2995  0.9840
 2165SOL    HW218132   3.714   2.940  11.076  0.6147 -1.1250  1.0186
 2166SOL     OW18133   4.224   3.633   3.274  0.3126 -0.3511  0.0520
 2166SOL    HW118134   4.241   3.602   3.363  2.3270  0.3510 -0.0815
 2166SOL    HW218135   4.307   3.604   3.236 -0.7788 -1.0884 -1.7948
 2167SOL     OW18136   4.260   1.156   6.792 -0.0060 -0.1877 -0.4469
 2167SOL    HW118137   4.300   1.225   6.740 -0.8859  0.1037 -0.7338
 2167SOL    HW218138   4.304   1.169   6.876 -0.0284 -1.2787 -0.2670
 2168SOL     OW18139   0.452   3.870  10.513  0.0156 -0.7444  0.6907
 2168SOL    HW118140   0.417   3.945  10.561 -0.6381 -0.5645 -0.0791
 2168SOL    HW218141   0.544   3.882  10.538 -0.0396  1.6779 -0.2749
 2169SOL     OW18142   0.154   2.568   2.084 -0.1655 -0.2506  0.5991
 2169SOL    HW118143   0.194   2.632   2.141  0.8948 -1.0239  0.7118
 2169SOL    HW218144   0.182   2.491   2.133  1.7212 -0.3762 -0.6659
 2170SOL     OW18145   3.984   0.859   6.941 -0.5366  0.0893  0.3707
 2170SOL    HW118146   3.973   0.838   7.034 -3.9465  3.8145  0.8138
 2170SOL    HW218147   3.977   0.954   6.937 -0.0344  0.1139  0.1673
 2171SOL     OW18148   0.981   2.491   4.758 -0.1004 -0.5291 -0.3681
 2171SOL    HW118149   0.917   2.495   4.687  0.6003 -1.8194 -1.0632
 2171SOL    HW218150   0.984   2.580   4.794  0.1723 -0.4100 -0.6854
 2172SOL     OW18151   2.011   1.457  15.311  0.1405 -0.4750 -0.4653
 2172SOL    HW118152   2.096   1.456  15.355 -0.8807  0.4018  1.5373
 2172SOL    HW218153   2.034   1.473  15.220  2.2290  0.8634  0.2878
 2173SOL     OW18154   0.340   3.921  12.555 -0.0661 -0.1427  0.2616
 2173SOL    HW118155   0.384   3.840  12.579 -3.2144 -2.0915 -0.6047
 2173SOL    HW218156   0.258   3.902  12.601 -1.0900  3.0853 -0.2288
 2174SOL     OW18157   4.609   4.350   7.207 -0.6396 -0.1884 -0.2824
 2174SOL    HW118158   4.579   4.433   7.171  0.5484  0.6602  0.7000
 2174SOL    HW218159   4.559   4.287   7.155  1.1878 -1.7979 -0.1118
 2175SOL     OW18160   3.135   4.683  13.814 -0.3363  0.1544  0.4007
 2175SOL    HW118161   3.229   4.696  13.823 -0.3047  1.0732 -1.3092
 2175SOL    HW218162   3.130   4.612  13.750 -0.7492  0.1217  0.4652
 2176SOL     OW18163   1.632   1.119   3.339  0.2296 -0.0800 -0.4916
 2176SOL    HW118164   1.652   1.212   3.332 -0.7859 -0.0235 -2.6570
 2176SOL    HW218165   1.631   1.107   3.434 -2.5651  0.1077 -0.5000
 2177SOL     OW18166   0.216   1.921  10.006 -0.1924 -0.4246  0.4744
 2177SOL    HW118167   0.156   1.980  10.051 -0.9731 -2.2022  1.7708
 2177SOL    HW218168   0.277   1.984   9.969 -0.4425  1.2064  2.8987
 2178SOL     OW18169   2.508   3.449   8.510 -0.1816  0.2190  0.7629
 2178SOL    HW118170   2.430   3.396   8.499 -0.4542  1.2996 -2.4976
 2178SOL    HW218171   2.463   3.517   8.560 -1.1887 -0.8418  1.2866
 2179SOL     OW18172   1.525   4.584  15.071 -0.0529  0.7641 -0.0268
 2179SOL    HW118173   1.535   4.490  15.057 -0.7356  0.5349  1.0514
 2179SOL    HW218174   1.616   4.589  15.100 -0.9152 -0.1071  2.8418
 2180SOL     OW18175   3.989   0.045   1.844 -0.7921  0.0618 -0.0332
 2180SOL    HW118176   3.935   4.707   1.861  0.8029 -0.7685  1.1968
 2180SOL    HW218177   3.928   0.108   1.805  0.0395  0.8528 -0.0308
 2181SOL     OW18178   0.199   3.223   5.349  0.4163 -0.8078 -0.3424
 2181SOL    HW118179   0.167   3.261   5.431  2.3087 -1.2608  0.6120
 2181SOL    HW218180   0.241   3.302   5.315 -1.1472  0.7906  1.4642
 2182SOL     OW18181   0.669   0.728   8.317 -0.4168 -0.3004  0.2379
 2182SOL    HW118182   0.730   0.670   8.363 -0.6102 -0.4574  0.2950
 2182SOL    HW218183   0.589   0.675   8.315 -0.6429 -0.0869  2.9379
 2183SOL     OW18184   2.588   4.223  11.074 -0.3710  0.1230 -0.0594
 2183SOL    HW118185   2.497   4.195  11.085  0.3944 -1.5477  1.9459
 2183SOL    HW218186   2.586   4.318  11.073  1.3565  0.1584  0.7786
 2184SOL     OW18187   4.081   0.886   5.723 -0.0190  0.2987 -0.3435
 2184SOL    HW118188   4.144   0.857   5.657  1.6074  2.3527  0.2764
 2184SOL    HW218189   4.050   0.799   5.745  0.2400  0.5475  1.0157
 2185SOL     OW18190   0.002   0.896   6.049 -0.0759 -0.7770  0.2067
 2185SOL    HW118191   0.016   0.833   6.119 -1.5958  0.3614  1.5159
 2185SOL    HW218192   4.693   0.964   6.095  0.2644 -0.5014  0.1587
 2186SOL     OW18193   3.981   3.133  12.266 -0.8274  0.1998 -0.0930
 2186SOL    HW118194   3.958   3.165  12.178  0.3248 -1.1284 -0.8844
 2186SOL    HW218195   4.023   3.052  12.237 -0.2626  0.3556  0.2924
 2187SOL     OW18196   0.297   2.519   5.934 -0.0719  0.2699  0.0185
 2187SOL    HW118197   0.370   2.474   5.976 -0.3082  0.3972  0.5677
 2187SOL    HW218198   0.321   2.519   5.841 -0.7249  0.6750 -0.1569
 2188SOL     OW18199   3.003   4.004   5.542  0.0834 -0.0150  0.2958
 2188SOL    HW118200   2.941   4.030   5.610  0.7554  0.0393  0.8852
 2188SOL    HW218201   2.954   3.937   5.494  0.5461  2.8994 -4.3209
 2189SOL     OW18202   4.492   1.974  16.305  0.0461 -0.0937 -0.1388
 2189SOL    HW118203   4.479   2.064  16.333 -1.4478  0.0320 -1.2270
 2189SOL    HW218204   4.430   1.974  16.232 -0.1573 -0.9062  0.0359
 2190SOL     OW18205   2.215   3.352   3.360  0.7809  0.2103 -0.2890
 2190SOL    HW118206   2.177   3.429   3.402  0.0577  0.0647 -0.6612
 2190SOL    HW218207   2.304   3.384   3.348  0.8124 -0.2713 -1.4022
 2191SOL     OW18208   1.556   0.199  16.231  0.3382 -0.2033  0.1225
 2191SOL    HW118209   1.622   0.137  16.262 -0.1241  0.0907  1.7075
 2191SOL    HW218210   1.601   0.264  16.176 -1.5543  1.0816  0.1068
 2192SOL     OW18211   1.982   2.143  10.293  0.7574  0.1163  0.1334
 2192SOL    HW118212   1.999   2.117  10.383 -1.2290 -0.1521  0.4219
 2192SOL    HW218213   2.021   2.068  10.249 -0.1328 -0.0435 -0.3861
 2193SOL     OW18214   1.498   1.472   2.023 -0.7307  0.1747 -0.3111
 2193SOL    HW118215   1.408   1.461   2.056 -0.6967  0.7470 -0.0219
 2193SOL    HW218216   1.479   1.470   1.929 -0.1540  0.3885 -0.4253
 2194SOL     OW18217   3.299   1.997   8.615  0.1843  1.2407  0.3954
 2194SOL    HW118218   3.231   2.036   8.560 -1.1219 -0.5735  0.7231
 2194SOL    HW218219   3.249   1.934   8.666 -1.8007  2.3248 -0.2166
 2195SOL     OW18220   2.025   1.361   6.948 -0.0736 -0.5193  0.7867
 2195SOL    HW118221   2.073   1.307   6.885  0.4917  1.2416 -0.2855
 2195SOL    HW218222   2.021   1.446   6.905 -0.4946 -1.1189 -0.3845
 2196SOL     OW18223   3.702   1.424   3.489  0.9494  0.3353  0.1256
 2196SOL    HW118224   3.728   1.490   3.425  0.5127 -1.0718 -1.4899
 2196SOL    HW218225   3.673   1.358   3.426  1.0570  1.1420 -0.7666
 2197SOL     OW18226   1.404   1.094   2.869  0.6167 -0.2008 -0.4387
 2197SOL    HW118227   1.449   1.101   2.954  0.0937  0.8485 -0.2532
 2197SOL    HW218228   1.312   1.088   2.894  0.7630 -1.9318 -0.2641
 2198SOL     OW18229   4.004   1.262   6.568 -0.5383 -0.0126  0.0953
 2198SOL    HW118230   4.044   1.326   6.627  0.1225 -0.2386 -0.1069
 2198SOL    HW218231   3.936   1.319   6.534 -1.3223  0.2892  2.1802
 2199SOL     OW18232   4.542   2.924   2.945 -1.0442  0.1054  0.2999
 2199SOL    HW118233   4.500   3.005   2.918 -0.9387  0.0394 -0.0566
 2199SOL    HW218234   4.479   2.858   2.915  0.4572 -1.3589  0.3672
 2200SOL     OW18235   1.071   4.606  17.002 -0.1214 -0.8388 -0.5526
 2200SOL    HW118236   1.127   4.624  17.078  0.3767 -1.8244 -0.6738
 2200SOL    HW218237   1.073   4.511  16.988  1.3329 -0.7536 -1.0066
 2201SOL     OW18238   0.813   0.145   7.179  0.0233  0.6332 -0.2383
 2201SOL    HW118239   0.861   0.107   7.252 -1.5106 -1.4461 -0.3188
 2201SOL    HW218240   0.737   0.088   7.171  0.3483  0.0120  1.0573
 2202SOL     OW18241   3.765   3.096   3.416  0.6075  0.5427  0.6582
 2202SOL    HW118242   3.758   3.144   3.334 -0.6524 -2.6229 -1.0860
 2202SOL    HW218243   3.702   3.142   3.472 -0.1746  1.1395 -0.7222
 2203SOL     OW18244   4.696   0.875   0.943  0.0772 -0.1337 -0.4056
 2203SOL    HW118245   4.641   0.804   0.910  2.0867 -1.1351 -1.6243
 2203SOL    HW218246   4.667   0.940   0.880  0.6339  0.1475 -0.3742
 2204SOL     OW18247   2.367   4.288  11.455 -0.4058  0.4059  0.3279
 2204SOL    HW118248   2.312   4.227  11.405  0.7825 -0.4480  0.0770
 2204SOL    HW218249   2.444   4.300  11.399  0.6834 -0.0189  1.7525
 2205SOL     OW18250   0.638   1.383   6.454 -0.1105  0.6060  0.4926
 2205SOL    HW118251   0.547   1.351   6.449 -0.3652  1.5201 -1.0036
 2205SOL    HW218252   0.663   1.363   6.544  0.8755 -3.3092 -0.6408
 2206SOL     OW18253   0.283   3.630   1.431  0.4843 -0.3985 -0.0815
 2206SOL    HW118254   0.335   3.640   1.511  0.4464  0.0376 -0.1077
 2206SOL    HW218255   0.340   3.677   1.369  0.8989 -0.6357  0.1171
 2207SOL     OW18256   0.176   2.097   7.272 -0.4566 -0.6892  0.0747
 2207SOL    HW118257   0.239   2.115   7.342  1.7681 -0.5850 -1.9122
 2207SOL    HW218258   0.214   2.150   7.202 -0.5503 -1.2732 -0.4206
 2208SOL     OW18259   1.573   3.321  15.067 -0.5816  0.0168  0.2107
 2208SOL    HW118260   1.594   3.245  15.013  0.7471  0.8383 -0.4030
 2208SOL    HW218261   1.483   3.339  15.039 -0.8909 -1.1830  0.4301
 2209SOL     OW18262   3.408   1.429   1.199  0.0459  0.0450  0.0828
 2209SOL    HW118263   3.404   1.524   1.185  1.0663  0.1772  0.6815
 2209SOL    HW218264   3.321   1.402   1.171  0.6586  0.3682 -2.1516
 2210SOL     OW18265   2.426   2.049   2.605 -0.3334  0.1183  0.1671
 2210SOL    HW118266   2.413   2.063   2.699 -1.7970  0.3901 -0.0771
 2210SOL    HW218267   2.402   1.957   2.603  0.0152  0.0293  0.0748
 2211SOL     OW18268   0.583   2.035   1.947  0.2321 -0.8695 -0.1625
 2211SOL    HW118269   0.670   2.002   1.970  0.9371  0.7064 -0.5861
 2211SOL    HW218270   0.598   2.092   1.872 -0.9708  1.5298  1.4433
 2212SOL     OW18271   2.376   3.087  17.652 -0.0690 -0.5394  0.3745
 2212SOL    HW118272   2.428   3.047  17.583  0.1400 -0.1675  0.3160
 2212SOL    HW218273   2.297   3.033  17.661  0.0617 -0.6179  1.0477
 2213SOL     OW18274   0.185   2.987   1.706  0.2767  0.1071  0.2898
 2213SOL    HW118275   0.138   2.922   1.654  0.8228 -0.1848  0.1504
 2213SOL    HW218276   0.268   2.939   1.716 -1.7458 -3.1253  1.7997
 2214SOL     OW18277   0.828   0.828   4.463 -0.3437 -0.3287  0.3675
 2214SOL    HW118278   0.835   0.785   4.378 -0.7615 -0.0860  0.2069
 2214SOL    HW218279   0.789   0.750   4.502 -1.2830 -0.1710 -0.2503
 2215SOL     OW18280   1.802   0.864   7.306  0.5668 -0.1273 -0.2666
 2215SOL    HW118281   1.813   0.917   7.227 -2.4214 -0.5963 -0.9972
 2215SOL    HW218282   1.707   0.851   7.305  0.5077  0.3203 -0.2300
 2216SOL     OW18283   0.835   1.131   7.470  0.1703 -0.2094 -0.0303
 2216SOL    HW118284   0.783   1.094   7.542  0.7755 -0.3046  0.3609
 2216SOL    HW218285   0.906   1.182   7.509  1.5558  0.3413 -3.2784
 2217SOL     OW18286   2.195   2.564   6.672 -0.7973 -0.5123 -0.0095
 2217SOL    HW118287   2.144   2.511   6.612 -2.1619  0.6317  0.1480
 2217SOL    HW218288   2.127   2.629   6.689  0.0496  0.0364  1.3615
 2218SOL     OW18289   2.992   3.098  14.654 -0.1697 -0.6896  0.5180
 2218SOL    HW118290   3.010   3.098  14.748 -0.3101  1.2043  0.5485
 2218SOL    HW218291   3.065   3.045  14.622 -0.1799 -0.9439  0.9214
 2219SOL     OW18292   0.011   3.433   7.678 -0.6129 -0.6518 -0.5874
 2219SOL    HW118293   4.712   3.345   7.682  0.0563 -0.9466 -0.5751
 2219SOL    HW218294   4.683   3.499   7.668 -0.7569 -0.6979  0.1282
 2220SOL     OW18295   1.464   4.245   2.078 -0.0844 -0.3719 -0.1854
 2220SOL    HW118296   1.479   4.339   2.083  1.2674 -0.5888 -0.1146
 2220SOL    HW218297   1.380   4.234   2.124 -0.1080 -1.6553 -0.5241
 2221SOL     OW18298   1.940   0.212   9.552  0.7375 -0.3045  0.1214
 2221SOL    HW118299   1.875   0.271   9.512 -0.5812 -2.9550 -1.6929
 2221SOL    HW218300   1.968   0.260   9.630  1.1387  1.5995 -1.2122
 2222SOL     OW18301   4.318   1.041   8.690  0.0388  0.1254 -0.4670
 2222SOL    HW118302   4.232   1.045   8.650 -0.2575 -1.1674  0.0424
 2222SOL    HW218303   4.378   1.094   8.638  0.0441  2.4720  1.8961
 2223SOL     OW18304   4.620   0.699   2.055 -0.2902  0.1778  0.3357
 2223SOL    HW118305   4.612   0.604   2.043 -1.8482  0.4456 -0.7954
 2223SOL    HW218306   4.625   0.740   1.969  2.2044 -1.4187 -0.2553
 2224SOL     OW18307   3.398   0.145   8.198 -0.3700 -0.2164  0.3126
 2224SOL    HW118308   3.463   0.210   8.171  0.5200 -0.1246  2.6681
 2224SOL    HW218309   3.434   0.057   8.187 -0.4083 -0.2210  0.2254
 2225SOL     OW18310   1.316   4.728   2.509  0.4825 -0.4007  0.5919
 2225SOL    HW118311   1.281   0.018   2.593  0.1068 -0.1504  0.3482
 2225SOL    HW218312   1.404   4.700   2.534  0.5986  0.5201  1.2072
 2226SOL     OW18313   2.353   1.656   3.390  0.5899 -0.1108  0.1410
 2226SOL    HW118314   2.372   1.666   3.484 -0.8607  0.2835  0.4049
 2226SOL    HW218315   2.260   1.637   3.398  0.3068  1.7870  1.5857
 2227SOL     OW18316   3.648   0.948   7.103  0.3645 -0.0948 -0.0396
 2227SOL    HW118317   3.626   0.976   7.192 -2.0167 -0.7603 -0.4133
 2227SOL    HW218318   3.703   0.871   7.113  0.4172 -0.1169 -0.5027
 2228SOL     OW18319   0.023   4.657   2.368 -0.0920 -0.2582  0.0568
 2228SOL    HW118320   0.004   4.705   2.287  1.6494 -3.0895 -2.0410
 2228SOL    HW218321   0.100   4.605   2.346 -0.0832  0.0620 -0.6708
 2229SOL     OW18322   4.192   1.927   0.076 -0.3231 -0.2866 -0.4173
 2229SOL    HW118323   4.182   1.832   0.081  1.3818 -0.5083 -1.5585
 2229SOL    HW218324   4.276   1.931   0.121 -1.3122  0.4917  1.3701
 2230SOL     OW18325   2.868   3.447   7.080  0.5479 -0.3124  0.2839
 2230SOL    HW118326   2.835   3.370   7.034 -1.4548  0.2382  0.7751
 2230SOL    HW218327   2.943   3.417   7.131  1.3299  1.5106  0.1946
 2231SOL     OW18328   2.930   3.759  11.192  0.0843 -0.0507  0.2072
 2231SOL    HW118329   2.963   3.847  11.210 -3.5584  0.9688  1.7928
 2231SOL    HW218330   2.902   3.743  11.282 -0.8065 -1.1208 -0.2654
 2232SOL     OW18331   0.861   4.315   8.446  0.4099  0.0395  0.3357
 2232SOL    HW118332   0.913   4.280   8.519 -1.4405 -1.5946  0.8751
 2232SOL    HW218333   0.913   4.386   8.407  0.7864 -0.0842  0.6160
 2233SOL     OW18334   1.597   1.027  11.716 -0.3896  0.2605  0.2505
 2233SOL    HW118335   1.606   1.114  11.677  2.4312 -0.5482 -0.8818
 2233SOL    HW218336   1.516   1.041  11.765 -1.3286 -3.9814 -0.0804
 2234SOL     OW18337   1.610   4.226   3.766  0.4869  0.5879  0.1373
 2234SOL    HW118338   1.571   4.304   3.728 -2.0978 -0.3115  0.9732
 2234SOL    HW218339   1.688   4.260   3.811  1.3832 -0.0132 -0.9596
 2235SOL     OW18340   2.359   3.207   6.912  0.2509 -0.1106  0.4016
 2235SOL    HW118341   2.264   3.212   6.923  0.2865  0.7196  0.3418
 2235SOL    HW218342   2.369   3.295   6.876 -1.1784  0.3244  1.0784
 2236SOL     OW18343   0.430   3.211  16.365 -0.3101 -0.1358  0.4867
 2236SOL    HW118344   0.425   3.215  16.269  0.4530 -1.6632  0.4004
 2236SOL    HW218345   0.502   3.150  16.378 -0.3334 -0.0468  1.0507
 2237SOL     OW18346   0.100   3.914   6.175  0.3787 -0.5481  0.1893
 2237SOL    HW118347   0.072   3.971   6.247 -0.7569  1.3239 -1.7388
 2237SOL    HW218348   0.016   3.868   6.167 -0.0238 -0.0187  1.4690
 2238SOL     OW18349   2.496   2.335   9.443  0.6745  0.4092 -0.5093
 2238SOL    HW118350   2.457   2.292   9.367 -0.4310 -0.8041  0.7293
 2238SOL    HW218351   2.585   2.300   9.446  1.1943  1.7918  0.1988
 2239SOL     OW18352   2.021   2.011   5.708  0.4277  0.1688  0.2845
 2239SOL    HW118353   2.033   2.039   5.618 -0.0298  1.8732  0.7598
 2239SOL    HW218354   1.928   1.993   5.716  0.2967  0.5350 -0.5077
 2240SOL     OW18355   1.713   2.085   7.179 -0.0518  0.1270 -0.1360
 2240SOL    HW118356   1.674   2.039   7.105 -2.2339 -1.3525  1.9360
 2240SOL    HW218357   1.709   2.017   7.245  2.6299 -1.4612 -1.6243
 2241SOL     OW18358   0.698   2.350   4.138 -0.3324 -0.4787 -0.0394
 2241SOL    HW118359   0.665   2.261   4.125 -0.3640 -0.5118  0.2576
 2241SOL    HW218360   0.675   2.374   4.049  0.5893  1.3343  0.2201
 2242SOL     OW18361   4.219   2.888   2.150 -0.1643  0.6546 -0.6705
 2242SOL    HW118362   4.163   2.957   2.113 -0.7733  1.3709  1.5646
 2242SOL    HW218363   4.304   2.932   2.151  0.4909 -0.6400  0.5475
 2243SOL     OW18364   4.495   4.545  11.316 -0.0345  0.0429  0.0634
 2243SOL    HW118365   4.576   4.527  11.365  0.5663 -2.4211 -1.8499
 2243SOL    HW218366   4.438   4.481  11.358 -0.8938 -1.0091 -2.7197
 2244SOL     OW18367   0.866   3.470   0.340 -0.1409  0.3667  0.1445
 2244SOL    HW118368   0.927   3.481   0.266  1.2466 -3.5819  0.6904
 2244SOL    HW218369   0.780   3.493   0.305 -0.5174 -0.5980  0.4342
 2245SOL     OW18370   2.654   2.865   2.627  0.0441  0.0593 -0.3443
 2245SOL    HW118371   2.724   2.859   2.692  0.1882 -0.6734 -0.5580
 2245SOL    HW218372   2.616   2.777   2.634 -0.0601  0.1065 -0.3178
 2246SOL     OW18373   0.620   1.888  11.670 -0.0044 -0.2144 -0.4686
 2246SOL    HW118374   0.708   1.909  11.704  0.1497 -2.3603  0.4726
 2246SOL    HW218375   0.626   1.792  11.674 -1.1990 -0.3090 -0.9868
 2247SOL     OW18376   2.030   2.418   9.125  0.0477 -0.1471 -0.4407
 2247SOL    HW118377   1.984   2.473   9.061  1.1085 -0.7579 -1.7337
 2247SOL    HW218378   2.028   2.346   9.062  1.6697 -1.8026  1.4161
 2248SOL     OW18379   2.162   3.368   5.745  0.0015 -0.5649 -0.6294
 2248SOL    HW118380   2.094   3.302   5.732  0.7776 -1.5252  0.1569
 2248SOL    HW218381   2.139   3.404   5.830 -1.0877 -0.3983 -0.9897
 2249SOL     OW18382   0.663   0.932  14.264  0.2493 -0.4319  0.2574
 2249SOL    HW118383   0.729   0.942  14.195  0.9304  0.2259  1.0031
 2249SOL    HW218384   0.596   0.868  14.239  1.3103 -0.7724 -1.7789
 2250SOL     OW18385   1.677   4.093   4.589  0.3730 -0.3644 -0.3191
 2250SOL    HW118386   1.748   4.056   4.537  1.2325  0.1177  0.5135
 2250SOL    HW218387   1.662   4.015   4.643  0.1802  0.0829  0.2722
 2251SOL     OW18388   1.565   4.033   8.435  0.3297  0.6071 -0.2301
 2251SOL    HW118389   1.574   4.048   8.529 -1.6380 -1.3085  0.2570
 2251SOL    HW218390   1.497   4.100   8.432 -0.1765  0.2952  4.5582
 2252SOL     OW18391   2.387   1.565  13.171  0.9883  0.5892  0.4586
 2252SOL    HW118392   2.426   1.483  13.198 -0.5461 -0.2548  0.1340
 2252SOL    HW218393   2.342   1.599  13.249 -1.1075 -1.7984  0.3098
 2253SOL     OW18394   1.992   1.847   7.381 -0.0537 -0.0367  0.3290
 2253SOL    HW118395   2.019   1.761   7.411  0.2030  0.0253  0.2800
 2253SOL    HW218396   2.025   1.916   7.438  1.9097 -2.1933  1.8000
 2254SOL     OW18397   3.586   3.615   8.127 -0.0167 -0.2388 -0.3193
 2254SOL    HW118398   3.560   3.681   8.192 -1.6133 -1.7544  0.5818
 2254SOL    HW218399   3.500   3.576   8.112 -0.5124 -0.1592  2.2271
 2255SOL     OW18400   3.932   2.046   4.917 -0.8040  0.5052  0.2984
 2255SOL    HW118401   4.015   2.070   4.877 -0.6854 -0.0803  0.1968
 2255SOL    HW218402   3.907   2.127   4.960  1.3918  2.0923 -1.4300
 2256SOL     OW18403   2.323   4.659   6.515 -0.4432  0.4696  0.5249
 2256SOL    HW118404   2.321   4.571   6.552 -0.2983  0.2108 -0.0717
 2256SOL    HW218405   2.230   4.681   6.508 -0.7290 -1.2208 -0.9943
 2257SOL     OW18406   2.468   0.932   9.665 -0.8341  0.4270  0.1036
 2257SOL    HW118407   2.412   0.868   9.621 -0.2135  0.4022 -0.6348
 2257SOL    HW218408   2.496   0.889   9.746  1.5255  0.4860 -0.6970
 2258SOL     OW18409   1.398   2.887   6.722  0.4069 -0.1410 -0.3846
 2258SOL    HW118410   1.384   2.876   6.628  0.7496 -1.0535 -0.3293
 2258SOL    HW218411   1.481   2.933   6.726  0.1936  0.1875  0.2129
 2259SOL     OW18412   0.602   4.434   8.128  0.5517 -0.0196 -0.3465
 2259SOL    HW118413   0.524   4.404   8.174  0.4690 -1.0911 -1.1795
 2259SOL    HW218414   0.670   4.371   8.153  0.9407  0.0177 -1.3163
 2260SOL     OW18415   1.354   1.368   4.430 -0.3769  0.1039 -0.0072
 2260SOL    HW118416   1.341   1.456   4.397 -1.0706 -0.2197 -0.5794
 2260SOL    HW218417   1.435   1.389   4.476  1.1313 -1.3782 -2.0177
 2261SOL     OW18418   1.006   3.070   9.482  0.0601  0.1032  0.5231
 2261SOL    HW118419   0.989   3.094   9.573 -2.9869  0.4262 -0.1438
 2261SOL    HW218420   1.060   2.992   9.494  1.5396  1.3525  1.9085
 2262SOL     OW18421   1.987   0.878   3.055  0.1116 -0.2966 -0.3703
 2262SOL    HW118422   2.070   0.913   3.022 -0.5138  0.6603 -0.9132
 2262SOL    HW218423   1.961   0.815   2.989 -2.0901  0.1851  0.0506
 2263SOL     OW18424   2.629   3.475  16.398  0.0661 -0.5395  0.1418
 2263SOL    HW118425   2.566   3.515  16.457 -0.9707 -0.8252 -0.7839
 2263SOL    HW218426   2.601   3.386  16.378 -0.1146 -0.7171  1.1497
 2264SOL     OW18427   1.839   1.844   4.109  0.1204  0.2612  0.0335
 2264SOL    HW118428   1.762   1.827   4.054 -0.8031  0.8345  1.1313
 2264SOL    HW218429   1.886   1.905   4.053  1.0006 -0.4921 -0.0430
 2265SOL     OW18430   0.388   4.712   0.013  0.6503 -0.2841 -0.3015
 2265SOL    HW118431   0.305   4.685   0.052 -0.0003  2.7958  0.4562
 2265SOL    HW218432   0.452   4.654   0.054  1.7124  0.8491 -0.3423
 2266SOL     OW18433   2.018   1.308   3.452 -0.0636 -0.3016 -0.2310
 2266SOL    HW118434   2.012   1.223   3.407  0.2441 -0.7063  0.4949
 2266SOL    HW218435   2.104   1.346   3.431 -1.3741  3.0310  0.4913
 2267SOL     OW18436   4.517   3.023  15.720 -0.4535  0.5904 -0.1777
 2267SOL    HW118437   4.424   3.044  15.734  0.0159  3.2370 -1.0144
 2267SOL    HW218438   4.562   3.035  15.804 -1.8225 -0.0451  0.6498
 2268SOL     OW18439   4.286   2.379   7.887 -0.0437  0.4262  0.4991
 2268SOL    HW118440   4.314   2.344   7.971 -0.2317  2.1132  1.2615
 2268SOL    HW218441   4.194   2.359   7.906 -0.3699  1.3457 -0.1539
 2269SOL     OW18442   2.381   1.731   9.502 -0.2236 -0.4408  0.2749
 2269SOL    HW118443   2.368   1.798   9.435  0.3506  0.6996  1.3189
 2269SOL    HW218444   2.427   1.661   9.456 -0.2943  0.1804 -0.7255
 2270SOL     OW18445   2.471   0.787   7.381  0.2477 -0.3709  0.4773
 2270SOL    HW118446   2.552   0.827   7.349  0.0249  0.7647  1.3533
 2270SOL    HW218447   2.411   0.858   7.357 -0.3808 -1.2935 -0.6762
 2271SOL     OW18448   3.325   1.616   1.944 -0.3869 -0.0405  0.2846
 2271SOL    HW118449   3.235   1.588   1.924  0.0219 -2.3396  1.5865
 2271SOL    HW218450   3.349   1.666   1.866 -0.7642  1.5979  1.2315
 2272SOL     OW18451   3.291   2.234   9.072  0.2228  0.1994  0.7062
 2272SOL    HW118452   3.298   2.285   9.153  2.4010 -1.4824  1.5981
 2272SOL    HW218453   3.379   2.204   9.053 -0.8754 -2.1810 -0.6302
 2273SOL     OW18454   2.511   1.756   7.433 -0.0272  0.0793 -0.5950
 2273SOL    HW118455   2.536   1.700   7.506 -1.8338 -0.2596 -0.2455
 2273SOL    HW218456   2.577   1.826   7.436 -0.7423  0.8827 -2.8217
 2274SOL     OW18457   0.950   1.320  14.525 -0.2232  0.1894 -1.0274
 2274SOL    HW118458   1.042   1.297  14.535 -0.0515  0.4058 -2.0306
 2274SOL    HW218459   0.921   1.232  14.501  2.4045 -1.1639  0.9233
 2275SOL     OW18460   0.847   2.329  17.515  0.3450  0.1858 -0.2602
 2275SOL    HW118461   0.909   2.296  17.450 -0.7239 -1.3019 -0.5245
 2275SOL    HW218462   0.765   2.308  17.470  0.0095 -1.3384  1.0865
 2276SOL     OW18463   4.188   2.470   8.765 -0.0183 -0.1227 -0.4974
 2276SOL    HW118464   4.208   2.376   8.774  2.2360  0.4634  0.6021
 2276SOL    HW218465   4.189   2.481   8.670  0.0145  0.4567 -0.4299
 2277SOL     OW18466   3.253   0.222  15.298 -0.3968 -0.1483 -0.0839
 2277SOL    HW118467   3.192   0.241  15.369 -0.9175  0.5850 -0.7410
 2277SOL    HW218468   3.240   0.283  15.226  1.1903 -1.2379 -1.2904
 2278SOL     OW18469   2.005   0.785   1.158  0.3000 -0.2584 -0.2347
 2278SOL    HW118470   1.916   0.798   1.127  1.0449  1.2534 -1.8133
 2278SOL    HW218471   2.042   0.716   1.103  4.0467 -0.8756  3.0699
 2279SOL     OW18472   1.043   1.406  17.521  0.6850 -0.2245 -0.2835
 2279SOL    HW118473   0.993   1.472  17.473  0.2277  1.8697  3.0576
 2279SOL    HW218474   1.069   1.456  17.598 -1.6312 -1.2344  1.1534
 2280SOL     OW18475   1.543   0.722   5.819 -0.3607 -0.2369  0.3796
 2280SOL    HW118476   1.459   0.728   5.774 -1.1407 -1.2484  1.6868
 2280SOL    HW218477   1.586   0.658   5.763  1.4473  1.9795 -0.7819
 2281SOL     OW18478   0.131   2.996   7.690  0.4674 -0.1597  0.0699
 2281SOL    HW118479   0.161   3.084   7.667  1.0767 -0.0003  1.5144
 2281SOL    HW218480   0.192   2.938   7.644 -0.1282 -0.4138 -0.4047
 2282SOL     OW18481   3.350   0.705  16.929  0.9255  0.4483 -0.0356
 2282SOL    HW118482   3.415   0.688  16.860 -0.6117  0.5726 -1.5194
 2282SOL    HW218483   3.396   0.694  17.012  0.5966 -1.3608 -0.0857
 2283SOL     OW18484   4.730   3.604  12.397 -0.1695 -0.2284  0.0316
 2283SOL    HW118485   4.696   3.687  12.365 -1.7491 -0.5588  0.8817
 2283SOL    HW218486   4.685   3.528  12.359  1.0994 -0.6972 -0.5548
 2284SOL     OW18487   1.366   2.135   0.396  0.2964  0.2747 -0.4726
 2284SOL    HW118488   1.446   2.123   0.346 -0.6152 -0.2966 -1.7818
 2284SOL    HW218489   1.389   2.080   0.471  0.8473  0.7304 -0.3095
 2285SOL     OW18490   0.603   1.573   2.812 -0.3340 -0.2699  0.0700
 2285SOL    HW118491   0.588   1.585   2.718 -0.3092  0.0108  0.1034
 2285SOL    HW218492   0.519   1.614   2.831  0.1571  1.1683 -0.8742
 2286SOL     OW18493   0.229   2.785   2.273 -0.1428 -0.0317 -0.0955
 2286SOL    HW118494   0.202   2.748   2.357  1.1189 -0.0546  0.3013
 2286SOL    HW218495   0.315   2.823   2.291 -0.3002  0.3703 -0.1929
 2287SOL     OW18496   1.135   0.060   1.138  0.6639  0.5779  0.3725
 2287SOL    HW118497   1.145   4.716   1.185 -0.5059  1.9708  3.0731
 2287SOL    HW218498   1.196   0.046   1.065  0.4105 -0.3479  0.3349
 2288SOL     OW18499   2.436   1.605  14.349 -0.5838  0.4739 -0.0370
 2288SOL    HW118500   2.350   1.645  14.357 -0.6838  0.0073  1.2805
 2288SOL    HW218501   2.415   1.512  14.353  0.8879  0.1075 -0.6523
 2289SOL     OW18502   2.766   1.653   2.295  0.1396 -1.1034  0.5954
 2289SOL    HW118503   2.759   1.573   2.347  1.9320 -2.9954 -2.0724
 2289SOL    HW218504   2.686   1.659   2.243  1.4432 -0.1859 -1.2861
 2290SOL     OW18505   0.843   3.326   4.450  0.5118 -0.1297 -0.1685
 2290SOL    HW118506   0.890   3.356   4.372  1.1321 -0.9319 -0.1032
 2290SOL    HW218507   0.753   3.337   4.419  0.7034  1.0275 -0.3414
 2291SOL     OW18508   3.860   4.104   7.498  0.3207 -0.0937 -0.6103
 2291SOL    HW118509   3.935   4.056   7.533 -0.5671 -0.7429  0.3898
 2291SOL    HW218510   3.876   4.186   7.544  1.7875 -0.8212  0.1855
 2292SOL     OW18511   1.586   3.178  15.666 -0.9315 -0.2943  0.0168
 2292SOL    HW118512   1.526   3.138  15.729 -0.8030 -1.0688 -0.3517
 2292SOL    HW218513   1.579   3.118  15.592 -2.6993  1.2456 -1.0943
 2293SOL     OW18514   4.110   2.184   2.042 -0.0556 -0.0782  0.1832
 2293SOL    HW118515   4.176   2.129   2.001 -1.8155 -0.6217 -1.9354
 2293SOL    HW218516   4.031   2.137   2.016  0.6642 -0.5508 -1.1466
 2294SOL     OW18517   2.220   1.844   8.858  0.2677  0.2719  0.0021
 2294SOL    HW118518   2.212   1.770   8.919  2.2711  2.2380  2.6166
 2294SOL    HW218519   2.148   1.824   8.797 -0.8589  1.8221  0.8302
 2295SOL     OW18520   4.052   2.836   2.867 -0.3924  0.2427  0.2525
 2295SOL    HW118521   4.046   2.799   2.778 -3.1516  1.3980 -0.0600
 2295SOL    HW218522   3.968   2.812   2.907  0.8333 -1.3643  1.8441
 2296SOL     OW18523   3.673   3.005  14.915  0.1953  0.4172 -0.2197
 2296SOL    HW118524   3.734   2.933  14.897 -1.9101 -1.6671  0.8314
 2296SOL    HW218525   3.606   2.961  14.967  2.0108 -0.9493  0.9377
 2297SOL     OW18526   4.054   0.390   9.070  0.1519  0.1249 -0.2540
 2297SOL    HW118527   4.015   0.432   9.147  1.6648  1.2724 -0.1215
 2297SOL    HW218528   4.126   0.451   9.054  1.1793 -0.3085  2.6322
 2298SOL     OW18529   4.201   0.765   2.450  0.0037 -0.1484  0.7274
 2298SOL    HW118530   4.276   0.823   2.440 -0.7244  0.2917 -2.4526
 2298SOL    HW218531   4.144   0.817   2.506  1.3629  2.4963 -0.3178
 2299SOL     OW18532   0.997   1.961  14.798  0.1946 -0.0514 -0.3554
 2299SOL    HW118533   1.080   1.968  14.750 -0.1595 -0.1246 -0.9778
 2299SOL    HW218534   1.025   1.978  14.888  0.3855  1.4455 -0.6931
 2300SOL     OW18535   1.322   4.722  14.890  0.7261 -0.0184  0.5241
 2300SOL    HW118536   1.392   4.703  14.952  0.3785  0.6226  1.1194
 2300SOL    HW218537   1.373   4.708  14.810  0.5940 -1.1194  0.6329
 2301SOL     OW18538   2.756   1.807   5.332  0.1351  0.3898 -0.3148
 2301SOL    HW118539   2.746   1.900   5.311 -0.5876  0.1204 -1.1510
 2301SOL    HW218540   2.785   1.820   5.423 -3.7392  1.3126  0.7973
 2302SOL     OW18541   3.326   0.284  15.599  0.2159  0.2140 -0.0167
 2302SOL    HW118542   3.388   0.237  15.543 -0.4237 -0.1389 -0.4207
 2302SOL    HW218543   3.315   0.371  15.561  1.0321 -0.3779 -1.6119
 2303SOL     OW18544   2.834   0.810   6.267 -0.2132  0.0439  0.0337
 2303SOL    HW118545   2.915   0.821   6.217  1.0282  0.7861  2.2162
 2303SOL    HW218546   2.860   0.834   6.356  0.1986  1.0723 -0.3605
 2304SOL     OW18547   1.385   2.943  15.178 -0.4432 -0.7447 -0.6815
 2304SOL    HW118548   1.394   2.855  15.143  2.5118 -1.4596  1.9236
 2304SOL    HW218549   1.295   2.941  15.212 -0.6639 -1.2461 -1.3061
 2305SOL     OW18550   3.480   1.144   3.900  0.6016  0.3931 -0.3926
 2305SOL    HW118551   3.471   1.236   3.876 -0.1071 -0.1715 -2.2481
 2305SOL    HW218552   3.493   1.147   3.995  1.1240  1.2998 -0.4963
 2306SOL     OW18553   3.106   4.068   3.085 -0.0347  0.1828  0.5907
 2306SOL    HW118554   3.192   4.066   3.043 -1.7283 -0.0750 -2.9277
 2306SOL    HW218555   3.060   4.019   3.017  0.1016  0.1039  0.5547
 2307SOL     OW18556   1.088   2.954   0.888  0.7012  0.3453  0.1228
 2307SOL    HW118557   1.093   3.010   0.811  0.2948 -1.1335 -0.9981
 2307SOL    HW218558   0.992   2.948   0.891  0.7643 -0.0962  1.2478
 2308SOL     OW18559   0.051   0.640   6.233 -0.1192 -0.3929  0.0413
 2308SOL    HW118560   0.105   0.689   6.295 -3.4435  3.0821  0.1908
 2308SOL    HW218561   4.731   0.596   6.292 -1.4788 -0.9616 -1.7482
 2309SOL     OW18562   2.808   2.408  16.658 -0.3637 -0.3769  0.1184
 2309SOL    HW118563   2.842   2.488  16.699  1.5821  0.7674 -3.7385
 2309SOL    HW218564   2.887   2.376  16.614  1.0464  1.0485  1.6324
 2310SOL     OW18565   4.586   0.723  11.275 -0.6899 -0.5343  0.0198
 2310SOL    HW118566   4.557   0.677  11.196 -0.9283  0.6656 -0.5908
 2310SOL    HW218567   4.544   0.672  11.344 -1.2448  0.5694  0.4962
 2311SOL     OW18568   2.046   2.872   7.386 -0.4182  0.1062  0.5584
 2311SOL    HW118569   2.010   2.861   7.474 -1.1291 -2.1200 -0.0299
 2311SOL    HW218570   1.990   2.940   7.349  0.3911  0.2023 -0.4857
 2312SOL     OW18571   0.842   2.061   7.652 -0.0374  1.1886  0.0864
 2312SOL    HW118572   0.794   1.979   7.665  0.1908  1.1194  0.4712
 2312SOL    HW218573   0.916   2.035   7.596  0.2836 -1.8523  1.9458
 2313SOL     OW18574   0.537   1.523   1.802 -0.0750  0.2059  0.6725
 2313SOL    HW118575   0.441   1.524   1.803 -0.1357 -4.5715 -0.1405
 2313SOL    HW218576   0.550   1.600   1.745  0.3834 -0.6848 -0.4183
 2314SOL     OW18577   1.903   0.842   6.541  0.2651 -0.0662 -0.0907
 2314SOL    HW118578   1.963   0.768   6.537  2.0724  1.4404 -0.9100
 2314SOL    HW218579   1.819   0.798   6.549  0.6959 -0.8637  0.1051
 2315SOL     OW18580   0.960   0.440   8.952  0.3560  0.5759  0.1697
 2315SOL    HW118581   0.896   0.396   9.007 -0.5133  1.1288 -0.3955
 2315SOL    HW218582   0.942   0.407   8.864  0.5406  1.3049 -0.1507
 2316SOL     OW18583   3.730   1.013   7.611 -0.3953 -0.0548  0.2758
 2316SOL    HW118584   3.705   1.088   7.557  2.5253  1.0382  0.4817
 2316SOL    HW218585   3.656   1.030   7.670 -1.5240  0.4547 -1.2622
 2317SOL     OW18586   0.764   0.473  13.573 -0.1004  0.3935  0.2005
 2317SOL    HW118587   0.718   0.557  13.581 -1.7299 -0.2996 -1.7868
 2317SOL    HW218588   0.838   0.499  13.519  0.6157 -0.9669  0.5339
 2318SOL     OW18589   3.348   0.608   2.252  0.0324 -0.6727 -0.3409
 2318SOL    HW118590   3.431   0.572   2.222  0.0221  0.0514 -1.2097
 2318SOL    HW218591   3.299   0.532   2.287  0.4650 -1.9939 -2.6331
 2319SOL     OW18592   0.792   1.187  13.449 -0.0104 -0.3134  0.1042
 2319SOL    HW118593   0.706   1.191  13.490 -0.1343  0.5176 -0.2461
 2319SOL    HW218594   0.839   1.253  13.500 -0.1267  0.5519 -0.9089
 2320SOL     OW18595   4.152   0.726   3.331  0.4827 -0.1499  0.0252
 2320SOL    HW118596   4.238   0.768   3.328  0.2974  0.3060  1.1352
 2320SOL    HW218597   4.133   0.747   3.239  2.5682  0.1693 -0.3206
 2321SOL     OW18598   3.173   0.829   2.193 -0.2869 -0.2727 -0.1265
 2321SOL    HW118599   3.251   0.774   2.182 -2.2169 -3.4083  1.8239
 2321SOL    HW218600   3.128   0.789   2.267 -0.0915  0.7243  0.5255
 2322SOL     OW18601   0.938   3.499  13.398  0.2120  0.3074  0.0700
 2322SOL    HW118602   0.916   3.570  13.459 -1.7925  1.0262 -1.5028
 2322SOL    HW218603   1.032   3.486  13.409  0.1211 -0.3115  0.0962
 2323SOL     OW18604   2.411   4.431  13.530  0.1073  0.1154  0.5648
 2323SOL    HW118605   2.492   4.471  13.563  0.1000  0.4896  0.1287
 2323SOL    HW218606   2.441   4.397  13.446  0.2884  1.7365 -0.0287
 2324SOL     OW18607   3.980   2.443   5.538 -0.3165 -0.0059  0.0806
 2324SOL    HW118608   4.066   2.413   5.568 -0.8146 -2.4977 -1.0034
 2324SOL    HW218609   3.918   2.442   5.610 -0.6883 -2.3369 -0.2600
 2325SOL     OW18610   1.843   2.743   7.595  0.0631 -0.3453  0.2687
 2325SOL    HW118611   1.844   2.803   7.669 -1.3135  2.0776 -1.6570
 2325SOL    HW218612   1.750   2.760   7.579  0.8506  2.9932 -0.8097
 2326SOL     OW18613   2.296   1.232   3.730 -0.1506  0.6193 -0.3825
 2326SOL    HW118614   2.353   1.156   3.719 -0.0467  0.5637  0.4904
 2326SOL    HW218615   2.351   1.267   3.800  1.7462 -0.0598 -1.5465
 2327SOL     OW18616   0.536   4.575  15.906 -0.0201  0.0460 -0.4298
 2327SOL    HW118617   0.516   4.485  15.878 -0.4298 -0.0230  0.0763
 2327SOL    HW218618   0.494   4.572  15.992 -0.0447  1.0367 -0.4049
 2328SOL     OW18619   0.954   0.698   9.177  0.7453 -0.1307  0.2358
 2328SOL    HW118620   0.921   0.609   9.163  0.2781 -0.2054  1.7108
 2328SOL    HW218621   0.902   0.723   9.254  0.1239  0.0954 -0.2631
 2329SOL     OW18622   1.766   2.282  16.310  0.1933 -0.8045  0.5033
 2329SOL    HW118623   1.757   2.355  16.371 -0.1786  0.7124 -1.3798
 2329SOL    HW218624   1.694   2.296  16.248 -0.5689 -1.2629  1.2866
 2330SOL     OW18625   2.568   2.439   6.443 -0.4159 -0.3856 -0.0643
 2330SOL    HW118626   2.531   2.402   6.363 -3.6137  2.1111  0.2476
 2330SOL    HW218627   2.618   2.511   6.406  0.6286 -0.4256  1.2523
 2331SOL     OW18628   0.320   4.182   3.063 -0.2472 -0.4488 -0.1390
 2331SOL    HW118629   0.258   4.243   3.103  0.8020  0.5683 -0.0482
 2331SOL    HW218630   0.273   4.152   2.985 -1.4962  0.7523  0.1560
 2332SOL     OW18631   3.381   4.622   2.964  0.1943 -0.0980 -0.0791
 2332SOL    HW118632   3.390   4.642   3.057 -0.3349  2.1160 -0.5165
 2332SOL    HW218633   3.377   4.526   2.967  1.6378 -0.1863 -0.9141
 2333SOL     OW18634   2.038   4.677   6.469 -0.0744 -0.1099 -0.0587
 2333SOL    HW118635   1.958   4.703   6.424 -0.9926  0.3846  1.8294
 2333SOL    HW218636   1.991   4.630   6.538 -1.3153  0.9309 -0.1904
 2334SOL     OW18637   0.176   4.161   5.752  0.2310  0.3264  0.1160
 2334SOL    HW118638   0.235   4.087   5.763 -0.1229 -0.0644 -0.6394
 2334SOL    HW218639   0.183   4.170   5.656 -3.4414  0.7580 -0.0808
 2335SOL     OW18640   4.265   2.943  15.608 -0.4139  0.0046 -0.4488
 2335SOL    HW118641   4.350   2.907  15.584  0.3622  1.9392 -0.6036
 2335SOL    HW218642   4.239   2.862  15.652  0.8513  0.5334  1.2510
 2336SOL     OW18643   1.687   1.240   5.044  0.3499  0.1676  0.0848
 2336SOL    HW118644   1.671   1.316   4.988 -0.0646  1.2593  1.6789
 2336SOL    HW218645   1.686   1.161   4.990 -1.4631 -0.0042  0.3441
 2337SOL     OW18646   2.849   2.620   2.419 -0.0899 -0.3281  0.8765
 2337SOL    HW118647   2.859   2.582   2.506  2.3931 -0.4397  0.5384
 2337SOL    HW218648   2.941   2.637   2.397 -0.4911  0.2605 -0.3430
 2338SOL     OW18649   4.544   2.931   4.573  0.2967  0.7799  0.1918
 2338SOL    HW118650   4.605   2.991   4.615  0.9971 -0.4453  0.9377
 2338SOL    HW218651   4.561   2.943   4.479 -0.6957 -2.3493 -0.4164
 2339SOL     OW18652   4.683   1.445   6.702  0.0975 -0.0695 -0.0075
 2339SOL    HW118653   4.733   1.502   6.761  0.3600 -0.7038  0.3824
 2339SOL    HW218654   4.691   1.355   6.735  0.3136  0.0696  0.3179
 2340SOL     OW18655   0.066   4.033  11.483  0.0625 -0.0437  0.0615
 2340SOL    HW118656   4.713   4.044  11.463 -0.3105 -2.1952  0.5928
 2340SOL    HW218657   0.073   4.077  11.568 -2.3814  0.7598 -0.1660
 2341SOL     OW18658   1.224   1.779   1.421  0.3308 -0.2441  0.1287
 2341SOL    HW118659   1.231   1.700   1.367  2.0971  0.1101 -0.1489
 2341SOL    HW218660   1.302   1.762   1.474  0.6256 -0.0826 -0.2553
 2342SOL     OW18661   3.468   0.800   8.918 -0.1908 -0.4068  0.2491
 2342SOL    HW118662   3.498   0.735   8.981  1.3761  1.5156  1.5094
 2342SOL    HW218663   3.505   0.884   8.947 -0.8767 -0.4797  1.3516
 2343SOL     OW18664   0.922   3.066   4.282 -0.1708  0.0700 -0.5358
 2343SOL    HW118665   0.855   3.135   4.280 -2.5849 -2.2214  1.5621
 2343SOL    HW218666   0.939   3.079   4.376 -0.2502  0.9796 -0.6426
 2344SOL     OW18667   1.424   1.148   6.226 -0.8792 -0.3523 -0.2650
 2344SOL    HW118668   1.437   1.098   6.146 -1.5404 -0.0042 -0.5946
 2344SOL    HW218669   1.431   1.238   6.194 -1.6313 -0.5547 -0.9952
 2345SOL     OW18670   1.542   0.737   3.168 -0.3245  0.3542 -0.9230
 2345SOL    HW118671   1.491   0.684   3.229  0.4142 -1.7972 -2.1669
 2345SOL    HW218672   1.480   0.744   3.096 -0.3978 -0.5447 -0.9450
 2346SOL     OW18673   2.378   1.459   7.884 -0.2819 -0.4867 -0.1326
 2346SOL    HW118674   2.449   1.438   7.824  0.9272  4.7869 -0.6150
 2346SOL    HW218675   2.396   1.401   7.958 -1.9171 -0.9975 -0.1378
 2347SOL     OW18676   3.878   0.394   8.537  0.6973  0.2866  0.5657
 2347SOL    HW118677   3.860   0.400   8.631 -0.2962  1.2604  0.3222
 2347SOL    HW218678   3.904   0.485   8.521  1.8326  0.0532  1.1310
 2348SOL     OW18679   4.149   4.060   7.318  0.1342  0.9927  0.0256
 2348SOL    HW118680   4.061   4.025   7.303  0.5610 -0.9364  1.8128
 2348SOL    HW218681   4.146   4.142   7.270 -0.2022  0.2601 -1.1921
 2349SOL     OW18682   2.944   2.590  11.988 -0.4535  0.4771 -0.0204
 2349SOL    HW118683   2.979   2.505  11.963 -1.0670  0.7281 -1.7779
 2349SOL    HW218684   2.922   2.578  12.080 -0.0310  0.6800  0.1065
 2350SOL     OW18685   1.806   1.344   3.088 -0.4167  0.2025  0.0459
 2350SOL    HW118686   1.887   1.383   3.054 -0.4274 -0.1520 -0.3680
 2350SOL    HW218687   1.806   1.386   3.175 -0.9625 -0.3297  0.3019
 2351SOL     OW18688   3.552   1.862   8.274  0.0577 -0.1932  0.2665
 2351SOL    HW118689   3.541   1.949   8.312 -4.0618 -0.6525  0.0692
 2351SOL    HW218690   3.463   1.826   8.277  0.1460 -0.3216  1.3520
 2352SOL     OW18691   3.756   1.986   2.651  0.0969  0.1183  0.2208
 2352SOL    HW118692   3.720   1.903   2.685 -0.6156  1.1937  2.0888
 2352SOL    HW218693   3.766   1.971   2.557 -3.1254 -0.5193 -0.0037
 2353SOL     OW18694   1.076   1.373  13.519  0.3314 -0.1414 -0.6225
 2353SOL    HW118695   1.127   1.454  13.509  1.1342 -0.5319  0.2985
 2353SOL    HW218696   1.063   1.346  13.428  1.0679  1.4225 -1.1925
 2354SOL     OW18697   0.544   1.968   6.600 -0.4353  0.3163  0.1270
 2354SOL    HW118698   0.471   1.911   6.627  1.0138  0.1298  3.5798
 2354SOL    HW218699   0.502   2.053   6.610  0.9047  1.0139 -0.2503
 2355SOL     OW18700   1.452   4.207  12.000  0.4326  0.3639 -0.4998
 2355SOL    HW118701   1.438   4.158  12.081 -1.4738  1.8500  0.0500
 2355SOL    HW218702   1.531   4.250  12.031  0.6106 -0.7699  0.6028
 2356SOL     OW18703   0.231   1.144   6.144 -0.2040 -0.1678 -0.9244
 2356SOL    HW118704   0.308   1.176   6.096 -0.0038  0.9917  0.1727
 2356SOL    HW218705   0.227   1.052   6.120 -0.5860 -0.0478 -1.3256
 2357SOL     OW18706   4.732   1.322   1.969 -0.4016 -0.5031  0.4353
 2357SOL    HW118707   4.644   1.285   1.964 -0.0960 -1.0373 -0.9518
 2357SOL    HW218708   0.003   1.336   1.875 -1.2692 -0.8012  0.2930
 2358SOL     OW18709   2.117   1.304   0.519  0.0713  0.4168 -0.2014
 2358SOL    HW118710   2.190   1.262   0.473 -0.8489 -1.5468  0.1381
 2358SOL    HW218711   2.041   1.297   0.462 -0.2957  1.3589  0.1782
 2359SOL     OW18712   3.733   0.204  17.615  0.1908  0.0888  0.1996
 2359SOL    HW118713   3.826   0.197  17.592 -0.3160 -3.3415 -0.7794
 2359SOL    HW218714   3.719   0.247  17.700  2.6255 -2.1397  1.7298
 2360SOL     OW18715   1.259   0.691  10.180  0.4365  0.2138  0.2043
 2360SOL    HW118716   1.229   0.695  10.270  0.6108 -0.4500  0.2934
 2360SOL    HW218717   1.347   0.655  10.191  1.5410  2.5437 -0.9220
 2361SOL     OW18718   1.072   0.357   6.303  0.0334  0.1245 -0.1691
 2361SOL    HW118719   1.034   0.365   6.215 -0.1609 -2.3584 -0.3254
 2361SOL    HW218720   0.996   0.311   6.340  0.8119 -0.5401  0.5944
 2362SOL     OW18721   1.098   1.568  13.238 -0.3833 -0.0904  0.3514
 2362SOL    HW118722   1.114   1.659  13.259 -0.8240 -0.2245  1.2716
 2362SOL    HW218723   1.187   1.534  13.250 -0.1883  0.6687  1.0146
 2363SOL     OW18724   4.420   3.596   8.353 -0.3892  0.3141 -0.7562
 2363SOL    HW118725   4.435   3.675   8.302  0.1292 -0.0834 -1.2289
 2363SOL    HW218726   4.329   3.586   8.382 -0.0850  0.4816  0.2608
 2364SOL     OW18727   0.470   1.558   3.753  0.1649  0.2587  0.1268
 2364SOL    HW118728   0.545   1.590   3.704 -0.4066 -0.8099 -1.4469
 2364SOL    HW218729   0.473   1.464   3.735 -0.7574  0.5424 -1.4697
 2365SOL     OW18730   2.753   1.608  15.025  0.1141 -0.0918 -0.6932
 2365SOL    HW118731   2.846   1.612  15.001  0.6040 -1.0528  0.9639
 2365SOL    HW218732   2.753   1.513  15.037  0.0244  0.0272  0.2409
 2366SOL     OW18733   0.409   2.191   8.344  0.3233  0.1207 -0.0122
 2366SOL    HW118734   0.331   2.245   8.355 -1.4474 -2.6425  1.0436
 2366SOL    HW218735   0.399   2.140   8.263 -2.0566  0.1343  0.2901
 2367SOL     OW18736   1.070   2.352  16.316  0.2044  0.1561 -0.1069
 2367SOL    HW118737   1.158   2.338  16.282 -0.1661 -0.4458 -0.8215
 2367SOL    HW218738   1.006   2.296  16.272 -0.2004  1.5675 -1.3127
 2368SOL     OW18739   0.128   3.121  12.132 -0.2484 -0.0252  0.0731
 2368SOL    HW118740   0.129   3.139  12.226  0.0840  0.8954 -0.1037
 2368SOL    HW218741   0.215   3.083  12.121 -1.0174 -2.0917  1.1185
 2369SOL     OW18742   4.520   1.283   4.373 -0.6018 -0.1295  0.1755
 2369SOL    HW118743   4.577   1.210   4.398 -1.0146 -0.2549  0.7499
 2369SOL    HW218744   4.581   1.343   4.331 -1.5012 -0.6942 -1.9542
 2370SOL     OW18745   2.536   4.263   8.449  0.0357 -0.3552  0.0916
 2370SOL    HW118746   2.579   4.246   8.365  0.3897 -3.5248  0.8808
 2370SOL    HW218747   2.444   4.283   8.430  0.4614  1.4229 -0.0526
 2371SOL     OW18748   4.058   1.169   9.356  0.0078 -0.0071 -0.0814
 2371SOL    HW118749   3.988   1.233   9.367  0.2056  0.1272  0.4146
 2371SOL    HW218750   4.020   1.116   9.426 -1.4587  1.0317 -0.0984
 2372SOL     OW18751   0.333   2.634   6.732 -0.0691  0.0858  0.0698
 2372SOL    HW118752   0.282   2.710   6.704 -0.3979 -0.7185 -1.4939
 2372SOL    HW218753   0.272   2.572   6.773  0.8733 -1.3806 -0.7523
 2373SOL     OW18754   1.906   2.524   1.191  0.5747 -0.0606 -0.2892
 2373SOL    HW118755   1.856   2.604   1.174 -0.1838 -0.7172 -1.1555
 2373SOL    HW218756   1.849   2.461   1.146 -0.9078  0.6273  0.6013
 2374SOL     OW18757   3.594   1.905   5.999  0.1909 -0.1536  0.1350
 2374SOL    HW118758   3.679   1.890   6.041 -0.2866 -2.4525  0.2969
 2374SOL    HW218759   3.580   1.818   5.960  0.0956  0.7270 -1.8014
 2375SOL     OW18760   3.903   0.237   2.701  0.0363  0.3266  0.3824
 2375SOL    HW118761   3.919   0.227   2.607 -1.0192 -0.7340  0.3094
 2375SOL    HW218762   3.960   0.169   2.737  1.8244  0.7473 -1.6701
 2376SOL     OW18763   1.011   2.306   1.782  0.3503 -0.2270  0.0946
 2376SOL    HW118764   0.946   2.324   1.850  1.3230  0.6595  0.7997
 2376SOL    HW218765   1.072   2.264   1.842 -0.0138  0.8180  1.1910
 2377SOL     OW18766   3.213   0.399   7.514  0.3368  0.0799  0.4521
 2377SOL    HW118767   3.259   0.332   7.464 -0.8707  0.5428 -1.2615
 2377SOL    HW218768   3.168   0.450   7.446 -0.4927  1.3459  1.9213
 2378SOL     OW18769   3.405   2.776   6.787 -0.6720 -0.0853 -0.8197
 2378SOL    HW118770   3.367   2.849   6.738 -1.5691  0.6977  1.0123
 2378SOL    HW218771   3.331   2.751   6.843 -0.0548  0.1703  0.1189
 2379SOL     OW18772   2.283   4.121   1.195  0.0545 -0.1111  0.1674
 2379SOL    HW118773   2.359   4.124   1.136  0.2080 -0.2492  0.3568
 2379SOL    HW218774   2.325   4.117   1.281 -2.1509  1.1729  1.3010
 2380SOL     OW18775   1.233   3.883   0.129 -0.4648 -0.2230  0.6207
 2380SOL    HW118776   1.179   3.849   0.058  0.4383  0.6080 -0.4637
 2380SOL    HW218777   1.195   3.967   0.152  0.3963  0.1918  0.5519
 2381SOL     OW18778   1.403   2.949   6.135  0.3978  0.2599  0.1589
 2381SOL    HW118779   1.314   2.983   6.145  0.1751 -0.7323  1.7273
 2381SOL    HW218780   1.462   3.009   6.181 -1.5457  2.8401 -0.7211
 2382SOL     OW18781   2.666   2.607   5.310  0.2787 -0.3846  0.1586
 2382SOL    HW118782   2.619   2.632   5.231  0.6157 -0.3313 -0.0253
 2382SOL    HW218783   2.674   2.512   5.318 -0.1625 -0.3622  0.8522
 2383SOL     OW18784   1.613   3.355   6.067 -0.4240  0.0234  0.0813
 2383SOL    HW118785   1.606   3.297   5.991  0.4483 -2.4615  1.8944
 2383SOL    HW218786   1.703   3.385   6.057 -0.5888  0.6439  0.4403
 2384SOL     OW18787   1.956   0.409   7.594  0.5830 -0.3654  0.1210
 2384SOL    HW118788   1.880   0.465   7.607 -0.8246 -2.1359 -0.4706
 2384SOL    HW218789   2.012   0.480   7.562 -1.4257  0.9084 -0.5500
 2385SOL     OW18790   2.193   2.910   4.306 -0.3045 -0.2735  0.1118
 2385SOL    HW118791   2.180   2.926   4.399 -0.0485 -1.1550  0.2992
 2385SOL    HW218792   2.273   2.856   4.306 -1.4061 -1.9050  0.6827
 2386SOL     OW18793   1.086   0.204   7.907  0.0551 -0.1402 -0.8366
 2386SOL    HW118794   1.035   0.127   7.934 -1.4677  0.9960 -0.4446
 2386SOL    HW218795   1.102   0.241   7.994 -0.7699 -0.9141 -0.3524
 2387SOL     OW18796   0.842   3.828   1.731 -0.6820 -0.1428 -0.0185
 2387SOL    HW118797   0.806   3.915   1.748  0.4933  0.6406 -1.5372
 2387SOL    HW218798   0.889   3.808   1.811  1.2442 -1.4159 -1.4821
 2388SOL     OW18799   2.054   0.122  10.296 -0.4073 -0.4200  0.2742
 2388SOL    HW118800   2.146   0.134  10.319 -0.0697  0.2078 -1.4802
 2388SOL    HW218801   2.019   0.201  10.337  1.2980  0.7393 -0.5004
 2389SOL     OW18802   2.775   4.306   8.220 -0.4214 -0.0710  0.8045
 2389SOL    HW118803   2.853   4.361   8.208  0.6804 -1.8858 -0.3126
 2389SOL    HW218804   2.801   4.268   8.303 -1.9540  0.1087  1.3541
 2390SOL     OW18805   4.273   4.672  11.205  0.3145 -0.0803  0.4540
 2390SOL    HW118806   4.310   4.675  11.117 -0.4545 -0.3496  0.1187
 2390SOL    HW218807   4.348   4.624  11.240  1.4827  1.4802  0.1010
 2391SOL     OW18808   3.378   3.607   2.987 -0.4162  0.3038  0.8347
 2391SOL    HW118809   3.381   3.654   3.070 -1.4159  2.3071 -0.2364
 2391SOL    HW218810   3.298   3.554   2.989  1.5186 -2.5441  2.2633
 2392SOL     OW18811   1.552   3.078   1.796  0.2561 -1.2086  0.2741
 2392SOL    HW118812   1.633   3.029   1.779  0.8766 -0.0979  0.0284
 2392SOL    HW218813   1.502   3.072   1.714  1.3166  0.1606 -0.4737
 2393SOL     OW18814   3.262   3.395   7.961  0.2307 -0.5317 -0.0816
 2393SOL    HW118815   3.336   3.422   7.907 -0.5339  0.0133 -0.8484
 2393SOL    HW218816   3.241   3.309   7.923  1.1649 -1.2792  1.1017
 2394SOL     OW18817   2.266   3.899   4.097 -0.4688 -0.6753  0.0351
 2394SOL    HW118818   2.286   3.895   4.003  1.0807 -0.2606  0.3557
 2394SOL    HW218819   2.223   3.984   4.110 -0.0264 -0.1852 -1.7209
 2395SOL     OW18820   1.396   0.194   1.892  0.1001  0.1239  0.2061
 2395SOL    HW118821   1.303   0.211   1.906  0.1485 -0.3041  1.0391
 2395SOL    HW218822   1.446   0.258   1.942 -2.0437  1.8694  0.1458
 2396SOL     OW18823   2.427   1.066   4.192  0.3913  0.3507 -0.7763
 2396SOL    HW118824   2.362   1.131   4.166 -0.4750 -0.8167 -1.5698
 2396SOL    HW218825   2.486   1.125   4.238  1.2863 -0.3709 -0.9789
 2397SOL     OW18826   2.978   0.043   5.985  0.3465  0.4094  0.1260
 2397SOL    HW118827   2.939   0.023   6.070  0.9490 -0.7484  0.1295
 2397SOL    HW218828   3.060   4.734   5.978 -0.5397 -0.9027 -0.9994
 2398SOL     OW18829   2.901   2.635  16.761  0.2219 -0.2947 -0.6400
 2398SOL    HW118830   2.951   2.623  16.842 -0.6824 -0.4499 -0.1048
 2398SOL    HW218831   2.952   2.704  16.719  2.6767 -0.9316  1.3183
 2399SOL     OW18832   4.551   0.900   9.388  0.5855 -0.1644 -0.5753
 2399SOL    HW118833   4.474   0.892   9.444  2.2008 -0.0886  1.6756
 2399SOL    HW218834   4.621   0.920   9.451 -1.4037  1.7107  1.0710
 2400SOL     OW18835   2.244   1.832  12.758 -0.5148  0.4268 -0.0915
 2400SOL    HW118836   2.319   1.893  12.760  1.0619 -1.5027 -0.4303
 2400SOL    HW218837   2.286   1.771  12.819 -0.1809  0.2747 -0.4756
 2401SOL     OW18838   1.731   2.639   7.306 -0.0038  0.1270  0.4724
 2401SOL    HW118839   1.681   2.663   7.228  0.1269 -1.6672 -0.1677
 2401SOL    HW218840   1.664   2.617   7.370 -0.1997 -2.9874 -0.8020
 2402SOL     OW18841   2.772   4.096  17.518  0.0035  0.3043 -0.3309
 2402SOL    HW118842   2.724   4.045  17.583 -0.5567  0.2951 -0.7542
 2402SOL    HW218843   2.722   4.084  17.437  0.2966 -2.0250 -0.1558
 2403SOL     OW18844   1.402   4.277   4.846 -0.6034  0.0451 -0.5575
 2403SOL    HW118845   1.472   4.293   4.783 -1.0907  3.7573 -0.1698
 2403SOL    HW218846   1.336   4.261   4.779  1.9633 -3.7793 -2.1553
 2404SOL     OW18847   2.178   4.466   2.367  0.5801  0.1334 -0.0628
 2404SOL    HW118848   2.255   4.421   2.330  1.0326  0.0581  0.9872
 2404SOL    HW218849   2.213   4.550   2.395 -1.3843  0.1749  2.2407
 2405SOL     OW18850   0.980   4.383  16.664  0.7065 -0.6048 -0.3305
 2405SOL    HW118851   0.891   4.348  16.669 -0.1233  1.6490  0.2522
 2405SOL    HW218852   1.034   4.304  16.666  1.7836  0.1390 -0.3850
 2406SOL     OW18853   0.962   0.573   7.870 -0.5598  0.4013  0.3793
 2406SOL    HW118854   0.905   0.496   7.873 -1.5646  1.1415  0.2431
 2406SOL    HW218855   0.892   0.634   7.894  0.1805  0.5522  2.1177
 2407SOL     OW18856   2.823   3.295   4.481 -0.1911 -0.1009 -0.0763
 2407SOL    HW118857   2.750   3.302   4.542  0.1723  0.6281  0.2758
 2407SOL    HW218858   2.778   3.250   4.409 -2.6757  1.5930  0.4319
 2408SOL     OW18859   1.492   1.552   6.811 -0.0405  0.5246  0.2581
 2408SOL    HW118860   1.535   1.635   6.789 -3.2254  1.9483 -0.5743
 2408SOL    HW218861   1.531   1.492   6.746 -0.0974  0.6926  0.0693
 2409SOL     OW18862   0.327   2.754   7.057  0.2798 -0.1050 -0.4557
 2409SOL    HW118863   0.402   2.740   7.000  2.1175 -0.0644  1.9265
 2409SOL    HW218864   0.333   2.680   7.118  0.4813 -0.4383 -0.8848
 2410SOL     OW18865   2.890   3.785   4.497  0.7559  0.2039 -0.1242
 2410SOL    HW118866   2.902   3.808   4.405  1.3050  0.0862 -0.0830
 2410SOL    HW218867   2.846   3.865   4.526 -0.3062  0.0006 -1.2165
 2411SOL     OW18868   0.819   0.450   1.308 -0.6304 -0.4221  0.0279
 2411SOL    HW118869   0.888   0.389   1.282 -1.0141  0.0040 -1.9710
 2411SOL    HW218870   0.738   0.409   1.279 -1.1053  0.7604 -0.3192
 2412SOL     OW18871   3.795   4.524  17.359 -0.1416 -0.4662 -0.4549
 2412SOL    HW118872   3.824   4.614  17.343 -0.9763 -0.4028 -1.5869
 2412SOL    HW218873   3.771   4.511  17.268  1.2042 -2.4570 -0.5288
 2413SOL     OW18874   0.832   1.715   2.885 -0.3789 -0.0643 -0.3400
 2413SOL    HW118875   0.744   1.738   2.853  0.1952  1.6189 -0.7162
 2413SOL    HW218876   0.841   1.621   2.870  3.9712  0.1106  1.4190
 2414SOL     OW18877   3.372   0.900   5.598  0.2765  0.5562 -0.3020
 2414SOL    HW118878   3.458   0.926   5.564  0.2830  0.3377 -0.4496
 2414SOL    HW218879   3.338   0.979   5.640  0.9995  0.1623  1.0412
 2415SOL     OW18880   4.153   0.883  12.490 -0.0047  0.0324 -1.1578
 2415SOL    HW118881   4.225   0.936  12.525  0.3257 -1.2785  0.1254
 2415SOL    HW218882   4.080   0.930  12.530  1.7483 -0.5890  2.7143
 2416SOL     OW18883   0.545   2.762   6.902 -0.1856 -0.6289  0.1720
 2416SOL    HW118884   0.537   2.730   6.813  0.1794 -0.7649  0.1898
 2416SOL    HW218885   0.623   2.818   6.903  0.1916 -1.1487 -0.0525
 2417SOL     OW18886   4.532   3.743   3.683 -0.3798 -0.2036 -0.4185
 2417SOL    HW118887   4.539   3.838   3.690  0.4352 -0.0996 -2.7334
 2417SOL    HW218888   4.619   3.728   3.721  0.7927 -0.6765 -3.3335
 2418SOL     OW18889   3.646   0.249   9.907  0.1992 -0.2301 -0.1025
 2418SOL    HW118890   3.717   0.306   9.937  1.3623 -2.3745  1.2452
 2418SOL    HW218891   3.669   0.162   9.940  0.1810 -0.6753 -1.2934
 2419SOL     OW18892   1.064   1.325   7.399  0.1163 -0.6858 -0.2311
 2419SOL    HW118893   1.037   1.251   7.345  0.9234 -1.3543  0.2807
 2419SOL    HW218894   1.154   1.345   7.375  0.9662  0.1518  3.5838
 2420SOL     OW18895   3.985   3.679   5.486  0.0383  0.0671 -0.1272
 2420SOL    HW118896   3.988   3.757   5.541 -0.3853  0.5368 -0.7660
 2420SOL    HW218897   4.074   3.653   5.464  0.0433 -2.2448  2.5597
 2421SOL     OW18898   1.906   1.982   3.669  0.0906 -0.0935 -0.0641
 2421SOL    HW118899   1.906   2.017   3.580  1.9212  0.5124  0.1644
 2421SOL    HW218900   1.861   2.055   3.711 -0.8707 -1.3903  1.1816
 2422SOL     OW18901   0.716   2.878   6.258 -0.2020  0.0161  0.2248
 2422SOL    HW118902   0.776   2.944   6.223 -0.3340  0.3497  0.6367
 2422SOL    HW218903   0.653   2.926   6.311  0.3851 -1.0969  1.9234
 2423SOL     OW18904   1.923   0.873  13.407  0.0569 -0.2921  0.3539
 2423SOL    HW118905   1.884   0.948  13.454  1.5418 -0.0730  1.2391
 2423SOL    HW218906   1.848   0.814  13.399 -0.8566  1.0148 -0.6925
 2424SOL     OW18907   2.581   1.604   5.808  0.8928  0.5575 -0.2370
 2424SOL    HW118908   2.541   1.685   5.776 -2.2461 -0.5674  0.8113
 2424SOL    HW218909   2.537   1.574   5.887  0.7141  1.3516 -0.0342
 2425SOL     OW18910   4.578   4.423   7.490 -0.2885 -0.7268 -0.4011
 2425SOL    HW118911   4.617   4.337   7.508  1.0954  0.1812  0.9254
 2425SOL    HW218912   4.583   4.423   7.394  0.1563 -0.9251 -0.3796
 2426SOL     OW18913   1.247   1.947   5.924 -0.1263 -0.3159  0.1809
 2426SOL    HW118914   1.207   2.034   5.926  0.3084 -0.1598  2.0531
 2426SOL    HW218915   1.298   1.944   6.004  1.6046 -1.2418 -0.9502
 2427SOL     OW18916   1.178   0.992   8.514  0.0267  0.0817  0.4416
 2427SOL    HW118917   1.135   1.072   8.483 -0.8486 -0.6256 -0.1704
 2427SOL    HW218918   1.142   0.988   8.603  0.2707 -1.3549  0.4757
 2428SOL     OW18919   3.048   2.259   1.592 -0.3173  0.0592 -0.3724
 2428SOL    HW118920   2.992   2.260   1.515  1.0380  0.1245 -1.3510
 2428SOL    HW218921   3.011   2.200   1.658 -0.9096 -1.1032 -1.7544
 2429SOL     OW18922   3.473   1.239   0.298  0.0984  0.7089  0.6419
 2429SOL    HW118923   3.409   1.307   0.317 -0.8014  0.1747 -0.4570
 2429SOL    HW218924   3.403   1.189   0.255  1.3233  0.5743 -1.2257
 2430SOL     OW18925   3.540   3.883  16.765 -0.6306 -0.5645 -0.2058
 2430SOL    HW118926   3.556   3.946  16.836 -0.1798  1.0828 -1.7550
 2430SOL    HW218927   3.523   3.943  16.692 -0.0869  0.9255  0.9059
 2431SOL     OW18928   1.334   4.634   4.436  0.0702  0.4592 -0.1384
 2431SOL    HW118929   1.303   4.603   4.351  3.0844 -0.6152 -0.8284
 2431SOL    HW218930   1.429   4.638   4.428  0.1908 -0.8156  0.7342
 2432SOL     OW18931   0.320   0.415   8.938 -0.5444 -0.0934  0.6844
 2432SOL    HW118932   0.352   0.482   8.877  1.4720 -1.1174  0.6194
 2432SOL    HW218933   0.358   0.340   8.892 -1.0592  0.6060 -0.8791
 2433SOL     OW18934   1.246   2.963   9.577 -0.2310 -0.0074 -0.5286
 2433SOL    HW118935   1.246   2.890   9.639  1.2453 -1.0545 -1.7656
 2433SOL    HW218936   1.316   3.014   9.619  0.8948 -2.1136  0.1525
 2434SOL     OW18937   0.594   0.896  15.698  0.1419 -0.2294  0.7003
 2434SOL    HW118938   0.555   0.838  15.762  0.5015  0.5504  1.6299
 2434SOL    HW218939   0.611   0.835  15.626 -1.1824  1.7483 -1.2867
 2435SOL     OW18940   4.438   0.273   4.086  0.5929 -0.4712 -0.1282
 2435SOL    HW118941   4.380   0.341   4.122 -0.1543 -1.8602  1.2750
 2435SOL    HW218942   4.376   0.207   4.057  0.5701  0.2457 -1.7102
 2436SOL     OW18943   0.505   3.731  12.687  0.8462  0.4460  0.1453
 2436SOL    HW118944   0.492   3.637  12.678 -0.1066  0.6582 -0.6349
 2436SOL    HW218945   0.501   3.738  12.783 -2.7916  0.5066 -0.0205
 2437SOL     OW18946   3.395   2.688   9.432  0.5304 -0.4023 -0.2858
 2437SOL    HW118947   3.344   2.769   9.429 -1.0472 -1.3306  1.5879
 2437SOL    HW218948   3.448   2.698   9.511  0.1960 -0.4632 -0.0538
 2438SOL     OW18949   3.000   4.074   8.070  0.2963  0.4479  0.1779
 2438SOL    HW118950   3.032   4.116   8.149 -0.4069 -4.0236  2.8145
 2438SOL    HW218951   2.970   4.150   8.019 -3.5519 -0.3590  1.2265
 2439SOL     OW18952   1.612   0.514   6.347  0.0918 -0.1493 -0.2177
 2439SOL    HW118953   1.698   0.472   6.345  0.3728  0.3184  1.6011
 2439SOL    HW218954   1.603   0.557   6.262  2.6723  2.4928  0.8097
 2440SOL     OW18955   4.196   0.051   0.592  0.6038 -0.6597 -0.4035
 2440SOL    HW118956   4.155   4.738   0.523  0.7366  0.8569 -1.6529
 2440SOL    HW218957   4.132   0.041   0.662 -1.3863  0.7829 -1.9956
 2441SOL     OW18958   2.937   3.324   1.847 -0.0430 -0.1046 -0.5026
 2441SOL    HW118959   2.915   3.341   1.939  0.5400 -1.0426 -0.1895
 2441SOL    HW218960   2.854   3.289   1.815 -0.5219  1.6998 -1.2649
 2442SOL     OW18961   4.214   3.003   3.042 -0.1280 -0.2516 -0.0447
 2442SOL    HW118962   4.273   2.936   3.077 -0.2559 -1.0623 -1.3528
 2442SOL    HW218963   4.165   2.948   2.981 -0.3683  2.9572 -2.8227
 2443SOL     OW18964   0.565   0.741   7.407  0.4149 -0.4461  0.3760
 2443SOL    HW118965   0.476   0.743   7.372  0.6554 -1.2332 -0.2705
 2443SOL    HW218966   0.540   0.770   7.495 -1.0367  1.6115 -0.6988
 2444SOL     OW18967   2.223   1.394   6.050 -0.3665  0.1155  0.8428
 2444SOL    HW118968   2.233   1.300   6.032 -0.2172  0.4917 -1.0855
 2444SOL    HW218969   2.131   1.410   6.068 -1.1505 -1.0699 -2.0606
 2445SOL     OW18970   3.669   3.130   4.541 -0.1942  0.9172  0.2312
 2445SOL    HW118971   3.601   3.109   4.477  1.0505  1.9841 -1.4353
 2445SOL    HW218972   3.648   3.071   4.614  1.0834  0.4506  0.2099
 2446SOL     OW18973   0.182   2.386   8.729  0.2744 -0.3983  0.4752
 2446SOL    HW118974   0.214   2.361   8.642  1.1065  1.8853  0.1302
 2446SOL    HW218975   0.089   2.368   8.719 -0.0187  1.3905  0.0794
 2447SOL     OW18976   3.642   4.611   5.888  0.6211  0.1224 -0.4735
 2447SOL    HW118977   3.617   4.644   5.801  0.7698  1.2950 -0.0684
 2447SOL    HW218978   3.583   4.536   5.881 -0.6193  1.0055  0.5004
 2448SOL     OW18979   3.032   2.549   3.554 -0.2382 -0.0075  0.0810
 2448SOL    HW118980   3.042   2.475   3.614  0.9526  0.2553  0.2035
 2448SOL    HW218981   3.112   2.531   3.505  0.0646 -0.7091  0.8396
 2449SOL     OW18982   0.117   0.866  17.075 -0.3399 -0.2078  0.6287
 2449SOL    HW118983   0.174   0.854  16.999 -0.5482  1.5647  0.1933
 2449SOL    HW218984   0.075   0.948  17.050  0.0010 -0.1924  0.1098
 2450SOL     OW18985   0.862   0.131   6.726  0.4472  0.4558  0.5540
 2450SOL    HW118986   0.898   0.076   6.796  0.6389 -1.6258 -1.1717
 2450SOL    HW218987   0.931   0.193   6.705  1.1451 -0.4627  0.1578
 2451SOL     OW18988   3.516   1.998   0.917 -0.1991 -0.1465 -0.3268
 2451SOL    HW118989   3.589   1.940   0.937  1.6368  2.1977 -0.2394
 2451SOL    HW218990   3.545   2.082   0.953 -1.2788 -1.5231  3.6745
 2452SOL     OW18991   1.094   2.309   9.244 -0.1386 -0.6893  0.3215
 2452SOL    HW118992   1.036   2.310   9.168  0.3129 -0.8338 -0.0266
 2452SOL    HW218993   1.054   2.379   9.296  0.5519  0.6576 -0.9996
 2453SOL     OW18994   2.559   4.413   5.266  0.6522  0.8873 -0.1323
 2453SOL    HW118995   2.569   4.336   5.210  2.7891  2.1488 -1.4858
 2453SOL    HW218996   2.525   4.474   5.200 -0.8965  1.2468  1.0207
 2454SOL     OW18997   2.167   0.129   8.688 -0.2314  0.2796 -0.1242
 2454SOL    HW118998   2.147   0.111   8.596  2.2215 -2.5376 -0.1162
 2454SOL    HW218999   2.167   0.224   8.692  1.5812  0.3262 -1.2097
 2455SOL     OW19000   3.789   4.258   7.857 -0.1498  0.6589  0.1344
 2455SOL    HW119001   3.814   4.184   7.912  0.4356  0.6741 -0.1121
 2455SOL    HW219002   3.867   4.311   7.844 -0.0645  0.8618  1.5388
 2456SOL     OW19003   2.273   0.084  15.931 -0.3228  0.2274  0.3669
 2456SOL    HW119004   2.318   0.005  15.901 -1.5725 -1.0171  1.8077
 2456SOL    HW219005   2.183   0.052  15.923 -0.3799  0.3061  0.6894
 2457SOL     OW19006   0.186   0.823   1.730  0.2180  0.4708 -0.1506
 2457SOL    HW119007   0.118   0.757   1.714  0.1522  0.3555  0.6014
 2457SOL    HW219008   0.170   0.881   1.656  3.0624 -0.1679 -1.2649
 2458SOL     OW19009   2.517   1.572   1.640 -0.2075  0.0457 -0.9844
 2458SOL    HW119010   2.596   1.606   1.598 -0.3702  0.3674 -1.0264
 2458SOL    HW219011   2.475   1.655   1.662 -0.5287 -0.3028 -0.2764
 2459SOL     OW19012   0.627   0.164  17.097 -0.5647  0.1247 -0.0875
 2459SOL    HW119013   0.567   0.128  17.033 -2.3868  2.1526  0.4580
 2459SOL    HW219014   0.688   0.091  17.103 -0.0803  0.5169 -0.1613
 2460SOL     OW19015   0.258   4.190  14.966  0.5903  0.2648 -0.1462
 2460SOL    HW119016   0.348   4.220  14.964  1.7701 -3.0440  3.9792
 2460SOL    HW219017   0.263   4.127  14.895 -0.4674 -0.4959  0.4582
 2461SOL     OW19018   2.827   1.904  17.017 -0.0442 -0.6558 -0.9542
 2461SOL    HW119019   2.788   1.837  17.073 -1.2578 -0.8490 -2.0175
 2461SOL    HW219020   2.829   1.853  16.936 -0.1716 -1.0182 -0.7280
 2462SOL     OW19021   1.357   1.108   2.370 -0.1222  0.1991 -0.0860
 2462SOL    HW119022   1.336   1.169   2.300 -1.0515 -0.0490 -0.0268
 2462SOL    HW219023   1.273   1.072   2.397  0.2275 -0.2399  0.4311
 2463SOL     OW19024   2.819   0.642  10.350 -0.3066  0.0146 -0.3172
 2463SOL    HW119025   2.822   0.728  10.391  1.8595 -0.2630  0.1441
 2463SOL    HW219026   2.873   0.654  10.271 -0.8888  0.2583 -0.6802
 2464SOL     OW19027   0.276   2.435   2.732 -0.3001 -0.5674 -0.3155
 2464SOL    HW119028   0.188   2.400   2.745 -0.3358  0.5508  2.4555
 2464SOL    HW219029   0.317   2.349   2.724  2.9960  0.8794  0.9599
 2465SOL     OW19030   1.688   3.133   3.005 -0.2095 -0.0055  0.7388
 2465SOL    HW119031   1.718   3.074   2.936 -0.4749 -0.0191  0.6324
 2465SOL    HW219032   1.700   3.074   3.079 -0.6303  1.0137  1.6207
 2466SOL     OW19033   3.272   3.461   1.841  0.2710 -1.0063 -0.1608
 2466SOL    HW119034   3.298   3.437   1.929 -3.3364 -0.7776  0.9945
 2466SOL    HW219035   3.192   3.511   1.859  1.0135 -0.5618  1.8658
 2467SOL     OW19036   3.621   3.616   6.885  0.3136 -0.3891  0.4685
 2467SOL    HW119037   3.578   3.591   6.967  1.6407  1.4258  1.7466
 2467SOL    HW219038   3.606   3.534   6.839 -1.8713  0.6561 -0.6607
 2468SOL     OW19039   0.950   0.166  15.879  0.0038 -0.7580  0.2543
 2468SOL    HW119040   1.010   0.095  15.903  2.6626  1.1677 -0.6818
 2468SOL    HW219041   0.909   0.145  15.795  2.8259 -2.6045 -0.6573
 2469SOL     OW19042   2.371   3.473   2.430 -0.1520  0.7773  0.1519
 2469SOL    HW119043   2.350   3.380   2.429 -0.8449  0.9544 -0.7763
 2469SOL    HW219044   2.298   3.515   2.386 -0.4685  1.9284  1.7493
 2470SOL     OW19045   3.542   2.867   8.251 -0.2773  0.1819 -0.4024
 2470SOL    HW119046   3.466   2.833   8.298 -0.5485  1.1355 -0.1436
 2470SOL    HW219047   3.549   2.960   8.273  0.4800  0.0737 -0.1807
 2471SOL     OW19048   1.280   2.798   9.797  0.0204  0.4370 -0.2396
 2471SOL    HW119049   1.328   2.715   9.790 -0.8673 -0.0275 -0.8376
 2471SOL    HW219050   1.321   2.818   9.881  1.5734 -3.1942 -0.1282
 2472SOL     OW19051   0.757   4.351   1.738  0.7046  0.2377  0.2517
 2472SOL    HW119052   0.678   4.372   1.789  0.6267  1.8512 -0.5269
 2472SOL    HW219053   0.812   4.429   1.744 -1.0381  1.6978 -2.7442
 2473SOL     OW19054   0.976   2.639   8.993  0.4748  0.1800 -0.0260
 2473SOL    HW119055   1.051   2.696   9.010  2.4115 -2.6643  1.1669
 2473SOL    HW219056   0.917   2.671   9.061 -0.2348 -1.4443  0.1221
 2474SOL     OW19057   3.331   2.482   4.744 -0.4729 -0.5420  0.9420
 2474SOL    HW119058   3.291   2.558   4.701  0.4990 -1.4775 -1.6198
 2474SOL    HW219059   3.405   2.528   4.785 -0.3731  0.3225 -0.1906
 2475SOL     OW19060   0.632   4.534   5.487 -0.3553  0.3084  0.0492
 2475SOL    HW119061   0.649   4.440   5.485  1.3582  0.5882  0.9788
 2475SOL    HW219062   0.588   4.553   5.570 -1.0782  3.5595 -1.0595
 2476SOL     OW19063   1.034   2.894   1.947 -0.0350 -0.2297  0.5115
 2476SOL    HW119064   0.946   2.863   1.925 -1.0059  0.0628  3.8614
 2476SOL    HW219065   1.044   2.868   2.039  2.7126  1.0503  0.5779
 2477SOL     OW19066   1.071   2.961  11.582 -0.5284 -0.1019 -0.2626
 2477SOL    HW119067   1.010   2.903  11.627 -0.6178  1.2739  1.3856
 2477SOL    HW219068   1.029   3.048  11.583  0.9813  0.6367 -1.2307
 2478SOL     OW19069   2.895   1.410  17.309  0.7301 -0.1219  0.0009
 2478SOL    HW119070   2.892   1.322  17.346 -4.6121  0.7636  1.7218
 2478SOL    HW219071   2.827   1.450  17.363  2.2868  1.2123  0.9673
 2479SOL     OW19072   1.280   0.929   3.211  0.3861 -0.1452 -0.0595
 2479SOL    HW119073   1.189   0.928   3.181  0.0840  1.6489  0.8124
 2479SOL    HW219074   1.295   0.842   3.247 -0.6017 -0.5549 -0.6605
 2480SOL     OW19075   1.574   3.236   3.270  0.2762  0.6864 -0.1972
 2480SOL    HW119076   1.534   3.321   3.282 -0.8571 -0.0990  1.6826
 2480SOL    HW219077   1.654   3.265   3.225  1.8098 -0.9822  1.4366
 2481SOL     OW19078   4.127   2.727   0.700  0.0516  0.2864 -0.3537
 2481SOL    HW119079   4.139   2.757   0.790  1.3186  1.5216 -0.9386
 2481SOL    HW219080   4.168   2.797   0.649  1.5864 -0.0287  0.4424
 2482SOL     OW19081   1.915   2.685   8.545 -0.8287 -0.2159 -0.7003
 2482SOL    HW119082   1.936   2.612   8.487  0.6468  0.8024 -1.4735
 2482SOL    HW219083   1.960   2.759   8.504  0.2703 -0.5475 -0.1131
 2483SOL     OW19084   0.938   2.049  13.794  0.0971 -0.6421  0.3760
 2483SOL    HW119085   1.011   2.059  13.732  0.8696 -0.6330  1.2795
 2483SOL    HW219086   0.989   2.031  13.873  0.2828 -0.3233  0.3290
 2484SOL     OW19087   2.733   1.415   9.356  0.3748 -0.0602 -0.0153
 2484SOL    HW119088   2.736   1.327   9.319 -0.1259 -0.3715  0.6837
 2484SOL    HW219089   2.679   1.394   9.432 -0.9562 -2.2371 -1.5904
 2485SOL     OW19090   2.737   1.603   4.268 -0.4549  0.2718 -0.1999
 2485SOL    HW119091   2.745   1.573   4.358  1.6930 -1.4318 -0.9474
 2485SOL    HW219092   2.716   1.697   4.268  0.0368  0.3841  0.5853
 2486SOL     OW19093   4.554   2.346   5.269 -0.4684  0.0416  0.2031
 2486SOL    HW119094   4.627   2.394   5.231  0.9218 -0.4914  2.1865
 2486SOL    HW219095   4.603   2.295   5.334 -1.7314 -0.9430  0.3734
 2487SOL     OW19096   1.909   1.073   8.170 -0.1371 -0.2588  0.3070
 2487SOL    HW119097   1.887   1.022   8.248 -2.1082  0.0664 -0.0389
 2487SOL    HW219098   1.856   1.152   8.182 -1.9060 -1.2021 -1.2791
 2488SOL     OW19099   3.451   2.471   7.397 -0.0601 -0.5930 -0.1928
 2488SOL    HW119100   3.475   2.487   7.305 -0.9231  0.8210 -0.1828
 2488SOL    HW219101   3.483   2.548   7.444 -0.1477  0.1487 -1.3339
 2489SOL     OW19102   4.171   1.910  17.127 -0.4957  0.3950 -0.2096
 2489SOL    HW119103   4.262   1.904  17.096 -0.1431 -2.0989  1.3819
 2489SOL    HW219104   4.170   2.004  17.109 -0.9583  0.4434  0.0916
 2490SOL     OW19105   0.818   3.669   2.644 -0.1075 -0.5226 -0.6721
 2490SOL    HW119106   0.880   3.657   2.716 -1.3873 -1.1138  0.3349
 2490SOL    HW219107   0.815   3.597   2.580  0.1586 -0.4499 -0.7642
 2491SOL     OW19108   4.590   3.049   6.684  0.4110 -0.2893  0.4768
 2491SOL    HW119109   4.562   2.963   6.716  0.5935 -0.1385  1.0400
 2491SOL    HW219110   4.611   3.099   6.763  4.7386 -2.7919  0.8808
 2492SOL     OW19111   3.552   3.795   2.296  0.7335 -0.3802  0.2993
 2492SOL    HW119112   3.552   3.835   2.209 -3.1790  0.7001  0.7753
 2492SOL    HW219113   3.647   3.780   2.302  0.6741 -0.6219  0.6586
 2493SOL     OW19114   0.153   0.035   7.744  0.4891 -0.2276  0.0733
 2493SOL    HW119115   0.176   0.128   7.746 -1.3055  0.2152 -0.0224
 2493SOL    HW219116   0.060   0.038   7.722  0.9398  1.0419 -1.6209
 2494SOL     OW19117   1.098   4.020   5.783  0.3410 -0.0015 -0.0545
 2494SOL    HW119118   1.095   3.961   5.708 -1.0242 -0.1271  0.0923
 2494SOL    HW219119   1.159   4.087   5.755  2.2603 -2.2014 -1.0585
 2495SOL     OW19120   1.133   4.415  15.426  0.4261  0.0647  1.1416
 2495SOL    HW119121   1.196   4.456  15.368 -1.0889  1.3535  0.4055
 2495SOL    HW219122   1.053   4.467  15.417  0.8232  0.1424 -1.8479
 2496SOL     OW19123   2.441   3.588   4.702  0.2766 -0.2092 -0.1006
 2496SOL    HW119124   2.383   3.538   4.760 -1.7439  0.3204 -1.7142
 2496SOL    HW219125   2.391   3.579   4.622 -1.5078  3.4033  0.5903
 2497SOL     OW19126   2.932   2.226   2.465  0.0162  0.7288 -0.4563
 2497SOL    HW119127   2.910   2.242   2.557  1.0864  0.3010 -0.1273
 2497SOL    HW219128   2.869   2.277   2.413  0.2540  2.3490  0.8388
 2498SOL     OW19129   1.826   2.209   8.726  0.0155  0.2459  0.1691
 2498SOL    HW119130   1.865   2.287   8.686 -1.7078  0.8483 -0.3409
 2498SOL    HW219131   1.797   2.168   8.645  0.1012  0.8359 -0.1580
 2499SOL     OW19132   1.375   2.356   3.537 -0.0227  0.2715  0.0140
 2499SOL    HW119133   1.468   2.342   3.555  0.3694  1.5143 -1.0873
 2499SOL    HW219134   1.384   2.450   3.551 -0.1404 -0.2552  3.7317
 2500SOL     OW19135   2.051   4.295   3.001 -0.2284 -0.1838 -0.2857
 2500SOL    HW119136   1.971   4.243   2.995 -1.2078  1.3967 -1.0147
 2500SOL    HW219137   2.094   4.276   2.918  1.0603  1.0518  0.0987
 2501SOL     OW19138   3.015   0.919  11.091  0.2964 -0.0873  0.1637
 2501SOL    HW119139   3.042   0.834  11.056  3.0928  0.0554  2.0028
 2501SOL    HW219140   3.066   0.921  11.172  1.4053  1.8207 -0.6033
 2502SOL     OW19141   1.273   0.341  16.141  0.3015 -0.1886  0.3253
 2502SOL    HW119142   1.194   0.352  16.194  0.5744  0.6806  0.5348
 2502SOL    HW219143   1.285   0.424  16.095  1.7994 -0.2005  0.7055
 2503SOL     OW19144   3.431   3.103  15.954 -0.0910  0.1215 -0.2280
 2503SOL    HW119145   3.362   3.051  15.995 -0.7170  0.1611 -1.2544
 2503SOL    HW219146   3.504   3.041  15.965 -0.7327 -0.5996 -0.0428
 2504SOL     OW19147   4.255   0.062   1.814 -0.1226  0.3466  0.2227
 2504SOL    HW119148   4.261   0.146   1.769 -2.5405  0.0046 -0.7490
 2504SOL    HW219149   4.160   0.059   1.827 -0.2350  1.1255 -0.4347
 2505SOL     OW19150   4.351   3.526   9.103 -0.4321  0.5391  0.2769
 2505SOL    HW119151   4.433   3.525   9.053 -1.0974 -0.4125 -0.7721
 2505SOL    HW219152   4.359   3.450   9.160 -1.5128  1.1770  1.2667
 2506SOL     OW19153   1.064   1.400  15.741  0.2999  0.3143  0.1813
 2506SOL    HW119154   1.039   1.326  15.685  0.7289  1.8109 -1.9490
 2506SOL    HW219155   0.993   1.460  15.718  0.2766 -0.4523 -1.7745
 2507SOL     OW19156   4.668   4.204   9.082 -0.7874  0.2232 -0.5400
 2507SOL    HW119157   4.673   4.275   9.018  1.2172  0.8273  0.2721
 2507SOL    HW219158   4.573   4.200   9.073 -1.1098  0.9976  2.6028
 2508SOL     OW19159   2.415   0.368   6.531 -0.3517  0.0926 -0.2940
 2508SOL    HW119160   2.480   0.367   6.461 -3.1984 -1.7025 -2.8847
 2508SOL    HW219161   2.463   0.323   6.601 -3.0216  1.7132  2.5403
 2509SOL     OW19162   4.010   2.375   9.258  0.1787  0.4078  0.3278
 2509SOL    HW119163   4.039   2.390   9.348 -3.8383  0.3939  1.6036
 2509SOL    HW219164   4.095   2.396   9.219 -0.0374  0.9010  0.1095
 2510SOL     OW19165   3.073   2.750   6.872 -0.0177 -0.0486 -0.2412
 2510SOL    HW119166   3.099   2.830   6.827  0.8317  0.4848  1.1770
 2510SOL    HW219167   2.991   2.725   6.828  0.8157 -0.7718 -1.3761
 2511SOL     OW19168   1.318   4.528  15.244 -0.5866  0.7752 -0.2495
 2511SOL    HW119169   1.321   4.611  15.292 -1.4362  0.5294  0.2249
 2511SOL    HW219170   1.349   4.562  15.160 -0.7268  1.3914 -0.0517
 2512SOL     OW19171   2.979   1.501   1.709  0.0202  0.3881 -0.6097
 2512SOL    HW119172   2.884   1.488   1.696 -0.2802  1.1700  0.8234
 2512SOL    HW219173   2.993   1.535   1.797 -0.2502 -1.1582  0.0324
 2513SOL     OW19174   3.591   1.092  12.445 -0.5514  0.4346 -0.1962
 2513SOL    HW119175   3.650   1.114  12.373  0.4310 -4.6006 -0.8863
 2513SOL    HW219176   3.596   0.999  12.426  1.3163  0.2894  0.9645
 2514SOL     OW19177   2.416   2.830   0.589  0.8408  0.4389  0.3523
 2514SOL    HW119178   2.507   2.798   0.592  0.7396 -0.1225 -2.3392
 2514SOL    HW219179   2.402   2.838   0.683  2.3276  3.0331  0.3381
 2515SOL     OW19180   2.766   0.708   5.902 -0.0835  0.5463  0.0459
 2515SOL    HW119181   2.722   0.693   5.985 -1.0103  0.2401 -0.5022
 2515SOL    HW219182   2.801   0.619   5.895 -1.5689 -0.0229 -0.0390
 2516SOL     OW19183   2.542   0.513   8.275  0.4703  0.0179 -0.4778
 2516SOL    HW119184   2.475   0.453   8.307  1.0617  0.1538  0.9824
 2516SOL    HW219185   2.511   0.543   8.189  0.1252 -1.5326 -0.8922
 2517SOL     OW19186   4.310   0.489   4.416 -0.3012  0.2127  0.2815
 2517SOL    HW119187   4.349   0.414   4.461  0.8690 -0.4215 -1.7530
 2517SOL    HW219188   4.371   0.513   4.345  0.6922 -0.3903  0.9341
 2518SOL     OW19189   2.758   1.165   7.852 -0.3089  0.0222  0.4114
 2518SOL    HW119190   2.688   1.119   7.805  1.1760 -2.1993  0.3768
 2518SOL    HW219191   2.824   1.143   7.786  0.2218  1.5989  0.4078
 2519SOL     OW19192   2.264   2.932   1.987  0.2836  0.8052  0.0298
 2519SOL    HW119193   2.288   2.874   2.060  1.1086 -0.2927 -1.1050
 2519SOL    HW219194   2.224   3.004   2.036  2.3603  1.7203  0.3556
 2520SOL     OW19195   0.946   4.018   6.878 -0.0786  0.0120  0.3539
 2520SOL    HW119196   0.908   4.096   6.838 -0.1963  0.4898  1.4148
 2520SOL    HW219197   0.875   3.990   6.936  0.5603  1.5643  1.8915
 2521SOL     OW19198   3.341   3.047  12.492  0.3043  0.8317  0.0075
 2521SOL    HW119199   3.322   3.069  12.583  1.0235 -3.8490  1.3015
 2521SOL    HW219200   3.258   3.011  12.460  0.3799 -1.6101  2.5773
 2522SOL     OW19201   2.380   1.040   2.751  0.8158 -0.0532  0.0831
 2522SOL    HW119202   2.374   1.077   2.663 -1.6024 -1.0519 -0.1679
 2522SOL    HW219203   2.440   0.969   2.727 -1.3181 -1.6122 -0.6873
 2523SOL     OW19204   4.475   1.667   1.134  0.4238 -0.3746 -0.0086
 2523SOL    HW119205   4.536   1.593   1.132  0.6612 -0.1773 -0.1469
 2523SOL    HW219206   4.510   1.718   1.206 -0.2370  2.2501 -1.5604
 2524SOL     OW19207   3.485   0.052   4.581 -0.7191  0.3723 -0.2324
 2524SOL    HW119208   3.486   4.700   4.554  0.5618 -0.1980  1.6972
 2524SOL    HW219209   3.474   0.036   4.675 -0.9649 -2.0595 -0.6852
 2525SOL     OW19210   1.518   4.445   9.399 -0.6743  0.4863  0.0195
 2525SOL    HW119211   1.510   4.511   9.468  0.5194 -0.4839  1.0995
 2525SOL    HW219212   1.506   4.360   9.443 -1.1505  0.0408 -0.9773
 2526SOL     OW19213   3.559   3.218   4.127  0.3552 -0.1706  0.5383
 2526SOL    HW119214   3.639   3.180   4.163  0.9103 -0.3611 -0.9059
 2526SOL    HW219215   3.566   3.310   4.151  0.4103 -0.0944  0.2199
 2527SOL     OW19216   3.269   4.169   6.188 -0.2449 -0.2757 -0.2151
 2527SOL    HW119217   3.360   4.158   6.158 -0.7091 -0.6648 -1.4555
 2527SOL    HW219218   3.236   4.080   6.200  0.9088 -0.4764  1.6565
 2528SOL     OW19219   2.635   1.049   8.487 -0.4474 -0.0432  0.3427
 2528SOL    HW119220   2.547   1.082   8.471 -0.1644  0.5793  0.0472
 2528SOL    HW219221   2.608   0.957   8.479  2.0188 -0.7551  0.0066
 2529SOL     OW19222   2.202   3.551   1.780  0.3265  0.1736 -0.0567
 2529SOL    HW119223   2.234   3.460   1.777 -2.1161 -0.7537  2.1081
 2529SOL    HW219224   2.118   3.533   1.822 -0.1328  0.2758 -0.9336
 2530SOL     OW19225   0.109   1.414   6.985  0.3325  0.0783 -0.3254
 2530SOL    HW119226   0.119   1.341   6.924  1.4137  0.0668 -0.1198
 2530SOL    HW219227   0.168   1.388   7.055  0.9243 -1.1204 -1.2702
 2531SOL     OW19228   4.357   1.918  10.339 -0.5732  0.6940 -0.1958
 2531SOL    HW119229   4.414   1.849  10.308 -1.3083  0.0092 -0.0164
 2531SOL    HW219230   4.422   1.982  10.371  0.5141 -1.3417  1.6344
 2532SOL     OW19231   0.169   2.612   6.337  0.1892  0.2705 -0.5409
 2532SOL    HW119232   0.137   2.533   6.381 -2.2186  0.5396 -1.7972
 2532SOL    HW219233   0.227   2.650   6.403 -1.9705  0.9009  1.0086
 2533SOL     OW19234   4.563   0.780   7.646 -0.0711 -0.0613 -0.4400
 2533SOL    HW119235   4.553   0.712   7.580  0.2301  0.1782 -0.7328
 2533SOL    HW219236   4.478   0.824   7.636 -0.2468 -0.2190  0.3493
 2534SOL     OW19237   1.300   3.628   9.392  0.1682 -0.2739  0.0634
 2534SOL    HW119238   1.392   3.626   9.416  0.6890 -0.0743 -1.8903
 2534SOL    HW219239   1.295   3.573   9.313  1.5868  1.6720 -1.3671
 2535SOL     OW19240   0.398   0.704  15.470  0.7349 -0.3456  0.3882
 2535SOL    HW119241   0.342   0.727  15.545  1.7587  1.1034  0.7175
 2535SOL    HW219242   0.397   0.608  15.477  1.7225 -0.5336 -2.3486
 2536SOL     OW19243   3.741   2.140   9.917 -0.1318  0.1884 -0.4564
 2536SOL    HW119244   3.779   2.090   9.989  0.7683 -1.1629 -1.8691
 2536SOL    HW219245   3.691   2.072   9.872  0.8078 -0.6068 -0.2989
 2537SOL     OW19246   2.032   3.511  14.065 -0.6657 -0.3015 -0.1213
 2537SOL    HW119247   2.081   3.569  14.123 -1.0587  1.9894 -2.0641
 2537SOL    HW219248   1.952   3.561  14.049 -0.1577 -0.2659 -2.5790
 2538SOL     OW19249   1.287   1.582   6.129 -0.1850 -0.0612 -0.3022
 2538SOL    HW119250   1.333   1.643   6.072 -0.1662 -0.3213 -0.5675
 2538SOL    HW219251   1.354   1.578   6.197 -0.9158  0.5072  0.4513
 2539SOL     OW19252   1.602   0.494  17.644  0.2100 -0.0354 -0.2740
 2539SOL    HW119253   1.566   0.581  17.626 -3.3761 -1.6190 -0.6524
 2539SOL    HW219254   1.688   0.498  17.603 -0.0994  0.1519 -0.9083
 2540SOL     OW19255   4.029   0.764  10.400 -0.5637 -0.4547 -0.0363
 2540SOL    HW119256   3.951   0.808  10.364 -0.3785 -1.9798 -2.2903
 2540SOL    HW219257   4.051   0.726  10.315 -0.0796 -1.0486  0.3621
 2541SOL     OW19258   2.061   4.024  15.836  0.2734 -0.6356  0.8107
 2541SOL    HW119259   2.025   4.099  15.788 -0.7192 -0.5034  1.7666
 2541SOL    HW219260   1.982   3.974  15.858 -1.2775  0.5164 -2.0559
 2542SOL     OW19261   0.224   2.551   4.815  0.3404 -0.0614  0.6834
 2542SOL    HW119262   0.162   2.607   4.861 -0.4817  0.2907 -0.8644
 2542SOL    HW219263   0.268   2.506   4.887 -2.0227 -2.6388  0.5420
 2543SOL     OW19264   1.934   1.982   0.136  0.1260 -0.5377 -0.5865
 2543SOL    HW119265   1.914   2.061   0.087 -2.4496 -2.2592 -2.3481
 2543SOL    HW219266   1.999   2.023   0.192 -1.2158 -0.3655  0.8373
 2544SOL     OW19267   1.986   1.187   5.097  0.2903  0.3094  0.0594
 2544SOL    HW119268   1.911   1.133   5.074  0.0525  1.9722 -3.1450
 2544SOL    HW219269   2.018   1.142   5.175  0.9728 -0.7475 -0.8320
 2545SOL     OW19270   0.315   2.901   6.576  0.3051 -0.6383  0.1580
 2545SOL    HW119271   0.307   2.977   6.633 -1.1407 -2.1236  1.9364
 2545SOL    HW219272   0.276   2.922   6.490  1.3454 -0.2732 -0.2194
 2546SOL     OW19273   2.590   0.045  11.147 -0.5517  0.1504 -0.4914
 2546SOL    HW119274   2.592   4.701  11.194  0.3701  0.3169 -0.2448
 2546SOL    HW219275   2.562   0.005  11.064 -0.3412  0.6918 -0.8210
 2547SOL     OW19276   3.677   3.328   6.985 -0.6509 -0.0771  0.0539
 2547SOL    HW119277   3.680   3.302   7.077 -1.8607  0.7850  0.3419
 2547SOL    HW219278   3.587   3.361   6.993 -1.4050 -1.5524 -2.4476
 2548SOL     OW19279   4.262   3.934   0.485  0.9329  0.8919 -0.5600
 2548SOL    HW119280   4.205   4.006   0.510  1.4108  0.8065  0.7872
 2548SOL    HW219281   4.248   3.854   0.537  2.2964  1.2974  0.4246
 2549SOL     OW19282   1.571   2.549  13.703  0.0072 -0.1233  0.0868
 2549SOL    HW119283   1.641   2.532  13.766  1.5751 -0.6343 -1.7921
 2549SOL    HW219284   1.579   2.643  13.688  1.3028 -0.2847 -0.1768
 2550SOL     OW19285   2.723   4.398  17.516 -0.5027  0.1268  0.3226
 2550SOL    HW119286   2.735   4.303  17.520  0.0990  0.1938  0.1737
 2550SOL    HW219287   2.638   4.401  17.559 -1.4191  0.5818 -1.4919
 2551SOL     OW19288   2.222   1.288   9.419  0.0351 -0.1270  0.3354
 2551SOL    HW119289   2.160   1.217   9.435 -1.2556  0.5801 -1.5841
 2551SOL    HW219290   2.306   1.246   9.402  1.0708  1.1429  2.3362
 2552SOL     OW19291   2.056   4.430   5.735 -0.0253  0.2622  0.3986
 2552SOL    HW119292   2.117   4.421   5.808  1.3763 -3.1769 -1.2182
 2552SOL    HW219293   2.114   4.453   5.663  0.5314  1.6494  1.2841
 2553SOL     OW19294   0.703   1.121   8.845  0.1052 -0.2437 -0.1764
 2553SOL    HW119295   0.623   1.070   8.863 -0.1114  0.0179 -0.3940
 2553SOL    HW219296   0.754   1.046   8.814 -0.8261 -0.9603 -0.0163
 2554SOL     OW19297   3.189   1.480  17.293  0.1458 -0.1987  0.4052
 2554SOL    HW119298   3.110   1.425  17.292 -0.6690  0.9600  1.0543
 2554SOL    HW219299   3.150   1.564  17.268  2.6075  1.4974  2.2194
 2555SOL     OW19300   0.232   3.848   4.663 -0.2877  0.6332  0.2968
 2555SOL    HW119301   0.212   3.757   4.681 -1.1225  0.7320 -0.1599
 2555SOL    HW219302   0.231   3.854   4.568  2.7382  2.4753  0.3526
 2556SOL     OW19303   0.404   1.002   5.902  0.5710 -0.2176  0.3623
 2556SOL    HW119304   0.479   0.980   5.847  1.2488  1.2951  0.6832
 2556SOL    HW219305   0.386   0.918   5.944  2.9641  0.0395  1.9263
 2557SOL     OW19306   2.579   0.845   2.650 -0.2016 -0.6768  0.3508
 2557SOL    HW119307   2.602   0.776   2.587 -0.3663  0.1776 -0.6542
 2557SOL    HW219308   2.662   0.889   2.631 -0.0728 -0.1356  2.2315
 2558SOL     OW19309   1.618   2.418   0.737 -0.4388 -0.4383 -0.0990
 2558SOL    HW119310   1.701   2.456   0.768 -1.5555  3.0292 -1.3623
 2558SOL    HW219311   1.556   2.478   0.779 -1.3632  0.1014 -2.2258
 2559SOL     OW19312   2.317   2.667   6.953 -0.9750  0.3501  0.0315
 2559SOL    HW119313   2.337   2.760   6.943 -0.4395  0.2382  0.0533
 2559SOL    HW219314   2.228   2.665   6.920 -0.9496 -0.3716  0.0144
 2560SOL     OW19315   2.508   4.348   7.539  0.3295 -0.2139  0.2289
 2560SOL    HW119316   2.471   4.432   7.511 -0.5774 -0.8220 -0.4016
 2560SOL    HW219317   2.579   4.343   7.475  1.0672  0.3020  1.0152
 2561SOL     OW19318   2.135   1.820  14.923  0.3293 -0.0241 -0.3753
 2561SOL    HW119319   2.150   1.782  14.836 -0.8446  0.7174 -0.9060
 2561SOL    HW219320   2.224   1.848  14.944  0.8487 -0.9228 -1.3661
 2562SOL     OW19321   4.095   0.907   6.012  0.0317 -0.1259 -0.2680
 2562SOL    HW119322   4.174   0.954   6.041  1.0050 -0.5417 -2.1961
 2562SOL    HW219323   4.074   0.926   5.921 -0.5541 -1.0594 -0.3274
 2563SOL     OW19324   1.899   0.687   5.301 -0.1349  0.2359 -0.2532
 2563SOL    HW119325   1.838   0.615   5.286 -0.5139  0.9327 -2.0835
 2563SOL    HW219326   1.957   0.682   5.226 -1.4110  1.5180 -1.3120
 2564SOL     OW19327   3.213   3.884  14.584 -0.8764 -0.4790  0.3586
 2564SOL    HW119328   3.186   3.952  14.646 -0.6053  1.6329 -1.8451
 2564SOL    HW219329   3.133   3.835  14.565 -2.0982  1.5873  0.2345
 2565SOL     OW19330   4.571   0.575   7.416 -0.3346  0.1384  0.0551
 2565SOL    HW119331   4.567   0.526   7.498 -1.8310  0.0526 -0.0791
 2565SOL    HW219332   4.648   0.525   7.386 -1.7955 -0.1719 -3.1283
 2566SOL     OW19333   1.317   0.178   5.820  0.3881 -0.2125  0.5172
 2566SOL    HW119334   1.356   0.098   5.856  1.9399 -0.5962 -2.0308
 2566SOL    HW219335   1.230   0.178   5.860 -0.5157 -3.1313 -1.4321
 2567SOL     OW19336   0.267   2.748  10.339  0.2623  0.1502  0.3355
 2567SOL    HW119337   0.177   2.767  10.313  0.0778 -1.2562 -0.0393
 2567SOL    HW219338   0.250   2.676  10.400 -0.0047  0.7939  1.0269
 2568SOL     OW19339   2.957   1.166   7.347  0.1246  0.2745  0.1293
 2568SOL    HW119340   2.927   1.210   7.267  0.3741  0.2124  0.0008
 2568SOL    HW219341   2.957   1.241   7.406 -0.2457  0.1907  0.2383
 2569SOL     OW19342   2.466   1.907   8.721 -0.1811 -0.2509  0.1146
 2569SOL    HW119343   2.376   1.892   8.751  0.0917  0.2233  1.1433
 2569SOL    HW219344   2.464   1.887   8.627 -1.7479  2.6984 -0.4778
 2570SOL     OW19345   0.863   2.891   3.920  0.5526 -0.3162 -0.0039
 2570SOL    HW119346   0.911   2.824   3.968  2.1733  0.8756  0.0329
 2570SOL    HW219347   0.900   2.964   3.970 -1.4974 -1.0674  2.6286
 2571SOL     OW19348   4.417   4.572   3.686 -0.3690  0.6366 -0.4363
 2571SOL    HW119349   4.485   4.630   3.652  1.6504 -0.6942  1.3600
 2571SOL    HW219350   4.336   4.624   3.687  0.6508  2.1996  0.6877
 2572SOL     OW19351   1.159   2.387   8.475  0.4202 -0.1341  0.0872
 2572SOL    HW119352   1.115   2.384   8.390 -0.4716 -1.9105  0.6229
 2572SOL    HW219353   1.081   2.409   8.526  0.7288  0.0570  0.4754
 2573SOL     OW19354   1.054   2.068   7.144  0.5068  0.1457 -0.1587
 2573SOL    HW119355   1.085   1.978   7.153 -1.1383 -0.4441 -0.2716
 2573SOL    HW219356   0.977   2.057   7.087  0.6831 -0.6901 -0.2357
 2574SOL     OW19357   2.570   4.736   7.003 -0.4902 -0.3293 -0.5133
 2574SOL    HW119358   2.499   0.006   7.067  0.7228  0.6172  0.7064
 2574SOL    HW219359   2.519   0.017   6.925 -2.3253  0.9648  1.0024
 2575SOL     OW19360   3.575   0.752   3.443  0.0787  0.0034  0.2943
 2575SOL    HW119361   3.535   0.712   3.520 -1.5712  0.4490 -0.3365
 2575SOL    HW219362   3.646   0.689   3.428  0.7682  0.6721  0.7611
 2576SOL     OW19363   3.992   3.927   5.568  0.0273 -0.6187 -0.3366
 2576SOL    HW119364   3.941   3.932   5.649  0.4738 -1.6026  0.0084
 2576SOL    HW219365   4.042   4.008   5.565 -1.3347  0.1785 -1.2282
 2577SOL     OW19366   4.146   4.522   3.296  0.1234 -0.4431  0.5667
 2577SOL    HW119367   4.164   4.460   3.367  1.2489  0.4523  1.0557
 2577SOL    HW219368   4.238   4.544   3.281  0.3314 -1.9675 -0.4220
 2578SOL     OW19369   1.386   4.096   3.393  0.1240  0.4257  0.4682
 2578SOL    HW119370   1.466   4.084   3.342 -1.7260 -0.3511 -2.2555
 2578SOL    HW219371   1.372   4.191   3.397  0.1845  0.4319  0.5301
 2579SOL     OW19372   0.624   0.366   3.212  0.4494 -0.0678  0.3274
 2579SOL    HW119373   0.598   0.283   3.173  2.1964 -1.0828  1.3214
 2579SOL    HW219374   0.610   0.328   3.299  1.0165  0.3554  0.6036
 2580SOL     OW19375   2.228   1.366   9.127 -0.0592 -0.3983 -0.3189
 2580SOL    HW119376   2.246   1.386   9.219 -1.0378 -1.0155  0.0102
 2580SOL    HW219377   2.140   1.404   9.126 -0.4923 -1.3863  0.1608
 2581SOL     OW19378   1.687   0.791   3.722 -0.2979  0.0094 -0.6134
 2581SOL    HW119379   1.743   0.850   3.773 -0.8002  0.1793 -0.2606
 2581SOL    HW219380   1.752   0.728   3.693  1.1760  1.3557 -0.2727
 2582SOL     OW19381   3.847   1.362  16.499 -0.0812 -0.0310 -0.0292
 2582SOL    HW119382   3.756   1.357  16.529  0.0381 -0.8505  0.2069
 2582SOL    HW219383   3.894   1.334  16.577 -0.0750 -1.9101 -0.6891
 2583SOL     OW19384   0.915   3.906  15.647 -0.2746  0.6162 -1.1263
 2583SOL    HW119385   0.867   3.831  15.611 -1.9683  0.6891  0.9704
 2583SOL    HW219386   0.890   3.904  15.740 -0.3986 -0.9412 -1.1929
 2584SOL     OW19387   0.869   2.290   7.836  0.2742 -0.3848 -0.3871
 2584SOL    HW119388   0.860   2.233   7.760 -0.0692  0.7458 -1.1909
 2584SOL    HW219389   0.786   2.282   7.884 -0.3805  2.3086 -1.0710
 2585SOL     OW19390   4.472   0.613   2.533 -0.3688  1.3120  0.0239
 2585SOL    HW119391   4.385   0.648   2.551 -1.3378 -2.3123  2.6224
 2585SOL    HW219392   4.524   0.693   2.534  0.8175  0.5646 -1.0561
 2586SOL     OW19393   2.666   1.533   2.031 -0.0777 -0.3110  0.4035
 2586SOL    HW119394   2.742   1.481   2.004  1.4049  1.1450  1.7258
 2586SOL    HW219395   2.622   1.465   2.082 -0.1840 -2.2486 -2.3183
 2587SOL     OW19396   3.660   2.026   7.781  0.2765 -0.1509  0.6841
 2587SOL    HW119397   3.674   1.974   7.702  0.7649 -0.5059  1.0057
 2587SOL    HW219398   3.637   2.109   7.738  0.0998  0.0799  1.2268
 2588SOL     OW19399   3.973   2.847   6.012 -0.0747  0.0924  0.6812
 2588SOL    HW119400   3.926   2.832   6.094 -0.6455 -0.7300  0.2060
 2588SOL    HW219401   4.018   2.765   5.996  0.8112  0.7282 -0.0371
 2589SOL     OW19402   2.357   0.885   6.804  0.2930  0.0770  0.1845
 2589SOL    HW119403   2.337   0.902   6.712 -1.4784  0.0269  0.5485
 2589SOL    HW219404   2.445   0.922   6.811  0.5132 -0.4013 -0.0792
 2590SOL     OW19405   0.805   2.269   7.489 -0.4180 -0.1564  0.0710
 2590SOL    HW119406   0.829   2.198   7.548 -2.5220 -0.1467  0.9676
 2590SOL    HW219407   0.726   2.237   7.444  1.5124 -1.2105 -2.6143
 2591SOL     OW19408   1.540   0.692  14.063 -0.2130 -0.1096  0.6551
 2591SOL    HW119409   1.471   0.756  14.080 -1.5692 -1.1303 -0.9826
 2591SOL    HW219410   1.607   0.747  14.023  0.6499 -1.7805 -0.2243
 2592SOL     OW19411   0.424   2.859   1.743  0.3726 -0.0191  0.2906
 2592SOL    HW119412   0.508   2.813   1.735  1.5045  1.8147  1.8706
 2592SOL    HW219413   0.414   2.861   1.838  1.5850 -0.2253  0.4259
 2593SOL     OW19414   2.762   3.577  13.670 -0.9653 -0.1471  0.3183
 2593SOL    HW119415   2.852   3.584  13.640 -1.4614 -2.1331 -1.6453
 2593SOL    HW219416   2.761   3.656  13.724  2.3482  0.0925  0.0339
 2594SOL     OW19417   2.869   1.467   7.819  0.5781 -0.1355 -0.0457
 2594SOL    HW119418   2.791   1.454   7.873  0.6901 -1.3196 -0.1703
 2594SOL    HW219419   2.941   1.485   7.880 -0.1134 -1.9292  1.2978
 2595SOL     OW19420   4.077   0.845   9.833  0.3150 -0.5400  0.1340
 2595SOL    HW119421   3.996   0.885   9.866  0.8868  1.3955 -0.7594
 2595SOL    HW219422   4.117   0.910   9.775 -3.0817  2.7434  1.4783
 2596SOL     OW19423   1.331   0.483   4.476 -0.3005  0.4294 -0.1383
 2596SOL    HW119424   1.327   0.575   4.502  0.1307  0.5989 -0.6598
 2596SOL    HW219425   1.310   0.481   4.382  2.9079  0.7653 -0.8745
 2597SOL     OW19426   3.187   2.428   0.402  0.5101  0.0567 -0.0565
 2597SOL    HW119427   3.182   2.333   0.415 -0.3563 -0.3001 -2.9451
 2597SOL    HW219428   3.282   2.441   0.411  0.2032  1.1855  1.3897
 2598SOL     OW19429   0.036   2.419  16.570 -0.4630 -0.3163 -0.0346
 2598SOL    HW119430   0.130   2.413  16.587 -0.4025 -1.3647 -0.7773
 2598SOL    HW219431   0.027   2.515  16.568 -0.2937 -0.3150 -0.7134
 2599SOL     OW19432   2.718   0.192   1.541  0.2800  0.1450 -0.4893
 2599SOL    HW119433   2.648   0.254   1.563 -1.7577 -2.5885  0.7904
 2599SOL    HW219434   2.695   0.117   1.597  0.4662 -0.1675 -0.8323
 2600SOL     OW19435   3.772   1.861   4.806  0.1716 -0.6722  0.1458
 2600SOL    HW119436   3.799   1.926   4.872  0.9359  1.2070 -2.0299
 2600SOL    HW219437   3.677   1.868   4.812  0.3974  1.7581  0.9442
 2601SOL     OW19438   4.696   1.473   4.265  0.2390 -0.2012  0.4705
 2601SOL    HW119439   0.023   1.490   4.332 -0.1231  2.1354  0.2524
 2601SOL    HW219440   4.671   1.565   4.255 -2.0348 -1.0236 -1.7870
 2602SOL     OW19441   4.573   0.328  10.338 -0.1173  0.3911 -0.7717
 2602SOL    HW119442   4.606   0.359  10.423  1.7817 -0.1690 -1.3117
 2602SOL    HW219443   4.492   0.379  10.329 -1.1527 -0.9815  0.5804
 2603SOL     OW19444   2.523   4.219  13.690 -0.3091 -0.0008  0.6522
 2603SOL    HW119445   2.511   4.174  13.607  3.5787  1.8274 -0.9269
 2603SOL    HW219446   2.449   4.178  13.733 -0.2968 -0.0716  0.6051
 2604SOL     OW19447   3.529   2.969   4.004 -0.1556  0.2425  0.3197
 2604SOL    HW119448   3.565   3.003   3.922  0.8615 -1.5487  0.0179
 2604SOL    HW219449   3.526   3.053   4.049  0.8830  0.6283 -0.3325
 2605SOL     OW19450   2.451   3.425   2.110  0.2588  0.1083  0.4876
 2605SOL    HW119451   2.362   3.452   2.136 -0.0200 -0.3020 -0.0613
 2605SOL    HW219452   2.498   3.441   2.192 -4.0551  0.2736  2.9241
 2606SOL     OW19453   4.192   2.571   4.686  0.1077  0.0106  0.3534
 2606SOL    HW119454   4.191   2.649   4.630  3.1916  2.2017  3.3623
 2606SOL    HW219455   4.243   2.614   4.755  2.4939 -0.5792 -1.0189
 2607SOL     OW19456   0.682   1.834   8.039  1.0800 -0.5000  0.4218
 2607SOL    HW119457   0.599   1.806   8.078  1.9694 -0.9945  1.9541
 2607SOL    HW219458   0.703   1.915   8.085  1.1773 -1.4527  2.0700
 2608SOL     OW19459   0.481   3.852   5.353  0.8649 -0.0766  0.1459
 2608SOL    HW119460   0.499   3.894   5.437  2.7394  0.6572 -0.6383
 2608SOL    HW219461   0.554   3.790   5.353  0.4057 -0.6225  0.0368
 2609SOL     OW19462   3.050   4.087   7.194  0.8044 -0.0396  0.5391
 2609SOL    HW119463   3.130   4.131   7.165  0.7043  0.2930  0.7627
 2609SOL    HW219464   3.049   4.020   7.126  1.9436  1.0370 -0.5435
 2610SOL     OW19465   2.753   4.235  12.535 -0.0242  0.1973 -0.2045
 2610SOL    HW119466   2.847   4.235  12.555 -0.3697  1.7316  1.4309
 2610SOL    HW219467   2.728   4.326  12.521 -1.2281  0.0258  0.7929
 2611SOL     OW19468   1.092   0.946  16.850 -0.1505  0.1092 -0.2113
 2611SOL    HW119469   1.100   0.858  16.814  1.1993  0.9827 -2.0217
 2611SOL    HW219470   1.038   0.926  16.927 -0.8329 -1.4141 -1.0936
 2612SOL     OW19471   0.217   1.452   8.421  0.0169  0.1377 -0.8898
 2612SOL    HW119472   0.229   1.431   8.328  1.2857  1.4809 -1.0377
 2612SOL    HW219473   0.165   1.380   8.456 -0.4759  1.2271  0.6030
 2613SOL     OW19474   3.951   0.616   5.473 -0.4213  0.0303  0.4767
 2613SOL    HW119475   4.012   0.559   5.521 -0.5240 -0.8566 -0.4445
 2613SOL    HW219476   4.007   0.676   5.425  0.6650  0.4491  2.2517
 2614SOL     OW19477   2.720   4.186  13.913 -0.7564  0.9044 -0.3424
 2614SOL    HW119478   2.792   4.155  13.967 -2.5908  1.5445  2.5267
 2614SOL    HW219479   2.644   4.133  13.939 -0.3150  0.1948 -0.5256
 2615SOL     OW19480   3.957   0.203   0.947 -0.4012  0.3076  0.6213
 2615SOL    HW119481   3.997   0.283   0.981 -1.6942  1.4795 -0.6135
 2615SOL    HW219482   3.897   0.179   1.017  0.8707 -0.8051  1.3390
 2616SOL     OW19483   4.499   2.072   2.308 -0.3238 -0.1963  0.1239
 2616SOL    HW119484   4.548   2.142   2.263  0.8776 -1.5966 -0.7548
 2616SOL    HW219485   4.410   2.105   2.299  1.0987  3.8710  0.8143
 2617SOL     OW19486   3.015   4.115   2.727 -0.2737  0.8005 -0.3803
 2617SOL    HW119487   2.983   4.204   2.740 -0.4868  0.9807 -2.2273
 2617SOL    HW219488   3.081   4.113   2.797 -1.8280  0.4657  1.0739
 2618SOL     OW19489   0.628   4.126   3.229 -0.1892  0.2832 -0.1562
 2618SOL    HW119490   0.557   4.102   3.288  0.8807 -1.0696  0.5763
 2618SOL    HW219491   0.702   4.069   3.250 -0.8896 -0.0890  1.3096
 2619SOL     OW19492   1.909   3.220   2.048  0.5986 -0.4096  0.1817
 2619SOL    HW119493   1.846   3.267   2.103 -0.7387 -1.0695 -0.8034
 2619SOL    HW219494   1.942   3.167   2.121  0.7846 -1.6878 -0.8346
 2620SOL     OW19495   2.561   2.643   1.893 -0.2112  0.1231  0.1403
 2620SOL    HW119496   2.649   2.648   1.856 -1.6726  0.1307 -3.3501
 2620SOL    HW219497   2.572   2.607   1.981  1.4904 -0.3536 -0.2645
 2621SOL     OW19498   1.640   1.325   0.280  0.5293  0.0858 -0.4863
 2621SOL    HW119499   1.573   1.302   0.344 -0.4117  1.4430 -1.0012
 2621SOL    HW219500   1.638   1.421   0.282  0.7312  0.0828 -0.0658
 2622SOL     OW19501   0.721   0.531   7.313 -0.1362  0.1736  0.2155
 2622SOL    HW119502   0.809   0.569   7.316  0.0019 -0.1258 -0.0016
 2622SOL    HW219503   0.666   0.604   7.340 -0.3446  1.4207 -3.5777
 2623SOL     OW19504   2.548   3.063   3.649  0.1039 -0.1792 -0.2158
 2623SOL    HW119505   2.622   3.004   3.634 -0.4244 -0.7411 -0.6083
 2623SOL    HW219506   2.596   3.145   3.646 -1.7498  0.8743 -1.5183
 2624SOL     OW19507   0.369   2.223   2.019 -0.1480 -0.2514  0.2224
 2624SOL    HW119508   0.445   2.166   2.009 -0.7356 -1.3131  1.9449
 2624SOL    HW219509   0.400   2.312   2.004  1.9680 -1.1009 -0.3857
 2625SOL     OW19510   1.911   1.476   2.476  0.1931  0.4564  0.5041
 2625SOL    HW119511   1.974   1.481   2.548  0.6670 -0.6788  0.1673
 2625SOL    HW219512   1.836   1.512   2.525 -1.2684 -1.2619 -0.4814
 2626SOL     OW19513   3.870   4.653   2.227  0.0041  0.1172  0.0026
 2626SOL    HW119514   3.792   4.601   2.204  0.4553 -0.5013 -0.1328
 2626SOL    HW219515   3.941   4.598   2.194 -1.6574 -2.3808  0.5611
 2627SOL     OW19516   0.656   1.278   8.098  0.0198 -0.1715  0.4621
 2627SOL    HW119517   0.698   1.245   8.019 -0.0331  0.4731  0.1628
 2627SOL    HW219518   0.704   1.222   8.159  0.8026 -0.2267 -0.1943
 2628SOL     OW19519   2.724   0.883   5.098  0.7611 -0.7593  0.5296
 2628SOL    HW119520   2.634   0.850   5.095  0.8783 -0.9287 -1.1001
 2628SOL    HW219521   2.723   0.949   5.167  0.6897  0.8106 -0.9689
 2629SOL     OW19522   4.465   4.120   9.310 -0.8029  0.0138 -0.3013
 2629SOL    HW119523   4.387   4.071   9.337 -1.4403  0.8170 -0.6880
 2629SOL    HW219524   4.425   4.176   9.243 -1.3882 -0.9494 -0.7640
 2630SOL     OW19525   0.829   2.198  16.014 -0.6511  0.3594 -0.7880
 2630SOL    HW119526   0.903   2.254  15.991 -1.5282  1.8467  0.0941
 2630SOL    HW219527   0.857   2.148  16.091 -3.3908  1.6104  1.0423
 2631SOL     OW19528   0.558   2.580   8.906  0.0303  0.0391  0.2797
 2631SOL    HW119529   0.573   2.674   8.892 -3.2689  0.5391  0.1239
 2631SOL    HW219530   0.464   2.575   8.887 -0.1062  0.9289  0.7040
 2632SOL     OW19531   2.762   1.160   9.288  0.1348 -0.0297 -0.6534
 2632SOL    HW119532   2.677   1.139   9.248  0.0955 -0.3932 -0.3841
 2632SOL    HW219533   2.783   1.091   9.352  2.4646  1.4430  0.1414
 2633SOL     OW19534   0.621   3.806   2.985 -0.0928  0.1566  0.1508
 2633SOL    HW119535   0.551   3.861   2.948  0.6517  0.5042 -0.7508
 2633SOL    HW219536   0.593   3.718   2.959  1.7131 -0.3250 -0.1467
 2634SOL     OW19537   4.673   2.734  13.329  0.0095  0.0568  0.2474
 2634SOL    HW119538   0.013   2.750  13.380 -0.7888  0.7383  1.2952
 2634SOL    HW219539   4.683   2.791  13.253  2.8763 -2.6339 -1.3747
 2635SOL     OW19540   2.870   3.857  12.484 -0.1138 -0.3240  0.0772
 2635SOL    HW119541   2.810   3.813  12.544 -1.2721  0.8780 -0.1948
 2635SOL    HW219542   2.916   3.924  12.534  1.2663 -0.8943 -0.4469
 2636SOL     OW19543   3.473   3.485   7.820 -0.4624 -0.2440  0.4470
 2636SOL    HW119544   3.492   3.567   7.774  2.2249 -1.6274 -0.8898
 2636SOL    HW219545   3.563   3.453   7.820  0.0418  1.1886 -1.4503
 2637SOL     OW19546   2.029   2.009   3.918 -0.4164  0.1066 -0.1503
 2637SOL    HW119547   2.012   2.103   3.920 -0.0769  0.1845 -1.3252
 2637SOL    HW219548   2.055   1.986   3.829 -0.0766  0.1272 -0.0582
 2638SOL     OW19549   4.671   1.058   4.440  0.1099 -0.5430 -0.2254
 2638SOL    HW119550   4.606   0.989   4.427 -0.5126 -0.5483  2.7881
 2638SOL    HW219551   0.009   1.003   4.447  1.2995  0.9096 -2.2600
 2639SOL     OW19552   0.016   0.719  12.236  0.5034  0.4087  0.4330
 2639SOL    HW119553   0.082   0.659  12.271  0.4990  0.3245  0.2924
 2639SOL    HW219554   0.033   0.716  12.142 -0.8240 -0.1569  0.2122
 2640SOL     OW19555   1.441   2.517  10.047  0.0100  0.8520 -0.2791
 2640SOL    HW119556   1.351   2.487  10.054 -0.6737  2.1925 -3.0642
 2640SOL    HW219557   1.483   2.439  10.082 -2.4817 -0.4812 -0.2929
 2641SOL     OW19558   3.141   0.592  10.529 -0.3621  0.0976  0.4187
 2641SOL    HW119559   3.085   0.556  10.598  1.3338 -4.0465 -0.3942
 2641SOL    HW219560   3.173   0.674  10.568  0.0894  0.2523 -0.2834
 2642SOL     OW19561   1.382   0.751  17.281  0.0810 -0.3346 -0.1949
 2642SOL    HW119562   1.360   0.829  17.331 -2.4538 -0.9832 -0.2658
 2642SOL    HW219563   1.301   0.745  17.230  1.1642 -1.4535 -1.7925
 2643SOL     OW19564   1.865   0.623   3.188  0.3746 -0.0440  0.1313
 2643SOL    HW119565   1.776   0.618   3.224  0.2986 -0.7191 -0.1440
 2643SOL    HW219566   1.874   0.718   3.193  3.1796 -0.4497  2.2273
 2644SOL     OW19567   3.659   2.287   1.031 -0.1777 -0.0267 -0.3596
 2644SOL    HW119568   3.685   2.283   1.123 -0.7474  1.5403 -0.1286
 2644SOL    HW219569   3.678   2.377   1.006 -0.3221  0.4116  1.0927
 2645SOL     OW19570   2.264   2.237   0.414 -0.3469  0.1782  0.2643
 2645SOL    HW119571   2.337   2.295   0.393 -0.9029  0.4956 -0.7601
 2645SOL    HW219572   2.306   2.153   0.394  0.1559 -0.1208  2.5137
 2646SOL     OW19573   1.541   4.152   2.925  0.4638  0.1471 -0.6574
 2646SOL    HW119574   1.500   4.236   2.905 -1.3844 -1.1750 -2.4666
 2646SOL    HW219575   1.469   4.089   2.917 -0.2291  0.7101  1.3086
 2647SOL     OW19576   3.415   4.227  15.950 -0.2046 -0.5826  0.2702
 2647SOL    HW119577   3.476   4.287  15.909 -1.5003 -0.0480 -0.8824
 2647SOL    HW219578   3.412   4.164  15.879 -1.2282 -3.2413  2.6498
 2648SOL     OW19579   3.810   2.632   9.851  0.0402  0.4460  0.0383
 2648SOL    HW119580   3.735   2.643   9.792  2.3662 -1.5946 -3.3278
 2648SOL    HW219581   3.788   2.554   9.901  2.2227  0.4396  0.9807
 2649SOL     OW19582   2.540   3.607   6.054  0.4683  0.1905 -0.7963
 2649SOL    HW119583   2.533   3.524   6.100 -1.2195 -1.0275 -3.3062
 2649SOL    HW219584   2.606   3.659   6.100  0.5675 -0.0186 -0.7020
 2650SOL     OW19585   0.253   1.876   7.554  0.2791 -0.2400  0.6687
 2650SOL    HW119586   0.218   1.840   7.635  1.2171 -0.8174  0.8218
 2650SOL    HW219587   0.248   1.801   7.495 -0.4834  1.5844 -1.5986
 2651SOL     OW19588   1.294   4.317   3.870 -0.6142 -0.3009  0.0378
 2651SOL    HW119589   1.321   4.406   3.890 -0.4934 -0.0373 -1.2578
 2651SOL    HW219590   1.351   4.269   3.930  1.1778 -0.0316 -1.4656
 2652SOL     OW19591   2.849   3.437  12.982  0.6585 -0.1611 -0.4530
 2652SOL    HW119592   2.925   3.381  12.970  1.5910  0.7977  1.0336
 2652SOL    HW219593   2.788   3.371  13.015 -0.4515  0.3467 -1.4703
 2653SOL     OW19594   1.226   0.725   6.496 -0.2474 -0.4683  0.5787
 2653SOL    HW119595   1.296   0.732   6.430  1.2159  1.1302  2.3248
 2653SOL    HW219596   1.156   0.766   6.446 -0.8781  0.0587  1.9009
 2654SOL     OW19597   1.452   2.185   8.799 -0.4691 -0.4697  0.6149
 2654SOL    HW119598   1.504   2.255   8.759 -2.6171  1.7645  1.6965
 2654SOL    HW219599   1.416   2.132   8.728  0.3402  0.1366 -0.2589
 2655SOL     OW19600   1.966   0.070   0.756 -0.4581 -0.0516  0.1059
 2655SOL    HW119601   1.987   4.719   0.777 -0.0645 -0.5257 -2.2724
 2655SOL    HW219602   1.938   0.099   0.843  0.7492 -0.8651  0.7573
 2656SOL     OW19603   1.704   2.056   2.165  0.1338  0.0011 -0.1342
 2656SOL    HW119604   1.670   2.036   2.078 -0.1895 -0.2663  0.0548
 2656SOL    HW219605   1.796   2.078   2.153 -0.3704  0.9337 -2.1895
 2657SOL     OW19606   1.207   1.349   5.985 -0.5005  0.3742  0.0152
 2657SOL    HW119607   1.127   1.387   5.947  0.4479  0.5259 -1.8009
 2657SOL    HW219608   1.246   1.424   6.031 -0.0154  0.2340 -0.1759
 2658SOL     OW19609   1.656   0.538   8.778 -0.2052  0.8401 -0.1481
 2658SOL    HW119610   1.568   0.571   8.798 -0.7488 -1.2413  0.9087
 2658SOL    HW219611   1.707   0.603   8.828 -0.3661  0.8400  0.0178
 2659SOL     OW19612   2.255   3.008   1.706  0.2012  0.2847 -0.2794
 2659SOL    HW119613   2.317   2.938   1.682  2.2607  1.0285  2.7616
 2659SOL    HW219614   2.261   3.007   1.802  0.9989 -0.9341 -0.3279
 2660SOL     OW19615   1.436   0.786  15.904  0.0346 -0.1059 -0.2415
 2660SOL    HW119616   1.488   0.812  15.828 -1.2302 -0.2642 -1.1574
 2660SOL    HW219617   1.345   0.806  15.880 -0.5270 -1.9129  0.4457
 2661SOL     OW19618   1.759   3.201  11.544  0.5295 -0.2420 -0.4235
 2661SOL    HW119619   1.717   3.263  11.485 -0.3379 -1.6149 -1.2490
 2661SOL    HW219620   1.684   3.172  11.596  0.6692 -0.7640 -0.5095
 2662SOL     OW19621   3.489   1.971  10.074  0.4447 -0.5797  0.0261
 2662SOL    HW119622   3.545   1.966   9.996  0.6629  0.3203  0.1271
 2662SOL    HW219623   3.403   1.983  10.034  0.7668 -0.1934 -0.5492
 2663SOL     OW19624   4.492   3.218   8.237  0.1723 -0.3048 -0.3942
 2663SOL    HW119625   4.484   3.129   8.201  0.8485 -0.4236 -0.2405
 2663SOL    HW219626   4.559   3.255   8.179  1.7893  0.2308  1.8267
 2664SOL     OW19627   2.446   0.818   5.051 -0.5017  0.8549 -0.0670
 2664SOL    HW119628   2.376   0.754   5.066  1.6974 -1.8031 -1.1920
 2664SOL    HW219629   2.399   0.890   5.094  0.0232 -0.2513  2.3653
 2665SOL     OW19630   1.411   4.547   5.694  0.1388  0.0729  0.3748
 2665SOL    HW119631   1.340   4.556   5.758  1.9727 -1.1509  2.5711
 2665SOL    HW219632   1.365   4.593   5.624 -0.6311  0.8138  1.3637
 2666SOL     OW19633   1.895   0.245   5.947 -0.4976  0.0585  0.1163
 2666SOL    HW119634   1.908   0.151   5.963 -2.0902 -0.7317 -3.1859
 2666SOL    HW219635   1.800   0.247   5.937 -0.5777  0.6486  1.0241
 2667SOL     OW19636   1.910   1.676   6.145  0.3482 -0.7370  0.2138
 2667SOL    HW119637   1.936   1.586   6.128  0.6866 -0.7443  0.7668
 2667SOL    HW219638   1.932   1.689   6.237  0.3202  2.2578 -0.1959
 2668SOL     OW19639   2.784   0.579  11.808  0.1592 -0.1861 -0.0446
 2668SOL    HW119640   2.778   0.547  11.898  1.0984 -0.6253 -0.1341
 2668SOL    HW219641   2.873   0.613  11.805  0.6853 -1.2748  3.7693
 2669SOL     OW19642   2.896   0.695   3.181  0.0939 -0.1289 -0.3167
 2669SOL    HW119643   2.917   0.612   3.225 -2.1897  0.0416  1.1054
 2669SOL    HW219644   2.958   0.693   3.108  0.6042  0.5700  0.0898
 2670SOL     OW19645   3.180   2.539   7.989 -0.1487 -0.1054 -0.2045
 2670SOL    HW119646   3.159   2.626   8.024 -0.5534  0.0038 -0.7076
 2670SOL    HW219647   3.273   2.526   8.005  0.0382 -0.6611 -1.7203
 2671SOL     OW19648   3.944   1.986   2.936 -0.2161  0.1514 -0.6172
 2671SOL    HW119649   3.891   2.064   2.952 -0.1230  0.2899 -0.9704
 2671SOL    HW219650   4.002   2.002   3.011 -1.2229 -3.2121  0.8615
 2672SOL     OW19651   1.220   2.154   8.951 -0.1071  0.4920  0.0880
 2672SOL    HW119652   1.223   2.239   8.994 -0.9044 -0.1062  1.3019
 2672SOL    HW219653   1.309   2.138   8.919  0.1653  1.4076  0.3971
 2673SOL     OW19654   2.697   2.847   7.310 -0.5692 -0.0110  0.4497
 2673SOL    HW119655   2.695   2.935   7.272 -0.6464 -0.2858 -0.1733
 2673SOL    HW219656   2.627   2.871   7.372  0.7590  0.0369  1.9231
 2674SOL     OW19657   0.368   3.029   6.023 -0.5911 -0.3534  0.4060
 2674SOL    HW119658   0.321   2.996   6.100  0.2261 -1.0008  0.6352
 2674SOL    HW219659   0.413   2.948   5.997 -0.4787  0.5503 -2.2057
 2675SOL     OW19660   1.316   1.877  10.771 -0.0026 -0.0463 -0.5602
 2675SOL    HW119661   1.232   1.832  10.765 -0.0141  0.0333 -1.0012
 2675SOL    HW219662   1.371   1.799  10.774  2.2796  1.6372  1.5361
 2676SOL     OW19663   2.045   4.646   5.008  0.1375 -0.2010  0.2505
 2676SOL    HW119664   2.133   4.672   4.982  0.3550  0.4184  1.5669
 2676SOL    HW219665   2.067   4.564   5.051 -2.6502 -2.1730 -2.0786
 2677SOL     OW19666   3.315   0.770   3.633 -0.5829  0.3018 -0.4214
 2677SOL    HW119667   3.350   0.858   3.625  0.0248  0.0293 -0.6961
 2677SOL    HW219668   3.309   0.759   3.728  2.9944  0.2294 -0.2053
 2678SOL     OW19669   1.119   3.454  17.245 -0.2685 -0.9845 -0.8126
 2678SOL    HW119670   1.041   3.484  17.291  0.4762  0.4988 -0.5157
 2678SOL    HW219671   1.178   3.479  17.317 -1.3494 -0.9808  0.0698
 2679SOL     OW19672   0.354   3.019   7.316  0.0334 -0.0367  0.0048
 2679SOL    HW119673   0.293   2.978   7.378  0.1953  1.8098  1.3870
 2679SOL    HW219674   0.337   3.111   7.333  2.0784  0.3882 -0.3560
 2680SOL     OW19675   2.249   4.684  16.385  0.5075 -0.4617  0.6776
 2680SOL    HW119676   2.219   0.016  16.329 -0.7830 -1.0156  0.6765
 2680SOL    HW219677   2.280   4.716  16.470  0.6518  0.3580  0.3193
 2681SOL     OW19678   0.787   3.659  10.012 -0.5051  0.3524 -0.0628
 2681SOL    HW119679   0.734   3.588  10.050  1.6001 -0.9631  0.4179
 2681SOL    HW219680   0.721   3.682   9.946 -0.6193  2.3798  0.7747
 2682SOL     OW19681   4.512   1.695   3.561  0.4398 -0.0651  0.7381
 2682SOL    HW119682   4.595   1.719   3.521  0.1743  1.8716  1.3302
 2682SOL    HW219683   4.458   1.761   3.518  1.2167 -0.1947 -0.4268
 2683SOL     OW19684   1.132   3.635  12.095  0.4309  0.8840  0.0486
 2683SOL    HW119685   1.091   3.648  12.010  2.7003  0.6378 -1.0880
 2683SOL    HW219686   1.099   3.548  12.116  2.5228  0.6592  2.4224
 2684SOL     OW19687   4.382   0.966   2.256 -0.2220 -0.2438 -0.3700
 2684SOL    HW119688   4.462   1.008   2.224  0.4694 -0.3543  1.2074
 2684SOL    HW219689   4.387   0.997   2.346 -1.8796 -0.6466 -0.1337
 2685SOL     OW19690   0.756   3.737   6.741 -0.4041  0.0292 -0.2002
 2685SOL    HW119691   0.706   3.681   6.683  1.1894 -0.5450 -1.0162
 2685SOL    HW219692   0.771   3.804   6.675 -0.3833  0.6231  0.4135
 2686SOL     OW19693   2.854   1.553   5.254  0.0645 -0.1491 -0.0170
 2686SOL    HW119694   2.799   1.625   5.283 -1.9887 -1.7713  0.1521
 2686SOL    HW219695   2.942   1.584   5.274 -0.4263  1.6430 -0.6448
 2687SOL     OW19696   3.624   4.246   4.975  0.0924 -0.5435 -0.0305
 2687SOL    HW119697   3.650   4.190   5.048 -0.2161  0.1003  0.5734
 2687SOL    HW219698   3.633   4.333   5.015  1.8534 -0.1416 -1.2737
 2688SOL     OW19699   3.189   4.464   5.747  0.4027  0.8922 -0.5640
 2688SOL    HW119700   3.126   4.465   5.675  0.4831 -2.5212 -0.6583
 2688SOL    HW219701   3.180   4.374   5.777 -0.4126  1.3477  0.5801
 2689SOL     OW19702   1.029   0.688   0.611 -0.3354 -0.2328 -0.1194
 2689SOL    HW119703   1.012   0.628   0.539  0.9894 -0.8019  0.0478
 2689SOL    HW219704   1.114   0.722   0.582 -0.5131 -2.4997 -3.2698
 2690SOL     OW19705   3.313   3.631   7.610 -0.1078 -0.4840  0.0615
 2690SOL    HW119706   3.394   3.594   7.578 -0.0190 -0.8797  0.7382
 2690SOL    HW219707   3.255   3.560   7.640 -0.2874 -0.1811  0.4441
 2691SOL     OW19708   2.240   1.527   8.553  0.0987 -0.5613  0.1959
 2691SOL    HW119709   2.333   1.546   8.564 -0.3044  1.0431  0.8380
 2691SOL    HW219710   2.211   1.493   8.638  0.0509  1.5837  1.0219
 2692SOL     OW19711   3.147   4.703  12.221 -0.3966  0.2201  0.4590
 2692SOL    HW119712   3.201   4.627  12.200  0.9439  1.1931  0.3962
 2692SOL    HW219713   3.200   0.003  12.290  1.9710 -1.1264 -0.5980
 2693SOL     OW19714   1.308   0.039   8.546 -0.5740  0.2675 -0.3098
 2693SOL    HW119715   1.387   0.022   8.495  0.8862  0.7896  1.7847
 2693SOL    HW219716   1.301   4.695   8.592 -1.2017  2.1116  2.9344
 2694SOL     OW19717   1.749   4.326   4.203  0.1688  0.0432 -0.0026
 2694SOL    HW119718   1.790   4.339   4.289 -0.4252  1.4829  0.0469
 2694SOL    HW219719   1.659   4.311   4.231 -0.0996  0.9641 -0.4001
 2695SOL     OW19720   3.876   1.516   6.492 -0.2064  0.2275  0.8004
 2695SOL    HW119721   3.890   1.602   6.453  0.8010 -0.2362  0.1527
 2695SOL    HW219722   3.883   1.539   6.585  4.8174 -0.3249  0.5992
 2696SOL     OW19723   3.728   3.848  10.022  0.4499  0.1706 -0.2513
 2696SOL    HW119724   3.636   3.863  10.001  0.2939  0.9909  1.0566
 2696SOL    HW219725   3.740   3.753  10.024 -0.5073  0.1200  2.1961
 2697SOL     OW19726   4.013   3.588   0.197 -0.4489  0.0085 -0.2756
 2697SOL    HW119727   3.973   3.580   0.111 -0.8820 -1.5172  0.0761
 2697SOL    HW219728   4.106   3.580   0.175  0.3334  0.6740  2.7795
 2698SOL     OW19729   4.178   4.659  15.189 -0.1141 -0.2758  0.6116
 2698SOL    HW119730   4.272   4.677  15.199 -0.4259  1.9706 -0.5574
 2698SOL    HW219731   4.175   4.571  15.227  2.1897 -1.3013 -1.5456
 2699SOL     OW19732   0.509   2.005   3.643  0.3580  0.3950 -0.0659
 2699SOL    HW119733   0.444   1.937   3.624  1.2833 -1.5002  3.5251
 2699SOL    HW219734   0.518   2.033   3.552  2.5592 -0.4916 -0.1388
 2700SOL     OW19735   0.628   2.268  17.287  0.4380 -0.0086 -0.0387
 2700SOL    HW119736   0.701   2.207  17.278  1.8269  1.4039  1.8059
 2700SOL    HW219737   0.633   2.318  17.205  1.1627 -0.7077 -0.4183
 2701SOL     OW19738   1.086   2.006   9.936  0.0597 -0.6764 -0.2477
 2701SOL    HW119739   1.160   1.948   9.916  0.9113  0.3872 -0.2268
 2701SOL    HW219740   1.134   2.059  10.000  0.8880 -0.4019 -1.0905
 2702SOL     OW19741   2.806   1.837   2.741 -0.3566  0.4752 -0.4273
 2702SOL    HW119742   2.764   1.864   2.660 -0.2528  0.2515 -0.5555
 2702SOL    HW219743   2.803   1.743   2.725  1.3825  0.3358  0.0487
 2703SOL     OW19744   2.281   0.249   3.021  0.1946 -0.2606  0.2761
 2703SOL    HW119745   2.187   0.264   3.034 -0.0568 -0.5077 -1.2611
 2703SOL    HW219746   2.310   0.337   3.045  0.2737  0.1930 -1.4463
 2704SOL     OW19747   2.465   4.093  13.443  0.6022  0.1989 -0.2546
 2704SOL    HW119748   2.391   4.135  13.401 -1.3808 -2.5742  0.4422
 2704SOL    HW219749   2.423   4.007  13.433  0.3719  0.0317  2.2177
 2705SOL     OW19750   3.745   1.237   8.551 -0.1501 -0.4002  0.3075
 2705SOL    HW119751   3.826   1.257   8.504 -1.0924 -1.1954 -1.6618
 2705SOL    HW219752   3.727   1.329   8.571  0.6036 -0.6122  1.9172
 2706SOL     OW19753   4.212   4.241   8.297  0.3874  0.4652 -0.6081
 2706SOL    HW119754   4.302   4.234   8.265  0.3407  0.8804 -0.8376
 2706SOL    HW219755   4.207   4.335   8.317  0.0729  0.3336 -0.0746
 2707SOL     OW19756   4.536   2.155   4.704  0.7117 -0.2722  0.4838
 2707SOL    HW119757   4.566   2.123   4.789  2.3103 -0.5828 -0.2134
 2707SOL    HW219758   4.486   2.231   4.732 -0.1548 -0.7235  0.1801
 2708SOL     OW19759   1.207   4.600   2.733  0.3460 -0.1246 -0.3007
 2708SOL    HW119760   1.212   4.506   2.719 -0.1678 -0.0449 -1.0588
 2708SOL    HW219761   1.114   4.610   2.753  0.8348  0.3158  1.7010
 2709SOL     OW19762   0.123   0.705   3.665 -0.1728  0.2626  0.1795
 2709SOL    HW119763   0.105   0.613   3.683  2.5597 -0.5120 -1.0678
 2709SOL    HW219764   0.062   0.747   3.726  1.0850  1.6792  0.4491
 2710SOL     OW19765   3.954   2.972   5.043 -0.4596  0.1552  0.1066
 2710SOL    HW119766   4.046   2.966   5.068 -0.1769 -0.1845 -1.0153
 2710SOL    HW219767   3.949   3.040   4.976 -2.5419  1.0664  1.1901
 2711SOL     OW19768   0.622   2.265   7.971 -0.5540  0.0819  0.5114
 2711SOL    HW119769   0.543   2.210   7.978  0.1493 -1.1702 -1.4272
 2711SOL    HW219770   0.606   2.324   8.044 -0.1968 -0.3469  0.9369
 2712SOL     OW19771   0.401   0.628   8.787 -0.0914 -0.2597  0.0770
 2712SOL    HW119772   0.452   0.703   8.817 -0.1489  0.4212 -1.5291
 2712SOL    HW219773   0.396   0.634   8.692  0.4167 -0.1364  0.0585
 2713SOL     OW19774   3.554   2.144   5.292 -0.4692  0.3513  0.0455
 2713SOL    HW119775   3.603   2.196   5.356 -0.0780  2.0960 -1.6977
 2713SOL    HW219776   3.514   2.211   5.238  0.9328 -0.4204 -1.9321
 2714SOL     OW19777   0.893   1.815   7.371 -0.0379  0.1819  0.1978
 2714SOL    HW119778   0.902   1.736   7.317  1.8264  0.1630  0.5105
 2714SOL    HW219779   0.838   1.868   7.314  1.3408  0.1093 -1.2164
 2715SOL     OW19780   3.064   0.220   6.602  0.2637  0.4110 -0.1856
 2715SOL    HW119781   3.049   0.296   6.545 -1.0043 -1.4461 -2.3528
 2715SOL    HW219782   2.988   0.226   6.660 -0.4152  1.6695 -1.2013
 2716SOL     OW19783   0.172   2.365   8.187 -0.0842 -0.1887 -0.0052
 2716SOL    HW119784   0.168   2.427   8.260  1.2592 -0.0688 -0.0318
 2716SOL    HW219785   0.179   2.421   8.110 -1.7056 -1.6336 -1.1894
 2717SOL     OW19786   4.174   1.776   4.806 -0.2767  0.8163  0.2873
 2717SOL    HW119787   4.249   1.826   4.839 -0.1774  2.2385 -2.0609
 2717SOL    HW219788   4.154   1.728   4.886 -0.1772 -1.2920 -0.9541
 2718SOL     OW19789   1.982   2.205   8.958  0.2644  0.0592  0.0601
 2718SOL    HW119790   2.057   2.186   8.902  1.6313  2.1904  1.1810
 2718SOL    HW219791   1.921   2.235   8.891  2.4610  2.6896 -0.7083
 2719SOL     OW19792   3.143   3.674   4.435 -0.3997 -0.7994 -0.4193
 2719SOL    HW119793   3.140   3.622   4.515  1.6209 -0.5751 -0.1946
 2719SOL    HW219794   3.088   3.622   4.376 -3.6471  1.4142  0.6577
 2720SOL     OW19795   3.885   2.952   8.468 -0.6515 -0.0506  0.5244
 2720SOL    HW119796   3.864   3.020   8.404  1.9757  0.9308  0.6784
 2720SOL    HW219797   3.980   2.965   8.475 -0.4858 -1.0925  0.1758
 2721SOL     OW19798   1.714   1.118   5.305  0.1195 -0.1936  0.6377
 2721SOL    HW119799   1.623   1.095   5.322  0.4105 -0.9657  1.1314
 2721SOL    HW219800   1.700   1.172   5.227  1.2388 -0.4127  0.2912
 2722SOL     OW19801   4.212   1.719   6.438 -0.4167  0.4170 -0.0855
 2722SOL    HW119802   4.276   1.781   6.402  0.1722 -1.1186 -1.6578
 2722SOL    HW219803   4.132   1.734   6.388 -0.7781 -1.7509 -0.1434
 2723SOL     OW19804   3.194   2.940  14.602 -0.5705 -0.2103 -0.3435
 2723SOL    HW119805   3.209   2.845  14.608  0.8392  0.0066 -0.2991
 2723SOL    HW219806   3.286   2.965  14.594 -1.1559  2.1934  0.6216
 2724SOL     OW19807   2.832   3.959  10.546 -0.5606 -0.7830  0.0657
 2724SOL    HW119808   2.796   3.983  10.631  0.0386 -1.7441  0.5852
 2724SOL    HW219809   2.810   3.866  10.540  0.3377 -0.9729 -0.2626
 2725SOL     OW19810   4.350   1.720   8.871 -0.0166  0.3752 -0.1728
 2725SOL    HW119811   4.337   1.676   8.955 -0.2527 -1.1291 -1.0074
 2725SOL    HW219812   4.418   1.784   8.894 -0.5015  0.7803  0.1345
 2726SOL     OW19813   1.796   2.464  14.054  0.0666  0.0803  0.3825
 2726SOL    HW119814   1.865   2.399  14.070  2.8722  2.8934 -0.4188
 2726SOL    HW219815   1.741   2.475  14.131  0.9268  1.2809  0.8172
 2727SOL     OW19816   4.397   4.286   4.295  0.6172  0.1822  0.1448
 2727SOL    HW119817   4.326   4.327   4.343  0.9865  0.4698  0.4487
 2727SOL    HW219818   4.473   4.328   4.336 -1.3871  1.6896  2.2686
 2728SOL     OW19819   2.943   3.659  12.304  0.0046  0.4764  0.7240
 2728SOL    HW119820   2.951   3.734  12.363 -1.6796 -0.0797  1.6536
 2728SOL    HW219821   2.854   3.635  12.329  0.8032 -3.6366 -0.3230
 2729SOL     OW19822   3.765   3.618   2.621  0.5330 -0.0848 -0.6041
 2729SOL    HW119823   3.675   3.646   2.635  0.9345  0.1494  1.5539
 2729SOL    HW219824   3.800   3.705   2.600  0.1048  0.3373  0.4060
 2730SOL     OW19825   2.599   2.154   8.709 -0.3264  0.1808 -0.3515
 2730SOL    HW119826   2.547   2.166   8.629 -0.8212  2.8814  0.3941
 2730SOL    HW219827   2.564   2.067   8.727  1.5756 -0.3370  0.7808
 2731SOL     OW19828   2.064   3.963   8.459 -0.1423  0.1055 -0.0463
 2731SOL    HW119829   2.129   3.981   8.391  1.8989 -1.6377  1.4585
 2731SOL    HW219830   1.983   3.985   8.413  2.1280 -1.6057 -4.8473
 2732SOL     OW19831   1.624   4.706   7.968 -0.2678 -0.0311  0.0324
 2732SOL    HW119832   1.649   0.032   7.902 -0.5504 -0.6530 -0.6869
 2732SOL    HW219833   1.534   4.697   7.937  0.0808  0.4073 -1.1269
 2733SOL     OW19834   3.193   1.021   8.853  0.4085  0.0771  0.0592
 2733SOL    HW119835   3.146   1.100   8.825 -1.4378 -0.4664  1.6988
 2733SOL    HW219836   3.256   1.057   8.915  0.3331  0.5184 -0.1197
 2734SOL     OW19837   0.292   0.566   2.095  0.4192 -0.1019 -0.1165
 2734SOL    HW119838   0.262   0.480   2.123  2.5608 -0.2031  1.8918
 2734SOL    HW219839   0.350   0.537   2.024  0.9047 -0.0531  0.2610
 2735SOL     OW19840   3.029   3.081   4.751  0.1600 -0.3636 -0.5373
 2735SOL    HW119841   3.071   3.164   4.774  1.1584 -1.1585  0.4714
 2735SOL    HW219842   3.066   3.078   4.663  1.1111  0.6474 -0.1743
 2736SOL     OW19843   2.361   1.097   8.374  0.3737 -0.2972  0.0273
 2736SOL    HW119844   2.347   1.025   8.312 -1.3379  0.5887 -0.6241
 2736SOL    HW219845   2.305   1.080   8.450 -1.5037  2.0115 -0.8341
 2737SOL     OW19846   1.737   4.595   0.463 -0.3707 -0.7437  0.0710
 2737SOL    HW119847   1.691   4.518   0.428  2.7355 -1.2845 -2.7980
 2737SOL    HW219848   1.707   4.657   0.398  0.0023 -2.0185 -1.3216
 2738SOL     OW19849   2.708   0.224  15.838  0.4917  0.2214 -0.3115
 2738SOL    HW119850   2.614   0.232  15.854  0.8561  1.6914  1.1578
 2738SOL    HW219851   2.735   0.158  15.902 -0.0676  0.7462  0.4738
 2739SOL     OW19852   1.841   4.015   8.345  0.0951 -0.5988  0.1994
 2739SOL    HW119853   1.809   4.067   8.271 -1.0279 -0.4880  0.7623
 2739SOL    HW219854   1.764   4.015   8.401  0.1312  0.9615  0.2499
 2740SOL     OW19855   0.226   1.124   7.703  0.2317  0.2618 -0.0407
 2740SOL    HW119856   0.161   1.054   7.705 -0.3923  0.8318 -0.3780
 2740SOL    HW219857   0.213   1.158   7.792 -0.9297 -0.2276 -0.0249
 2741SOL     OW19858   0.117   4.349  10.553  0.0837 -0.5053  0.2359
 2741SOL    HW119859   0.043   4.295  10.524 -0.1713  0.3473 -0.7182
 2741SOL    HW219860   0.185   4.293  10.515 -0.5680 -2.0283  1.3088
 2742SOL     OW19861   0.419   2.287   6.337  0.3069 -0.0307 -0.3747
 2742SOL    HW119862   0.405   2.295   6.431  0.2060 -0.8769 -0.3171
 2742SOL    HW219863   0.508   2.255   6.324  0.8934  0.5472  2.2277
 2743SOL     OW19864   4.586   2.351  14.652 -0.5868 -0.1754  0.6138
 2743SOL    HW119865   4.500   2.391  14.666 -0.5276  0.2660 -0.2779
 2743SOL    HW219866   4.589   2.277  14.712  1.3166 -0.8066 -0.2586
 2744SOL     OW19867   0.401   2.210   6.603 -0.1226  0.6076  0.1188
 2744SOL    HW119868   0.434   2.299   6.621 -0.0452  0.5599  0.2173
 2744SOL    HW219869   0.323   2.215   6.658 -1.6109  0.1376 -1.9884
 2745SOL     OW19870   0.140   2.458   7.389  0.2138 -0.5940 -0.0104
 2745SOL    HW119871   0.150   2.396   7.462 -1.1686 -1.1531 -0.2886
 2745SOL    HW219872   0.083   2.400   7.339  3.1087 -2.6080 -0.9448
 2746SOL     OW19873   1.057   2.115   6.604 -0.6045 -0.5019  0.1817
 2746SOL    HW119874   1.118   2.047   6.576  2.0794  2.7661 -1.9077
 2746SOL    HW219875   0.974   2.069   6.595 -0.4633 -0.7229  0.0044
 2747SOL     OW19876   3.682   3.360  15.442  0.3906  0.3327  0.0478
 2747SOL    HW119877   3.671   3.330  15.532  3.1892  1.8674  0.9156
 2747SOL    HW219878   3.777   3.351  15.436 -0.0484 -2.6053 -2.5326
 2748SOL     OW19879   1.436   2.918   8.611 -0.3085  0.2916  0.2977
 2748SOL    HW119880   1.514   2.869   8.587 -0.9276 -0.1621 -0.8115
 2748SOL    HW219881   1.396   2.912   8.524  0.0383  0.4157  0.1280
 2749SOL     OW19882   2.583   2.718   7.092  0.4223 -0.2047 -0.5980
 2749SOL    HW119883   2.618   2.771   7.163 -4.1911  0.5538  1.0857
 2749SOL    HW219884   2.498   2.697   7.130  1.0448 -0.8752  0.3933
 2750SOL     OW19885   4.657   1.176   9.637  0.6217  0.0549  0.5250
 2750SOL    HW119886   4.712   1.225   9.698  1.2164 -1.6996  1.3728
 2750SOL    HW219887   4.722   1.168   9.568 -0.3978  0.9785 -0.5627
 2751SOL     OW19888   0.813   0.862  12.863  0.3584  0.7621  0.1813
 2751SOL    HW119889   0.807   0.768  12.846 -1.0321  0.9377 -0.2928
 2751SOL    HW219890   0.907   0.867  12.846  0.1898  0.5102 -0.7997
 2752SOL     OW19891   4.641   3.981  12.677  0.1919 -0.3923  0.4437
 2752SOL    HW119892   4.692   3.977  12.758  2.0340  0.9841 -0.6605
 2752SOL    HW219893   4.709   3.957  12.614  0.7435 -0.0371  0.9012
 2753SOL     OW19894   4.096   1.959   8.274  0.1924  0.2355 -0.0769
 2753SOL    HW119895   4.057   1.873   8.259  1.1815 -0.3567  0.7205
 2753SOL    HW219896   4.187   1.933   8.266  0.4176  1.9881 -3.2031
 2754SOL     OW19897   4.183   4.062   7.874 -0.3493 -0.3317  0.1914
 2754SOL    HW119898   4.251   4.129   7.873 -0.0686 -0.6258 -0.3603
 2754SOL    HW219899   4.185   4.032   7.965  0.7437  1.0694  0.6181
 2755SOL     OW19900   1.856   3.248   3.365  0.1983  0.5592 -0.4165
 2755SOL    HW119901   1.890   3.199   3.440 -4.1818  0.7036  1.6904
 2755SOL    HW219902   1.915   3.214   3.298  1.8961 -0.1444  1.4162
 2756SOL     OW19903   1.869   4.347   8.593 -0.0714 -0.1632  0.0375
 2756SOL    HW119904   1.775   4.343   8.613  0.1918  0.6284  1.3693
 2756SOL    HW219905   1.862   4.367   8.499 -1.4915 -1.3295 -0.1077
 2757SOL     OW19906   4.620   4.114  13.773  0.1057 -0.2562  0.0215
 2757SOL    HW119907   4.622   4.022  13.797 -1.4615 -0.1770  0.4562
 2757SOL    HW219908   4.584   4.153  13.853  0.4059  1.0410 -0.4683
 2758SOL     OW19909   2.725   0.085   8.501 -0.3106 -0.2298  0.6924
 2758SOL    HW119910   2.728   0.164   8.555 -0.6226 -1.3846  2.4153
 2758SOL    HW219911   2.636   0.059   8.523 -0.3500  0.9458  1.9873
 2759SOL     OW19912   1.273   4.567   9.046 -0.5734 -0.1515 -0.3551
 2759SOL    HW119913   1.280   4.653   9.087  1.2962 -0.2966 -0.3615
 2759SOL    HW219914   1.367   4.553   9.034 -0.7627 -2.5603  0.9384
 2760SOL     OW19915   2.671   3.166   2.540  0.0391  0.0023  0.5282
 2760SOL    HW119916   2.585   3.127   2.521  0.7004 -1.0773 -0.1896
 2760SOL    HW219917   2.677   3.135   2.630 -0.1418 -0.3977  0.4003
 2761SOL     OW19918   0.035   1.525  11.809  0.0746 -0.9413  0.1773
 2761SOL    HW119919   0.091   1.566  11.743 -0.9337 -1.9748 -1.3336
 2761SOL    HW219920   4.724   1.455  11.768 -1.9897  0.9710 -0.5142
 2762SOL     OW19921   2.713   3.873   7.443  0.3925 -0.0640  0.4105
 2762SOL    HW119922   2.740   3.812   7.511 -0.7610  0.4254  1.3044
 2762SOL    HW219923   2.795   3.922   7.442 -0.1282  0.8243  0.8535
 2763SOL     OW19924   2.682   4.120  15.542 -0.8101  0.5151 -0.1516
 2763SOL    HW119925   2.594   4.085  15.528 -0.7551  0.4615 -0.3691
 2763SOL    HW219926   2.739   4.053  15.505 -2.2191 -1.0849  0.6061
 2764SOL     OW19927   0.867   0.417   8.222  0.5296 -0.2865 -0.3549
 2764SOL    HW119928   0.877   0.490   8.161  0.5733 -0.8198 -0.9876
 2764SOL    HW219929   0.849   0.451   8.310  1.8687  0.1101 -0.2334
 2765SOL     OW19930   0.790   2.622   5.002 -0.1009 -0.7161  0.4338
 2765SOL    HW119931   0.846   2.623   5.080 -0.9932 -2.8379  1.1079
 2765SOL    HW219932   0.765   2.530   4.998  1.4398 -1.1398  0.3639
 2766SOL     OW19933   0.411   0.742   9.094  0.1801  0.1428  0.2886
 2766SOL    HW119934   0.328   0.715   9.056 -1.0435 -1.0536  3.8347
 2766SOL    HW219935   0.398   0.836   9.080  0.4275  0.0664 -0.4572
 2767SOL     OW19936   4.314   4.583  17.707  0.7092  0.0574  0.8992
 2767SOL    HW119937   4.332   4.666  17.751 -0.6521  0.2263  1.1385
 2767SOL    HW219938   4.365   4.520   0.001 -0.0288 -0.3033  1.2065
 2768SOL     OW19939   3.144   3.959   4.411 -0.1798 -0.2869  0.4189
 2768SOL    HW119940   3.104   3.876   4.436 -1.2711  0.1192  0.0099
 2768SOL    HW219941   3.076   4.024   4.431  2.8012  2.6275  1.1336
 2769SOL     OW19942   0.300   1.987  16.122 -0.2188  0.1235 -0.5582
 2769SOL    HW119943   0.223   1.995  16.066  1.0956  1.3260 -2.2031
 2769SOL    HW219944   0.326   2.079  16.125 -1.7123  0.5897 -1.5482
 2770SOL     OW19945   4.325   4.459  17.460  0.1779  0.2949  0.1861
 2770SOL    HW119946   4.342   4.508  17.541 -0.5401  1.0776 -0.1326
 2770SOL    HW219947   4.410   4.434  17.425  0.7862 -1.4697  2.9011
 2771SOL     OW19948   1.651   1.180   4.448 -0.3639  0.2251 -0.0237
 2771SOL    HW119949   1.571   1.141   4.413  0.2024 -1.0675  0.0890
 2771SOL    HW219950   1.625   1.266   4.479  2.8107  1.0857  0.2594
 2772SOL     OW19951   4.271   3.223  15.830 -0.0302 -0.2812 -0.0102
 2772SOL    HW119952   4.252   3.287  15.898 -0.2641 -0.7114  0.3222
 2772SOL    HW219953   4.219   3.249  15.753  2.2521  0.1861 -1.3924
 2773SOL     OW19954   1.882   3.971   2.412 -0.4385 -0.4974  0.3025
 2773SOL    HW119955   1.952   3.908   2.429  0.4121  0.0760 -1.0540
 2773SOL    HW219956   1.842   3.979   2.498  0.3607 -0.4816  0.6732
 2774SOL     OW19957   2.539   4.252   6.154  0.1131 -0.5020  0.6967
 2774SOL    HW119958   2.489   4.316   6.204  0.9256  1.1076 -0.5777
 2774SOL    HW219959   2.514   4.168   6.193 -0.4099  0.3057  2.1028
 2775SOL     OW19960   0.876   3.109   1.722 -0.2694  0.6804  0.0043
 2775SOL    HW119961   0.792   3.079   1.687  0.5795  1.8335 -3.0487
 2775SOL    HW219962   0.863   3.102   1.817 -0.4897 -0.7928 -0.1310
 2776SOL     OW19963   2.886   3.245   3.360 -0.1584  1.0130 -0.9844
 2776SOL    HW119964   2.873   3.331   3.399  0.5708  0.1773  1.1259
 2776SOL    HW219965   2.936   3.269   3.283  1.6239  1.7329  0.3999
 2777SOL     OW19966   0.147   0.556   4.982  0.1995  0.5663 -0.0873
 2777SOL    HW119967   0.084   0.542   4.911 -1.7379 -1.3003  2.0153
 2777SOL    HW219968   0.191   0.635   4.951  0.7153 -0.2094 -1.3306
 2778SOL     OW19969   0.653   2.839   8.898  0.6929 -0.1488  0.1994
 2778SOL    HW119970   0.586   2.890   8.944  0.8984 -1.3071  1.8035
 2778SOL    HW219971   0.736   2.859   8.942  0.8845 -0.0722 -0.1974
 2779SOL     OW19972   0.316   0.351   7.269  0.0810  0.3229 -0.2821
 2779SOL    HW119973   0.266   0.423   7.230  1.1385  1.5540  0.6234
 2779SOL    HW219974   0.250   0.283   7.284  0.1962  0.2139 -0.2736
 2780SOL     OW19975   3.915   2.287  14.349  0.4388 -0.0067  0.1552
 2780SOL    HW119976   3.918   2.351  14.420  2.1601  1.8493 -1.5824
 2780SOL    HW219977   3.980   2.221  14.372 -0.3852 -0.7732  0.2487
 2781SOL     OW19978   4.491   4.116  16.848  0.6300 -0.3721 -0.0418
 2781SOL    HW119979   4.402   4.122  16.813 -0.1187 -0.9345  1.7616
 2781SOL    HW219980   4.535   4.186  16.800 -1.4300  1.9710  1.5219
 2782SOL     OW19981   0.624   2.880   8.048 -0.0290  0.2105 -0.8055
 2782SOL    HW119982   0.562   2.825   8.097  0.6479  0.7368  0.6255
 2782SOL    HW219983   0.704   2.837   8.078 -0.2658  0.0005 -0.4729
 2783SOL     OW19984   2.129   4.234   2.520  0.3072  0.3483 -0.1047
 2783SOL    HW119985   2.217   4.197   2.515  0.6833  1.4353 -1.5197
 2783SOL    HW219986   2.120   4.266   2.430  2.0464 -1.2770 -0.8463
 2784SOL     OW19987   0.788   4.719  11.930  0.4113  0.4466 -0.1722
 2784SOL    HW119988   0.704   0.007  11.967 -1.0966 -2.1150 -1.7051
 2784SOL    HW219989   0.832   4.702  12.013  0.1318 -0.0674 -0.1340
 2785SOL     OW19990   2.826   0.222   5.813  0.0708  0.0801  0.1270
 2785SOL    HW119991   2.881   0.169   5.871  0.6905 -0.2368 -0.7523
 2785SOL    HW219992   2.852   0.310   5.838 -0.0635 -0.0482  0.7307
 2786SOL     OW19993   1.068   4.556   7.081 -0.3409  0.5783  0.0395
 2786SOL    HW119994   1.058   4.497   7.006  0.5294  0.2032  0.2179
 2786SOL    HW219995   1.125   4.503   7.137 -1.0001  1.9551  1.9757
 2787SOL     OW19996   0.358   1.928   7.167  0.0100  0.4619  0.0347
 2787SOL    HW119997   0.282   1.967   7.211  0.8247 -1.0335  2.7593
 2787SOL    HW219998   0.373   1.855   7.228 -1.5027  1.3127  1.4136
 2788SOL     OW19999   1.412   1.375   1.491  0.8135 -0.3681 -0.9106
 2788SOL    HW120000   1.393   1.431   1.415 -0.5668  2.8739  1.8393
 2788SOL    HW220001   1.321   1.359   1.515  0.4229 -1.8519 -3.4054
 2789SOL     OW20002   0.399   3.922   1.621  0.2113  0.0697  0.7723
 2789SOL    HW120003   0.484   3.947   1.584 -0.1667 -0.9687 -0.7862
 2789SOL    HW220004   0.418   3.828   1.619  1.6660  0.3892 -0.6739
 2790SOL     OW20005   4.590   0.223   8.568  0.6939  0.9077 -0.1606
 2790SOL    HW120006   4.508   0.177   8.582  0.0106  1.8258 -1.2322
 2790SOL    HW220007   4.649   0.147   8.578 -1.9145 -1.0356  0.3713
 2791SOL     OW20008   3.964   3.474   8.254 -0.1298  0.5805  0.1055
 2791SOL    HW120009   4.048   3.517   8.269  0.8756 -0.4815 -2.4652
 2791SOL    HW220010   3.943   3.469   8.347  3.9156  0.6438  1.0026
 2792SOL     OW20011   3.791   2.918   7.015  0.1826  0.1991 -0.0646
 2792SOL    HW120012   3.701   2.950   7.007 -0.5911 -1.5313  1.7034
 2792SOL    HW220013   3.803   2.925   7.110  0.5257 -0.2560 -0.0737
 2793SOL     OW20014   0.485   2.340  13.157 -0.3803  0.0942  0.6788
 2793SOL    HW120015   0.434   2.266  13.124 -1.2496  0.6887  0.7074
 2793SOL    HW220016   0.487   2.399  13.081  3.1973  0.6503  1.1978
 2794SOL     OW20017   2.072   0.970   4.362 -0.4902  0.1342  0.0436
 2794SOL    HW120018   2.114   0.922   4.291 -0.3569  0.0264  0.1979
 2794SOL    HW220019   2.005   0.912   4.398  0.1258  1.0831  2.7258
 2795SOL     OW20020   3.676   2.180   2.340  0.5136 -0.1596  0.1830
 2795SOL    HW120021   3.678   2.227   2.424  0.4150  2.2301 -1.1775
 2795SOL    HW220022   3.606   2.223   2.292  0.2674 -0.2731  0.4371
 2796SOL     OW20023   4.513   0.694   6.973  0.2042  0.2222 -0.1985
 2796SOL    HW120024   4.529   0.757   7.044 -2.9365  2.9262 -1.8726
 2796SOL    HW220025   4.417   0.693   6.977  0.2823 -1.8526  1.0062
 2797SOL     OW20026   4.434   3.767   8.733 -0.1412  0.3155 -0.0028
 2797SOL    HW120027   4.400   3.856   8.720  1.4860  1.1277  1.3018
 2797SOL    HW220028   4.374   3.738   8.802  0.5472 -0.3021  0.3230
 2798SOL     OW20029   4.156   4.015   8.161 -0.2123  0.1659 -1.4180
 2798SOL    HW120030   4.142   3.994   8.254  1.7104 -0.3279 -1.2398
 2798SOL    HW220031   4.177   4.108   8.170 -0.5364  0.0261  0.8211
 2799SOL     OW20032   3.783   3.851   1.806 -0.0878 -0.3994  0.2401
 2799SOL    HW120033   3.735   3.790   1.862  0.8013 -1.0454  0.2885
 2799SOL    HW220034   3.870   3.819   1.830  0.8658 -0.1849 -2.9266
 2800SOL     OW20035   3.923   0.847  10.626  0.4950  0.3182 -0.2972
 2800SOL    HW120036   3.953   0.838  10.535 -0.3697 -1.4384 -0.4017
 2800SOL    HW220037   3.893   0.761  10.653 -0.4985  1.2583  1.5961
 2801SOL     OW20038   3.296   1.908   9.715  0.5159 -0.6360 -0.0765
 2801SOL    HW120039   3.251   1.915   9.631  0.0814 -2.4505  0.0065
 2801SOL    HW220040   3.297   1.998   9.748 -2.6942 -0.3493 -0.7506
 2802SOL     OW20041   1.841   1.635   1.895  0.4907  0.9021 -0.5224
 2802SOL    HW120042   1.854   1.729   1.907 -0.3192  0.7153  1.6706
 2802SOL    HW220043   1.786   1.616   1.970 -1.2838  1.0907 -1.7850
 2803SOL     OW20044   1.896   1.545   5.017  0.0366 -0.0750 -0.2211
 2803SOL    HW120045   1.802   1.539   5.001  0.0569  0.7832 -0.6522
 2803SOL    HW220046   1.915   1.455   5.045 -1.2916 -0.2111  0.2577
 2804SOL     OW20047   0.953   1.740  13.455 -0.4132  0.3619  0.5049
 2804SOL    HW120048   0.990   1.794  13.385 -0.3562  0.9739  1.0033
 2804SOL    HW220049   0.901   1.807  13.500 -0.6343  0.4006  0.1907
 2805SOL     OW20050   3.447   1.073  10.760  0.4070 -0.0143  0.2994
 2805SOL    HW120051   3.532   1.112  10.740  1.9578 -0.7582  5.3423
 2805SOL    HW220052   3.469   0.981  10.775  0.1637 -0.0186  0.6324
 2806SOL     OW20053   4.472   2.781  13.540 -0.4885  0.5159  0.1297
 2806SOL    HW120054   4.422   2.824  13.469 -0.6183  1.7928  1.0011
 2806SOL    HW220055   4.521   2.718  13.488  0.2526 -0.2874  1.8193
 2807SOL     OW20056   3.526   2.401   2.566 -0.0868  0.2188 -0.0193
 2807SOL    HW120057   3.466   2.374   2.497  0.9982  0.8928 -1.2208
 2807SOL    HW220058   3.474   2.384   2.645 -0.7355  0.8311 -0.3150
 2808SOL     OW20059   2.724   1.139   6.167  0.0780 -0.3334 -0.2325
 2808SOL    HW120060   2.813   1.108   6.150  0.5066 -0.8304  2.8419
 2808SOL    HW220061   2.705   1.190   6.088  0.8902  1.9422  1.0278
 2809SOL     OW20062   4.702   3.652   4.522 -0.9870 -0.2153  0.3501
 2809SOL    HW120063   0.017   3.649   4.601 -0.6555  0.2637  0.1379
 2809SOL    HW220064   4.679   3.559   4.514  0.3816 -0.5504  0.2607
 2810SOL     OW20065   2.604   1.396   6.375 -0.7952 -0.2771 -0.1269
 2810SOL    HW120066   2.541   1.426   6.441 -1.1285 -1.5476  0.1285
 2810SOL    HW220067   2.556   1.318   6.348 -0.8278 -0.3356  0.1001
 2811SOL     OW20068   1.068   4.190   3.784 -0.1649 -0.1588  0.3408
 2811SOL    HW120069   1.148   4.241   3.769  0.8109 -1.6356  0.4907
 2811SOL    HW220070   1.058   4.148   3.699  3.2503 -2.0104  0.8247
 2812SOL     OW20071   2.988   4.200   4.437 -0.0571  0.2991  0.8518
 2812SOL    HW120072   2.920   4.267   4.434 -0.6039 -0.4783 -3.4160
 2812SOL    HW220073   3.063   4.252   4.410  0.0005  0.4572  1.3128
 2813SOL     OW20074   2.129   1.290  13.419 -0.5804 -0.1033  0.2528
 2813SOL    HW120075   2.130   1.200  13.389 -1.6931 -0.2072  0.5259
 2813SOL    HW220076   2.199   1.284  13.484 -1.5062 -0.2890  1.2288
 2814SOL     OW20077   3.174   1.421   3.641 -0.3389  0.1687 -0.2834
 2814SOL    HW120078   3.152   1.379   3.724  1.4856 -3.7519 -1.8194
 2814SOL    HW220079   3.159   1.515   3.652 -0.9457  0.0915 -0.4238
 2815SOL     OW20080   4.110   0.232   6.339  0.1080  0.1701  0.5038
 2815SOL    HW120081   4.092   0.318   6.377 -0.9021 -0.3385  1.1816
 2815SOL    HW220082   4.108   0.255   6.246 -0.6640  0.8830  0.7031
 2816SOL     OW20083   3.744   2.779   7.842  0.2752 -0.0250 -0.3007
 2816SOL    HW120084   3.818   2.816   7.891  1.7440 -0.3746 -2.2812
 2816SOL    HW220085   3.732   2.862   7.796  0.1602  0.2151  0.1568
 2817SOL     OW20086   1.070   1.008   3.506 -0.1263  0.0766 -0.5487
 2817SOL    HW120087   1.014   1.014   3.429 -0.5684 -1.7217 -0.3623
 2817SOL    HW220088   1.044   0.925   3.547 -0.1216 -0.7940 -2.3087
 2818SOL     OW20089   0.416   2.255  16.085 -0.1817 -0.3994 -0.4398
 2818SOL    HW120090   0.462   2.335  16.109 -0.8664 -0.2047  0.2308
 2818SOL    HW220091   0.434   2.253  15.992  2.4376 -0.5497  0.0880
 2819SOL     OW20092   3.565   1.854   0.376  1.1352 -0.2822  0.1951
 2819SOL    HW120093   3.471   1.862   0.360  0.9822 -2.1202  0.1075
 2819SOL    HW220094   3.585   1.945   0.354  1.1335 -0.4535 -0.5193
 2820SOL     OW20095   3.178   0.930  15.366  0.0034 -0.1178  0.1702
 2820SOL    HW120096   3.256   0.975  15.335 -0.7465 -0.2489 -1.8722
 2820SOL    HW220097   3.109   0.995  15.380  0.4034  0.4294 -0.3845
 2821SOL     OW20098   3.729   0.225   8.985  0.4475 -0.8021  0.2979
 2821SOL    HW120099   3.779   0.157   9.029  0.6109 -0.4535  0.6559
 2821SOL    HW220100   3.720   0.289   9.056  1.0324  0.3219 -0.6530
 2822SOL     OW20101   3.039   3.459   6.507  0.4706 -0.0722  0.6216
 2822SOL    HW120102   2.943   3.459   6.508  0.4787  2.1201 -0.9549
 2822SOL    HW220103   3.049   3.368   6.537  2.5145 -0.4955 -1.3647
 2823SOL     OW20104   3.206   2.409   0.928 -0.1910 -0.3068  0.4877
 2823SOL    HW120105   3.269   2.418   1.000  0.2094  0.0258  0.0988
 2823SOL    HW220106   3.131   2.466   0.944  1.6646  2.2590  0.0873
 2824SOL     OW20107   0.614   2.086  16.198  0.1280  0.8054 -0.4771
 2824SOL    HW120108   0.600   1.996  16.170  1.0652  0.1097  1.2865
 2824SOL    HW220109   0.585   2.138  16.123  1.6737  2.2085 -0.1118
 2825SOL     OW20110   1.009   1.384   3.649 -0.2024 -0.1872 -0.3843
 2825SOL    HW120111   1.103   1.367   3.659 -0.0109  1.9709  1.3915
 2825SOL    HW220112   0.980   1.449   3.713  1.0097 -0.1026  0.0767
 2826SOL     OW20113   4.197   0.772   4.362 -0.2984 -0.0896 -0.0759
 2826SOL    HW120114   4.196   0.679   4.383  2.0647  0.1501  1.1395
 2826SOL    HW220115   4.137   0.809   4.427  0.7652  0.0361  0.8449
 2827SOL     OW20116   1.774   3.029   2.747 -0.6196 -0.2147 -0.0395
 2827SOL    HW120117   1.709   2.963   2.769 -0.3455 -0.3248  0.4338
 2827SOL    HW220118   1.858   2.987   2.767 -0.4473  0.4973  0.7514
 2828SOL     OW20119   0.027   1.965   5.385 -0.2908 -0.3547  0.3255
 2828SOL    HW120120   0.061   1.975   5.474  1.8074 -0.3939 -0.4898
 2828SOL    HW220121   0.020   2.059   5.370 -2.8929 -0.6714 -0.5967
 2829SOL     OW20122   0.214   0.309   0.420 -0.1483 -0.2686 -0.1078
 2829SOL    HW120123   0.294   0.352   0.450  0.4102 -1.6463  0.3796
 2829SOL    HW220124   0.147   0.347   0.478  0.4413  0.9819 -0.2419
 2830SOL     OW20125   1.590   3.973  11.628  0.5682  0.6100 -0.8237
 2830SOL    HW120126   1.498   3.992  11.644  0.1664 -1.0453 -1.1703
 2830SOL    HW220127   1.627   4.007  11.709  0.4624 -0.8350 -0.1788
 2831SOL     OW20128   3.869   0.945   9.024  0.0556  0.4201 -0.4969
 2831SOL    HW120129   3.902   0.856   9.010  0.1969  0.7327 -2.1914
 2831SOL    HW220130   3.788   0.963   8.977 -0.8340  0.9230  1.2128
 2832SOL     OW20131   0.583   3.100   1.635 -0.3077  0.2329 -0.1898
 2832SOL    HW120132   0.526   3.117   1.560  0.5443  0.8131 -0.7007
 2832SOL    HW220133   0.520   3.054   1.692 -0.9869  0.7283 -0.5365
 2833SOL     OW20134   4.530   2.199  14.410 -0.1666  0.4424  0.0370
 2833SOL    HW120135   4.505   2.256  14.337 -0.1426  1.1553  0.5820
 2833SOL    HW220136   4.566   2.260  14.475 -0.3808 -0.9145  1.4388
 2834SOL     OW20137   1.161   2.994  11.276 -0.0001  0.5510 -0.0879
 2834SOL    HW120138   1.140   3.034  11.361  0.9244 -2.2033  1.4450
 2834SOL    HW220139   1.200   3.066  11.227  0.3251  0.0218 -0.6050
 2835SOL     OW20140   0.766   0.153  13.363  0.2901  0.2398 -0.2279
 2835SOL    HW120141   0.717   0.117  13.436 -2.1278  0.1716 -1.9010
 2835SOL    HW220142   0.855   0.156  13.398 -0.5840  0.5805  1.9804
 2836SOL     OW20143   3.378   3.443  17.614  0.1430 -0.6255  0.4881
 2836SOL    HW120144   3.387   3.438  17.709 -0.8708 -3.1144  0.4464
 2836SOL    HW220145   3.422   3.528  17.607 -0.8419  0.1066  3.3713
 2837SOL     OW20146   2.358   1.762   6.518 -0.1844  0.8342  0.2957
 2837SOL    HW120147   2.351   1.675   6.478  0.6955  1.4462 -1.1868
 2837SOL    HW220148   2.452   1.776   6.531 -0.1150  1.1113 -0.5174
 2838SOL     OW20149   4.458   3.089   6.000  0.0408  0.3822  0.1489
 2838SOL    HW120150   4.501   3.006   6.024  1.2535  0.2779 -2.2865
 2838SOL    HW220151   4.367   3.075   6.027  0.4493 -1.3352  0.6335
 2839SOL     OW20152   4.487   4.296   8.317  0.6041 -0.0640  0.0317
 2839SOL    HW120153   4.575   4.328   8.300  0.8840  0.2080  2.0310
 2839SOL    HW220154   4.454   4.368   8.371  0.5690  0.9399 -1.3177
 2840SOL     OW20155   4.465   0.119   6.163 -0.1560  0.1134 -0.3256
 2840SOL    HW120156   4.497   0.079   6.244  0.4144 -2.0013 -1.5928
 2840SOL    HW220157   4.537   0.096   6.105  0.1952  1.1112 -0.2702
 2841SOL     OW20158   1.439   2.848   5.096 -0.3992 -0.5740  0.3782
 2841SOL    HW120159   1.464   2.906   5.168  0.0842  1.0777 -1.1289
 2841SOL    HW220160   1.375   2.785   5.130 -1.9883  0.7567 -0.1138
 2842SOL     OW20161   2.624   1.526   6.836  0.8250  0.5942  0.2298
 2842SOL    HW120162   2.566   1.469   6.885  0.1070  0.0496 -1.2465
 2842SOL    HW220163   2.656   1.460   6.775 -0.3878  0.8574 -0.6991
 2843SOL     OW20164   3.093   1.662   5.382  0.0920 -0.7802  0.6267
 2843SOL    HW120165   3.149   1.634   5.310 -0.6455 -1.1182  0.1862
 2843SOL    HW220166   3.128   1.606   5.452  1.2093 -0.5803  0.2176
 2844SOL     OW20167   1.150   4.441   5.423 -0.3127  0.2631  0.5385
 2844SOL    HW120168   1.162   4.534   5.446 -1.3857  1.0028 -1.9733
 2844SOL    HW220169   1.113   4.446   5.335 -1.6417 -1.3843  1.0170
 2845SOL     OW20170   3.577   4.349   7.056 -0.0345  0.2926  0.3310
 2845SOL    HW120171   3.641   4.413   7.027  0.4823 -0.4249 -0.1206
 2845SOL    HW220172   3.633   4.276   7.082  1.2220  0.0792 -2.9211
 2846SOL     OW20173   1.370   1.980   6.161 -0.0177  0.2428 -0.2334
 2846SOL    HW120174   1.465   1.985   6.165 -0.0157  0.3191 -0.3594
 2846SOL    HW220175   1.339   2.069   6.176  1.6564  0.6128  1.0327
 2847SOL     OW20176   1.060   1.248   4.226 -0.7048 -0.1686  1.1266
 2847SOL    HW120177   1.152   1.269   4.211 -1.4763  0.2561 -3.0522
 2847SOL    HW220178   1.071   1.153   4.226  0.7388 -0.0125 -1.0408
 2848SOL     OW20179   2.845   1.513  12.950 -0.6820  0.1871 -0.0609
 2848SOL    HW120180   2.837   1.472  13.036 -0.2007  0.2924  0.0344
 2848SOL    HW220181   2.779   1.583  12.957 -0.8713 -0.0909  0.9364
 2849SOL     OW20182   3.536   2.801  15.079  0.0370 -0.3060  0.1655
 2849SOL    HW120183   3.546   2.706  15.087  1.4911 -0.1799 -0.2007
 2849SOL    HW220184   3.448   2.795  15.041 -0.0723  0.9975  0.2232
 2850SOL     OW20185   1.738   4.258   8.128  0.2014 -0.1797  0.7177
 2850SOL    HW120186   1.674   4.329   8.117 -1.5302 -1.6384  1.3855
 2850SOL    HW220187   1.759   4.232   8.039 -0.4559 -2.7415  1.3094
 2851SOL     OW20188   2.441   4.350  17.558  0.1599 -0.4629  0.0294
 2851SOL    HW120189   2.434   4.256  17.576  3.1629 -0.6344  0.3165
 2851SOL    HW220190   2.348   4.369  17.570  0.0277 -0.5201 -0.8629
 2852SOL     OW20191   1.550   1.304   2.400  0.2845  0.0983  0.0975
 2852SOL    HW120192   1.499   1.224   2.418 -1.4493  0.8637 -1.3734
 2852SOL    HW220193   1.602   1.314   2.479 -1.0150  0.0810  0.9609
 2853SOL     OW20194   1.559   0.440   3.146 -0.7579 -0.0161 -0.6840
 2853SOL    HW120195   1.469   0.415   3.167 -0.8236  0.1846 -0.7323
 2853SOL    HW220196   1.551   0.497   3.069  0.1642  1.6189  0.4378
 2854SOL     OW20197   4.364   4.700  10.950  0.3268  0.6378 -0.0896
 2854SOL    HW120198   4.277   4.687  10.911  0.7604 -1.0240 -0.5252
 2854SOL    HW220199   4.361   0.056  10.944 -0.3388  0.5291 -1.4475
 2855SOL     OW20200   2.454   4.181   5.856 -0.0644  0.8764  0.3358
 2855SOL    HW120201   2.489   4.266   5.881  0.4487  0.9377 -0.6003
 2855SOL    HW220202   2.362   4.202   5.872 -0.7157 -1.5499 -0.2894
 2856SOL     OW20203   0.794   1.120   6.569  0.1553 -0.4518  0.2457
 2856SOL    HW120204   0.838   1.068   6.501 -1.1532 -0.2075 -0.7946
 2856SOL    HW220205   0.699   1.112   6.556  0.1074 -2.8539  2.0523
 2857SOL     OW20206   0.410   4.508   3.530  0.2937 -0.6238  0.0273
 2857SOL    HW120207   0.483   4.452   3.557  1.5107 -0.1609 -2.2700
 2857SOL    HW220208   0.344   4.453   3.572 -0.8597 -1.3797 -2.7950
 2858SOL     OW20209   1.478   1.561   8.886 -0.3045 -0.0215  0.0271
 2858SOL    HW120210   1.499   1.654   8.893 -1.3982  0.2181  0.0616
 2858SOL    HW220211   1.473   1.536   8.978  1.0086  0.3206  0.1926
 2859SOL     OW20212   0.891   2.896  13.632  0.1915 -0.7037  0.5525
 2859SOL    HW120213   0.840   2.882  13.712 -0.6260  0.0959  0.1753
 2859SOL    HW220214   0.827   2.853  13.575  0.7734  0.8877 -1.2761
 2860SOL     OW20215   4.172   3.340   5.349  0.0293 -0.2472 -0.1187
 2860SOL    HW120216   4.163   3.435   5.360  1.5288 -0.0333 -0.6869
 2860SOL    HW220217   4.228   3.336   5.272  0.7921 -2.5892  0.5409
 2861SOL     OW20218   2.657   3.511   9.529 -0.1086 -0.4908  0.4017
 2861SOL    HW120219   2.703   3.537   9.609  2.0984  4.7618 -2.5488
 2861SOL    HW220220   2.637   3.599   9.495  0.7304  0.4430  2.3293
 2862SOL     OW20221   4.512   4.734   8.418  0.0916 -0.3813 -0.0603
 2862SOL    HW120222   4.491   0.005   8.325  1.4117 -0.6383 -0.3843
 2862SOL    HW220223   4.442   0.045   8.460  1.1527  0.5160  0.6093
 2863SOL     OW20224   0.415   3.600  17.397 -0.2499  0.1726 -0.1801
 2863SOL    HW120225   0.376   3.659  17.331 -0.8728  0.7394  0.6942
 2863SOL    HW220226   0.344   3.537  17.405  1.1151 -1.2457  0.5371
 2864SOL     OW20227   3.576   3.089   6.869 -0.1032 -0.5679 -0.8144
 2864SOL    HW120228   3.617   3.175   6.878  0.6764 -0.9373 -0.8240
 2864SOL    HW220229   3.530   3.082   6.952  2.3518  2.2436  0.8108
 2865SOL     OW20230   3.902   3.446   6.873 -0.4382 -0.1498 -0.2361
 2865SOL    HW120231   3.840   3.402   6.932 -1.5813 -0.9874 -2.0536
 2865SOL    HW220232   3.977   3.451   6.932 -1.8827  1.1728  1.4768
 2866SOL     OW20233   1.545   2.285   6.356  0.0920  0.5187 -0.1422
 2866SOL    HW120234   1.564   2.328   6.272 -2.4389  2.6190  0.3659
 2866SOL    HW220235   1.451   2.298   6.372 -0.0146  1.6167 -1.6412
 2867SOL     OW20236   1.786   3.472  15.141  0.4331 -0.1015  0.0625
 2867SOL    HW120237   1.711   3.430  15.100 -1.1537  3.1466 -0.3477
 2867SOL    HW220238   1.862   3.430  15.102  1.7812 -1.0636  3.7128
 2868SOL     OW20239   3.698   2.380   3.733 -0.2375 -0.1845  0.2265
 2868SOL    HW120240   3.694   2.362   3.640  0.9024 -0.0380  0.1563
 2868SOL    HW220241   3.713   2.291   3.767  0.5410  0.4466  1.5535
 2869SOL     OW20242   1.244   1.578   0.139 -0.3960 -0.4011  0.1444
 2869SOL    HW120243   1.211   1.505   0.087 -1.4454  0.8191 -0.9024
 2869SOL    HW220244   1.178   1.646   0.123  1.4888  0.8437 -2.3978
 2870SOL     OW20245   0.676   1.307   8.431 -0.0762 -0.3349 -0.2830
 2870SOL    HW120246   0.751   1.281   8.378 -0.6731 -0.0253 -1.2637
 2870SOL    HW220247   0.645   1.218   8.449 -0.5637 -0.2418 -0.6732
 2871SOL     OW20248   3.539   2.616   3.349 -0.9847 -0.0187 -0.2868
 2871SOL    HW120249   3.554   2.711   3.349  1.9454 -0.5093  2.2429
 2871SOL    HW220250   3.581   2.593   3.431 -0.1244  1.9858 -0.1555
 2872SOL     OW20251   2.687   1.350   4.781 -0.4582  0.1758  0.1394
 2872SOL    HW120252   2.640   1.428   4.751  1.4088  0.0535 -3.1049
 2872SOL    HW220253   2.621   1.286   4.752 -1.1496  0.4656  1.0610
 2873SOL     OW20254   0.573   4.236   1.537  0.1199  0.3697 -0.6238
 2873SOL    HW120255   0.494   4.248   1.589 -0.2207 -1.1120 -0.7875
 2873SOL    HW220256   0.640   4.255   1.603 -0.7896 -0.4931  0.5637
 2874SOL     OW20257   3.912   0.771  17.446 -0.3809 -0.1787 -0.0291
 2874SOL    HW120258   3.999   0.765  17.407 -1.1202 -2.4198 -1.3697
 2874SOL    HW220259   3.891   0.864  17.439 -0.2689 -0.0876  0.8345
 2875SOL     OW20260   3.666   3.526   6.069  1.1501  0.4264 -0.0392
 2875SOL    HW120261   3.728   3.555   6.003 -0.7821  0.9374 -1.6208
 2875SOL    HW220262   3.592   3.499   6.015  0.3133  2.1530  0.2225
 2876SOL     OW20263   3.255   0.726  10.297  0.1245  0.4637 -0.3696
 2876SOL    HW120264   3.214   0.703  10.380 -0.0251  1.1494 -0.2546
 2876SOL    HW220265   3.187   0.706  10.233  1.0665  1.7879 -1.7787
 2877SOL     OW20266   0.243   4.730   5.951  0.1839 -0.4143 -0.2136
 2877SOL    HW120267   0.232   4.659   6.014 -0.3193  0.5137  0.7387
 2877SOL    HW220268   0.318   0.035   5.990 -0.2256 -2.0320  2.4140
 2878SOL     OW20269   1.372   0.328  15.044 -0.5097 -0.1266  0.1409
 2878SOL    HW120270   1.431   0.315  15.118 -0.1958  0.6240  0.0258
 2878SOL    HW220271   1.431   0.294  14.977 -0.0606 -0.3378  0.6485
 2879SOL     OW20272   0.033   1.342   7.840  0.3333  0.2275 -0.4193
 2879SOL    HW120273   4.694   1.289   7.830  0.4504  0.0798 -0.5599
 2879SOL    HW220274   0.008   1.431   7.817  0.3101  0.6281  1.1967
 2880SOL     OW20275   3.699   1.835   5.356  0.0732 -0.1850  0.0332
 2880SOL    HW120276   3.685   1.832   5.261  1.0112 -0.6886 -0.0942
 2880SOL    HW220277   3.729   1.924   5.376  0.0236 -0.5080  1.5112
 2881SOL     OW20278   1.119   2.545   4.452  0.2908 -0.4797 -0.2657
 2881SOL    HW120279   1.077   2.477   4.398 -0.4221  0.2884 -0.6904
 2881SOL    HW220280   1.039   2.590   4.480  0.5913 -0.7960  1.0966
 2882SOL     OW20281   3.336   0.390   2.936 -0.3847  0.4198 -0.6162
 2882SOL    HW120282   3.283   0.397   2.857 -1.3117 -0.0400 -0.0365
 2882SOL    HW220283   3.299   0.311   2.975 -0.1657  0.0622 -1.1312
 2883SOL     OW20284   0.386   3.999  16.065 -0.0340 -0.2103  0.3397
 2883SOL    HW120285   0.440   3.947  16.005  1.2455 -1.9837  3.0621
 2883SOL    HW220286   0.330   4.040  15.998 -0.6708 -0.8722  0.4656
 2884SOL     OW20287   3.107   3.517  16.048  0.2902 -0.5508  0.0139
 2884SOL    HW120288   3.162   3.570  15.991 -1.5569  0.7432 -0.5574
 2884SOL    HW220289   3.109   3.559  16.134  0.8431  1.1192 -0.8403
 2885SOL     OW20290   4.121   0.061   6.546  0.0093 -0.7467  0.4094
 2885SOL    HW120291   4.110   4.713   6.508 -1.9814  1.2555 -3.7367
 2885SOL    HW220292   4.136   0.111   6.465  0.7928 -0.3336  0.8106
 2886SOL     OW20293   2.602   1.021   6.844  0.2484  0.2424 -0.3348
 2886SOL    HW120294   2.664   0.951   6.866 -0.5261 -0.2833  0.1999
 2886SOL    HW220295   2.629   1.087   6.909 -0.1114  2.5232 -2.5212
 2887SOL     OW20296   1.716   3.382   3.056  0.1339  0.0263 -0.3663
 2887SOL    HW120297   1.741   3.432   2.978  1.1780 -1.7644 -1.1713
 2887SOL    HW220298   1.708   3.293   3.022 -0.3673 -0.0209 -0.1202
 2888SOL     OW20299   3.325   1.404   2.804 -0.0125 -0.5607 -0.4284
 2888SOL    HW120300   3.410   1.413   2.762 -0.7597  1.4524 -1.4683
 2888SOL    HW220301   3.305   1.490   2.841 -0.3740 -1.6960  2.0127
 2889SOL     OW20302   3.932   4.531   4.972 -0.3132 -0.6039  0.0908
 2889SOL    HW120303   3.909   4.608   4.920 -1.1598  1.2370  3.2105
 2889SOL    HW220304   3.843   4.500   4.990 -1.2981  1.2818 -1.5104
 2890SOL     OW20305   0.874   1.238   0.079 -0.2659  0.2027  0.0997
 2890SOL    HW120306   0.950   1.291   0.102  0.0657 -0.8663  1.4783
 2890SOL    HW220307   0.850   1.224   0.171 -1.2152 -2.2966 -0.5369
 2891SOL     OW20308   2.381   0.096   8.873  0.1769 -0.5008  0.4948
 2891SOL    HW120309   2.434   0.164   8.831 -0.3914 -0.8752 -0.8248
 2891SOL    HW220310   2.307   0.096   8.813  0.6001 -0.3905 -0.0332
 2892SOL     OW20311   1.056   2.593   9.742  0.4952 -0.2335 -0.2955
 2892SOL    HW120312   1.104   2.512   9.756  1.0956  0.1135 -0.3080
 2892SOL    HW220313   1.088   2.639   9.820  2.0319 -1.9474  0.0679
 2893SOL     OW20314   0.472   2.650   0.873 -0.4134 -0.1350  0.8972
 2893SOL    HW120315   0.460   2.665   0.967 -0.2436 -0.6608  1.0043
 2893SOL    HW220316   0.486   2.741   0.850  0.8564  0.0658  2.4559
 2894SOL     OW20317   1.556   3.030  16.582 -0.3923  0.2541 -0.0161
 2894SOL    HW120318   1.521   2.954  16.628 -0.2086  0.1139 -0.1060
 2894SOL    HW220319   1.488   3.094  16.600  1.7786  2.1271  1.6387
 2895SOL     OW20320   2.282   4.572   5.686  0.1554  0.3944 -0.3065
 2895SOL    HW120321   2.368   4.551   5.648 -0.5258  2.1766 -2.8064
 2895SOL    HW220322   2.268   4.644   5.625 -2.2371  0.0000 -0.2060
 2896SOL     OW20323   3.468   0.078   1.894  0.1201 -0.1240  0.0042
 2896SOL    HW120324   3.422   0.010   1.844  4.2338 -2.8287 -0.1312
 2896SOL    HW220325   3.407   0.119   1.954  3.6945  3.4331  1.2184
 2897SOL     OW20326   2.839   0.810  17.660  0.4235  0.0628 -0.0736
 2897SOL    HW120327   2.759   0.838  17.615  1.2492  0.3939 -1.3397
 2897SOL    HW220328   2.913   0.855  17.620 -1.4930 -0.2903 -4.0009
 2898SOL     OW20329   3.986   3.624   3.151  0.8609  0.1806 -0.6560
 2898SOL    HW120330   4.070   3.624   3.197 -1.2144 -0.9868  3.2341
 2898SOL    HW220331   3.999   3.545   3.098  3.2875  1.1412 -1.4920
 2899SOL     OW20332   2.395   2.222   9.191  0.0820  0.2346  0.5406
 2899SOL    HW120333   2.318   2.170   9.168  0.6218 -0.7062  0.8583
 2899SOL    HW220334   2.455   2.200   9.120  0.7815  1.6222  0.7032
 2900SOL     OW20335   2.136   3.331   3.023 -0.1593  0.1404  0.2027
 2900SOL    HW120336   2.225   3.363   3.043  0.7298 -0.9067 -2.1271
 2900SOL    HW220337   2.089   3.406   3.058 -0.4209 -0.5572  1.3648
 2901SOL     OW20338   1.318   3.018   9.333 -0.1486 -0.3194 -0.5264
 2901SOL    HW120339   1.301   3.007   9.427  2.7215  1.2274  0.1586
 2901SOL    HW220340   1.351   2.932   9.307 -2.2651 -1.6380  1.1159
 2902SOL     OW20341   1.442   3.543   8.516 -0.5411 -0.2698  0.3476
 2902SOL    HW120342   1.449   3.612   8.449 -0.8664  0.0873  0.6868
 2902SOL    HW220343   1.484   3.467   8.475 -0.3156  0.5717 -1.0014
 2903SOL     OW20344   3.146   1.727   2.257  0.3676  0.0228  0.0437
 2903SOL    HW120345   3.078   1.716   2.324 -0.8950 -0.8908 -1.3961
 2903SOL    HW220346   3.118   1.661   2.193 -1.7483 -1.0996  2.1262
 2904SOL     OW20347   4.510   2.290   3.781  0.1776 -0.7084  0.0964
 2904SOL    HW120348   4.579   2.241   3.826  0.2069 -1.5632 -0.8860
 2904SOL    HW220349   4.551   2.377   3.789 -0.8512 -0.3968  1.9375
 2905SOL     OW20350   1.719   3.101  16.852 -0.0220 -0.3446  0.1555
 2905SOL    HW120351   1.693   3.067  16.937  0.4960  1.8188  1.1954
 2905SOL    HW220352   1.661   3.052  16.794 -0.0154  1.1800 -1.1323
 2906SOL     OW20353   0.837   3.861  10.211 -0.3852 -0.5414 -0.1592
 2906SOL    HW120354   0.928   3.869  10.183  0.0554 -0.3752  1.2900
 2906SOL    HW220355   0.811   3.793  10.149 -3.6155 -0.8937  1.5620
 2907SOL     OW20356   4.541   2.251   4.992  0.0109 -0.0346  0.2898
 2907SOL    HW120357   4.599   2.197   5.046  0.6996 -0.2867 -0.6859
 2907SOL    HW220358   4.496   2.295   5.063 -1.3421 -0.7756 -0.1013
 2908SOL     OW20359   0.188   0.398   4.002  0.3782 -0.2960 -0.1450
 2908SOL    HW120360   0.188   0.490   4.027 -1.8497 -0.7320  1.3811
 2908SOL    HW220361   0.094   0.382   4.000  0.5950 -1.7337  0.9408
 2909SOL     OW20362   3.912   2.342   7.720  0.2327 -0.3207  0.0493
 2909SOL    HW120363   3.953   2.302   7.797  2.2836 -1.3048 -1.5531
 2909SOL    HW220364   3.835   2.390   7.750  0.0790 -1.3423  1.2940
 2910SOL     OW20365   2.750   1.967   6.737  0.4480 -0.2489 -0.1182
 2910SOL    HW120366   2.679   1.992   6.796 -1.5611 -0.4483 -2.4469
 2910SOL    HW220367   2.758   2.043   6.679 -1.0039 -1.7179 -2.2818
 2911SOL     OW20368   4.582   3.301   4.230 -0.4778  0.1959 -0.1234
 2911SOL    HW120369   4.508   3.347   4.270 -1.3665 -2.0161  0.7494
 2911SOL    HW220370   4.554   3.305   4.138 -2.1624  3.4692  0.5108
 2912SOL     OW20371   3.587   0.968  10.423  0.4343  0.3158 -0.1293
 2912SOL    HW120372   3.593   0.979  10.518  2.6509 -0.3753 -0.1788
 2912SOL    HW220373   3.505   1.013  10.406  0.0774 -0.0129  0.7473
 2913SOL     OW20374   3.562   2.643   1.884  0.1603  0.6150 -0.6146
 2913SOL    HW120375   3.636   2.667   1.827  1.8657 -1.2434  0.8252
 2913SOL    HW220376   3.546   2.729   1.925  1.5544  0.2599  0.6774
 2914SOL     OW20377   0.390   1.366   4.418  0.2764  0.4616  0.0454
 2914SOL    HW120378   0.357   1.453   4.441 -0.5712  0.4666 -1.2295
 2914SOL    HW220379   0.341   1.339   4.340 -0.0605 -1.3167  0.8583
 2915SOL     OW20380   1.945   2.595   6.302 -0.1191 -0.7150  0.8733
 2915SOL    HW120381   1.916   2.556   6.220  0.4261  1.2471 -0.2439
 2915SOL    HW220382   2.017   2.651   6.276 -0.0965 -0.3739  1.6626
 2916SOL     OW20383   1.965   4.112   4.061  0.4580  0.7047 -0.1188
 2916SOL    HW120384   1.940   4.026   4.028  0.0410  2.1320 -3.5040
 2916SOL    HW220385   1.881   4.159   4.052  0.0303  0.3165  1.8260
 2917SOL     OW20386   1.253   1.331   8.079  0.1221 -0.7107 -0.3303
 2917SOL    HW120387   1.287   1.275   8.149 -3.1488 -2.5034 -0.1937
 2917SOL    HW220388   1.238   1.412   8.128  0.8824  1.1590 -3.2297
 2918SOL     OW20389   2.924   3.044  12.379 -0.7725  0.1830 -0.0542
 2918SOL    HW120390   3.010   3.040  12.337 -0.6136 -1.0668  0.3910
 2918SOL    HW220391   2.868   3.072  12.307  2.1918 -0.0605 -2.4659
 2919SOL     OW20392   4.366   1.364   7.321 -0.0624 -0.2861 -0.4907
 2919SOL    HW120393   4.310   1.293   7.351  0.4017 -0.3514  0.2156
 2919SOL    HW220394   4.422   1.379   7.397  1.2171 -0.6011 -1.3646
 2920SOL     OW20395   1.240   4.620   4.917  0.1570  1.0384 -0.3688
 2920SOL    HW120396   1.289   4.563   4.976 -1.4208 -1.1465 -1.1633
 2920SOL    HW220397   1.203   4.690   4.970  1.6867  1.4506  0.1394
 2921SOL     OW20398   1.387   3.289   7.462  0.2944  0.6948 -0.1473
 2921SOL    HW120399   1.402   3.195   7.455  3.1693  1.2036 -1.0113
 2921SOL    HW220400   1.341   3.290   7.546  0.3635 -0.8765 -0.0966
 2922SOL     OW20401   2.041   1.483   4.567  0.0405  0.3199  0.2961
 2922SOL    HW120402   2.100   1.504   4.640  1.9784 -1.6647 -0.6932
 2922SOL    HW220403   2.110   1.440   4.517 -0.0638  0.0136  0.4169
 2923SOL     OW20404   3.388   3.959   3.879  0.2409 -0.2165  0.1037
 2923SOL    HW120405   3.343   3.880   3.847  1.5171  0.2028 -2.7237
 2923SOL    HW220406   3.342   4.022   3.824  0.1571 -0.2172  0.1717
 2924SOL     OW20407   0.971   0.124  15.328  0.3695 -0.2947  0.5981
 2924SOL    HW120408   1.045   0.179  15.351 -0.2450  0.0028  1.9060
 2924SOL    HW220409   0.942   0.152  15.242 -2.4924 -1.1892  1.2479
 2925SOL     OW20410   0.926   0.500   2.594 -0.6834 -0.4915  0.2525
 2925SOL    HW120411   1.000   0.446   2.622 -0.0201  0.0409 -0.4468
 2925SOL    HW220412   0.962   0.584   2.623 -0.5895 -0.9038  1.3193
 2926SOL     OW20413   4.531   4.346  17.645 -0.2208 -0.4067  0.0412
 2926SOL    HW120414   4.516   4.343  17.740  0.6965  0.3491  0.2106
 2926SOL    HW220415   4.444   4.339  17.607 -1.0239  0.1869  1.7735
 2927SOL     OW20416   2.677   1.891  15.837  0.2188 -0.1905 -0.2174
 2927SOL    HW120417   2.584   1.915  15.834  0.0799 -0.5545  1.3132
 2927SOL    HW220418   2.665   1.828  15.908 -1.6610 -0.8740 -1.1377
 2928SOL     OW20419   2.145   4.503  13.144  0.1169  0.4970  0.1994
 2928SOL    HW120420   2.187   4.575  13.096  2.8935 -0.4784  1.1742
 2928SOL    HW220421   2.199   4.432  13.107  0.2983  1.4040 -1.3031
 2929SOL     OW20422   0.650   1.709  17.569 -0.1181 -0.1298  0.2690
 2929SOL    HW120423   0.621   1.701  17.660 -0.5497  2.2187  0.3626
 2929SOL    HW220424   0.582   1.678  17.510  1.0737  0.2259 -1.2982
 2930SOL     OW20425   0.877   2.699   7.126  0.5963  0.1573  0.5107
 2930SOL    HW120426   0.900   2.619   7.174 -0.3486  0.1217  0.9076
 2930SOL    HW220427   0.887   2.665   7.038  0.9252  0.5238  0.4044
 2931SOL     OW20428   2.801   2.136  15.874 -0.0936 -0.1487 -0.4915
 2931SOL    HW120429   2.760   2.052  15.895 -0.7465  0.0658 -0.8999
 2931SOL    HW220430   2.799   2.136  15.778  1.3406 -3.2658 -0.5168
 2932SOL     OW20431   0.676   3.749  11.118 -0.6438  0.9895 -0.4455
 2932SOL    HW120432   0.680   3.756  11.023  2.4751 -1.0524 -0.4467
 2932SOL    HW220433   0.587   3.781  11.133 -0.4785  0.9374  0.7072
 2933SOL     OW20434   0.374   1.684  16.925 -0.4278  0.7914 -0.6284
 2933SOL    HW120435   0.313   1.689  16.851 -1.3543  0.1019  0.0974
 2933SOL    HW220436   0.374   1.772  16.964  1.8527  0.3586  0.3412
 2934SOL     OW20437   2.968   2.271   5.715 -0.0285 -0.5023  0.2992
 2934SOL    HW120438   2.907   2.340   5.743  0.8927  0.2265  0.4922
 2934SOL    HW220439   3.047   2.308   5.753  0.0066 -0.8542  0.5678
 2935SOL     OW20440   1.492   1.313   5.796 -0.6482 -0.2295  0.6738
 2935SOL    HW120441   1.526   1.345   5.712 -0.2360  0.0652  0.9569
 2935SOL    HW220442   1.418   1.370   5.817 -0.2316  0.9829 -1.0952
 2936SOL     OW20443   3.678   0.816   7.921 -0.4722 -0.2929 -0.0650
 2936SOL    HW120444   3.623   0.886   7.956  0.3953  1.4530 -2.1778
 2936SOL    HW220445   3.695   0.762   7.998 -1.0661 -1.5539 -0.8066
 2937SOL     OW20446   1.071   3.034   4.060 -0.2673  0.0656  0.0934
 2937SOL    HW120447   1.022   3.039   4.142  1.0548 -1.7611  1.0001
 2937SOL    HW220448   1.146   2.982   4.087 -0.8696 -2.0432 -2.2705
 2938SOL     OW20449   0.445   0.272   5.853 -0.5334  0.6370 -0.5355
 2938SOL    HW120450   0.454   0.274   5.758  1.4628 -2.6071 -0.3768
 2938SOL    HW220451   0.357   0.312   5.856 -0.9414 -0.3130  0.0478
 2939SOL     OW20452   2.684   1.385   1.310  0.1443  0.4626  0.2327
 2939SOL    HW120453   2.606   1.438   1.328  0.3124  0.9685 -0.5242
 2939SOL    HW220454   2.666   1.302   1.355  0.1431  0.0059 -0.6231
 2940SOL     OW20455   3.476   3.880  13.002 -0.1181  0.4399  0.3026
 2940SOL    HW120456   3.529   3.959  13.015  1.9444 -0.9170  0.1137
 2940SOL    HW220457   3.477   3.836  13.087 -0.6999 -0.2193 -0.0365
 2941SOL     OW20458   0.381   3.441   6.320  0.1241 -0.6474 -0.0918
 2941SOL    HW120459   0.364   3.531   6.294  0.0223 -0.3354  1.0584
 2941SOL    HW220460   0.326   3.445   6.398  0.2954  0.4834 -0.0371
 2942SOL     OW20461   0.258   4.071   8.663  0.1243  0.4768  0.3655
 2942SOL    HW120462   0.279   4.154   8.621 -1.7014  0.9742  0.4170
 2942SOL    HW220463   0.237   4.105   8.750  0.1849 -2.5610  1.5712
 2943SOL     OW20464   4.668   3.973   2.101 -0.4067 -0.3215 -0.3712
 2943SOL    HW120465   4.682   4.050   2.156 -1.6923  0.4211 -1.0785
 2943SOL    HW220466   0.014   3.941   2.071 -0.6137 -1.0192 -0.1994
 2944SOL     OW20467   3.587   2.529   5.294 -0.1481 -0.2527 -0.0923
 2944SOL    HW120468   3.561   2.447   5.336  0.8671  0.3089  1.6310
 2944SOL    HW220469   3.648   2.560   5.361  0.4296  0.2326 -0.8563
 2945SOL     OW20470   2.675   3.784   5.627 -0.1630  0.4719 -0.3790
 2945SOL    HW120471   2.685   3.693   5.655 -1.0416  0.1774 -1.0247
 2945SOL    HW220472   2.626   3.831   5.694 -0.2960  0.9339 -0.7962
 2946SOL     OW20473   2.623   0.279  16.767  0.4548 -0.0961  0.2848
 2946SOL    HW120474   2.663   0.193  16.776  2.4536  0.7490 -0.5831
 2946SOL    HW220475   2.541   0.272  16.816  0.2687  1.9871  0.2695
 2947SOL     OW20476   0.005   3.087   5.834  0.3274 -0.2948  0.4595
 2947SOL    HW120477   0.081   3.139   5.860 -0.6882  1.0655  0.6932
 2947SOL    HW220478   0.007   3.020   5.902 -1.4986 -0.5447  0.2651
 2948SOL     OW20479   2.021   3.633   2.012 -0.5194  0.1870  0.2340
 2948SOL    HW120480   1.970   3.667   2.086 -1.7242 -0.5597 -0.2561
 2948SOL    HW220481   1.955   3.646   1.944  0.0888 -2.4454 -0.8495
 2949SOL     OW20482   0.573   3.646   8.580  0.3030 -0.1323 -0.2010
 2949SOL    HW120483   0.496   3.692   8.615 -1.3713 -1.8885 -1.5837
 2949SOL    HW220484   0.566   3.557   8.616  1.4827 -0.7117 -1.3824
 2950SOL     OW20485   3.555   4.699   6.168  0.0600  0.3595  0.3498
 2950SOL    HW120486   3.543   4.610   6.134  0.3140  0.2779  0.4716
 2950SOL    HW220487   3.468   4.710   6.206 -0.3509  0.5189 -0.6499
 2951SOL     OW20488   0.319   4.169   5.499  0.5557 -0.4478 -0.5083
 2951SOL    HW120489   0.372   4.093   5.476 -0.4148 -0.5369 -2.4092
 2951SOL    HW220490   0.379   4.239   5.477  0.8167 -0.6666 -0.4898
 2952SOL     OW20491   4.691   2.227   3.955 -0.0750 -0.5757  0.2541
 2952SOL    HW120492   4.682   2.290   4.026 -1.1748 -2.2152  1.5733
 2952SOL    HW220493   0.039   2.242   3.919 -0.2980 -2.0134 -0.9022
 2953SOL     OW20494   4.344   3.324  16.246  0.3220  0.2602  0.2284
 2953SOL    HW120495   4.282   3.362  16.184  0.5624  1.1421  0.5323
 2953SOL    HW220496   4.387   3.403  16.279 -1.6928  0.8142  1.5006
 2954SOL     OW20497   2.661   2.412   3.272  0.5649 -0.2962  0.3054
 2954SOL    HW120498   2.742   2.396   3.322 -1.1087  0.7099  3.3150
 2954SOL    HW220499   2.680   2.355   3.197 -1.5149  1.4817 -1.5604
 2955SOL     OW20500   1.096   1.816   9.150  0.7547 -0.0351 -0.1506
 2955SOL    HW120501   1.124   1.788   9.063  1.8698  0.1702  0.1537
 2955SOL    HW220502   1.061   1.904   9.134  1.1218 -0.4199 -3.1114
 2956SOL     OW20503   0.031   1.879   6.455  0.0047 -0.6407  0.4627
 2956SOL    HW120504   4.715   1.807   6.426 -0.7360  0.2108 -0.2335
 2956SOL    HW220505   0.115   1.846   6.424  0.5806  2.6116 -1.4295
 2957SOL     OW20506   3.829   3.186   8.323 -0.8166 -0.1755 -0.0382
 2957SOL    HW120507   3.918   3.209   8.298 -0.8263 -2.1730 -1.9116
 2957SOL    HW220508   3.803   3.258   8.380 -1.5993  1.6971 -2.8286
 2958SOL     OW20509   2.530   2.001   6.891  0.2997  0.1191  0.2042
 2958SOL    HW120510   2.456   1.969   6.840 -0.2763  2.4274 -0.4080
 2958SOL    HW220511   2.487   2.070   6.942  1.9942  0.9148  0.5376
 2959SOL     OW20512   3.223   3.157  12.761  0.2428 -0.1904  0.3642
 2959SOL    HW120513   3.198   3.229  12.703  1.1662  3.2672  4.2498
 2959SOL    HW220514   3.316   3.174  12.776 -0.5052  0.7772  3.7455
 2960SOL     OW20515   4.261   2.476  10.054  0.5389  0.1711 -0.1568
 2960SOL    HW120516   4.197   2.405  10.068  2.1528 -1.3109 -0.3166
 2960SOL    HW220517   4.333   2.458  10.114  0.5383 -0.5888 -0.3817
 2961SOL     OW20518   0.281   3.263   4.073  0.0954  0.8945 -0.1213
 2961SOL    HW120519   0.375   3.276   4.074  0.0694  1.1451 -0.8950
 2961SOL    HW220520   0.266   3.230   3.984 -1.8958 -0.5855  0.7421
 2962SOL     OW20521   0.554   0.869  14.510  0.4866 -0.0793  0.2621
 2962SOL    HW120522   0.522   0.778  14.502  1.3410 -0.5933  2.7184
 2962SOL    HW220523   0.589   0.887  14.423 -0.1428 -2.8335 -0.5751
 2963SOL     OW20524   4.379   2.615  12.986 -0.4440 -0.4280  0.2416
 2963SOL    HW120525   4.290   2.599  12.953 -0.1667 -0.9276 -0.2663
 2963SOL    HW220526   4.374   2.709  13.002  2.7414 -0.4691  1.4066
 2964SOL     OW20527   0.004   2.690  16.572  0.2150  0.2563 -0.8750
 2964SOL    HW120528   4.657   2.720  16.598 -0.1993 -0.0572 -1.8711
 2964SOL    HW220529   0.050   2.706  16.654  1.5726  1.2891 -1.8395
 2965SOL     OW20530   3.055   0.632   7.539 -0.1503  0.4228 -0.3135
 2965SOL    HW120531   3.046   0.603   7.448 -0.4228 -0.1393 -0.1091
 2965SOL    HW220532   3.081   0.549   7.580 -0.8339 -0.4106 -1.5700
 2966SOL     OW20533   1.252   1.164  12.239  0.3706 -0.4647 -0.4251
 2966SOL    HW120534   1.181   1.178  12.176  0.2135  2.0867  0.3470
 2966SOL    HW220535   1.243   1.246  12.286 -0.6034 -0.9230  0.1837
 2967SOL     OW20536   1.329   4.192   8.485  0.0986  0.6081 -0.5790
 2967SOL    HW120537   1.242   4.154   8.472  2.1015 -4.1041 -0.1856
 2967SOL    HW220538   1.330   4.207   8.580  1.1461  0.9702 -0.6484
 2968SOL     OW20539   4.183   1.387  13.547 -0.0596 -1.0596 -0.5361
 2968SOL    HW120540   4.171   1.293  13.531 -0.7160 -1.0418 -0.1524
 2968SOL    HW220541   4.128   1.421  13.477 -1.5563 -2.3142  0.0363
 2969SOL     OW20542   2.068   3.060   5.425 -0.0184  0.0879  0.1866
 2969SOL    HW120543   2.151   3.094   5.459 -1.2750  2.4576  0.9324
 2969SOL    HW220544   2.077   3.077   5.331  3.2980  2.2601  0.8734
 2970SOL     OW20545   1.885   3.969  14.824 -0.7269 -0.1354  0.0832
 2970SOL    HW120546   1.816   3.911  14.853 -1.6480  0.2198 -1.3925
 2970SOL    HW220547   1.965   3.916  14.828 -1.7958 -1.4484  3.8940
 2971SOL     OW20548   0.059   2.528  14.958  0.3248  0.4607  0.1414
 2971SOL    HW120549   0.082   2.505  14.868  1.8241 -1.4701  1.0038
 2971SOL    HW220550   0.098   2.615  14.960  1.0073  0.1684 -0.7193
 2972SOL     OW20551   1.774   0.352   8.592 -0.7263  0.2178  0.5154
 2972SOL    HW120552   1.699   0.379   8.540 -0.0053  0.5699 -0.3272
 2972SOL    HW220553   1.777   0.406   8.671 -4.1936  0.3313  0.5506
 2973SOL     OW20554   1.249   1.326   2.133 -0.2213  0.5808 -0.2274
 2973SOL    HW120555   1.161   1.290   2.120  0.5481 -1.4290  0.1152
 2973SOL    HW220556   1.229   1.404   2.185 -1.2731  0.2516 -0.1455
 2974SOL     OW20557   3.552   4.351   7.936 -0.8456 -0.0106  0.1084
 2974SOL    HW120558   3.639   4.321   7.910 -0.9587 -0.7187  0.5252
 2974SOL    HW220559   3.503   4.320   7.860 -0.7796  1.9119 -0.7119
 2975SOL     OW20560   1.618   1.228   2.738  0.3338 -0.2310 -0.6571
 2975SOL    HW120561   1.659   1.158   2.688 -3.6872 -1.3127 -2.4190
 2975SOL    HW220562   1.546   1.185   2.783  2.4164 -1.1692  1.7754
 2976SOL     OW20563   4.467   2.997   2.180 -0.5521 -0.2194  0.2583
 2976SOL    HW120564   4.543   2.939   2.175 -1.5671 -1.4808 -0.5161
 2976SOL    HW220565   4.481   3.033   2.268 -2.1168  1.5739 -0.2494
 2977SOL     OW20566   1.062   0.966   6.273 -0.2945  0.4269 -0.1827
 2977SOL    HW120567   1.130   1.007   6.220 -0.9495  2.1897  0.3288
 2977SOL    HW220568   1.005   1.042   6.283 -2.4025 -1.3237  1.2677
 2978SOL     OW20569   3.555   1.776  12.171 -0.1844  0.4994 -0.6521
 2978SOL    HW120570   3.627   1.761  12.233 -0.9750  2.5744  0.7544
 2978SOL    HW220571   3.598   1.738  12.094 -0.3218 -0.3240 -0.3255
 2979SOL     OW20572   3.147   2.429  12.098  0.1462  0.1022 -0.2613
 2979SOL    HW120573   3.075   2.448  12.157 -0.6879  0.2275 -1.3294
 2979SOL    HW220574   3.222   2.476  12.136  0.7497  0.1245 -1.4562
 2980SOL     OW20575   4.286   3.875   5.796  0.1025 -0.4449 -0.2715
 2980SOL    HW120576   4.294   3.895   5.703 -0.4430 -0.0688 -0.2383
 2980SOL    HW220577   4.276   3.962   5.835  0.3430  0.4285 -2.1314
 2981SOL     OW20578   3.137   4.635   0.950 -0.2929 -0.1284 -0.1112
 2981SOL    HW120579   3.182   4.608   1.031  1.6856  1.9131 -0.5262
 2981SOL    HW220580   3.099   4.721   0.967 -0.1987 -0.4038  1.4525
 2982SOL     OW20581   0.178   0.534   7.125  0.3277  0.2543 -0.4521
 2982SOL    HW120582   0.145   0.583   7.050  3.2616  2.5052 -0.2563
 2982SOL    HW220583   0.116   0.564   7.192 -0.0158  0.0666 -0.6842
 2983SOL     OW20584   4.659   0.367   2.619  0.3346  0.4692  0.2774
 2983SOL    HW120585   4.609   0.446   2.639 -0.8457 -0.2285  0.0882
 2983SOL    HW220586   0.007   0.404   2.632  0.6262 -0.0893 -0.1023
 2984SOL     OW20587   4.681   4.085   3.831 -0.0726 -0.5761 -0.4146
 2984SOL    HW120588   4.678   4.022   3.903 -0.0616  1.6276  1.5332
 2984SOL    HW220589   4.597   4.130   3.838 -0.2249 -0.7884 -0.9304
 2985SOL     OW20590   0.417   1.524   7.126 -0.0514  0.1277  0.0619
 2985SOL    HW120591   0.510   1.502   7.135 -0.0553  0.5556  1.1073
 2985SOL    HW220592   0.426   1.542   7.032 -1.8156  1.1596  0.1026
 2986SOL     OW20593   1.012   2.036   7.421  0.9058 -0.2165  0.1345
 2986SOL    HW120594   1.004   2.070   7.332  0.2349  0.0152  0.2815
 2986SOL    HW220595   1.006   1.942   7.405  2.0151 -0.4329  1.0420
 2987SOL     OW20596   1.894   3.282   5.752  0.7511  0.6643 -0.3592
 2987SOL    HW120597   1.851   3.226   5.817  0.3314  1.1770 -0.1980
 2987SOL    HW220598   1.818   3.324   5.712  0.2152 -0.5003 -0.5730
 2988SOL     OW20599   3.065   4.055   5.186 -0.2756 -0.0101 -0.4870
 2988SOL    HW120600   3.027   3.976   5.225 -2.1248  0.5473 -1.1300
 2988SOL    HW220601   2.996   4.117   5.211 -1.7403 -1.5560 -0.6977
 2989SOL     OW20602   1.247   3.623   0.648 -0.3009 -0.2533 -0.3098
 2989SOL    HW120603   1.152   3.634   0.640 -0.3389 -0.8046 -0.5955
 2989SOL    HW220604   1.245   3.579   0.733  0.0600  1.9516  0.8476
 2990SOL     OW20605   1.069   4.663   8.379  0.0843  0.1852 -0.7476
 2990SOL    HW120606   1.133   4.602   8.414  0.2105  0.3656 -0.6625
 2990SOL    HW220607   1.111   0.002   8.344  1.1998 -0.0315  0.1207
 2991SOL     OW20608   3.868   4.704  10.932  0.6630 -0.3709 -0.4523
 2991SOL    HW120609   3.907   4.674  11.014 -0.7795  1.8189  1.0418
 2991SOL    HW220610   3.792   0.013  10.962  0.7864  0.2035 -1.0769
 2992SOL     OW20611   1.577   3.210   5.841 -0.0381  0.4236  0.2185
 2992SOL    HW120612   1.495   3.225   5.794 -0.0975  1.2801  0.6022
 2992SOL    HW220613   1.573   3.114   5.846 -0.2689  0.6201  3.3839
 2993SOL     OW20614   4.588   0.038   3.621  0.8007  0.3102 -0.5396
 2993SOL    HW120615   4.605   0.070   3.532 -0.2963 -0.7403 -1.1293
 2993SOL    HW220616   4.596   0.119   3.671 -2.0329  1.4171 -1.8660
 2994SOL     OW20617   0.436   3.430   2.465  0.2196  0.2863  0.4014
 2994SOL    HW120618   0.411   3.472   2.547  1.2136 -3.4061  2.5701
 2994SOL    HW220619   0.363   3.371   2.448  1.2720 -0.1951 -2.5130
 2995SOL     OW20620   1.146   0.788   8.976  0.1009 -0.0791  0.3977
 2995SOL    HW120621   1.078   0.739   9.022  1.5329 -2.0432  0.4003
 2995SOL    HW220622   1.146   0.872   9.022  1.9069 -0.0235  0.2904
 2996SOL     OW20623   1.370   0.718   1.429  0.3554  0.3449 -0.3288
 2996SOL    HW120624   1.346   0.636   1.386 -2.1304  0.4318  0.9380
 2996SOL    HW220625   1.280   0.749   1.437 -0.6683 -2.1002 -2.1698
 2997SOL     OW20626   4.511   4.071   4.918 -0.0396 -0.4003  0.0005
 2997SOL    HW120627   4.567   3.996   4.899  0.1465  0.2370 -1.9515
 2997SOL    HW220628   4.536   4.130   4.846  2.0388  0.0526  1.0903
 2998SOL     OW20629   1.303   2.105   9.335  0.1275 -0.5942 -0.6523
 2998SOL    HW120630   1.242   2.168   9.296  1.5748  1.7116  0.7681
 2998SOL    HW220631   1.380   2.163   9.331 -0.8820  0.7747 -0.3114
 2999SOL     OW20632   0.976   1.347   2.156  0.7278  0.0213  0.0752
 2999SOL    HW120633   0.967   1.440   2.139  1.6291 -0.0107 -0.6414
 2999SOL    HW220634   0.919   1.333   2.231  1.3985  2.7931  1.0928
 3000SOL     OW20635   1.539   4.432   7.324 -0.4957 -0.0199 -0.1776
 3000SOL    HW120636   1.545   4.338   7.337  1.0127  0.1216  0.1833
 3000SOL    HW220637   1.632   4.450   7.306 -0.1617 -2.1886 -0.6141
 3001SOL     OW20638   3.233   0.872  10.543  0.2939  0.0153 -0.6118
 3001SOL    HW120639   3.313   0.865  10.594 -0.7272  1.8356  1.2562
 3001SOL    HW220640   3.255   0.925  10.466  0.5948  0.9762  0.1333
 3002SOL     OW20641   1.610   2.418   3.761 -0.2835 -0.2693  0.4374
 3002SOL    HW120642   1.550   2.468   3.706 -0.6930 -0.9707  0.2507
 3002SOL    HW220643   1.653   2.488   3.811 -0.8347  0.1231  0.3546
 3003SOL     OW20644   0.571   4.165   2.957 -0.0852 -0.2600 -0.0037
 3003SOL    HW120645   0.603   4.153   3.046  2.3572  2.1770 -0.5599
 3003SOL    HW220646   0.480   4.177   2.985 -0.5575 -1.2181 -1.0879
 3004SOL     OW20647   2.657   4.469   5.727 -0.1789 -0.0502 -0.0125
 3004SOL    HW120648   2.732   4.509   5.771 -1.2584  0.8158  1.0388
 3004SOL    HW220649   2.594   4.453   5.797  0.5847 -1.7032  0.2860
 3005SOL     OW20650   2.370   0.603   5.615 -0.4387  0.1633  0.1835
 3005SOL    HW120651   2.274   0.608   5.612 -0.3338  1.2216 -1.4660
 3005SOL    HW220652   2.388   0.634   5.703  0.8961  0.7107 -0.2820
 3006SOL     OW20653   1.291   4.258   6.937  0.1496  0.1300 -0.2182
 3006SOL    HW120654   1.205   4.217   6.937  0.3177 -0.2362  0.7083
 3006SOL    HW220655   1.287   4.296   7.025 -0.6367 -1.0748  0.2727
 3007SOL     OW20656   4.296   3.269   6.513  0.1935  0.1085 -0.0628
 3007SOL    HW120657   4.307   3.187   6.465  1.5532  0.4581 -0.3451
 3007SOL    HW220658   4.320   3.245   6.602 -2.9211  1.8249  1.2514
 3008SOL     OW20659   0.822   2.450  16.436 -0.1064 -0.0729  0.0205
 3008SOL    HW120660   0.797   2.358  16.436  0.4905 -0.2399 -1.2153
 3008SOL    HW220661   0.903   2.446  16.384 -1.4507  0.3103 -2.0839
 3009SOL     OW20662   2.481   0.120  16.446  0.2503  0.6510  0.0739
 3009SOL    HW120663   2.450   0.117  16.356  0.6300  0.9124 -0.0650
 3009SOL    HW220664   2.398   0.118  16.494  0.9232  2.2773  1.3019
 3010SOL     OW20665   3.930   1.492  11.675  0.3672 -0.1744 -0.8628
 3010SOL    HW120666   3.949   1.583  11.699 -0.3391 -0.3912  0.5537
 3010SOL    HW220667   3.945   1.432  11.748  0.3753  0.7040 -0.1276
 3011SOL     OW20668   0.380   2.038   8.965 -0.1292  0.2153 -0.1310
 3011SOL    HW120669   0.435   2.071   8.894  0.8186 -0.5339  0.2557
 3011SOL    HW220670   0.389   2.109   9.029  1.3621  1.1329 -1.3598
 3012SOL     OW20671   0.291   4.023  16.307  0.2329 -0.5231  0.6731
 3012SOL    HW120672   0.330   4.014  16.220 -0.0127 -1.0286  0.6150
 3012SOL    HW220673   0.358   3.977  16.357  1.4305 -0.7555 -1.1582
 3013SOL     OW20674   0.634   2.726   5.396 -0.8305  0.2997 -0.2857
 3013SOL    HW120675   0.586   2.646   5.376 -1.3563  0.3286  0.8481
 3013SOL    HW220676   0.605   2.733   5.487 -2.1173  0.1858 -0.6916
 3014SOL     OW20677   2.907   2.436   6.676  0.2563  0.1659  0.2539
 3014SOL    HW120678   2.866   2.419   6.760 -0.4771  2.0151  0.2932
 3014SOL    HW220679   2.874   2.524   6.655 -0.8680 -0.0777  1.0111
 3015SOL     OW20680   4.323   1.037  12.871  0.2718  0.2515 -0.2374
 3015SOL    HW120681   4.368   0.954  12.857 -2.0118 -0.7153 -2.0079
 3015SOL    HW220682   4.400   1.086  12.900 -0.6419  2.8254 -2.1324
 3016SOL     OW20683   2.876   3.815   9.239 -0.3605 -0.4834 -0.0547
 3016SOL    HW120684   2.806   3.785   9.296  1.4708 -0.6220  2.1137
 3016SOL    HW220685   2.939   3.849   9.303 -0.2869  0.9393 -0.8780
 3017SOL     OW20686   2.793   2.304   9.182  0.0362  0.2480 -0.3953
 3017SOL    HW120687   2.859   2.253   9.136 -1.3504 -3.5181  1.8677
 3017SOL    HW220688   2.710   2.276   9.145  0.3940 -2.6267  1.0214
 3018SOL     OW20689   3.341   0.180   5.189 -0.2024 -0.5387 -0.3639
 3018SOL    HW120690   3.389   0.260   5.166 -3.5227  1.4990 -0.1250
 3018SOL    HW220691   3.285   0.217   5.257 -0.6525 -0.9073 -0.5381
 3019SOL     OW20692   4.126   2.806   0.983 -0.1124  0.2541 -0.0777
 3019SOL    HW120693   4.185   2.741   1.022  1.4950  0.7353 -1.7157
 3019SOL    HW220694   4.041   2.762   0.987  0.3688 -0.5411  1.5583
 3020SOL     OW20695   3.673   4.217   2.154  0.8992 -0.5195 -0.0732
 3020SOL    HW120696   3.720   4.192   2.076 -1.2583 -2.1859 -0.8439
 3020SOL    HW220697   3.593   4.167   2.136  0.7014  0.2664 -1.3965
 3021SOL     OW20698   2.576   3.218  16.344 -0.0611 -0.0648  0.3590
 3021SOL    HW120699   2.595   3.183  16.258 -0.6933  1.5099 -0.4336
 3021SOL    HW220700   2.483   3.196  16.355  0.0221 -0.9935 -0.9163
 3022SOL     OW20701   0.061   4.072   0.670  0.2515 -0.1418 -0.4708
 3022SOL    HW120702   4.714   4.043   0.642  0.9015 -1.3715 -1.2248
 3022SOL    HW220703   0.105   3.988   0.687  1.0163  0.2845 -0.3497
 3023SOL     OW20704   0.765   1.044   2.100 -0.3216 -0.0876  0.1016
 3023SOL    HW120705   0.848   1.044   2.052 -0.5445  0.2915 -0.2865
 3023SOL    HW220706   0.739   1.135   2.087  1.0313  0.1264 -1.1141
 3024SOL     OW20707   2.673   1.408   7.229  0.6016 -0.5880  0.2101
 3024SOL    HW120708   2.622   1.475   7.184 -0.3467 -1.6230 -0.2749
 3024SOL    HW220709   2.759   1.450   7.228 -0.2968  1.2151  0.0050
 3025SOL     OW20710   3.743   4.203   4.220 -0.4114 -0.3543  0.0155
 3025SOL    HW120711   3.677   4.258   4.177 -1.7121 -1.9450 -0.0348
 3025SOL    HW220712   3.721   4.122   4.174 -2.5162  0.2200  0.0189
 3026SOL     OW20713   1.236   0.051   2.987  0.1931  0.4183  0.3864
 3026SOL    HW120714   1.281   0.126   2.948  0.5341  0.2297  0.4258
 3026SOL    HW220715   1.251   4.718   2.926 -1.4210  0.2529  0.1771
 3027SOL     OW20716   1.405   0.109  16.474 -0.3980 -0.0094  0.4027
 3027SOL    HW120717   1.458   0.130  16.398  0.0497  0.6629  0.8964
 3027SOL    HW220718   1.443   0.176  16.531 -0.3525  0.9957 -0.8291
 3028SOL     OW20719   3.782   1.050   3.850 -1.0181  0.0030  0.0524
 3028SOL    HW120720   3.809   1.111   3.782  2.4717  0.3127  1.7409
 3028SOL    HW220721   3.695   1.090   3.858 -1.5307 -0.6678 -2.2049
 3029SOL     OW20722   2.555   0.591  11.037  0.2279  0.4989 -0.0501
 3029SOL    HW120723   2.516   0.526  11.095  0.3276  0.4808 -0.0023
 3029SOL    HW220724   2.515   0.558  10.957  0.3157  1.9240 -0.6716
 3030SOL     OW20725   1.590   4.654   4.480 -0.1110  0.5532  0.1546
 3030SOL    HW120726   1.575   4.637   4.573 -0.1474  0.0354  0.0529
 3030SOL    HW220727   1.651   4.580   4.476 -0.8778 -0.1288  1.2474
 3031SOL     OW20728   1.963   1.062   3.265  0.3862 -0.3453 -0.2395
 3031SOL    HW120729   2.019   1.015   3.326  3.4987  2.2807 -1.0470
 3031SOL    HW220730   1.951   0.999   3.194  1.5991  0.5438 -1.2279
 3032SOL     OW20731   4.215   3.140   4.381 -0.2105 -0.5462 -0.3268
 3032SOL    HW120732   4.213   3.073   4.313 -0.4494 -1.4245  0.5391
 3032SOL    HW220733   4.137   3.101   4.420 -0.4055 -0.6495 -0.8207
 3033SOL     OW20734   1.648   2.132   8.968 -0.0734 -0.0870 -0.0121
 3033SOL    HW120735   1.716   2.147   8.902  0.0296 -1.4610 -0.2277
 3033SOL    HW220736   1.571   2.166   8.922  0.6561  2.2035  0.4719
 3034SOL     OW20737   2.153   1.762   5.634 -0.3384  0.5145  0.0555
 3034SOL    HW120738   2.113   1.838   5.676 -0.9529  1.0662 -1.5327
 3034SOL    HW220739   2.087   1.700   5.665  1.4422 -1.2665  0.3413
 3035SOL     OW20740   1.131   0.327   5.147  0.4072 -0.2289  0.0847
 3035SOL    HW120741   1.071   0.314   5.221 -1.0537  0.4709 -0.9639
 3035SOL    HW220742   1.086   0.389   5.090 -0.9202 -2.0765 -0.9151
 3036SOL     OW20743   0.928   3.207  11.597  0.1010 -0.0938 -0.9837
 3036SOL    HW120744   0.967   3.214  11.510 -0.1600  0.7711 -1.0330
 3036SOL    HW220745   0.838   3.228  11.572  0.1392  2.3567  0.9428
 3037SOL     OW20746   1.262   3.196   8.662  0.8399  0.3107 -0.1154
 3037SOL    HW120747   1.246   3.291   8.656  2.4185  0.5723 -0.0603
 3037SOL    HW220748   1.178   3.160   8.634  1.3548 -1.5451  0.7520
 3038SOL     OW20749   4.680   0.779   3.841  0.4486 -0.0724  0.2342
 3038SOL    HW120750   4.604   0.817   3.797 -1.6851 -2.3139  1.9479
 3038SOL    HW220751   4.649   0.692   3.867  0.3397 -0.2272 -0.4127
 3039SOL     OW20752   1.756   2.472   8.909  0.6820 -0.0465 -0.2016
 3039SOL    HW120753   1.691   2.540   8.891 -1.7190 -2.2988  0.0561
 3039SOL    HW220754   1.767   2.435   8.822 -0.6387 -1.0878  0.0774
 3040SOL     OW20755   3.710   4.368   3.885  0.5434  0.3370  0.1412
 3040SOL    HW120756   3.650   4.405   3.821  0.6185  2.2494  1.1510
 3040SOL    HW220757   3.651   4.310   3.933  0.5548 -2.0728 -2.7691
 3041SOL     OW20758   1.410   4.206   4.074 -0.9008  0.2728 -0.1619
 3041SOL    HW120759   1.443   4.247   4.154  0.5291 -1.1857 -0.0175
 3041SOL    HW220760   1.474   4.138   4.056 -0.9315  0.2718 -0.2700
 3042SOL     OW20761   1.805   0.680   9.430  0.4013 -0.2232 -0.3670
 3042SOL    HW120762   1.754   0.757   9.456  0.8207 -0.1867  0.3306
 3042SOL    HW220763   1.736   0.615   9.419 -1.5279  2.4045 -4.0819
 3043SOL     OW20764   4.242   1.699  11.901 -0.3481  0.0350  0.2153
 3043SOL    HW120765   4.200   1.719  11.817  0.3356 -1.6260 -0.5023
 3043SOL    HW220766   4.268   1.609  11.885 -0.4766  0.0015  0.1946
 3044SOL     OW20767   0.600   1.619   7.474 -0.0941  0.3222 -0.5928
 3044SOL    HW120768   0.681   1.601   7.428  0.0265  0.6434 -0.5091
 3044SOL    HW220769   0.601   1.545   7.535 -1.8398  0.8932  0.1461
 3045SOL     OW20770   2.278   1.308  10.708  0.0983  0.3098 -0.4158
 3045SOL    HW120771   2.354   1.258  10.739  0.4381  2.4862  2.2629
 3045SOL    HW220772   2.288   1.387  10.761  0.0888  0.0282  0.0033
 3046SOL     OW20773   3.937   3.544   5.232  0.4584  0.3331 -0.2437
 3046SOL    HW120774   3.958   3.596   5.155  2.6389 -1.7720 -1.0475
 3046SOL    HW220775   3.987   3.590   5.299  0.5524 -1.3443  0.8298
 3047SOL     OW20776   2.424   1.553   6.030  0.0417 -0.4822 -0.1033
 3047SOL    HW120777   2.345   1.500   6.027  0.3124 -0.8269 -1.0983
 3047SOL    HW220778   2.475   1.492   6.084 -1.3461  0.0806  1.8707
 3048SOL     OW20779   1.993   2.669  14.251 -0.4062 -0.4416 -0.4135
 3048SOL    HW120780   1.957   2.626  14.329 -1.0745  0.7429 -0.0761
 3048SOL    HW220781   2.082   2.636  14.260 -0.5362 -0.4816  0.8567
 3049SOL     OW20782   1.702   4.627   8.788  0.2887  0.3493  0.0604
 3049SOL    HW120783   1.792   4.612   8.815  0.0070 -0.1138  0.7497
 3049SOL    HW220784   1.709   4.686   8.713  1.1392  2.4352  1.7819
 3050SOL     OW20785   2.023   0.688   1.430  0.2421 -0.6948  0.5862
 3050SOL    HW120786   2.081   0.623   1.389 -0.6011 -0.5149 -0.9243
 3050SOL    HW220787   2.050   0.759   1.371 -0.2663 -2.2003 -1.4595
 3051SOL     OW20788   2.067   1.349   4.122  0.1282 -0.1451 -0.2838
 3051SOL    HW120789   2.036   1.311   4.204  2.8576 -0.7749  0.4522
 3051SOL    HW220790   2.035   1.434   4.151  2.4108 -0.2237  2.4377
 3052SOL     OW20791   0.701   2.997   5.454  0.1719  0.1437  0.2816
 3052SOL    HW120792   0.629   3.047   5.415 -0.5761 -1.8339 -0.8490
 3052SOL    HW220793   0.668   2.911   5.428 -3.5578  1.6949 -0.1594
 3053SOL     OW20794   2.850   4.621  14.195 -0.1978 -0.7488  0.0714
 3053SOL    HW120795   2.895   4.685  14.140 -1.2842  1.7666  2.1196
 3053SOL    HW220796   2.772   4.594  14.146  0.9156 -1.7862 -1.1385
 3054SOL     OW20797   0.574   1.528   3.291  0.3689  0.3319  0.6817
 3054SOL    HW120798   0.585   1.557   3.381  1.4943 -0.5050  0.8193
 3054SOL    HW220799   0.663   1.535   3.256 -0.8341  1.8115 -2.1231
 3055SOL     OW20800   4.659   1.545   8.485 -0.2771  0.2326 -0.1218
 3055SOL    HW120801   0.005   1.564   8.523  0.5568 -0.7089 -1.5287
 3055SOL    HW220802   4.602   1.550   8.561  1.2296 -1.9735  1.1655
 3056SOL     OW20803   0.735   0.395   7.037  0.0599 -0.1716  0.2274
 3056SOL    HW120804   0.741   0.323   7.100 -0.9890 -0.5425 -0.1018
 3056SOL    HW220805   0.711   0.473   7.086 -2.3993  0.7149 -2.3985
 3057SOL     OW20806   2.934   0.539  10.722  0.3766 -0.3302 -0.9554
 3057SOL    HW120807   2.957   0.451  10.752  0.0181  0.4157  1.4864
 3057SOL    HW220808   2.908   0.582  10.804  0.1826 -0.5252 -0.9152
 3058SOL     OW20809   1.592   2.589  10.347  0.7844  0.0377 -0.2591
 3058SOL    HW120810   1.515   2.568  10.399 -0.0721 -0.4816 -1.7139
 3058SOL    HW220811   1.666   2.538  10.380  0.1656 -0.5943  0.1566
 3059SOL     OW20812   4.477   4.373   2.068 -0.2441 -0.2703 -0.7645
 3059SOL    HW120813   4.486   4.454   2.118 -0.3351  0.2309 -1.5621
 3059SOL    HW220814   4.384   4.350   2.069  0.1136 -1.7149 -0.0757
 3060SOL     OW20815   0.979   3.477   7.370  0.5393 -0.1582  0.2201
 3060SOL    HW120816   0.946   3.486   7.459  0.7275 -0.6622  0.3409
 3060SOL    HW220817   0.908   3.462   7.309 -0.3045  0.7341  0.9841
 3061SOL     OW20818   4.652   4.180   7.556 -0.0867 -0.3669  0.2684
 3061SOL    HW120819   4.664   4.189   7.651  0.8649  3.3074 -0.2122
 3061SOL    HW220820   4.610   4.094   7.557 -0.6516 -0.0991 -0.6323
 3062SOL     OW20821   0.114   2.969   2.002 -0.2874  0.4259 -0.2191
 3062SOL    HW120822   0.097   2.907   1.932  1.6511 -1.1729  0.7262
 3062SOL    HW220823   0.142   3.046   1.953  1.0438 -0.9501 -1.6221
 3063SOL     OW20824   2.442   1.826  13.864  0.2685 -0.1711  0.6839
 3063SOL    HW120825   2.465   1.903  13.917  0.3628  0.6801 -0.6112
 3063SOL    HW220826   2.349   1.844  13.850  0.1096 -0.1723  1.7326
 3064SOL     OW20827   1.993   3.036  16.260 -0.3410  0.2251 -0.1767
 3064SOL    HW120828   1.913   3.064  16.216 -2.1081  0.7181  3.3875
 3064SOL    HW220829   2.003   3.110  16.320 -1.7364  0.5309 -0.3274
 3065SOL     OW20830   0.569   4.394   7.321 -0.3724  0.3535  0.1346
 3065SOL    HW120831   0.575   4.359   7.410  0.9409  0.3408  0.0326
 3065SOL    HW220832   0.506   4.466   7.328 -0.4711  0.2375  0.4303
 3066SOL     OW20833   3.497   1.705   7.218  0.2763  0.0369 -0.8038
 3066SOL    HW120834   3.445   1.691   7.139  0.1979 -2.7934 -0.2360
 3066SOL    HW220835   3.433   1.683   7.286  0.6096  0.4223 -0.3633
 3067SOL     OW20836   3.964   1.903   4.611 -0.3604  0.5165 -0.0454
 3067SOL    HW120837   3.888   1.902   4.669  1.5989 -1.5004  2.4481
 3067SOL    HW220838   4.032   1.893   4.677  0.1867  0.0234 -0.6854
 3068SOL     OW20839   4.679   4.490   7.734 -0.6083 -0.3267 -0.8149
 3068SOL    HW120840   4.617   4.469   7.664  1.4026 -1.0652 -2.3877
 3068SOL    HW220841   4.664   4.422   7.800 -0.9290 -0.3874 -0.9475
 3069SOL     OW20842   2.954   3.588   5.442 -0.5258 -0.0725  0.0612
 3069SOL    HW120843   2.941   3.683   5.449 -1.9274 -0.4176  2.2728
 3069SOL    HW220844   2.894   3.578   5.368  1.0179  0.0783 -1.2113
 3070SOL     OW20845   2.056   0.070   9.084  0.0859  0.4403  0.1825
 3070SOL    HW120846   2.061   0.164   9.098 -0.4001  0.2332  1.7616
 3070SOL    HW220847   2.021   0.045   9.169  0.8404 -1.2245  0.0155
 3071SOL     OW20848   2.914   3.732   2.245  0.1524 -0.0544  0.0238
 3071SOL    HW120849   2.953   3.708   2.330 -1.8026  1.5265  1.3761
 3071SOL    HW220850   2.965   3.811   2.226 -0.9042  0.6786  0.1757
 3072SOL     OW20851   0.653   4.295  11.902  0.5216  0.3912  0.8144
 3072SOL    HW120852   0.687   4.273  11.989  1.9335 -1.6584 -0.2439
 3072SOL    HW220853   0.724   4.347  11.865  1.8486 -0.8434  1.6279
 3073SOL     OW20854   1.352   2.238   5.365  0.2333 -0.3096 -0.1735
 3073SOL    HW120855   1.324   2.163   5.312  0.9732  1.2350 -2.7400
 3073SOL    HW220856   1.376   2.205   5.452 -0.6101 -3.0399 -0.9886
 3074SOL     OW20857   3.780   2.484  10.621 -0.2409  0.3891  0.1442
 3074SOL    HW120858   3.819   2.560  10.579 -1.7022  0.5627 -0.9256
 3074SOL    HW220859   3.798   2.410  10.562 -2.3512 -0.0194 -0.0138
 3075SOL     OW20860   1.092   0.293   3.982 -0.3019  0.0849 -0.2885
 3075SOL    HW120861   1.133   0.290   4.068  1.4177  0.5008 -1.0812
 3075SOL    HW220862   1.039   0.213   3.978 -1.4280  0.7462  1.6116
 3076SOL     OW20863   3.004   0.899   7.228 -0.2514  0.2844 -0.0137
 3076SOL    HW120864   2.993   0.919   7.135 -4.4126 -1.1934  0.1308
 3076SOL    HW220865   3.023   0.988   7.258  2.2680 -0.5460  0.8955
 3077SOL     OW20866   2.578   2.871  10.448 -0.0736  0.0160 -0.0404
 3077SOL    HW120867   2.538   2.849  10.532 -0.3517 -0.4215 -0.2894
 3077SOL    HW220868   2.570   2.966  10.448  0.8370  0.1132 -2.7019
 3078SOL     OW20869   3.669   2.647   6.925  0.2062 -0.4637  0.0009
 3078SOL    HW120870   3.622   2.728   6.944 -0.7891 -0.4185 -2.6649
 3078SOL    HW220871   3.619   2.613   6.851  1.0433  2.6487 -1.9947
 3079SOL     OW20872   3.585   1.612   0.913 -0.2996  0.4361 -0.0440
 3079SOL    HW120873   3.494   1.602   0.885 -0.7914 -0.6331  1.9750
 3079SOL    HW220874   3.572   1.601   1.007 -1.5677  0.0183 -0.2719
 3080SOL     OW20875   1.645   3.371   5.625  0.5400 -0.2218  0.0540
 3080SOL    HW120876   1.576   3.351   5.562 -0.1893  0.1803  0.7167
 3080SOL    HW220877   1.637   3.312   5.700 -0.4161 -2.6511 -1.9381
 3081SOL     OW20878   1.658   0.516   4.132  0.5673 -0.4490 -0.1199
 3081SOL    HW120879   1.659   0.458   4.056 -0.9686  0.3082 -0.7274
 3081SOL    HW220880   1.670   0.446   4.195  2.6539 -0.6948 -0.7841
 3082SOL     OW20881   1.206   1.650   6.917  0.2123  0.1773  0.0175
 3082SOL    HW120882   1.161   1.623   6.836  0.0312 -0.6011  0.3787
 3082SOL    HW220883   1.294   1.647   6.879  0.7408  0.8046  1.2100
 3083SOL     OW20884   4.641   1.073  14.861  0.3193 -0.4134 -0.1071
 3083SOL    HW120885   4.589   1.148  14.833  1.6219  0.6482  0.2848
 3083SOL    HW220886   4.631   1.016  14.785 -0.1701 -0.5693  0.0753
 3084SOL     OW20887   3.527   3.819   6.662  0.4106  0.2098  0.3519
 3084SOL    HW120888   3.450   3.803   6.716 -0.6312  0.5800 -1.0401
 3084SOL    HW220889   3.589   3.764   6.711 -0.6673 -4.4691 -3.5626
 3085SOL     OW20890   3.525   2.038   2.075 -0.2325 -0.3866 -0.4312
 3085SOL    HW120891   3.446   1.997   2.111  1.7562 -1.9490  2.1918
 3085SOL    HW220892   3.557   1.982   2.004  1.2611  3.2061 -2.5373
 3086SOL     OW20893   4.498   4.725   5.612 -0.0524  0.0800 -0.9282
 3086SOL    HW120894   4.498   4.632   5.588 -0.6554 -0.3707  0.8188
 3086SOL    HW220895   4.579   4.726   5.663 -0.8070  0.7198  0.2511
 3087SOL     OW20896   0.075   1.915  13.116 -0.0507  0.2707 -0.4172
 3087SOL    HW120897   0.141   1.894  13.049 -1.4345 -1.8332 -1.1008
 3087SOL    HW220898   0.003   1.858  13.092  0.1842 -0.0282 -0.4167
 3088SOL     OW20899   3.917   3.426   2.755  0.1273 -0.6083  0.2038
 3088SOL    HW120900   3.944   3.356   2.696 -2.1213 -0.9318 -0.4407
 3088SOL    HW220901   3.881   3.492   2.694  0.3768 -0.6091  0.0565
 3089SOL     OW20902   1.994   2.306  14.701  0.0550  0.7324 -0.0696
 3089SOL    HW120903   1.970   2.214  14.699 -1.6659  1.1624  0.4913
 3089SOL    HW220904   2.060   2.292  14.769  0.7749 -0.1254 -0.9547
 3090SOL     OW20905   3.259   3.586  13.081 -0.3476  0.1107  0.0055
 3090SOL    HW120906   3.326   3.575  13.148 -1.0873 -0.1883  0.7053
 3090SOL    HW220907   3.307   3.565  13.001 -1.3827 -1.3783 -0.2275
 3091SOL     OW20908   2.705   3.133  12.205  0.0738  0.4340  0.4243
 3091SOL    HW120909   2.662   3.218  12.202  1.5343  1.1580 -0.4944
 3091SOL    HW220910   2.701   3.106  12.113 -0.1747 -1.9301  1.1286
 3092SOL     OW20911   2.942   4.068   1.607  0.1832  0.0525 -0.2002
 3092SOL    HW120912   3.035   4.054   1.589  0.7312 -0.3779  3.0311
 3092SOL    HW220913   2.939   4.024   1.692 -2.8923  0.1170 -0.2907
 3093SOL     OW20914   4.700   3.839   5.501 -0.9606 -0.5931  0.1070
 3093SOL    HW120915   4.632   3.785   5.540 -0.1508 -0.6020  1.4895
 3093SOL    HW220916   0.043   3.791   5.489 -1.0535 -1.1306  1.6912
 3094SOL     OW20917   3.028   3.322  16.615  0.1856 -0.4289 -1.0240
 3094SOL    HW120918   2.957   3.335  16.677  0.2659  0.9443 -1.2262
 3094SOL    HW220919   2.979   3.308  16.535 -0.6528  0.2290 -0.6266
 3095SOL     OW20920   4.275   4.386   3.826 -0.0858  0.1680  0.1417
 3095SOL    HW120921   4.325   4.466   3.805  2.2000 -0.2755  3.8566
 3095SOL    HW220922   4.325   4.358   3.903 -2.5489  1.3418  2.1793
 3096SOL     OW20923   3.609   2.295   8.688  0.5986  0.8208 -0.6834
 3096SOL    HW120924   3.699   2.262   8.694 -0.1597 -1.0883  0.1670
 3096SOL    HW220925   3.567   2.223   8.735  1.4370 -1.1762 -2.9520
 3097SOL     OW20926   1.266   4.241  17.347  0.0960 -0.4438  0.0644
 3097SOL    HW120927   1.182   4.281  17.325  0.7022  0.4776 -0.6126
 3097SOL    HW220928   1.242   4.199  17.429 -0.9966 -1.0579 -0.5659
 3098SOL     OW20929   1.676   3.607   5.249 -0.5121 -0.3461 -0.3415
 3098SOL    HW120930   1.642   3.632   5.335  2.9178  2.4949  0.1948
 3098SOL    HW220931   1.756   3.659   5.248 -1.1583  0.6007 -1.9121
 3099SOL     OW20932   0.384   1.281   6.464  0.2379  0.1409 -0.4582
 3099SOL    HW120933   0.298   1.273   6.423  0.5509  2.6886 -1.5962
 3099SOL    HW220934   0.397   1.193   6.498 -2.2031 -0.8629 -2.1458
 3100SOL     OW20935   0.580   4.331   5.692 -0.7007 -0.2989 -0.0750
 3100SOL    HW120936   0.638   4.255   5.694 -0.1304  0.1393  0.0322
 3100SOL    HW220937   0.559   4.326   5.786 -0.5545 -2.0141 -0.1168
 3101SOL     OW20938   4.629   1.843  11.644 -0.1951  0.6408 -0.0286
 3101SOL    HW120939   4.706   1.824  11.589 -0.8567 -0.9611 -0.3913
 3101SOL    HW220940   4.676   1.875  11.721 -1.3381 -0.0723  0.9574
 3102SOL     OW20941   0.438   0.211  13.934 -0.4977 -0.3508 -0.4419
 3102SOL    HW120942   0.462   0.290  13.886 -0.0795  0.5951  1.2963
 3102SOL    HW220943   0.445   0.141  13.869  0.9878 -0.1006 -0.5466
 3103SOL     OW20944   0.716   4.730   5.008 -0.0800  0.0561 -0.0867
 3103SOL    HW120945   0.648   4.702   4.947 -0.7262  0.4464  0.4442
 3103SOL    HW220946   0.664   0.057   5.053  0.9855 -0.5461  2.0804
 3104SOL     OW20947   3.681   4.608  10.330 -0.1676 -0.3653  0.3448
 3104SOL    HW120948   3.754   4.657  10.294 -1.2335  0.7889 -0.2302
 3104SOL    HW220949   3.707   4.518  10.309 -0.9621 -0.0788 -1.8262
 3105SOL     OW20950   4.531   1.860   9.116  0.0732 -0.1109  0.5939
 3105SOL    HW120951   4.512   1.770   9.144 -0.7601  0.6810  2.6082
 3105SOL    HW220952   4.446   1.900   9.134  0.1470  0.4056 -0.2184
 3106SOL     OW20953   1.205   2.574   3.942 -0.4439  0.2300  0.2391
 3106SOL    HW120954   1.221   2.480   3.928 -1.4510 -0.0170  0.7742
 3106SOL    HW220955   1.284   2.593   3.992 -0.1656 -0.4906  0.0813
 3107SOL     OW20956   2.097   0.881   0.729  0.7619 -0.4801  0.0969
 3107SOL    HW120957   2.034   0.811   0.746  1.6274 -1.1085  0.6842
 3107SOL    HW220958   2.147   0.876   0.810  1.2377 -2.0231 -0.2851
 3108SOL     OW20959   0.763   3.417   7.167  0.1374  0.2039  0.5441
 3108SOL    HW120960   0.689   3.357   7.156  0.2907  0.5340 -2.3281
 3108SOL    HW220961   0.787   3.453   7.082  1.2464  0.0628  0.8036
 3109SOL     OW20962   1.311   4.010  16.833 -0.1212 -0.1544 -0.2485
 3109SOL    HW120963   1.373   4.058  16.778  1.0515  2.0278  2.9960
 3109SOL    HW220964   1.239   3.988  16.773 -1.4733  2.9134  0.2854
 3110SOL     OW20965   0.053   2.000   1.323  0.4725 -0.0067  0.4323
 3110SOL    HW120966   4.732   1.929   1.345 -0.5390  1.5232  2.5608
 3110SOL    HW220967   0.134   1.948   1.330 -0.2210 -1.1523  0.0008
 3111SOL     OW20968   2.472   0.972   3.411 -0.3740 -0.0776  0.3490
 3111SOL    HW120969   2.438   0.934   3.329 -0.5896  1.0450 -0.0828
 3111SOL    HW220970   2.564   0.993   3.400 -1.0969  1.9722 -1.9229
 3112SOL     OW20971   3.648   2.382  11.878  0.2369 -0.0827  0.1162
 3112SOL    HW120972   3.553   2.393  11.876  0.0566 -1.4768  0.5570
 3112SOL    HW220973   3.671   2.437  11.952  0.7985 -0.0907 -0.0535
 3113SOL     OW20974   3.698   2.408   9.999  0.0032 -0.5261 -0.0046
 3113SOL    HW120975   3.692   2.393  10.093  0.1057  1.7221  0.3644
 3113SOL    HW220976   3.732   2.321   9.980  0.9873 -0.1216 -0.1097
 3114SOL     OW20977   4.299   0.152   3.383 -0.5630  0.2374  0.0784
 3114SOL    HW120978   4.240   0.120   3.452  0.1475 -0.0603  0.5439
 3114SOL    HW220979   4.272   0.244   3.379  1.7793  0.8802 -0.5450
 3115SOL     OW20980   2.858   3.442  11.290 -0.1977 -0.6538 -0.6194
 3115SOL    HW120981   2.803   3.487  11.226  0.5767 -1.0220 -1.5313
 3115SOL    HW220982   2.811   3.466  11.370 -0.1738 -1.4094 -0.3717
 3116SOL     OW20983   0.930   2.070   4.702  0.2213 -0.4943 -0.0784
 3116SOL    HW120984   0.922   2.037   4.791  1.2984 -0.8568 -0.1201
 3116SOL    HW220985   0.994   2.141   4.705 -0.9595  0.6070 -0.7625
 3117SOL     OW20986   2.021   2.409  16.943 -0.4984  0.5285  0.4990
 3117SOL    HW120987   2.068   2.328  16.924  1.1105  1.8895 -1.2859
 3117SOL    HW220988   2.099   2.464  16.947 -1.6043  2.0714  0.8714
 3118SOL     OW20989   2.007   4.588   2.719  0.3112  0.2570 -0.0296
 3118SOL    HW120990   2.030   4.597   2.812  1.1264 -0.3412 -0.1753
 3118SOL    HW220991   1.961   4.504   2.725 -0.0268  0.4129 -0.4946
 3119SOL     OW20992   2.005   3.618   7.932 -0.2434 -0.1885  0.2435
 3119SOL    HW120993   1.990   3.710   7.910 -0.5720 -0.3043  0.0065
 3119SOL    HW220994   1.989   3.624   8.027  1.8341  0.8276  0.5468
 3120SOL     OW20995   0.527   2.025   5.424  0.4100  0.1762 -0.1479
 3120SOL    HW120996   0.465   1.955   5.442  0.9912 -0.2865  0.0281
 3120SOL    HW220997   0.511   2.046   5.332  1.8526 -1.8456 -0.8704
 3121SOL     OW20998   1.106   3.634   8.303 -0.3865  0.5253  0.0340
 3121SOL    HW120999   1.128   3.548   8.269 -3.0507 -0.0691 -0.1987
 3121SOL    HW221000   1.014   3.613   8.323 -0.9917  0.7209 -2.5270
 3122SOL     OW21001   0.897   4.060  17.451  0.0474 -0.1959  0.3742
 3122SOL    HW121002   0.962   4.027  17.389  0.0411 -0.3925  0.4706
 3122SOL    HW221003   0.833   4.095  17.389  0.5261 -0.2554 -0.1609
 3123SOL     OW21004   4.378   2.644   2.158  0.0511  0.0254 -0.1805
 3123SOL    HW121005   4.330   2.725   2.142  1.0881  1.3522  3.4504
 3123SOL    HW221006   4.314   2.574   2.147 -0.8908  1.0118 -1.0695
 3124SOL     OW21007   1.989   2.655  13.992  0.1713 -0.2007  0.3001
 3124SOL    HW121008   1.921   2.589  13.979 -0.6539  1.1268 -2.0388
 3124SOL    HW221009   1.987   2.675  14.086 -1.1705  0.9483  0.0067
 3125SOL     OW21010   1.854   0.973   4.980 -0.1099 -0.1463 -0.1401
 3125SOL    HW121011   1.881   1.001   4.893 -0.8671 -1.8111 -0.9095
 3125SOL    HW221012   1.807   0.892   4.960 -0.0814 -0.5455  1.3725
 3126SOL     OW21013   2.670   3.953   7.845 -0.0450 -0.1845  0.1980
 3126SOL    HW121014   2.708   4.015   7.783 -0.5409 -0.8459 -0.7821
 3126SOL    HW221015   2.747   3.937   7.899  0.0159  1.8886  0.7086
 3127SOL     OW21016   1.401   0.482   2.067 -0.7651 -0.0322 -0.8131
 3127SOL    HW121017   1.320   0.527   2.089 -0.8212 -0.3637 -0.3284
 3127SOL    HW221018   1.448   0.558   2.034 -1.8692  1.4487  1.0340
 3128SOL     OW21019   3.406   1.405  17.424  0.0450 -0.2230  0.2020
 3128SOL    HW121020   3.343   1.457  17.375  0.3790  0.9231  0.9771
 3128SOL    HW221021   3.379   1.315  17.407 -0.2141 -1.2199  5.5956
 3129SOL     OW21022   4.625   1.106   2.226 -0.1106 -0.0964  0.1031
 3129SOL    HW121023   4.628   1.200   2.244 -1.9565 -0.1505  0.7301
 3129SOL    HW221024   4.706   1.094   2.177 -0.2370 -2.4325  0.4412
 3130SOL     OW21025   3.823   0.232   5.353  0.1974 -0.1556  0.1793
 3130SOL    HW121026   3.841   0.156   5.409 -0.2953 -0.8513 -0.6063
 3130SOL    HW221027   3.742   0.267   5.389 -1.2631 -3.8326  0.5119
 3131SOL     OW21028   1.467   3.782   0.039 -0.7923  0.1653 -0.2397
 3131SOL    HW121029   1.390   3.833   0.065 -0.1875  0.2126  1.4878
 3131SOL    HW221030   1.409   3.706   0.031 -0.6282 -0.1196  1.2251
 3132SOL     OW21031   3.339   0.212  13.928  0.5032 -0.7084  0.1359
 3132SOL    HW121032   3.424   0.244  13.960  0.1023  0.7941 -0.2809
 3132SOL    HW221033   3.366   0.153  13.858 -2.1471 -2.5280  0.6803
 3133SOL     OW21034   0.849   4.375  15.067 -0.2739 -0.3472  0.6734
 3133SOL    HW121035   0.798   4.419  14.999  0.6232 -0.3943 -0.0318
 3133SOL    HW221036   0.923   4.435  15.059 -0.3680 -0.6098 -2.0474
 3134SOL     OW21037   2.375   0.986  16.794 -0.4499  0.4600 -0.5816
 3134SOL    HW121038   2.429   0.910  16.772 -0.5876 -0.1397  1.1049
 3134SOL    HW221039   2.329   0.949  16.870 -1.6509 -0.2294 -1.6477
 3135SOL     OW21040   1.188   2.844   8.721 -0.3333  0.1327  0.0956
 3135SOL    HW121041   1.274   2.884   8.711  1.0321 -2.5096  1.4472
 3135SOL    HW221042   1.210   2.754   8.743  0.3785  0.0495 -0.9918
 3136SOL     OW21043   0.419   3.822   8.983 -0.5186 -0.1599 -0.0446
 3136SOL    HW121044   0.336   3.777   8.997 -0.0245 -1.2717 -0.6669
 3136SOL    HW221045   0.436   3.815   8.889 -0.4695  1.4400 -0.1537
 3137SOL     OW21046   3.670   0.171   4.922 -0.1778  0.4277  0.4087
 3137SOL    HW121047   3.586   0.214   4.912 -1.7323 -2.1803  2.1714
 3137SOL    HW221048   3.716   0.225   4.987  0.3321 -0.8272  1.0983
 3138SOL     OW21049   3.821   1.346   9.405 -0.5841  0.5085 -0.0565
 3138SOL    HW121050   3.770   1.339   9.486  1.5423  2.2420  1.4294
 3138SOL    HW221051   3.796   1.436   9.384 -5.6624 -0.0760  3.4456
 3139SOL     OW21052   1.573   0.005   6.130 -0.5802  0.0786  1.1686
 3139SOL    HW121053   1.493   0.058   6.139 -0.4450  0.9001 -2.4366
 3139SOL    HW221054   1.532   4.661   6.108 -0.3683  0.0426  0.9139
 3140SOL     OW21055   4.556   2.680   7.255  0.0893  0.1395 -0.1821
 3140SOL    HW121056   4.483   2.678   7.317  0.2834 -0.9875  0.0273
 3140SOL    HW221057   4.529   2.747   7.192  0.9328 -0.1751 -0.8858
 3141SOL     OW21058   1.719   0.086  13.779  0.2673  0.0229  0.3063
 3141SOL    HW121059   1.646   0.108  13.721 -0.7365 -0.7413  1.2533
 3141SOL    HW221060   1.713   0.146  13.853 -0.6039  1.1244 -0.6584
 3142SOL     OW21061   2.246   2.412   7.759  0.0032  0.0956  0.4628
 3142SOL    HW121062   2.206   2.342   7.709 -2.9625  1.8844  0.3204
 3142SOL    HW221063   2.331   2.379   7.789 -0.6310 -3.2417 -1.4547
 3143SOL     OW21064   3.694   0.613  10.247 -0.4036  0.4206  0.5516
 3143SOL    HW121065   3.724   0.700  10.275  0.8570  0.3556 -0.6152
 3143SOL    HW221066   3.614   0.636  10.199  0.2684  2.9913  0.6617
 3144SOL     OW21067   3.264   1.103   6.113  0.2953  0.4528 -0.6709
 3144SOL    HW121068   3.309   1.150   6.184 -0.3587 -0.3922  0.2977
 3144SOL    HW221069   3.322   1.121   6.039 -0.6422  0.2715 -1.4464
 3145SOL     OW21070   3.883   1.130  14.531  0.0383  0.1858 -0.3114
 3145SOL    HW121071   3.953   1.186  14.564  1.9109 -1.1315 -2.1098
 3145SOL    HW221072   3.894   1.050  14.582 -0.7732  0.3629  0.1574
 3146SOL     OW21073   1.793   4.156   2.948 -0.1461  0.5628  0.3963
 3146SOL    HW121074   1.698   4.160   2.936  0.0733  0.9256 -1.1421
 3146SOL    HW221075   1.798   4.066   2.982 -2.3830  0.2864  0.0263
 3147SOL     OW21076   3.672   3.602   6.498  0.0507  0.5983  0.2813
 3147SOL    HW121077   3.641   3.564   6.580 -2.1978  1.4368 -0.1714
 3147SOL    HW221078   3.765   3.610   6.520  0.7828  0.0694 -2.6806
 3148SOL     OW21079   4.698   4.382   8.064  0.2320 -0.0271 -0.4399
 3148SOL    HW121080   4.676   4.426   8.146  1.1103 -1.6664  0.6756
 3148SOL    HW221081   0.055   4.381   8.065  0.1654 -1.6879  3.3871
 3149SOL     OW21082   1.933   3.872   3.649 -0.5792  0.2343 -0.0734
 3149SOL    HW121083   1.901   3.955   3.685  3.7307  1.8267  0.1588
 3149SOL    HW221084   1.953   3.902   3.560  2.1499 -0.9755  0.1253
 3150SOL     OW21085   1.758   1.324  13.333  0.3379  0.1747 -0.1871
 3150SOL    HW121086   1.671   1.341  13.295 -0.8531 -0.1864  2.3474
 3150SOL    HW221087   1.731   1.257  13.396 -1.6870  0.3938 -0.8222
 3151SOL     OW21088   0.411   1.227   1.648  0.6169 -0.6283  0.4748
 3151SOL    HW121089   0.443   1.172   1.576  3.3830  1.2739  0.2698
 3151SOL    HW221090   0.396   1.157   1.711 -0.0149 -0.8641  0.0562
 3152SOL     OW21091   1.683   3.646  10.013  0.4001  0.8106 -0.1808
 3152SOL    HW121092   1.618   3.623   9.947 -0.9832 -0.2492  1.5666
 3152SOL    HW221093   1.674   3.741  10.023 -1.7733  0.5900 -0.0437
 3153SOL     OW21094   0.960   0.400  15.633 -0.4285  0.6683  0.1783
 3153SOL    HW121095   0.926   0.316  15.601  0.4953 -0.1778  1.4140
 3153SOL    HW221096   0.884   0.458  15.632 -0.8707  0.0742 -0.4415
 3154SOL     OW21097   4.654   0.069   2.120 -0.3620 -0.0367  0.0341
 3154SOL    HW121098   4.594   0.027   2.058 -2.0305  0.9364  1.0027
 3154SOL    HW221099   4.590   0.121   2.169 -1.5930 -0.9803 -0.5666
 3155SOL     OW21100   0.630   2.469   9.147  0.1746 -0.0912  0.3744
 3155SOL    HW121101   0.617   2.376   9.127  2.8187 -0.5700  0.7934
 3155SOL    HW221102   0.594   2.506   9.066 -0.0197 -0.2302  0.3991
 3156SOL     OW21103   4.098   0.986   2.115 -0.1744 -0.4452  0.5781
 3156SOL    HW121104   4.141   0.961   2.196  0.7263  0.0264  0.2548
 3156SOL    HW221105   4.141   0.930   2.050  0.0855  1.2692 -0.7355
 3157SOL     OW21106   2.167   1.860  13.865  0.1342 -0.0842  0.1650
 3157SOL    HW121107   2.083   1.905  13.873  0.2721  0.0163  0.9854
 3157SOL    HW221108   2.152   1.839  13.773 -2.4021 -0.5376  0.6869
 3158SOL     OW21109   2.851   3.747   6.884  0.0870  0.5616  0.1599
 3158SOL    HW121110   2.808   3.684   6.942 -0.4330  0.6286 -0.1557
 3158SOL    HW221111   2.793   3.758   6.809 -0.2004 -1.0692  0.1555
 3159SOL     OW21112   4.224   1.546   5.483  0.1559  0.2527  0.1231
 3159SOL    HW121113   4.141   1.588   5.461  0.5949  1.2038  0.3134
 3159SOL    HW221114   4.251   1.590   5.564 -0.2895 -1.0878  1.0103
 3160SOL     OW21115   2.446   2.207   4.988 -0.4627 -0.0059  0.3363
 3160SOL    HW121116   2.533   2.167   4.985 -0.7578 -0.6461  0.4453
 3160SOL    HW221117   2.448   2.287   4.935 -1.4109  0.6499  1.2892
 3161SOL     OW21118   4.527   3.641   4.796  0.2921  0.0039 -0.0791
 3161SOL    HW121119   4.510   3.623   4.703  1.2454  1.3083 -0.5137
 3161SOL    HW221120   4.507   3.734   4.788  0.6038  0.1078  0.3484
 3162SOL     OW21121   4.590   3.245   6.495 -0.3004  0.0912  0.0378
 3162SOL    HW121122   4.498   3.230   6.475  0.2277  0.7400 -2.8449
 3162SOL    HW221123   4.603   3.167   6.548 -2.0397  0.1325  0.5285
 3163SOL     OW21124   1.727   1.616   0.138 -0.6261 -0.1252  0.4429
 3163SOL    HW121125   1.643   1.577   0.160 -1.5443  1.3007 -0.5372
 3163SOL    HW221126   1.722   1.631   0.043  0.5593  0.7097  0.5174
 3164SOL     OW21127   2.347   2.292   2.484  0.2810  0.1979  0.1473
 3164SOL    HW121128   2.348   2.370   2.540 -0.3051  0.2997  0.0096
 3164SOL    HW221129   2.353   2.212   2.536 -0.3316  0.9358  1.3602
 3165SOL     OW21130   3.438   2.598   4.351 -0.0194 -0.0761 -0.0234
 3165SOL    HW121131   3.475   2.669   4.404 -1.6123  1.5095 -1.0654
 3165SOL    HW221132   3.459   2.634   4.265  1.8546 -1.6744 -0.2265
 3166SOL     OW21133   2.362   1.493  15.853  0.1859  0.0450 -0.1870
 3166SOL    HW121134   2.329   1.570  15.900 -0.1833  1.4301 -2.7031
 3166SOL    HW221135   2.449   1.514  15.819  0.6197  0.4005  1.1391
 3167SOL     OW21136   4.654   0.462   6.401  0.2752 -0.0357  0.6172
 3167SOL    HW121137   4.673   0.386   6.455 -0.4096 -2.0006 -1.9209
 3167SOL    HW221138   4.560   0.463   6.382  0.0761  3.5598  1.7882
 3168SOL     OW21139   0.016   0.034   5.721 -0.4163  0.2567 -0.2664
 3168SOL    HW121140   0.069   0.055   5.798 -1.6370 -0.0829  0.6544
 3168SOL    HW221141   0.030   0.116   5.672  1.4968 -0.7534 -1.3921
 3169SOL     OW21142   3.425   2.378   6.823 -0.4580 -0.5385 -0.0609
 3169SOL    HW121143   3.387   2.291   6.809 -0.2600 -0.2877 -2.1544
 3169SOL    HW221144   3.352   2.436   6.800 -1.0491 -1.5160 -0.6692
 3170SOL     OW21145   2.885   1.657   4.580 -0.4987 -0.5408  0.5661
 3170SOL    HW121146   2.913   1.678   4.669 -0.3062 -1.4950  0.7357
 3170SOL    HW221147   2.870   1.562   4.580  2.3304 -0.9997  1.5635
 3171SOL     OW21148   1.544   2.550   4.549  0.2683 -0.4426 -0.1060
 3171SOL    HW121149   1.552   2.476   4.608  1.3160  0.2151  0.5880
 3171SOL    HW221150   1.480   2.608   4.591  0.5604  0.6785 -1.1834
 3172SOL     OW21151   0.292   0.112  17.572 -0.1629 -0.5023 -0.3275
 3172SOL    HW121152   0.328   0.054  17.639  0.6099  1.5180  0.9998
 3172SOL    HW221153   0.343   0.100  17.492  0.5976 -1.0751  0.2439
 3173SOL     OW21154   1.512   2.665  16.252 -0.2229  0.7871 -0.3188
 3173SOL    HW121155   1.532   2.653  16.160  0.0067  0.5505 -0.2387
 3173SOL    HW221156   1.588   2.715  16.281 -0.3687 -0.1478  1.7240
 3174SOL     OW21157   4.521   1.716  15.062 -0.9607 -0.1656  0.4091
 3174SOL    HW121158   4.596   1.713  15.122 -0.8058 -0.7326  0.1868
 3174SOL    HW221159   4.557   1.771  14.993 -1.3455 -1.2416 -0.6484
 3175SOL     OW21160   3.998   4.303   4.233  0.3744 -0.2676 -0.4205
 3175SOL    HW121161   4.015   4.300   4.139 -2.3111  2.7233 -1.0152
 3175SOL    HW221162   3.904   4.297   4.246  0.5439 -0.9365  0.5277
 3176SOL     OW21163   0.021   3.181   2.248 -0.0430 -0.6844  0.4877
 3176SOL    HW121164   4.677   3.187   2.294 -0.3829  1.6760 -0.4015
 3176SOL    HW221165   0.023   3.089   2.222  0.0527 -0.3188 -0.8097
 3177SOL     OW21166   0.060   3.308   5.634  0.4502 -0.3647 -0.2257
 3177SOL    HW121167   0.034   3.274   5.720  0.8522 -0.5677 -0.1884
 3177SOL    HW221168   0.092   3.396   5.655 -1.0545  0.2260 -0.3548
 3178SOL     OW21169   2.798   4.197   7.209 -0.0571 -0.0786  0.4857
 3178SOL    HW121170   2.892   4.184   7.194 -0.0596  0.7460 -0.2566
 3178SOL    HW221171   2.774   4.116   7.165 -2.0708  0.5563  0.4165
 3179SOL     OW21172   1.249   0.092   0.621 -0.5979 -0.0855 -0.3482
 3179SOL    HW121173   1.192   0.027   0.661 -0.2295 -1.0039 -1.3252
 3179SOL    HW221174   1.334   0.080   0.662 -1.6138 -0.2570  1.6923
 3180SOL     OW21175   3.240   0.486  12.768 -0.7067 -0.0282  0.5178
 3180SOL    HW121176   3.329   0.520  12.766 -0.4018 -0.9053 -0.6931
 3180SOL    HW221177   3.243   0.443  12.683 -0.6547 -0.8739  0.9513
 3181SOL     OW21178   1.590   2.987  15.468  1.0622  0.5035  0.3376
 3181SOL    HW121179   1.514   3.035  15.434  0.5660 -0.8481 -0.4702
 3181SOL    HW221180   1.622   2.937  15.393  0.9800  0.4404  0.3443
 3182SOL     OW21181   2.953   1.297  14.660  0.0216  0.2695 -0.3192
 3182SOL    HW121182   2.870   1.344  14.669  0.0329  0.1339  0.4314
 3182SOL    HW221183   2.990   1.330  14.741  1.7812 -2.2928 -0.0825
 3183SOL     OW21184   1.866   1.294  12.874 -0.2846  0.4430  0.2907
 3183SOL    HW121185   1.881   1.281  12.968 -1.4479  0.7812  0.5185
 3183SOL    HW221186   1.937   1.355  12.852 -1.3407  0.9199 -1.7566
 3184SOL     OW21187   2.834   2.067   8.895  0.6208 -0.2861 -0.0058
 3184SOL    HW121188   2.913   2.053   8.948  0.5050 -0.5169  0.1075
 3184SOL    HW221189   2.860   2.124   8.823  1.4311 -0.3930  0.2046
 3185SOL     OW21190   3.555   2.689  10.024 -0.5334  0.5067  0.0108
 3185SOL    HW121191   3.481   2.665  10.079  1.6945  0.0462  2.8423
 3185SOL    HW221192   3.592   2.600  10.020 -1.6322  0.0982 -0.7852
 3186SOL     OW21193   2.896   0.102   9.698  0.1062 -0.4526  0.0203
 3186SOL    HW121194   2.963   0.083   9.633 -0.4368 -1.7846 -0.1500
 3186SOL    HW221195   2.849   0.170   9.650 -1.4526 -2.2899 -1.0638
 3187SOL     OW21196   1.598   0.715   0.554  0.1366  0.6617 -0.1449
 3187SOL    HW121197   1.562   0.631   0.585  2.7968 -0.2984  0.2965
 3187SOL    HW221198   1.576   0.706   0.462  0.7814 -0.3209 -0.2070
 3188SOL     OW21199   3.776   2.052  11.440  0.0689 -0.2251  0.4049
 3188SOL    HW121200   3.758   2.140  11.472  1.9563  0.7706 -1.2987
 3188SOL    HW221201   3.872   2.056  11.439 -0.0680  2.3819 -2.2179
 3189SOL     OW21202   0.279   1.419   1.494  0.2483  0.2630 -0.2494
 3189SOL    HW121203   0.301   1.501   1.539 -1.1549  0.1952  0.5606
 3189SOL    HW221204   0.313   1.356   1.558  1.1202  2.5268  1.5379
 3190SOL     OW21205   0.758   3.158   8.252  0.0924 -0.4749 -0.4122
 3190SOL    HW121206   0.734   3.197   8.168 -3.2546  0.5027  0.9978
 3190SOL    HW221207   0.722   3.070   8.259  0.9630 -0.7009  1.0073
 3191SOL     OW21208   2.035   2.181   0.302 -0.5427  0.2862 -0.2966
 3191SOL    HW121209   2.041   2.253   0.239  0.5247 -0.8106 -1.4498
 3191SOL    HW221210   2.127   2.183   0.329 -0.0749  0.4944 -1.9195
 3192SOL     OW21211   0.077   0.151  15.396 -1.2982 -0.8670 -0.2710
 3192SOL    HW121212   0.133   0.170  15.321 -0.1692 -1.8117  0.3409
 3192SOL    HW221213   4.727   0.138  15.365 -0.3259 -2.6677 -2.2890
 3193SOL     OW21214   0.820   0.331   0.057  0.2702  0.4787 -0.1576
 3193SOL    HW121215   0.777   0.256   0.099  1.4462 -0.2497 -0.2717
 3193SOL    HW221216   0.758   0.352  17.743  0.6605  0.3899 -0.5287
 3194SOL     OW21217   4.546   4.220   1.172  0.3257  0.0891 -0.0703
 3194SOL    HW121218   4.566   4.185   1.259  3.9951 -0.6817 -1.2325
 3194SOL    HW221219   4.617   4.190   1.115 -0.1108 -0.3189 -0.3947
 3195SOL     OW21220   0.392   4.237   2.073  0.1863  0.5197 -0.2160
 3195SOL    HW121221   0.485   4.233   2.095  0.1517 -2.3237 -0.4988
 3195SOL    HW221222   0.382   4.163   2.012  1.5929  0.4149 -0.3239
 3196SOL     OW21223   1.685   0.247   5.394  0.3612 -0.3126 -0.0103
 3196SOL    HW121224   1.734   0.325   5.367 -1.6688  0.4410 -1.5271
 3196SOL    HW221225   1.628   0.252   5.317  0.1419  2.5438  0.3112
 3197SOL     OW21226   3.711   0.413   0.056 -0.1197  0.1150  0.5358
 3197SOL    HW121227   3.772   0.485   0.042 -0.5081  0.1270 -1.0802
 3197SOL    HW221228   3.740   0.385   0.143  1.0549  1.1534  0.4793
 3198SOL     OW21229   2.817   1.568   5.631  0.2444  0.1249 -0.0849
 3198SOL    HW121230   2.815   1.663   5.615 -0.0629 -0.0787 -1.2754
 3198SOL    HW221231   2.736   1.552   5.680 -1.4731  3.2109 -1.8990
 3199SOL     OW21232   1.722   2.085   5.879 -0.4186 -0.4334  0.1025
 3199SOL    HW121233   1.759   2.005   5.918  1.3897  0.6756  0.6529
 3199SOL    HW221234   1.637   2.065   5.841  0.1806 -1.4451 -0.7133
 3200SOL     OW21235   2.066   4.164   5.602 -0.1572 -0.4193  0.4207
 3200SOL    HW121236   2.065   4.217   5.522 -0.5170 -1.0345  0.0236
 3200SOL    HW221237   2.059   4.241   5.660 -0.0889  0.1759 -0.3613
 3201SOL     OW21238   0.893   2.992   5.206  0.6718 -0.2451  0.7197
 3201SOL    HW121239   0.799   2.994   5.221  0.3542  0.6467 -1.4982
 3201SOL    HW221240   0.920   2.918   5.260  0.1896 -0.9941 -0.0906
 3202SOL     OW21241   3.136   0.948   6.605 -0.1062 -0.3617 -0.3332
 3202SOL    HW121242   3.190   0.968   6.682 -0.9953  1.2625 -0.1416
 3202SOL    HW221243   3.158   0.855   6.606 -1.2063 -0.6262 -1.5694
 3203SOL     OW21244   0.284   3.262   4.498  0.1118 -0.2083  0.6868
 3203SOL    HW121245   0.238   3.327   4.444  1.5815 -0.0066 -0.3180
 3203SOL    HW221246   0.267   3.178   4.456 -0.8860  0.5287 -0.3960
 3204SOL     OW21247   1.559   3.814   4.216 -0.7655  0.3898 -0.5254
 3204SOL    HW121248   1.620   3.785   4.283  0.0304 -2.3370 -2.4258
 3204SOL    HW221249   1.512   3.731   4.211  0.0759 -0.1656  1.0175
 3205SOL     OW21250   1.343   0.169   6.165  0.6695  0.1496  0.2249
 3205SOL    HW121251   1.255   0.169   6.128  1.4916 -1.2291 -1.7643
 3205SOL    HW221252   1.349   0.253   6.210 -0.2140  0.1833  0.2673
 3206SOL     OW21253   3.494   2.488  10.695  0.1214 -0.7259  0.1845
 3206SOL    HW121254   3.467   2.503  10.785  0.4236  1.2302 -0.0485
 3206SOL    HW221255   3.579   2.445  10.707  0.3799 -0.0646  0.7041
 3207SOL     OW21256   2.906   0.452   4.101 -0.4804 -0.7922 -0.3074
 3207SOL    HW121257   2.929   0.383   4.039  0.6329 -0.1333 -0.6257
 3207SOL    HW221258   2.811   0.463   4.093 -0.5170 -0.3065  0.8102
 3208SOL     OW21259   2.342   3.656  10.210 -0.2968 -0.1217 -0.5305
 3208SOL    HW121260   2.333   3.704  10.292 -0.5328 -2.9169  1.1112
 3208SOL    HW221261   2.360   3.731  10.154  1.0044  2.5389  3.4659
 3209SOL     OW21262   0.295   3.749   3.399 -0.2251  0.4363 -0.2893
 3209SOL    HW121263   0.383   3.715   3.379 -0.3379  0.7119 -1.2498
 3209SOL    HW221264   0.255   3.776   3.317  3.0417  1.1673 -1.6345
 3210SOL     OW21265   1.891   1.678   2.290 -0.1423 -0.4387  0.1930
 3210SOL    HW121266   1.823   1.658   2.225  0.1856  1.5390 -0.7717
 3210SOL    HW221267   1.896   1.601   2.346  0.1934 -0.0456  0.7089
 3211SOL     OW21268   3.872   1.086   4.917 -0.1964 -0.2450  0.6207
 3211SOL    HW121269   3.793   1.125   4.955  0.9521  1.1872  1.5507
 3211SOL    HW221270   3.921   1.166   4.894  1.6705 -0.7873  2.8057
 3212SOL     OW21271   2.405   2.143   2.865  0.1198  0.3048 -0.1955
 3212SOL    HW121272   2.331   2.191   2.828 -0.2848  0.5354  0.8951
 3212SOL    HW221273   2.398   2.171   2.956 -0.2603 -2.2730  0.5815
 3213SOL     OW21274   1.256   2.212  14.849 -0.2254 -0.3164  0.3658
 3213SOL    HW121275   1.226   2.161  14.774  0.7466 -2.0741  1.1771
 3213SOL    HW221276   1.196   2.187  14.920 -2.1473  0.3904 -1.0195
 3214SOL     OW21277   1.405   2.697   8.226 -0.0537 -0.0875  0.3571
 3214SOL    HW121278   1.437   2.652   8.148  0.9292  2.8368 -0.9529
 3214SOL    HW221279   1.434   2.634   8.292  1.6961 -0.2556 -0.5685
 3215SOL     OW21280   3.891   1.701   5.934  0.1328 -0.4122  0.3633
 3215SOL    HW121281   3.885   1.606   5.923 -1.4596  0.0825 -2.8170
 3215SOL    HW221282   3.985   1.710   5.919 -0.1694 -0.1716 -1.3683
 3216SOL     OW21283   4.229   4.649   5.654 -0.3554 -0.6246 -0.2649
 3216SOL    HW121284   4.317   4.687   5.646  0.8628 -3.1015  1.4986
 3216SOL    HW221285   4.251   4.558   5.670  0.2752 -0.5454 -0.6626
 3217SOL     OW21286   0.662   3.388   9.382  0.0061 -0.0156  0.6001
 3217SOL    HW121287   0.734   3.331   9.355  0.1774  0.0995  0.8164
 3217SOL    HW221288   0.694   3.402   9.471  0.3009 -1.7595  0.7665
 3218SOL     OW21289   0.505   3.017   5.063  0.0245  0.1471 -0.5241
 3218SOL    HW121290   0.525   3.010   4.970 -0.3902  2.1965 -0.7565
 3218SOL    HW221291   0.415   2.986   5.056 -0.1139  0.7900 -1.5543
 3219SOL     OW21292   3.817   2.419   2.539  0.3602  0.5788 -0.1492
 3219SOL    HW121293   3.725   2.443   2.553 -0.1828 -0.7605 -1.3870
 3219SOL    HW221294   3.857   2.434   2.625 -0.2506 -1.5849  0.5150
 3220SOL     OW21295   2.951   1.901   7.034 -0.3442  0.3037 -0.3245
 3220SOL    HW121296   2.901   1.983   7.036 -1.6095 -0.4635 -0.8230
 3220SOL    HW221297   2.886   1.833   7.015 -0.3863  0.2250  0.0932
 3221SOL     OW21298   3.536   2.336   6.035  0.1884  0.0291  0.3562
 3221SOL    HW121299   3.587   2.284   6.097 -3.1880 -1.8352  1.5863
 3221SOL    HW221300   3.600   2.405   6.016 -1.6930  1.4294 -0.8172
 3222SOL     OW21301   1.565   2.558   8.417 -0.2376  0.3766 -0.2078
 3222SOL    HW121302   1.638   2.534   8.359  0.6190 -1.0344  1.4638
 3222SOL    HW221303   1.595   2.643   8.449  1.2008  0.1031 -0.7866
 3223SOL     OW21304   0.945   3.315   2.163  0.2391 -0.3092  0.2293
 3223SOL    HW121305   0.984   3.375   2.100  1.8793 -1.3755  0.2198
 3223SOL    HW221306   1.026   3.269   2.186 -0.5305 -0.3512  2.8379
 3224SOL     OW21307   3.470   2.801   3.080 -0.1260  0.5040 -0.3163
 3224SOL    HW121308   3.441   2.750   3.005 -0.5223  0.1471  0.0789
 3224SOL    HW221309   3.523   2.732   3.119 -0.4876  1.5958  2.1273
 3225SOL     OW21310   2.292   1.706  16.432  0.0568 -0.1119 -0.1406
 3225SOL    HW121311   2.314   1.798  16.445 -0.0798 -0.1531  0.3920
 3225SOL    HW221312   2.206   1.721  16.393  0.2448 -0.7472 -0.7943
 3226SOL     OW21313   3.187   2.498   6.811 -0.1589  0.0544 -0.2130
 3226SOL    HW121314   3.152   2.581   6.845 -1.4841 -0.6473  0.0991
 3226SOL    HW221315   3.136   2.493   6.730  1.0221 -0.7592 -0.9099
 3227SOL     OW21316   3.915   0.079  11.244  0.1266  0.2357  0.2079
 3227SOL    HW121317   3.823   0.072  11.271 -0.7664  0.7788 -2.6908
 3227SOL    HW221318   3.943   4.727  11.248  0.6114  0.4284  1.0773
 3228SOL     OW21319   1.650   0.663   7.166 -0.6904 -0.0058 -0.1507
 3228SOL    HW121320   1.590   0.664   7.240  0.0630 -0.4953  0.4549
 3228SOL    HW221321   1.613   0.738   7.118 -0.1948 -0.2418 -0.9037
 3229SOL     OW21322   3.838   4.416   9.947  0.1292  0.3043 -0.1725
 3229SOL    HW121323   3.785   4.476   9.893  3.9203  1.6274 -2.4225
 3229SOL    HW221324   3.840   4.339   9.889  1.0644 -2.1590  3.1592
 3230SOL     OW21325   2.139   1.880   4.719 -0.4837  0.5314 -0.1135
 3230SOL    HW121326   2.139   1.918   4.806 -1.3467 -1.0558  0.5821
 3230SOL    HW221327   2.055   1.910   4.684  0.1559  2.0647 -0.3441
 3231SOL     OW21328   0.013   0.373   7.451  0.8789  0.3933 -0.6714
 3231SOL    HW121329   4.734   0.338   7.539  4.2877  1.5801  0.5256
 3231SOL    HW221330   0.060   0.300   7.410 -0.4270 -0.7539 -0.1464
 3232SOL     OW21331   0.709   1.267  13.174  0.2563 -0.1007 -0.6921
 3232SOL    HW121332   0.774   1.330  13.146 -1.0223  1.5754  0.1068
 3232SOL    HW221333   0.745   1.235  13.257 -1.9083 -0.6923  0.0282
 3233SOL     OW21334   4.011   3.861   0.294  0.5904 -0.4615  0.0423
 3233SOL    HW121335   4.020   3.766   0.292  1.6041 -0.3796  0.7929
 3233SOL    HW221336   3.959   3.865   0.213  0.4099 -1.4755  0.1173
 3234SOL     OW21337   1.382   1.562   5.669  0.3327  0.0986  0.7086
 3234SOL    HW121338   1.325   1.631   5.702  0.4617 -0.9601  3.1913
 3234SOL    HW221339   1.321   1.507   5.619  1.6430  1.5266 -2.4339
 3235SOL     OW21340   3.901   3.458   8.813  0.2640  0.5599 -0.2715
 3235SOL    HW121341   3.898   3.362   8.819 -0.8137  0.6657  0.9753
 3235SOL    HW221342   3.810   3.489   8.814  0.2631  0.5007  2.1370
 3236SOL     OW21343   3.480   4.698   8.797 -0.2594 -0.0671  0.3517
 3236SOL    HW121344   3.575   4.706   8.810 -0.1921 -2.5990  1.3604
 3236SOL    HW221345   3.447   0.024   8.859 -3.5909 -1.6228  0.1782
 3237SOL     OW21346   0.820   2.219   0.727 -0.3191 -0.4175  0.2086
 3237SOL    HW121347   0.808   2.277   0.802  1.0318  0.8677 -0.5642
 3237SOL    HW221348   0.911   2.194   0.740  0.3228  1.2079 -1.2035
 3238SOL     OW21349   4.729   4.222  17.493 -0.5196  0.2289 -0.0075
 3238SOL    HW121350   4.675   4.229  17.572 -0.1572 -1.4485  0.4057
 3238SOL    HW221351   4.699   4.137  17.460  0.3266 -0.2677  0.4916
 3239SOL     OW21352   1.170   2.174   4.177  0.2651  0.2424 -0.3440
 3239SOL    HW121353   1.188   2.105   4.240 -0.3751  2.1465  1.9038
 3239SOL    HW221354   1.260   2.207   4.188  0.3659 -0.5380  1.0575
 3240SOL     OW21355   1.861   3.939   8.974  0.0289  0.3004 -0.0704
 3240SOL    HW121356   1.786   3.905   9.023  1.7667 -1.7314  1.1651
 3240SOL    HW221357   1.814   4.010   8.930  3.3135  1.0968 -2.3504
 3241SOL     OW21358   4.215   0.365  13.297  0.0178  0.0324  0.4236
 3241SOL    HW121359   4.183   0.455  13.285  1.2625  0.3123 -0.7314
 3241SOL    HW221360   4.290   0.369  13.356  1.1070  1.4369 -1.0408
 3242SOL     OW21361   1.138   3.190  17.145 -0.5805  0.0407 -0.1912
 3242SOL    HW121362   1.156   3.144  17.227 -2.9692  0.5298  0.5913
 3242SOL    HW221363   1.153   3.279  17.178 -0.9074  0.1261 -0.2713
 3243SOL     OW21364   4.421   1.282   3.181  0.1399  0.1122 -0.3071
 3243SOL    HW121365   4.396   1.232   3.259 -2.9988  0.7441 -0.9125
 3243SOL    HW221366   4.392   1.366   3.216 -2.4901 -0.8183 -0.2953
 3244SOL     OW21367   2.204   0.336   7.157  0.7331 -0.1173 -0.3560
 3244SOL    HW121368   2.194   0.425   7.189 -0.1399  0.9661 -3.6505
 3244SOL    HW221369   2.192   0.356   7.064 -0.5906  1.4157  0.1620
 3245SOL     OW21370   2.593   4.078   8.167  0.5208 -0.0314  0.2960
 3245SOL    HW121371   2.605   4.066   8.072  0.8690  1.0973  0.1967
 3245SOL    HW221372   2.643   4.158   8.183 -0.7110  0.9815 -0.9259
 3246SOL     OW21373   2.072   3.185   5.997 -0.2577  0.9462  0.1511
 3246SOL    HW121374   2.011   3.126   5.952 -0.5266  1.1437  0.2594
 3246SOL    HW221375   2.121   3.126   6.055 -1.0951  1.4570  1.3777
 3247SOL     OW21376   1.364   0.890  14.021  0.0923 -0.1265  0.2379
 3247SOL    HW121377   1.360   0.830  13.947  1.5541 -0.6969  0.6083
 3247SOL    HW221378   1.272   0.894  14.048  0.3069  2.2144  0.6109
 3248SOL     OW21379   0.214   2.472   8.432 -0.0443  0.1455  0.4203
 3248SOL    HW121380   0.283   2.497   8.494 -0.6681  0.5266  0.9701
 3248SOL    HW221381   0.167   2.554   8.414 -2.1848 -1.2677 -0.3047
 3249SOL     OW21382   3.083   2.745  12.519  0.4210 -0.9590 -0.1826
 3249SOL    HW121383   2.990   2.746  12.496  0.3276 -0.8287  0.2014
 3249SOL    HW221384   3.089   2.790  12.603  0.5893  0.8827 -1.1725
 3250SOL     OW21385   3.539   4.017  12.272  0.6031  0.5311  0.2846
 3250SOL    HW121386   3.472   4.046  12.210  3.0165  1.5117 -1.8496
 3250SOL    HW221387   3.579   3.953  12.213  2.3829  0.6951  1.3165
 3251SOL     OW21388   4.716   4.729   4.664  0.0589 -0.3130  0.7545
 3251SOL    HW121389   4.628   0.021   4.645 -0.0841 -0.6258  0.8989
 3251SOL    HW221390   0.031   0.029   4.596 -0.8600  1.2381  0.9302
 3252SOL     OW21391   3.595   1.283   2.242  0.2931  0.0461 -0.1271
 3252SOL    HW121392   3.591   1.198   2.199  4.1628  0.1776 -0.7910
 3252SOL    HW221393   3.684   1.282   2.278  0.7411 -1.6664 -1.2715
 3253SOL     OW21394   2.257   2.464  12.662  0.9485  0.4459 -0.0658
 3253SOL    HW121395   2.236   2.415  12.582 -1.3964  0.4441  0.5586
 3253SOL    HW221396   2.216   2.550  12.650 -0.4175 -0.0404  1.2017
 3254SOL     OW21397   0.595   3.216   7.118  0.3362  0.2390 -0.1422
 3254SOL    HW121398   0.646   3.139   7.092 -1.4565 -0.3938 -1.7788
 3254SOL    HW221399   0.507   3.179   7.118 -0.0123  1.0636  0.9834
 3255SOL     OW21400   4.467   1.041   4.008  0.1846 -0.6609 -0.1620
 3255SOL    HW121401   4.387   0.990   4.000 -1.1214  1.4069 -0.2501
 3255SOL    HW221402   4.488   1.053   3.915 -1.1250  2.6762 -0.0079
 3256SOL     OW21403   1.909   1.209  14.173 -0.5239 -0.5633 -0.2433
 3256SOL    HW121404   1.819   1.184  14.192 -1.3589  2.3418 -0.4328
 3256SOL    HW221405   1.939   1.246  14.256 -1.1114  0.3935 -0.4559
 3257SOL     OW21406   0.212   3.159  11.003 -0.1296 -0.9056 -0.3296
 3257SOL    HW121407   0.271   3.192  10.937 -0.3221 -0.9596 -0.5304
 3257SOL    HW221408   0.131   3.210  10.997  0.4447  0.0598  0.1136
 3258SOL     OW21409   3.350   3.950  16.322  0.3552  0.5190  0.1704
 3258SOL    HW121410   3.320   3.970  16.411  0.5241 -0.2502  0.4005
 3258SOL    HW221411   3.401   4.030  16.309  2.0986 -0.5608  0.4244
 3259SOL     OW21412   2.520   2.301  11.814  0.1706 -0.5600  0.0792
 3259SOL    HW121413   2.605   2.257  11.807  1.2634  1.7386 -1.1881
 3259SOL    HW221414   2.477   2.226  11.855  0.0726 -1.2963 -1.3759
 3260SOL     OW21415   0.286   1.774   6.427 -0.1742 -0.4273  0.3591
 3260SOL    HW121416   0.356   1.754   6.365  1.1205  2.7636  0.7879
 3260SOL    HW221417   0.288   1.687   6.467  0.1203  0.1502  1.6032
 3261SOL     OW21418   4.705   0.647   9.219 -0.1520  0.4667 -0.1653
 3261SOL    HW121419   0.029   0.715   9.246 -0.8498  0.0840  2.4164
 3261SOL    HW221420   4.681   0.619   9.307  0.8312 -2.2520 -0.7603
 3262SOL     OW21421   3.306   0.935   0.739 -0.3023 -0.1511 -0.1822
 3262SOL    HW121422   3.235   0.997   0.724 -0.7011 -0.2709  1.2311
 3262SOL    HW221423   3.346   0.944   0.652  0.7228 -0.5146  0.2540
 3263SOL     OW21424   2.732   1.559   6.056  0.0687  0.0649  0.1019
 3263SOL    HW121425   2.765   1.640   6.016  1.1550 -0.6226 -0.3997
 3263SOL    HW221426   2.711   1.595   6.142  1.5942  1.2805 -0.0137
 3264SOL     OW21427   4.065   3.289  16.645  0.2041 -0.1740  0.1220
 3264SOL    HW121428   4.056   3.250  16.732  3.8126  0.6907  0.8713
 3264SOL    HW221429   3.987   3.251  16.605  1.4005 -1.5779 -0.8826
 3265SOL     OW21430   4.536   4.322  14.837 -0.2690  0.2391  0.2137
 3265SOL    HW121431   4.466   4.385  14.856  0.0923  1.0323 -1.0404
 3265SOL    HW221432   4.491   4.254  14.787 -0.9829 -0.9265  2.4452
 3266SOL     OW21433   0.064   1.352  16.085 -0.3494 -0.0907  0.1809
 3266SOL    HW121434   4.732   1.411  16.060  1.8724  2.1789 -0.8012
 3266SOL    HW221435   0.111   1.430  16.115 -1.1468  1.0726 -1.5815
 3267SOL     OW21436   1.599   2.535   7.020 -0.1142  0.5913 -0.2186
 3267SOL    HW121437   1.532   2.545   6.952  0.2621 -0.0449 -0.6905
 3267SOL    HW221438   1.552   2.518   7.101 -0.9629  1.1293 -0.5906
 3268SOL     OW21439   2.061   2.321  17.309  0.2780  0.2558 -0.2953
 3268SOL    HW121440   2.115   2.398  17.289 -0.1098 -0.2034 -3.2266
 3268SOL    HW221441   2.069   2.313  17.404  1.4375 -0.8758 -0.4858
 3269SOL     OW21442   4.395   0.474  17.571  0.4519  0.0094  0.0818
 3269SOL    HW121443   4.328   0.437  17.628 -0.7556  1.4227 -0.4035
 3269SOL    HW221444   4.405   0.566  17.598 -0.1515 -0.2811  1.2747
 3270SOL     OW21445   2.045   4.272  13.824 -0.3271 -0.0458  0.6017
 3270SOL    HW121446   2.094   4.245  13.747 -0.8870 -1.7598  0.8387
 3270SOL    HW221447   2.050   4.367  13.831  2.4826 -0.0752 -1.2931
 3271SOL     OW21448   2.457   3.479   6.489  0.2006 -0.4923 -0.0578
 3271SOL    HW121449   2.467   3.523   6.405 -2.2909  2.2676  1.1009
 3271SOL    HW221450   2.458   3.386   6.463 -2.5702 -0.2503 -1.0183
 3272SOL     OW21451   4.730   3.856   7.193  0.4960  0.3908 -0.2177
 3272SOL    HW121452   4.693   3.842   7.106  1.0763 -0.5550 -0.3062
 3272SOL    HW221453   4.650   3.876   7.242  1.8512  2.9897  0.9450
 3273SOL     OW21454   1.550   0.551  17.323 -0.4411 -0.7838 -0.1601
 3273SOL    HW121455   1.495   0.630  17.327 -1.1661 -1.3965  1.8841
 3273SOL    HW221456   1.503   0.489  17.379 -0.0119 -1.2450 -0.3152
 3274SOL     OW21457   3.596   3.361   5.311  0.3025 -0.2010  0.3411
 3274SOL    HW121458   3.582   3.427   5.378 -1.4538 -1.3662  1.1264
 3274SOL    HW221459   3.521   3.372   5.253  0.0407  1.2333  0.9478
 3275SOL     OW21460   3.732   3.410   3.839  0.6635 -0.0295 -0.4016
 3275SOL    HW121461   3.782   3.460   3.775 -1.4153 -0.5127 -2.3818
 3275SOL    HW221462   3.729   3.471   3.913 -1.0285  0.7882 -1.1511
 3276SOL     OW21463   4.212   3.953   4.314 -0.1402  0.1775  0.6343
 3276SOL    HW121464   4.250   3.871   4.282 -0.1941 -0.0128  1.0550
 3276SOL    HW221465   4.218   4.006   4.235 -0.3178  1.9348  1.8149
 3277SOL     OW21466   0.565   1.378   1.356  0.2526 -0.4105  0.5363
 3277SOL    HW121467   0.491   1.352   1.300  0.1655 -1.2452  1.0344
 3277SOL    HW221468   0.551   1.307   1.419 -0.6759 -0.1353  0.6374
 3278SOL     OW21469   3.847   3.717   7.216  0.5136  0.1400  0.2402
 3278SOL    HW121470   3.816   3.722   7.307 -0.3767  1.3283 -0.1261
 3278SOL    HW221471   3.928   3.768   7.219 -1.1015  2.7276  0.8266
 3279SOL     OW21472   0.951   0.823  16.520  0.3409  0.0388  0.0949
 3279SOL    HW121473   1.027   0.840  16.464  0.3416  1.9328  0.6697
 3279SOL    HW221474   0.989   0.855  16.602  1.7924 -0.6980 -0.2821
 3280SOL     OW21475   0.963   3.737  11.876  0.1989  0.6276 -0.1064
 3280SOL    HW121476   0.892   3.778  11.825  0.2085 -0.5300 -1.0421
 3280SOL    HW221477   1.034   3.760  11.816 -0.4670  0.2300 -1.0513
 3281SOL     OW21478   1.070   3.369  12.844  0.3651 -0.1430  0.1870
 3281SOL    HW121479   1.059   3.435  12.912 -0.6642 -0.9884  0.8474
 3281SOL    HW221480   1.079   3.421  12.764 -1.2567 -1.1921 -0.6809
 3282SOL     OW21481   1.229   3.234  14.814 -0.2962 -0.1632  0.5541
 3282SOL    HW121482   1.212   3.147  14.849  3.1980 -0.5140  1.3523
 3282SOL    HW221483   1.140   3.267  14.798 -0.3759 -0.3236  0.6668
 3283SOL     OW21484   0.082   0.631   4.714  0.2218  0.1287  0.6487
 3283SOL    HW121485   0.117   0.720   4.717 -0.6055  0.4646  0.1443
 3283SOL    HW221486   0.024   0.636   4.638 -0.7735  2.1633  1.5738
 3284SOL     OW21487   4.174   1.129  10.566 -0.6097 -0.0299 -0.6522
 3284SOL    HW121488   4.230   1.167  10.499  0.8520 -0.9551  0.0403
 3284SOL    HW221489   4.182   1.040  10.532  0.1156 -0.4417  0.5818
 3285SOL     OW21490   4.172   1.195   8.051 -0.4141 -0.2221 -0.0825
 3285SOL    HW121491   4.166   1.184   7.956 -0.9082 -1.1522  0.0512
 3285SOL    HW221492   4.134   1.282   8.063  4.7734  1.7600  2.0242
 3286SOL     OW21493   3.753   4.431  12.120  0.3877 -0.0549 -0.4988
 3286SOL    HW121494   3.803   4.365  12.168  0.8101 -0.5985 -1.6741
 3286SOL    HW221495   3.794   4.442  12.034  1.5167  1.5280  0.2392
 3287SOL     OW21496   0.245   0.304   2.261 -0.5079  0.0462  0.0758
 3287SOL    HW121497   0.325   0.285   2.311 -0.7856 -1.7070 -0.1508
 3287SOL    HW221498   0.198   0.371   2.311  0.1361 -0.3692  1.2414
 3288SOL     OW21499   2.057   4.296   7.089  0.4820 -0.2279  0.1045
 3288SOL    HW121500   2.041   4.280   6.996 -1.9529 -0.2326  0.5277
 3288SOL    HW221501   1.966   4.304   7.118  0.7388 -1.0871  1.1358
 3289SOL     OW21502   1.352   2.884   4.512  0.1720  0.1592 -0.1883
 3289SOL    HW121503   1.363   2.884   4.607  1.8360  0.9872 -0.3807
 3289SOL    HW221504   1.258   2.866   4.513  0.3216 -0.6838 -1.1082
 3290SOL     OW21505   1.367   3.113  17.604  0.2134 -0.0214 -0.3766
 3290SOL    HW121506   1.432   3.152  17.663  1.5168 -0.3386 -1.5877
 3290SOL    HW221507   1.351   3.028  17.646  1.1139 -0.9159 -1.8433
 3291SOL     OW21508   3.055   3.390   3.897 -0.3350 -0.9396  0.5063
 3291SOL    HW121509   3.089   3.405   3.809 -0.5171  1.4139  0.8304
 3291SOL    HW221510   3.125   3.429   3.949 -0.1934 -0.5483  0.0233
 3292SOL     OW21511   0.733   1.530   8.187  0.1066 -0.3141 -0.2277
 3292SOL    HW121512   0.724   1.437   8.167 -1.0395 -0.6237  1.7383
 3292SOL    HW221513   0.708   1.572   8.104 -0.1234  0.0543  0.0252
 3293SOL     OW21514   3.650   1.371  17.271 -0.0122  0.0857 -0.4511
 3293SOL    HW121515   3.607   1.394  17.353  0.2302 -1.1243  0.0146
 3293SOL    HW221516   3.574   1.360  17.214 -0.0883 -1.4847 -0.0310
 3294SOL     OW21517   2.023   0.702   7.312  0.0517  0.0605 -0.1876
 3294SOL    HW121518   1.977   0.619   7.318  1.6345 -0.9601 -2.3760
 3294SOL    HW221519   1.953   0.767   7.302 -1.7210 -1.6927  0.8482
 3295SOL     OW21520   0.264   1.149   1.421 -0.2410  0.2264  0.1974
 3295SOL    HW121521   0.229   1.238   1.426 -0.0769  0.3870 -1.3215
 3295SOL    HW221522   0.303   1.146   1.333  1.3163  0.5552  0.8717
 3296SOL     OW21523   1.283   4.037   7.313  0.5065 -0.3946 -0.5160
 3296SOL    HW121524   1.261   4.047   7.220  0.4846 -1.2485 -0.6024
 3296SOL    HW221525   1.353   3.972   7.314 -2.5364 -3.6563  0.7602
 3297SOL     OW21526   1.051   0.622   2.039  0.0751  0.2438  0.3302
 3297SOL    HW121527   1.102   0.627   2.120  0.2156  0.1624  0.2466
 3297SOL    HW221528   1.074   0.709   2.007  2.9841 -0.4700  0.5568
 3298SOL     OW21529   1.265   1.170   4.662 -0.0078  0.2600 -0.3683
 3298SOL    HW121530   1.209   1.122   4.722  0.5743 -1.0013 -0.8463
 3298SOL    HW221531   1.242   1.260   4.687  2.6048  0.6661  0.5667
 3299SOL     OW21532   4.139   4.276   3.101  0.4025 -0.0818  0.1252
 3299SOL    HW121533   4.188   4.218   3.159 -1.0633 -1.9225 -0.4811
 3299SOL    HW221534   4.211   4.329   3.064  0.9823 -1.7840 -1.1993
 3300SOL     OW21535   1.122   4.309  15.664  0.1903  0.1450 -0.2018
 3300SOL    HW121536   1.104   4.390  15.713  2.4409 -0.1348  1.0878
 3300SOL    HW221537   1.139   4.340  15.575 -1.4091 -2.5349 -1.4374
 3301SOL     OW21538   4.340   3.738   0.886 -0.3451  0.3238 -0.3327
 3301SOL    HW121539   4.432   3.750   0.909 -0.9907  2.7451  0.9564
 3301SOL    HW221540   4.308   3.818   0.928 -1.5548 -0.4662  0.2565
 3302SOL     OW21541   3.147   4.699   2.847  0.0568 -0.1855  0.2743
 3302SOL    HW121542   3.087   4.632   2.876  1.4952 -0.7972  1.8557
 3302SOL    HW221543   3.222   4.649   2.878  0.0595  0.5336  1.4080
 3303SOL     OW21544   4.548   2.748   6.342  0.4936 -0.0119 -0.7668
 3303SOL    HW121545   4.476   2.760   6.404  2.4619  0.0441  1.4995
 3303SOL    HW221546   4.596   2.674   6.380 -0.7415 -0.7087 -0.5504
 3304SOL     OW21547   1.487   3.985   3.748  0.1429  0.2668 -0.3220
 3304SOL    HW121548   1.520   4.074   3.764  1.6037 -0.4405  0.6048
 3304SOL    HW221549   1.566   3.930   3.743 -0.2731 -0.4270  0.8671
 3305SOL     OW21550   0.836   4.269   7.010  0.0073  0.2840  0.0571
 3305SOL    HW121551   0.859   4.237   6.923 -0.7493  2.9215 -1.1154
 3305SOL    HW221552   0.823   4.359   6.979  0.2239  0.5118  0.6251
 3306SOL     OW21553   3.060   0.019  11.746 -0.8753 -0.2199 -0.2073
 3306SOL    HW121554   3.023   4.696  11.808 -2.0815 -0.3240 -1.0385
 3306SOL    HW221555   2.997   0.090  11.758  0.8713  0.9270  2.3518
 3307SOL     OW21556   1.825   1.333   9.367 -0.2873 -0.1660 -0.1424
 3307SOL    HW121557   1.817   1.244   9.401 -0.3402  0.2689  0.9734
 3307SOL    HW221558   1.783   1.380   9.439  1.6661  0.2653  0.7156
 3308SOL     OW21559   0.215   3.708  16.864  0.1180 -0.0176 -0.3415
 3308SOL    HW121560   0.158   3.782  16.889  1.3592  0.7398  0.2350
 3308SOL    HW221561   0.231   3.724  16.771  0.3853 -1.1116 -0.4837
 3309SOL     OW21562   1.857   2.704   4.884 -0.4494 -0.1342 -0.6898
 3309SOL    HW121563   1.767   2.702   4.851 -0.1503  0.9054 -1.5602
 3309SOL    HW221564   1.903   2.644   4.826 -0.4301  0.1405 -0.9578
 3310SOL     OW21565   3.825   2.995  14.473  0.3061  0.4291 -0.2586
 3310SOL    HW121566   3.815   2.905  14.502  1.7985  1.5050  3.5513
 3310SOL    HW221567   3.808   3.049  14.550 -1.1403 -0.9407  0.3870
 3311SOL     OW21568   3.303   0.131   5.786 -0.0418 -0.4978  0.9080
 3311SOL    HW121569   3.330   0.051   5.831  1.5325 -1.1000 -1.1026
 3311SOL    HW221570   3.301   0.193   5.859 -0.2195  1.1345 -0.4710
 3312SOL     OW21571   1.702   0.771  11.353  0.0344 -0.0438  0.0162
 3312SOL    HW121572   1.731   0.753  11.264 -2.2895  1.2888 -1.0299
 3312SOL    HW221573   1.752   0.706  11.402 -0.3460 -0.9150 -0.7643
 3313SOL     OW21574   1.146   3.454   8.660  0.6122 -0.2381 -0.7497
 3313SOL    HW121575   1.200   3.526   8.692  0.0694  0.4979 -1.4928
 3313SOL    HW221576   1.134   3.486   8.571 -2.0374  1.2941  0.1481
 3314SOL     OW21577   2.138   3.098   3.893 -0.4149  0.0157  0.3150
 3314SOL    HW121578   2.102   3.011   3.875  0.4483 -1.0710  3.8918
 3314SOL    HW221579   2.230   3.075   3.899 -0.6173 -0.4837  1.4627
 3315SOL     OW21580   1.654   1.063  10.999  0.7883  0.0019 -0.5131
 3315SOL    HW121581   1.734   1.013  10.979 -0.5022 -2.5482  0.8025
 3315SOL    HW221582   1.641   1.045  11.092  0.0709  1.1031 -0.4078
 3316SOL     OW21583   3.457   3.981   7.752 -0.4073 -0.0655 -0.1957
 3316SOL    HW121584   3.367   4.005   7.776 -0.6664 -1.5931  0.3306
 3316SOL    HW221585   3.515   4.012   7.822 -0.0652 -1.6137  0.2023
 3317SOL     OW21586   1.951   3.595   4.718  0.0462  0.5382  0.0834
 3317SOL    HW121587   1.965   3.617   4.626 -0.6324  0.2415 -0.0903
 3317SOL    HW221588   1.857   3.598   4.733  0.3987 -0.7230  2.6555
 3318SOL     OW21589   1.632   1.275   2.147  0.0031 -0.0020 -0.0579
 3318SOL    HW121590   1.586   1.300   2.228 -2.0125 -0.3771 -1.0870
 3318SOL    HW221591   1.595   1.336   2.083 -0.0314 -1.1080 -1.0777
 3319SOL     OW21592   2.118   3.640   5.412 -0.4657 -0.5004 -0.1896
 3319SOL    HW121593   2.057   3.682   5.473  0.2658  0.0526  0.1531
 3319SOL    HW221594   2.203   3.681   5.422 -0.3767 -0.5265 -0.8458
 3320SOL     OW21595   3.530   1.742   3.339 -0.8065  0.0156 -0.3341
 3320SOL    HW121596   3.437   1.722   3.355 -1.0647  0.1341 -1.7260
 3320SOL    HW221597   3.554   1.711   3.252  0.9894  1.3103 -0.2742
 3321SOL     OW21598   3.303   2.691   2.739  0.2059  0.1668 -0.3868
 3321SOL    HW121599   3.256   2.612   2.711 -0.7245  0.6517 -0.1767
 3321SOL    HW221600   3.359   2.652   2.806 -0.0470  0.0157 -0.2634
 3322SOL     OW21601   4.046   4.336   7.822 -0.0877  0.0215  0.0084
 3322SOL    HW121602   4.045   4.343   7.917 -1.0408 -0.5657  0.0429
 3322SOL    HW221603   4.070   4.244   7.808 -0.2939  0.1778 -1.4059
 3323SOL     OW21604   4.732   1.573   8.983 -0.0833 -0.1193  0.5489
 3323SOL    HW121605   4.670   1.515   9.028 -1.3261  1.3656  0.7544
 3323SOL    HW221606   0.038   1.621   9.052 -0.1240  1.2384 -0.3792
 3324SOL     OW21607   0.574   1.610  16.760  0.5310  0.5078 -0.6889
 3324SOL    HW121608   0.512   1.558  16.709 -0.3241  0.5625  0.2935
 3324SOL    HW221609   0.519   1.655  16.825  3.2028 -0.8308  2.5300
 3325SOL     OW21610   3.009   0.243  12.030  0.5145 -0.3447 -0.1647
 3325SOL    HW121611   2.995   0.157  12.070  1.0980 -0.1445  0.4677
 3325SOL    HW221612   3.090   0.229  11.980 -0.1666 -1.1829 -1.0507
 3326SOL     OW21613   1.560   2.599  15.446 -0.1548 -0.1882  0.6848
 3326SOL    HW121614   1.644   2.563  15.475  0.4034 -0.3843 -1.1850
 3326SOL    HW221615   1.503   2.529  15.478 -0.7350  0.6453  1.4642
 3327SOL     OW21616   1.639   2.789  15.271  0.1381 -0.2319  0.3986
 3327SOL    HW121617   1.724   2.746  15.273 -1.2815 -3.1313 -2.3170
 3327SOL    HW221618   1.595   2.725  15.327  1.3151  0.3501  1.9897
 3328SOL     OW21619   1.862   1.174  11.223 -0.1813  0.0109  0.0376
 3328SOL    HW121620   1.882   1.242  11.288  1.3116  0.6584 -1.1125
 3328SOL    HW221621   1.770   1.154  11.241 -1.0229  3.1229 -0.8506
 3329SOL     OW21622   1.827   3.707   7.594 -0.4203 -0.3381  0.4488
 3329SOL    HW121623   1.846   3.800   7.582 -2.4577  0.3039  2.1683
 3329SOL    HW221624   1.796   3.710   7.684 -0.4536 -2.2559  0.5110
 3330SOL     OW21625   0.665   4.379   3.498 -0.2760  0.7066  0.1397
 3330SOL    HW121626   0.743   4.375   3.552 -0.6358  0.7246  0.6649
 3330SOL    HW221627   0.615   4.301   3.520 -1.0032  1.3776  0.8969
 3331SOL     OW21628   4.060   4.116  14.574  0.4003 -0.6662  0.0724
 3331SOL    HW121629   4.094   4.044  14.521  1.7847 -0.6813  0.9824
 3331SOL    HW221630   4.106   4.190  14.536  0.6790 -0.3321  1.0760
 3332SOL     OW21631   0.474   1.685  15.666  0.2091  0.5963 -0.0497
 3332SOL    HW121632   0.383   1.657  15.651  0.9237 -0.7017 -1.8862
 3332SOL    HW221633   0.517   1.602  15.647  0.0478  0.3858  0.5054
 3333SOL     OW21634   2.508   3.828   4.470  0.0203  0.3210 -0.5617
 3333SOL    HW121635   2.580   3.814   4.531 -1.3090  2.0001  1.3786
 3333SOL    HW221636   2.552   3.821   4.385 -0.9249  0.3055 -1.0520
 3334SOL     OW21637   4.528   4.590  13.972 -0.4887 -0.0331  0.9818
 3334SOL    HW121638   4.464   4.661  13.967 -0.7601 -0.4092 -0.8852
 3334SOL    HW221639   4.477   4.523  13.927 -0.1742  0.6606 -0.4095
 3335SOL     OW21640   3.923   1.184  16.187 -0.3255 -0.4421 -0.6766
 3335SOL    HW121641   3.975   1.263  16.198 -3.9722  2.0577 -1.2608
 3335SOL    HW221642   3.924   1.163  16.280 -0.9353  2.2115 -0.0921
 3336SOL     OW21643   2.477   3.939  15.550  0.2323  0.6210 -0.3227
 3336SOL    HW121644   2.432   3.985  15.480 -0.4614  0.6611  0.1432
 3336SOL    HW221645   2.406   3.898  15.600 -0.5813  0.1675 -1.8355
 3337SOL     OW21646   3.856   1.960   7.363  0.5666  0.1656  0.2160
 3337SOL    HW121647   3.900   1.902   7.300  1.8780  2.0024 -0.5644
 3337SOL    HW221648   3.784   1.993   7.310  0.6435  0.3405  0.2176
 3338SOL     OW21649   3.493   3.017   9.649  0.1469 -0.0430 -0.2832
 3338SOL    HW121650   3.512   2.980   9.563 -1.8302  0.4594 -0.9386
 3338SOL    HW221651   3.467   2.949   9.711 -0.1232 -0.1830 -0.5496
 3339SOL     OW21652   0.189   0.035   3.784 -0.3311  0.2766 -0.3831
 3339SOL    HW121653   0.108   0.078   3.756 -0.4333  0.1911 -0.2130
 3339SOL    HW221654   0.176   0.046   3.878  0.8330  1.4866 -0.3570
 3340SOL     OW21655   1.551   4.656  13.959  0.2478 -0.3232  0.1484
 3340SOL    HW121656   1.502   4.682  13.881 -2.3476  1.9312  2.5461
 3340SOL    HW221657   1.634   4.625  13.922 -0.1386 -0.5262 -0.5474
 3341SOL     OW21658   0.791   3.936   5.631 -0.4455  0.3934 -0.0591
 3341SOL    HW121659   0.877   3.898   5.619 -0.1465  1.3203 -0.8547
 3341SOL    HW221660   0.741   3.855   5.636  0.7309 -0.2405  1.1050
 3342SOL     OW21661   2.844   3.987   2.442 -0.0206  0.1357  0.3806
 3342SOL    HW121662   2.919   4.044   2.458  0.2495 -1.0801  3.2551
 3342SOL    HW221663   2.892   3.905   2.434  0.4057  0.5749 -1.6862
 3343SOL     OW21664   4.064   3.025  12.961 -0.1597  0.5049  0.3107
 3343SOL    HW121665   4.061   3.112  13.002 -0.0329  0.5557  0.2115
 3343SOL    HW221666   4.037   3.032  12.870 -1.5153 -0.2239  0.6593
 3344SOL     OW21667   1.640   1.191   7.657  0.0058  0.4808 -0.9632
 3344SOL    HW121668   1.576   1.246   7.701  1.7416 -0.1976  2.4637
 3344SOL    HW221669   1.685   1.258   7.606  1.9113  0.9708  1.3334
 3345SOL     OW21670   4.697   0.254   6.572  0.2462  0.3799 -0.4432
 3345SOL    HW121671   4.692   0.264   6.667 -0.7495  0.0863 -0.4604
 3345SOL    HW221672   0.052   0.246   6.563 -0.0265 -1.2147 -1.8429
 3346SOL     OW21673   2.746   0.878   1.436  0.1653  0.4592 -0.3855
 3346SOL    HW121674   2.749   0.903   1.344  0.7245 -0.3183 -0.5840
 3346SOL    HW221675   2.758   0.965   1.474  0.4097  0.3358 -0.1754
 3347SOL     OW21676   4.461   1.611   8.657  0.9180  0.2323 -0.2698
 3347SOL    HW121677   4.440   1.683   8.598  0.9547 -0.0191 -0.5903
 3347SOL    HW221678   4.433   1.642   8.743  2.3098 -1.4660  0.7990
 3348SOL     OW21679   2.586   0.414   5.181 -0.2041  0.0729  0.4504
 3348SOL    HW121680   2.507   0.460   5.155  0.0003  2.0115  3.2756
 3348SOL    HW221681   2.548   0.339   5.227 -1.0514  1.4002  1.8846
 3349SOL     OW21682   1.704   3.786  14.942 -0.9334  1.0276 -0.2353
 3349SOL    HW121683   1.721   3.720  14.875  0.7117 -0.3349  1.5088
 3349SOL    HW221684   1.768   3.755  15.006 -1.8475  1.3643  0.8426
 3350SOL     OW21685   3.940   2.444   0.007 -0.1985 -0.7676  0.2959
 3350SOL    HW121686   3.902   2.357   0.019  2.2007 -1.7179  0.9355
 3350SOL    HW221687   3.995   2.416  17.690 -0.4910 -0.9459  0.1425
 3351SOL     OW21688   2.424   0.297  15.873 -0.2387  0.0344  0.1854
 3351SOL    HW121689   2.358   0.228  15.881  1.3369 -1.7714 -2.5373
 3351SOL    HW221690   2.361   0.367  15.890  0.1162  0.5238 -0.5450
 3352SOL     OW21691   3.605   1.018   2.622 -0.1759  0.1283  0.2190
 3352SOL    HW121692   3.511   1.006   2.609 -0.0507  0.9322 -1.4508
 3352SOL    HW221693   3.649   0.935   2.603  1.2405  1.0425 -0.4947
 3353SOL     OW21694   4.357   0.523  17.303 -0.5477  0.3514  0.2672
 3353SOL    HW121695   4.373   0.501  17.395  0.9810  1.1402  0.1833
 3353SOL    HW221696   4.447   0.531  17.272 -0.4659 -2.1131 -0.0711
 3354SOL     OW21697   0.956   1.226   8.465  0.1587 -0.8593 -0.1804
 3354SOL    HW121698   0.973   1.315   8.434 -0.4955 -0.9253 -0.7234
 3354SOL    HW221699   0.901   1.239   8.541  1.2960  1.3010  0.2659
 3355SOL     OW21700   0.790   0.677   3.973 -0.3778 -0.7509  0.2646
 3355SOL    HW121701   0.872   0.649   3.931  0.3393  1.9490 -0.1317
 3355SOL    HW221702   0.738   0.700   3.896  0.3138  1.0263  0.3400
 3356SOL     OW21703   1.779   3.124   5.423 -0.1403  0.6231 -0.3930
 3356SOL    HW121704   1.867   3.088   5.413 -0.3242 -0.5312  2.2003
 3356SOL    HW221705   1.781   3.204   5.370 -0.5437  1.1831  0.4520
 3357SOL     OW21706   2.018   3.484   7.645  0.6698 -0.3705 -0.0056
 3357SOL    HW121707   1.949   3.550   7.639 -0.2103 -1.1335  1.7481
 3357SOL    HW221708   2.093   3.538   7.622  0.0582  0.3927 -0.2015
 3358SOL     OW21709   0.611   3.188   3.606 -0.7766  0.2255  0.5463
 3358SOL    HW121710   0.538   3.205   3.547 -1.0291 -0.8809  0.5336
 3358SOL    HW221711   0.672   3.258   3.581 -1.5926  0.4085 -0.9163
 3359SOL     OW21712   4.297   2.872   0.493  0.1427  0.1259  0.4993
 3359SOL    HW121713   4.384   2.887   0.529  0.1936  1.9465 -0.3994
 3359SOL    HW221714   4.302   2.904   0.403  0.7597  2.3436  1.3303
 3360SOL     OW21715   3.875   1.017   8.689 -0.5054  0.3639 -0.1822
 3360SOL    HW121716   3.808   0.949   8.703 -1.3478  1.6420  2.0869
 3360SOL    HW221717   3.827   1.085   8.642 -1.3948 -1.4857 -1.9848
 3361SOL     OW21718   2.655   2.369   6.829  0.0139 -0.2888 -0.0054
 3361SOL    HW121719   2.678   2.328   6.746 -0.6955  0.0494 -0.3657
 3361SOL    HW221720   2.577   2.419   6.806 -0.6533 -1.7524 -0.9388
 3362SOL     OW21721   0.996   1.177   7.102 -0.4801  0.4493  0.4975
 3362SOL    HW121722   0.961   1.161   7.015 -2.4511 -2.5446  1.8380
 3362SOL    HW221723   1.028   1.266   7.089 -0.1433  0.3790  0.8456
 3363SOL     OW21724   3.885   0.613  17.670 -0.2135  0.6223  0.1934
 3363SOL    HW121725   3.888   0.652  17.583  0.6544 -0.4638 -0.2608
 3363SOL    HW221726   3.975   0.580  17.671 -0.4269  0.0850  1.0863
 3364SOL     OW21727   1.562   1.658  10.169 -0.6214 -0.0153 -0.0048
 3364SOL    HW121728   1.564   1.620  10.081 -2.7261 -2.0120  0.7860
 3364SOL    HW221729   1.479   1.704  10.156 -0.9183 -0.3025  0.8550
 3365SOL     OW21730   1.795   4.198   3.207 -0.3604  0.5099 -0.4665
 3365SOL    HW121731   1.821   4.290   3.205  0.3206  0.3329  0.4330
 3365SOL    HW221732   1.797   4.190   3.111 -0.1250 -0.5011 -0.3690
 3366SOL     OW21733   1.723   0.212   2.470  0.3801 -0.9011  0.0646
 3366SOL    HW121734   1.801   0.251   2.430  0.0876  1.8073  2.1504
 3366SOL    HW221735   1.762   0.126   2.486  0.5815 -0.2839  2.7452
 3367SOL     OW21736   2.896   2.153   6.517 -0.1057  0.3740  0.1305
 3367SOL    HW121737   2.908   2.148   6.422 -2.0997 -0.5849 -0.0894
 3367SOL    HW221738   2.812   2.196   6.534 -1.2641 -2.0185  0.5012
 3368SOL     OW21739   2.535   2.588   7.565 -0.0114  0.4161  0.4268
 3368SOL    HW121740   2.624   2.558   7.583 -0.0892 -0.9046 -1.3165
 3368SOL    HW221741   2.515   2.544   7.482  1.3153  2.1407 -0.8108
 3369SOL     OW21742   0.958   0.267   3.472  0.2191 -0.7456  0.0536
 3369SOL    HW121743   0.913   0.301   3.550  1.2378 -1.0867  0.7898
 3369SOL    HW221744   0.957   0.345   3.416  1.6992  0.5429  1.8333
 3370SOL     OW21745   2.062   3.104   3.254 -0.2718  0.4445  0.0326
 3370SOL    HW121746   2.101   3.175   3.304  1.2291 -0.6553  0.4420
 3370SOL    HW221747   2.103   3.122   3.170 -2.5597 -0.5415 -1.2901
 3371SOL     OW21748   3.344   4.233   6.483  0.0779 -0.0212 -0.0233
 3371SOL    HW121749   3.278   4.164   6.479 -0.6157  0.6543 -0.3930
 3371SOL    HW221750   3.376   4.206   6.569  0.6702  0.7659  0.0055
 3372SOL     OW21751   1.792   4.505   7.204  0.3586 -0.1107 -0.0336
 3372SOL    HW121752   1.780   4.422   7.158  0.5540  0.1766 -0.6013
 3372SOL    HW221753   1.855   4.489   7.275  0.7059  0.6808 -0.1586
 3373SOL     OW21754   0.676   2.269   4.784 -0.3230  0.4815 -0.1529
 3373SOL    HW121755   0.739   2.282   4.713 -1.8736 -1.9770 -1.9772
 3373SOL    HW221756   0.660   2.175   4.789 -0.5185  0.4395 -1.7520
 3374SOL     OW21757   0.534   1.857  16.053 -0.8747  0.4964 -0.3747
 3374SOL    HW121758   0.558   1.911  15.978  1.0192  0.5899  0.2898
 3374SOL    HW221759   0.439   1.867  16.044 -0.7792  1.3208 -0.4731
 3375SOL     OW21760   0.966   1.456   8.322 -0.1956  0.3414  0.2884
 3375SOL    HW121761   0.975   1.451   8.227  0.4084  0.4646  0.3401
 3375SOL    HW221762   0.880   1.497   8.325  0.8560  2.4179  2.0159
 3376SOL     OW21763   4.732   0.544  13.227 -0.3430  0.3198  0.1500
 3376SOL    HW121764   0.027   0.455  13.217  1.4601  1.0224  0.1039
 3376SOL    HW221765   4.725   0.559  13.132  1.0419 -0.8955 -0.1555
 3377SOL     OW21766   3.705   3.240   8.940  0.3563 -0.5303  0.2238
 3377SOL    HW121767   3.675   3.256   9.029  0.0187 -0.1965  0.0523
 3377SOL    HW221768   3.705   3.144   8.944 -1.4258 -0.7312 -4.0750
 3378SOL     OW21769   2.218   1.254   3.002 -0.0366  0.0466  0.7549
 3378SOL    HW121770   2.238   1.339   3.041  0.6261  0.3542 -0.2367
 3378SOL    HW221771   2.129   1.236   3.033  0.5255  1.4378  3.1492
 3379SOL     OW21772   3.482   1.186   3.330  0.1533 -1.0577  0.0996
 3379SOL    HW121773   3.430   1.214   3.406  0.2140  0.1805 -0.3183
 3379SOL    HW221774   3.433   1.108   3.304  0.5480 -1.8260  1.6215
 3380SOL     OW21775   2.378   1.074  12.921  0.3315 -0.3302 -0.1170
 3380SOL    HW121776   2.338   0.988  12.921 -0.6813  0.1491 -1.4184
 3380SOL    HW221777   2.472   1.057  12.909  0.0021 -1.0582 -1.5714
 3381SOL     OW21778   0.963   3.365   0.557  0.3091 -0.1795  0.2226
 3381SOL    HW121779   0.911   3.401   0.486  0.1040  0.1382  0.5343
 3381SOL    HW221780   0.946   3.271   0.543 -0.9714  0.0063  0.4857
 3382SOL     OW21781   2.687   3.232  16.725  0.0846 -0.1846  0.6109
 3382SOL    HW121782   2.752   3.302  16.733 -0.4202  0.3130  0.3847
 3382SOL    HW221783   2.631   3.252  16.800  0.3412 -0.8261  0.9698
 3383SOL     OW21784   3.022   3.539  14.284  0.3456 -0.2898  0.4322
 3383SOL    HW121785   3.023   3.582  14.198  1.8303  0.1993  0.6869
 3383SOL    HW221786   2.984   3.454  14.264  1.2572 -0.5872 -0.0296
 3384SOL     OW21787   1.818   1.948  15.408 -0.0893 -0.0974  0.7098
 3384SOL    HW121788   1.832   1.918  15.498 -0.5287 -2.9459 -0.1738
 3384SOL    HW221789   1.887   1.893  15.371  0.4237  0.5996  0.6346
 3385SOL     OW21790   3.391   0.268   4.489 -0.4480  0.0504 -0.2869
 3385SOL    HW121791   3.433   0.192   4.530 -1.1916  0.4228  1.1638
 3385SOL    HW221792   3.348   0.227   4.413 -0.3813 -1.3525  0.4235
 3386SOL     OW21793   0.877   0.546   6.690 -0.3278 -0.1565 -0.0073
 3386SOL    HW121794   0.817   0.480   6.725  2.2469 -2.0153  0.8758
 3386SOL    HW221795   0.926   0.573   6.767 -0.6744  0.6077 -0.0553
 3387SOL     OW21796   3.143   2.905   8.586 -0.1031 -0.2703  0.3301
 3387SOL    HW121797   3.071   2.919   8.647  0.2361  0.3537  0.5892
 3387SOL    HW221798   3.198   2.844   8.636 -0.1938 -1.0933 -0.5784
 3388SOL     OW21799   3.078   2.022   5.680  0.2074  0.1921  0.7942
 3388SOL    HW121800   3.166   2.034   5.644 -0.0964  0.3959  0.1197
 3388SOL    HW221801   3.032   2.105   5.667  3.3020  1.5542 -1.5584
 3389SOL     OW21802   0.829   2.481   1.923 -0.0933  0.2775 -0.1155
 3389SOL    HW121803   0.847   2.516   1.836  0.0580  0.8075  0.1297
 3389SOL    HW221804   0.736   2.503   1.920  0.3723  1.9853 -1.9092
 3390SOL     OW21805   1.850   2.152   7.532 -0.0059 -0.0784 -0.3454
 3390SOL    HW121806   1.844   2.230   7.476 -0.2564 -1.6128 -2.4178
 3390SOL    HW221807   1.834   2.193   7.617 -1.5942  0.3239 -0.8562
 3391SOL     OW21808   2.719   3.941   8.565  0.0281  0.4683 -0.2698
 3391SOL    HW121809   2.629   3.910   8.575  0.5936 -1.5747 -1.6634
 3391SOL    HW221810   2.722   3.931   8.470 -0.5402  1.5312 -0.3952
 3392SOL     OW21811   4.106   2.923   8.185  0.1549  0.4708 -0.0962
 3392SOL    HW121812   4.096   3.000   8.241 -2.4694  0.4722 -0.5305
 3392SOL    HW221813   4.106   2.850   8.246  1.1395 -0.3145 -1.0275
 3393SOL     OW21814   3.199   3.360   6.156 -0.5664 -0.1086 -0.3218
 3393SOL    HW121815   3.248   3.426   6.204 -1.6372  0.3616  0.1155
 3393SOL    HW221816   3.271   3.302   6.133  0.9226  2.2535 -1.5669
 3394SOL     OW21817   1.948   0.064   9.335  0.5971 -0.4140 -0.2070
 3394SOL    HW121818   1.926   0.123   9.407  0.8307 -1.8270  1.0171
 3394SOL    HW221819   1.967   4.722   9.380  3.7033  1.5463  2.0346
 3395SOL     OW21820   1.654   4.194  11.795  0.2224  0.4896 -0.6366
 3395SOL    HW121821   1.693   4.274  11.830 -1.2377  0.2115  1.6328
 3395SOL    HW221822   1.573   4.173  11.842  1.5913 -1.1394  1.0156
 3396SOL     OW21823   2.227   0.010   2.710  0.2158  0.1700  0.4616
 3396SOL    HW121824   2.137   4.718   2.705 -0.4206  2.1167 -0.2505
 3396SOL    HW221825   2.238   0.023   2.616 -1.4805 -2.1683 -0.0860
 3397SOL     OW21826   3.365   2.752   8.678 -0.6087 -0.1657 -0.2527
 3397SOL    HW121827   3.346   2.658   8.674 -0.6349 -0.1306 -0.9940
 3397SOL    HW221828   3.459   2.737   8.671 -0.5075  1.3499 -2.5411
 3398SOL     OW21829   1.431   2.172  11.262  0.1215  0.4309 -0.1196
 3398SOL    HW121830   1.352   2.208  11.222 -1.2078 -3.3269 -0.9376
 3398SOL    HW221831   1.427   2.084  11.224  0.5329 -0.4087  1.8061
 3399SOL     OW21832   2.166   3.000   7.770  0.0092  0.3866 -0.3067
 3399SOL    HW121833   2.226   3.044   7.711 -0.1035  0.5604 -0.2907
 3399SOL    HW221834   2.082   3.029   7.733  0.1493 -1.5013 -2.1058
 3400SOL     OW21835   0.585   2.440   5.319 -0.3015  0.1843 -0.0335
 3400SOL    HW121836   0.509   2.385   5.301  0.8429 -0.1296 -3.8841
 3400SOL    HW221837   0.615   2.443   5.228 -0.4954 -0.0048 -0.1033
 3401SOL     OW21838   2.175   1.503  14.445  0.1346  0.1334  0.1567
 3401SOL    HW121839   2.235   1.449  14.394 -0.4081  1.9987 -2.4591
 3401SOL    HW221840   2.114   1.434  14.471  0.1856  0.2164  0.4892
 3402SOL     OW21841   2.162   3.555   6.737  0.5496  0.8967 -0.3506
 3402SOL    HW121842   2.251   3.522   6.754  0.7393  2.4066  1.5810
 3402SOL    HW221843   2.153   3.604   6.818  2.9311  1.6293 -0.5291
 3403SOL     OW21844   0.955   2.760   3.441  0.1997  0.0057  0.4576
 3403SOL    HW121845   0.980   2.810   3.518 -2.8905  1.1434  0.7478
 3403SOL    HW221846   0.904   2.687   3.476 -1.8384  0.4457 -1.5374
 3404SOL     OW21847   0.164   1.957   2.713  0.4455  0.3463 -0.2780
 3404SOL    HW121848   0.215   2.038   2.707  0.4056  0.4132  0.3726
 3404SOL    HW221849   0.083   1.983   2.757  0.1165 -1.9649  0.4847
 3405SOL     OW21850   0.715   1.723   2.159  0.5243  0.0286 -0.6332
 3405SOL    HW121851   0.742   1.777   2.233 -2.3046  0.1684  0.3275
 3405SOL    HW221852   0.806   1.702   2.139  0.8179  1.0412 -0.3073
 3406SOL     OW21853   0.741   2.469   5.835 -0.3757 -0.1010  0.0876
 3406SOL    HW121854   0.716   2.440   5.923  2.2168  0.5831  1.0536
 3406SOL    HW221855   0.788   2.549   5.859  1.6547 -0.3726 -3.0564
 3407SOL     OW21856   1.677   1.633   2.140  0.8175  0.2260 -0.3006
 3407SOL    HW121857   1.608   1.568   2.128 -0.6281  2.1291 -2.2976
 3407SOL    HW221858   1.625   1.701   2.184  2.5081  0.9367  0.5970
 3408SOL     OW21859   0.314   3.373  12.486 -0.4578  0.2737  0.1861
 3408SOL    HW121860   0.375   3.424  12.540  0.0587 -0.3838  0.2176
 3408SOL    HW221861   0.376   3.314  12.442  0.5273  1.8084 -0.4963
 3409SOL     OW21862   4.010   1.044   3.230  0.7055 -0.1250 -0.1967
 3409SOL    HW121863   4.041   1.067   3.142 -0.6413 -1.9261 -1.1460
 3409SOL    HW221864   3.933   0.988   3.221  0.5161  0.0242  0.5671
 3410SOL     OW21865   0.893   1.724   4.868 -0.5088  0.2024  0.8061
 3410SOL    HW121866   0.918   1.687   4.953  1.6803  0.5041  0.2752
 3410SOL    HW221867   0.887   1.818   4.887  1.0885  0.1995  1.3225
 3411SOL     OW21868   3.604   1.333  15.189  0.1172 -0.3296  0.6496
 3411SOL    HW121869   3.673   1.275  15.158 -0.1206  1.0468 -2.4378
 3411SOL    HW221870   3.532   1.290  15.143 -1.4447  2.1221  0.7542
 3412SOL     OW21871   0.903   3.799   2.228 -0.0813 -0.2248 -0.8806
 3412SOL    HW121872   0.993   3.789   2.259  0.1631  0.6394 -1.3099
 3412SOL    HW221873   0.902   3.870   2.164  0.1655  1.1090  0.5659
 3413SOL     OW21874   3.738   0.760   5.965  0.4547 -0.3635  0.0250
 3413SOL    HW121875   3.653   0.719   5.981  0.3343 -0.4720 -0.8858
 3413SOL    HW221876   3.778   0.680   5.931  0.5649 -0.4442  0.3427
 3414SOL     OW21877   3.424   3.808   5.955 -0.1285 -0.4076  0.0094
 3414SOL    HW121878   3.386   3.797   6.042  1.8893  0.6076  1.0354
 3414SOL    HW221879   3.379   3.741   5.904  0.9688 -1.3876  0.3146
 3415SOL     OW21880   4.109   2.989   7.331  0.1386  0.1871 -0.0249
 3415SOL    HW121881   4.174   2.937   7.378 -0.3187  1.0827  1.5984
 3415SOL    HW221882   4.134   2.962   7.242 -1.0119 -0.7077 -0.0856
 3416SOL     OW21883   0.196   4.422   7.647  0.0553  0.0647 -0.5066
 3416SOL    HW121884   0.272   4.474   7.673 -0.7398  0.2792  1.3857
 3416SOL    HW221885   0.123   4.482   7.664 -0.7169 -1.1840  0.5521
 3417SOL     OW21886   1.556   1.094  14.468 -0.0882  0.2014 -0.1076
 3417SOL    HW121887   1.477   1.049  14.436  2.1293 -3.7433 -0.0241
 3417SOL    HW221888   1.588   1.118  14.381 -0.0056  1.2885  0.2337
 3418SOL     OW21889   2.267   0.846   6.542 -0.7473  0.2413  0.5128
 3418SOL    HW121890   2.202   0.871   6.475 -1.2825 -1.6123  0.3210
 3418SOL    HW221891   2.315   0.777   6.496  2.2349  2.2912  0.5693
 3419SOL     OW21892   0.091   0.386  15.643  0.0677  0.1329 -1.2108
 3419SOL    HW121893   0.003   0.348  15.645 -0.0105  0.5262  1.7300
 3419SOL    HW221894   0.058   0.474  15.665  2.3025  0.6939 -0.1416
 3420SOL     OW21895   0.560   1.072   1.444  0.0559  0.6330  0.2145
 3420SOL    HW121896   0.598   1.091   1.358 -0.9657  1.4634 -0.0616
 3420SOL    HW221897   0.492   1.007   1.426 -0.0623  1.1204 -1.1621
 3421SOL     OW21898   3.645   0.278  16.866  1.1184 -0.3346  0.4016
 3421SOL    HW121899   3.553   0.252  16.868  0.4628  1.9125 -0.1062
 3421SOL    HW221900   3.643   0.363  16.821  0.1913 -0.3602  0.4060
 3422SOL     OW21901   4.665   4.519   8.313  0.2009 -0.0092  0.3852
 3422SOL    HW121902   0.003   4.556   8.270 -0.6581  1.4064  0.0923
 3422SOL    HW221903   4.624   4.597   8.350 -0.3834 -0.7472  1.2971
 3423SOL     OW21904   3.867   2.112  14.032  0.1861  0.4447  0.2591
 3423SOL    HW121905   3.808   2.093  13.959 -0.3810  0.3512  0.7460
 3423SOL    HW221906   3.882   2.204  14.012 -2.3992  1.1695  1.6566
 3424SOL     OW21907   4.212   1.011  16.594  0.2789 -0.2231  0.0837
 3424SOL    HW121908   4.257   1.086  16.631  0.6821 -0.1886 -0.4808
 3424SOL    HW221909   4.269   0.942  16.626  0.7342 -0.0943 -0.4493
 3425SOL     OW21910   3.679   1.558  13.252  0.5573  0.2683  0.7545
 3425SOL    HW121911   3.601   1.612  13.267 -0.4379 -1.3002  1.2283
 3425SOL    HW221912   3.729   1.624  13.203 -0.1579  0.5804  0.4492
 3426SOL     OW21913   4.509   3.673  13.380 -0.5672  0.1585 -0.5144
 3426SOL    HW121914   4.455   3.713  13.448  0.2679  0.6172 -0.1077
 3426SOL    HW221915   4.569   3.621  13.434 -1.0335  1.6261  1.4306
 3427SOL     OW21916   3.875   4.629  15.357 -0.4627  0.1838  0.0317
 3427SOL    HW121917   3.850   4.593  15.442 -0.5206  0.3835  0.0992
 3427SOL    HW221918   3.968   4.639  15.377 -0.3760 -0.1416 -0.2023
 3428SOL     OW21919   1.324   4.212   8.755 -0.8976  0.2422  0.2542
 3428SOL    HW121920   1.361   4.300   8.745  1.6564 -0.6534  1.7177
 3428SOL    HW221921   1.289   4.221   8.843 -0.5798  0.6629  0.3402
 3429SOL     OW21922   1.270   2.234   6.962  0.5623 -0.4224  0.0727
 3429SOL    HW121923   1.324   2.186   7.024 -0.3532 -2.0478 -0.3884
 3429SOL    HW221924   1.286   2.182   6.883 -0.3970 -1.1918  0.3861
 3430SOL     OW21925   3.060   2.618  16.429  0.2728 -0.5868  0.1561
 3430SOL    HW121926   3.079   2.711  16.416 -1.1740 -0.2714  0.3380
 3430SOL    HW221927   3.123   2.580  16.368  0.2374  0.5066 -0.5660
 3431SOL     OW21928   2.145   0.912   9.572  0.1381  0.1112 -0.2410
 3431SOL    HW121929   2.095   0.836   9.601  1.0469  0.3346  1.9260
 3431SOL    HW221930   2.177   0.945   9.656 -0.2478 -1.2005  0.4113
 3432SOL     OW21931   0.844   3.673   4.145 -0.2686 -0.2186  0.9016
 3432SOL    HW121932   0.822   3.735   4.075  0.3693  1.2192  1.9588
 3432SOL    HW221933   0.921   3.627   4.112 -0.3234  1.0032 -0.9464
 3433SOL     OW21934   1.786   0.857   1.009  0.0737 -0.1178  0.0861
 3433SOL    HW121935   1.774   0.865   0.914  2.0789  3.1052  0.0911
 3433SOL    HW221936   1.738   0.777   1.031  1.6820 -1.1933 -0.3283
 3434SOL     OW21937   1.780   2.349   6.503 -0.0065 -0.1329 -0.2202
 3434SOL    HW121938   1.694   2.319   6.473 -0.0402 -0.8281  0.5779
 3434SOL    HW221939   1.834   2.293   6.446  1.7606 -0.8467  2.1576
 3435SOL     OW21940   4.054   4.214   4.989 -0.0836  0.3854 -0.0929
 3435SOL    HW121941   4.135   4.260   4.967 -0.1141  0.6865  0.4259
 3435SOL    HW221942   3.984   4.278   4.985 -0.6046 -0.1599  0.3128
 3436SOL     OW21943   1.104   0.156  10.954 -0.2840  0.1880  0.0031
 3436SOL    HW121944   1.130   0.081  11.006  2.0784  1.3614  0.5002
 3436SOL    HW221945   1.186   0.204  10.948 -0.5671  0.7449  0.5916
 3437SOL     OW21946   1.270   2.435   7.385  0.1676  0.4902  0.8214
 3437SOL    HW121947   1.232   2.415   7.299  1.2911  0.4024  0.3455
 3437SOL    HW221948   1.288   2.348   7.421  0.9146 -0.9076 -2.8929
 3438SOL     OW21949   0.284   3.072   8.318 -0.1107  1.0781  0.3377
 3438SOL    HW121950   0.307   3.125   8.242  0.3954  0.6976  0.2289
 3438SOL    HW221951   0.198   3.049   8.284  1.9082 -4.3152 -1.0620
 3439SOL     OW21952   2.405   0.784   1.887  0.4858  0.7905 -0.9048
 3439SOL    HW121953   2.426   0.822   1.972  5.1798 -2.6248 -0.5474
 3439SOL    HW221954   2.319   0.825   1.879 -0.6093 -1.4267 -0.2643
 3440SOL     OW21955   0.271   0.899   5.286 -0.4388  0.1584  0.2951
 3440SOL    HW121956   0.289   0.806   5.273  2.7148  0.9205 -0.8155
 3440SOL    HW221957   0.228   0.894   5.371 -1.4787 -0.6489 -0.2920
 3441SOL     OW21958   1.576   3.863  16.681 -0.4456 -0.1428 -0.4486
 3441SOL    HW121959   1.569   3.954  16.653  0.3345  0.0327 -0.0780
 3441SOL    HW221960   1.571   3.828  16.593 -3.1548  3.0733 -1.5665
 3442SOL     OW21961   3.244   2.123   5.452 -0.5738 -0.2411  0.7015
 3442SOL    HW121962   3.293   2.079   5.382 -0.9914 -0.0686  0.3011
 3442SOL    HW221963   3.316   2.150   5.508  0.3398  0.9499 -1.0405
 3443SOL     OW21964   3.224   4.002  11.515 -0.1926 -0.1730  0.4041
 3443SOL    HW121965   3.230   3.906  11.510 -0.5456 -0.1027 -1.5200
 3443SOL    HW221966   3.188   4.021  11.428 -0.4056 -0.6649  0.3820
 3444SOL     OW21967   1.738   4.192   6.331 -0.2602 -0.3948  0.1746
 3444SOL    HW121968   1.776   4.194   6.419  0.0221  0.6126  0.0220
 3444SOL    HW221969   1.808   4.170   6.269 -0.3386 -2.1268  0.6781
 3445SOL     OW21970   1.712   0.346   3.912 -0.5699  0.9746  0.5247
 3445SOL    HW121971   1.754   0.391   3.839  0.7106 -1.5759 -0.3270
 3445SOL    HW221972   1.756   0.261   3.916 -1.8136  0.3063  0.1790
 3446SOL     OW21973   2.248   3.971   5.521  0.3428  0.4043 -0.6644
 3446SOL    HW121974   2.179   4.021   5.565  0.1281  1.7058 -2.4766
 3446SOL    HW221975   2.323   4.031   5.522 -0.4967  1.4596 -2.0331
 3447SOL     OW21976   0.946   3.786   0.991 -0.4918 -0.0838  0.5058
 3447SOL    HW121977   0.895   3.780   0.910  3.1177 -2.7326 -1.5762
 3447SOL    HW221978   1.005   3.861   0.981 -0.4963 -0.2616 -0.8131
 3448SOL     OW21979   3.803   2.842   3.010  0.1316 -0.6720 -0.1734
 3448SOL    HW121980   3.757   2.791   2.943 -1.3718 -1.7358  1.6515
 3448SOL    HW221981   3.815   2.778   3.080  0.7184  0.0027  0.3443
 3449SOL     OW21982   4.168   3.321   7.003 -0.6235 -0.3978 -0.2950
 3449SOL    HW121983   4.124   3.365   7.077 -0.3940 -0.0113 -0.3910
 3449SOL    HW221984   4.122   3.239   7.021 -0.1489 -0.0989  2.4139
 3450SOL     OW21985   0.333   1.498   5.780 -0.1156 -0.1254 -0.2557
 3450SOL    HW121986   0.423   1.518   5.756 -0.2442  2.0364  1.0996
 3450SOL    HW221987   0.332   1.415   5.828  0.5935  0.3918  0.6332
 3451SOL     OW21988   4.729   3.431   2.587  0.3149  0.3227 -0.2540
 3451SOL    HW121989   4.648   3.387   2.561 -0.0677  1.8249 -1.6068
 3451SOL    HW221990   4.694   3.516   2.616 -0.1598 -0.1176  0.4793
 3452SOL     OW21991   3.167   4.498   8.942  0.2530 -0.8761 -0.1198
 3452SOL    HW121992   3.150   4.470   8.852  0.2855 -0.2756 -0.3120
 3452SOL    HW221993   3.077   4.510   8.974  1.8576  0.7443  3.6932
 3453SOL     OW21994   4.716   1.317   5.677  0.4628 -0.5068 -0.2231
 3453SOL    HW121995   0.000   1.249   5.740  0.0573  1.0684  1.5965
 3453SOL    HW221996   4.666   1.270   5.609 -0.5360  0.3539 -0.0867
 3454SOL     OW21997   2.320   3.900   2.380  0.6974 -0.3346 -0.1880
 3454SOL    HW121998   2.282   3.812   2.378  0.9473 -0.4519  0.4238
 3454SOL    HW221999   2.343   3.911   2.472  0.4974  0.3969 -0.2251
 3455SOL     OW22000   0.405   0.919   4.279 -0.5329  0.3552  0.6040
 3455SOL    HW122001   0.458   0.901   4.202 -0.9460 -0.2487  0.4716
 3455SOL    HW222002   0.434   0.853   4.342  0.5710 -0.6148 -0.9459
 3456SOL     OW22003   1.592   1.211   7.155 -0.0308  0.1897  0.1090
 3456SOL    HW122004   1.681   1.242   7.139 -0.5457  1.4100 -0.3682
 3456SOL    HW222005   1.555   1.257   7.080 -2.6168 -0.5622  0.9192
 3457SOL     OW22006   0.734   1.448   4.767 -0.5857  0.4793 -0.1959
 3457SOL    HW122007   0.726   1.538   4.734 -1.9792  0.6811  0.6707
 3457SOL    HW222008   0.641   1.423   4.763 -0.3644 -0.1606 -1.2760
 3458SOL     OW22009   3.610   4.056   8.996  0.0204 -0.1486  0.2892
 3458SOL    HW122010   3.526   4.088   9.030  0.2145  0.6284  0.0358
 3458SOL    HW222011   3.659   4.124   9.041 -0.8586  0.6599  0.0163
 3459SOL     OW22012   2.193   1.539   7.401  0.0778  0.3691  0.4014
 3459SOL    HW122013   2.246   1.465   7.428 -0.3089  0.3960  1.2334
 3459SOL    HW222014   2.197   1.620   7.452  0.2506  2.1682 -2.4315
 3460SOL     OW22015   0.473   1.373   7.852 -0.5661 -0.2702  0.3346
 3460SOL    HW122016   0.564   1.345   7.863 -0.3982  1.1143  2.4546
 3460SOL    HW222017   0.433   1.308   7.909 -1.5308 -0.9166 -1.0697
 3461SOL     OW22018   4.457   0.137  12.078 -0.5314 -0.1023  0.2118
 3461SOL    HW122019   4.384   0.121  12.017 -1.1137 -2.0473  1.4183
 3461SOL    HW222020   4.496   0.052  12.097  0.8585  0.3395 -0.7268
 3462SOL     OW22021   1.955   0.663   5.742 -0.4976  0.1514 -0.1114
 3462SOL    HW122022   1.877   0.644   5.794 -1.1616 -1.7014 -1.8064
 3462SOL    HW222023   1.971   0.571   5.723 -0.6542  0.0693  0.1480
 3463SOL     OW22024   3.715   3.686   3.061  0.1159 -0.2102 -0.4490
 3463SOL    HW122025   3.804   3.686   3.098  0.6356 -2.5289 -1.7204
 3463SOL    HW222026   3.680   3.616   3.116  0.0201  0.0792 -0.1426
 3464SOL     OW22027   0.100   3.199   1.844 -0.0304 -0.2872  0.3174
 3464SOL    HW122028   0.126   3.127   1.786 -2.2423 -0.2326 -0.7635
 3464SOL    HW222029   0.181   3.240   1.875 -0.5136  0.1168  1.0508
 3465SOL     OW22030   4.496   2.472  11.808  0.0989  0.8233 -0.3629
 3465SOL    HW122031   4.453   2.415  11.872 -1.2301  3.4048  1.0427
 3465SOL    HW222032   4.446   2.474  11.726 -1.3450 -0.6514  0.4706
 3466SOL     OW22033   2.229   0.483   6.937 -0.3344 -0.0474  0.0702
 3466SOL    HW122034   2.254   0.507   6.848 -1.5229  1.2967  0.0976
 3466SOL    HW222035   2.221   0.573   6.969 -0.2602  0.1300 -0.4168
 3467SOL     OW22036   0.529   3.057  11.667  0.0350  0.4963  0.0469
 3467SOL    HW122037   0.570   3.063  11.581 -2.8471 -1.5820 -1.5111
 3467SOL    HW222038   0.520   3.150  11.685 -0.1780  0.5009 -0.0852
 3468SOL     OW22039   2.564   3.919  10.438 -0.3953  0.2033  0.3589
 3468SOL    HW122040   2.619   3.841  10.435 -1.2952 -0.3465 -1.6905
 3468SOL    HW222041   2.589   3.967  10.359 -1.3331 -0.5458 -0.3916
 3469SOL     OW22042   1.677   3.791   3.701 -0.1134 -0.3257  0.4583
 3469SOL    HW122043   1.769   3.796   3.675 -0.5294 -0.2349 -0.9881
 3469SOL    HW222044   1.677   3.708   3.749  1.3199  0.5590  1.9854
 3470SOL     OW22045   4.730   4.212  17.114 -0.1738  0.3158  1.1728
 3470SOL    HW122046   4.682   4.129  17.105 -0.3864  0.4726  0.8622
 3470SOL    HW222047   4.672   4.281  17.083 -0.0283  0.2992  0.8608
 3471SOL     OW22048   3.038   2.762   4.265 -0.0083 -0.2616 -0.0712
 3471SOL    HW122049   3.039   2.750   4.360 -1.7767 -0.6249 -0.0909
 3471SOL    HW222050   3.018   2.855   4.266 -0.8909 -0.4127 -1.9293
 3472SOL     OW22051   4.609   2.343   7.512  0.0511 -0.1856 -0.0981
 3472SOL    HW122052   4.513   2.341   7.510  0.0573 -1.1385  0.4515
 3472SOL    HW222053   4.622   2.308   7.424 -1.5348  0.3795 -0.5711
 3473SOL     OW22054   2.142   1.857   4.140 -0.2658 -0.0799 -0.2859
 3473SOL    HW122055   2.214   1.822   4.088 -1.8721 -1.6678 -1.4195
 3473SOL    HW222056   2.106   1.920   4.077  0.6993  0.0027 -0.7536
 3474SOL     OW22057   3.948   4.720  12.035 -0.0028 -0.5323  0.0359
 3474SOL    HW122058   4.026   4.691  11.987  1.3828 -0.5489  2.3082
 3474SOL    HW222059   3.904   0.033  11.969 -3.2218  0.6396  3.1361
 3475SOL     OW22060   0.083   3.499   2.339 -0.3344 -0.4808 -0.4362
 3475SOL    HW122061   0.150   3.431   2.330  1.4564  0.9782  1.9149
 3475SOL    HW222062   0.042   3.474   2.421  0.3723  0.3416  0.1702
 3476SOL     OW22063   2.291   2.016   7.776  0.0116 -0.1379  0.1285
 3476SOL    HW122064   2.353   2.088   7.791 -1.0890  0.7194  0.5222
 3476SOL    HW222065   2.235   2.059   7.712  3.0685  1.4393 -1.5239
 3477SOL     OW22066   1.000   3.991   3.606 -0.1174  0.6302  0.4426
 3477SOL    HW122067   1.095   3.981   3.608 -0.1727  0.3727  1.7800
 3477SOL    HW222068   0.996   4.048   3.529  0.3372 -1.6103 -1.2564
 3478SOL     OW22069   2.915   1.524   7.189  0.1272  0.0522  0.5408
 3478SOL    HW122070   2.947   1.561   7.107 -0.6625 -0.9959 -0.2285
 3478SOL    HW222071   2.976   1.578   7.240 -0.0942 -0.2261  1.0952
 3479SOL     OW22072   1.030   1.137  12.975  0.4523  0.5662  1.0026
 3479SOL    HW122073   0.949   1.188  12.978  1.1628  1.8907 -3.2953
 3479SOL    HW222074   1.051   1.135  12.882 -2.8508 -0.1342  0.2514
 3480SOL     OW22075   0.873   3.306   5.137 -0.2209 -0.0791  0.5761
 3480SOL    HW122076   0.800   3.295   5.075 -0.4634 -0.9344  1.0149
 3480SOL    HW222077   0.927   3.373   5.095  1.7633 -2.1550 -0.2408
 3481SOL     OW22078   0.755   1.582   7.895 -0.3280  0.0107  0.7528
 3481SOL    HW122079   0.780   1.669   7.865 -1.5539 -0.1534 -0.7149
 3481SOL    HW222080   0.835   1.545   7.857 -1.9970  1.2215 -3.9121
 3482SOL     OW22081   4.611   3.989   5.209  0.3599 -0.1539 -0.6894
 3482SOL    HW122082   4.627   3.899   5.238 -0.0479 -0.8037 -2.4758
 3482SOL    HW222083   4.697   4.020   5.182 -0.4002  0.6071 -2.2103
 3483SOL     OW22084   0.737   1.835   2.588  0.1644  0.4597 -0.4728
 3483SOL    HW122085   0.819   1.877   2.613  1.1454 -1.5499 -0.2764
 3483SOL    HW222086   0.763   1.817   2.498 -1.1673  0.4912 -0.8544
 3484SOL     OW22087   4.283   2.688   6.823  0.0067  0.7673  0.4399
 3484SOL    HW122088   4.215   2.622   6.838  0.5895 -0.2355 -1.3093
 3484SOL    HW222089   4.263   2.717   6.734 -1.2743  0.3108  0.5697
 3485SOL     OW22090   3.248   0.289   0.386 -0.1467  0.1622  0.0448
 3485SOL    HW122091   3.247   0.383   0.405 -0.0042  0.0066  0.8191
 3485SOL    HW222092   3.159   0.259   0.372  0.1483  0.1147 -1.7648
 3486SOL     OW22093   3.217   1.501   8.924 -1.0767  0.3195 -0.4490
 3486SOL    HW122094   3.246   1.434   8.986 -0.3364  0.6186 -0.4735
 3486SOL    HW222095   3.287   1.485   8.861  0.0555 -0.1128  0.9198
 3487SOL     OW22096   2.177   0.682  14.699 -0.0328 -0.7025 -0.5856
 3487SOL    HW122097   2.251   0.654  14.645  2.1092  0.7640  1.5543
 3487SOL    HW222098   2.131   0.601  14.722 -0.4980 -0.0045  0.9779
 3488SOL     OW22099   2.919   0.877  11.878 -0.4120 -0.1754 -0.2488
 3488SOL    HW122100   2.996   0.850  11.928 -1.3630 -1.4387  0.5442
 3488SOL    HW222101   2.854   0.886  11.947 -0.9047  0.2573 -0.7720
 3489SOL     OW22102   0.898   4.004   7.168  0.2300 -0.2716 -0.4374
 3489SOL    HW122103   0.885   4.095   7.143  0.8816 -0.4198 -1.3582
 3489SOL    HW222104   0.823   3.963   7.124  0.4708  0.6941 -1.7335
 3490SOL     OW22105   0.849   2.503  17.171  0.1101 -0.4784 -0.0266
 3490SOL    HW122106   0.797   2.478  17.095  0.7980 -1.7927 -0.0672
 3490SOL    HW222107   0.924   2.444  17.163  0.5100  0.2598 -1.6301
 3491SOL     OW22108   3.572   2.753   1.567  0.1221 -0.3585  0.5931
 3491SOL    HW122109   3.640   2.709   1.617 -0.1035 -0.1937  1.0525
 3491SOL    HW222110   3.573   2.837   1.614  0.7477 -0.1887  0.2764
 3492SOL     OW22111   0.616   2.455   7.336 -0.1346  0.2246  0.2920
 3492SOL    HW122112   0.702   2.490   7.314 -0.8294  3.2292  2.4874
 3492SOL    HW222113   0.633   2.362   7.318  1.6005  1.2030 -3.1672
 3493SOL     OW22114   1.903   0.002  12.224  0.0328  0.4788  0.6724
 3493SOL    HW122115   1.978   4.693  12.259 -0.4072 -0.7312 -0.0647
 3493SOL    HW222116   1.954   0.062  12.169 -1.3284  3.7948  3.0614
 3494SOL     OW22117   2.108   2.799   1.224  0.3561 -0.6695 -0.4725
 3494SOL    HW122118   2.120   2.835   1.136 -0.9245 -1.2451 -0.8771
 3494SOL    HW222119   2.013   2.805   1.221  0.3412 -0.7500 -0.2098
 3495SOL     OW22120   1.477   4.272   3.191  1.0902  0.7966  0.2568
 3495SOL    HW122121   1.560   4.249   3.147  0.8202  0.7389 -0.2278
 3495SOL    HW222122   1.418   4.285   3.116  2.1422 -0.9785 -0.8938
 3496SOL     OW22123   1.030   0.688  16.758  0.1984 -0.1118 -0.9339
 3496SOL    HW122124   1.048   0.599  16.788 -1.7267 -0.0820  0.3298
 3496SOL    HW222125   1.017   0.676  16.664  2.5469 -1.6348 -1.0572
 3497SOL     OW22126   1.775   2.913  14.805 -0.3059 -0.2415  0.0840
 3497SOL    HW122127   1.868   2.917  14.782 -0.5894  1.7432 -0.7409
 3497SOL    HW222128   1.724   2.895  14.726 -0.1439  0.3701 -0.1646
 3498SOL     OW22129   2.810   0.726  11.239  0.4452  0.0680 -0.2827
 3498SOL    HW122130   2.901   0.696  11.243  0.8174  1.2099 -0.3376
 3498SOL    HW222131   2.805   0.701  11.147  1.3806 -0.6393 -0.1516
 3499SOL     OW22132   0.458   1.494   0.845  0.0196 -0.2851 -0.3331
 3499SOL    HW122133   0.473   1.513   0.753  2.8914  1.2594  0.4493
 3499SOL    HW222134   0.486   1.570   0.897  0.4167 -0.5637 -0.1457
 3500SOL     OW22135   3.460   0.896   5.081 -0.1272  0.1431  0.0513
 3500SOL    HW122136   3.372   0.906   5.119  0.1795 -2.3887  1.3927
 3500SOL    HW222137   3.492   0.821   5.131 -0.0739 -0.1134 -0.3756
 3501SOL     OW22138   0.443   3.883   6.497 -0.6952  0.2517 -0.0236
 3501SOL    HW122139   0.478   3.880   6.586  1.2034 -1.5375 -0.8333
 3501SOL    HW222140   0.419   3.975   6.484  2.3832  1.1856  0.9569
 3502SOL     OW22141   3.071   2.580   6.045  0.0975 -0.4387  1.0024
 3502SOL    HW122142   3.086   2.609   6.135  1.7869  1.0472  0.2297
 3502SOL    HW222143   3.128   2.638   5.995 -0.9660 -0.5166 -0.3063
 3503SOL     OW22144   2.771   2.732  15.285  0.1779 -0.3178 -0.5012
 3503SOL    HW122145   2.755   2.677  15.361  1.2352  0.6415  0.4116
 3503SOL    HW222146   2.683   2.741  15.249  0.3438  1.6961 -0.4116
 3504SOL     OW22147   1.525   1.073   6.715 -0.7019  0.4214  0.5026
 3504SOL    HW122148   1.480   1.059   6.631 -1.0988  0.8673  0.6360
 3504SOL    HW222149   1.456   1.050   6.778 -1.8376  1.2792 -0.4158
 3505SOL     OW22150   2.644   0.312   4.537 -0.2930  0.4325 -0.0592
 3505SOL    HW122151   2.655   0.308   4.442 -1.3203  0.7948 -0.1979
 3505SOL    HW222152   2.724   0.364   4.548  0.2522 -0.0471 -1.8048
 3506SOL     OW22153   3.898   2.584   9.125  0.7011 -0.0900  0.0291
 3506SOL    HW122154   3.928   2.505   9.169 -0.3234 -0.8653 -0.6718
 3506SOL    HW222155   3.963   2.591   9.056 -0.6797 -2.6772 -1.5132
 3507SOL     OW22156   2.885   1.493   8.265  0.2976 -0.1562  0.6922
 3507SOL    HW122157   2.979   1.482   8.279  0.1981  0.4099  1.7607
 3507SOL    HW222158   2.855   1.428   8.329 -1.9081  1.7771  1.6393
 3508SOL     OW22159   1.516   3.554  10.918 -0.1716  0.0585 -0.6562
 3508SOL    HW122160   1.596   3.586  10.877  0.2882 -2.8016 -2.0267
 3508SOL    HW222161   1.461   3.562  10.840 -1.0830 -2.2919 -0.2659
 3509SOL     OW22162   1.377   1.965   4.243 -0.0912  0.8288 -0.4964
 3509SOL    HW122163   1.331   1.948   4.324  1.6912  0.2055  0.3815
 3509SOL    HW222164   1.470   1.966   4.265  0.2179 -0.3994 -1.7592
 3510SOL     OW22165   0.461   3.050  15.301  0.1434  0.3346 -0.2554
 3510SOL    HW122166   0.496   3.075  15.387  0.1385  4.1765 -1.3911
 3510SOL    HW222167   0.395   3.117  15.288 -0.6907 -0.5372 -0.5381
 3511SOL     OW22168   4.229   1.069  17.221 -0.5124  0.5211  0.1930
 3511SOL    HW122169   4.164   1.025  17.277  2.0155 -0.3381  2.4278
 3511SOL    HW222170   4.214   1.022  17.139 -0.6202 -0.3032  0.6884
 3512SOL     OW22171   1.111   3.163   9.981  0.0044 -0.1375  0.5617
 3512SOL    HW122172   1.066   3.137  10.061 -2.7298 -0.7679 -1.1537
 3512SOL    HW222173   1.190   3.110   9.994  0.0338  0.5212  3.0070
 3513SOL     OW22174   0.432   3.144   8.534  0.6413 -0.1465 -0.5099
 3513SOL    HW122175   0.389   3.126   8.451 -0.0770 -0.4474 -0.0683
 3513SOL    HW222176   0.399   3.077   8.594 -0.4709 -0.7174 -1.7778
 3514SOL     OW22177   3.970   1.038  16.458  0.0881  0.1159  0.2918
 3514SOL    HW122178   4.058   1.022  16.491  0.9649  0.1796 -2.0221
 3514SOL    HW222179   3.943   1.119  16.499 -2.5813 -0.1114 -0.9964
 3515SOL     OW22180   4.561   4.490   4.444  0.0142  0.0429  0.2831
 3515SOL    HW122181   4.642   4.512   4.490  0.9316  1.2996 -1.9281
 3515SOL    HW222182   4.505   4.568   4.439 -1.1419 -0.8767 -1.0012
 3516SOL     OW22183   3.737   4.081   8.361 -0.0567  0.8148 -0.1879
 3516SOL    HW122184   3.660   4.056   8.411 -0.5735  2.7261  0.0009
 3516SOL    HW222185   3.805   4.091   8.428 -0.9856  1.4992  0.6516
 3517SOL     OW22186   3.196   3.509   6.920 -0.1479  0.1466 -0.1695
 3517SOL    HW122187   3.156   3.568   6.984 -0.7748 -0.7245  0.2339
 3517SOL    HW222188   3.119   3.492   6.866 -0.4417 -2.1103  0.9435
 3518SOL     OW22189   2.867   3.791  11.478  0.3356 -0.5112  0.0952
 3518SOL    HW122190   2.802   3.834  11.422  0.3515 -1.3416 -0.5515
 3518SOL    HW222191   2.854   3.697  11.468  1.3355 -0.5423 -0.9203
 3519SOL     OW22192   3.795   1.499  13.570 -0.5565 -0.3996  0.5566
 3519SOL    HW122193   3.802   1.404  13.583 -0.0284 -0.4829 -0.3680
 3519SOL    HW222194   3.783   1.510  13.476  2.2542 -0.6148  0.1641
 3520SOL     OW22195   2.046   3.035  17.486  0.7038 -0.0501 -0.3450
 3520SOL    HW122196   1.997   3.017  17.405  0.6874  0.0360 -0.3539
 3520SOL    HW222197   2.116   3.093  17.458  0.3338  0.4833 -0.1678
 3521SOL     OW22198   1.732   0.063   4.204  0.2063  0.9180  0.2782
 3521SOL    HW122199   1.777   0.044   4.121  0.4354 -0.6139  0.7407
 3521SOL    HW222200   1.711   4.721   4.249 -1.6450  2.1233  1.5493
 3522SOL     OW22201   4.000   1.482   3.940 -0.1103  0.2092 -0.3390
 3522SOL    HW122202   4.014   1.392   3.911 -4.3731 -0.1633 -1.2340
 3522SOL    HW222203   3.911   1.481   3.976  0.7447  2.8480  1.8868
 3523SOL     OW22204   1.323   0.294   5.406 -0.2753  0.3079  0.3096
 3523SOL    HW122205   1.384   0.260   5.340  0.4062 -2.2024  2.2479
 3523SOL    HW222206   1.237   0.260   5.382  0.2405  0.4593 -1.7707
 3524SOL     OW22207   3.523   2.975   2.557 -0.4529 -0.7738 -0.2526
 3524SOL    HW122208   3.611   3.010   2.547 -0.7167  0.0038  0.0800
 3524SOL    HW222209   3.484   2.989   2.471  2.2436  2.2104 -0.9766
 3525SOL     OW22210   0.669   0.362   6.764 -0.1778 -0.6446 -0.1093
 3525SOL    HW122211   0.715   0.285   6.730  0.0564 -0.2885 -0.5981
 3525SOL    HW222212   0.683   0.365   6.858 -0.6722 -1.2511 -0.0158
 3526SOL     OW22213   2.419   1.255   9.894 -0.1862 -1.1425 -1.0827
 3526SOL    HW122214   2.510   1.283   9.884 -0.6427  1.2953  1.2790
 3526SOL    HW222215   2.403   1.208   9.813  1.8745 -1.6276 -1.2182
 3527SOL     OW22216   0.974   2.053  16.216  0.4335  0.4862  0.0434
 3527SOL    HW122217   0.940   1.991  16.281 -1.1499 -1.1030 -2.3151
 3527SOL    HW222218   1.004   1.994  16.147 -5.1213 -0.2661 -1.7279
 3528SOL     OW22219   1.209   2.819   3.646 -0.3026 -0.1584  0.0822
 3528SOL    HW122220   1.141   2.886   3.635  0.9654  1.0959 -0.1187
 3528SOL    HW222221   1.151   2.744   3.659  0.7954 -0.8990  0.5988
 3529SOL     OW22222   3.602   4.118  13.072  0.4239 -0.2977  1.0655
 3529SOL    HW122223   3.587   4.203  13.029  2.7098 -0.3750  0.1251
 3529SOL    HW222224   3.686   4.130  13.116  0.5197  0.0482  0.7877
 3530SOL     OW22225   2.364   3.596   8.711  0.0776  0.4898 -0.1391
 3530SOL    HW122226   2.278   3.602   8.752 -0.1221  2.4074 -0.8609
 3530SOL    HW222227   2.415   3.565   8.787 -1.9601 -2.9394 -0.1894
 3531SOL     OW22228   3.245   1.184   2.122 -0.1559  0.0663  0.1157
 3531SOL    HW122229   3.308   1.225   2.062  1.4680 -1.2748  0.9175
 3531SOL    HW222230   3.237   1.096   2.083  0.4051 -0.8358  2.0481
 3532SOL     OW22231   4.040   1.898   2.697 -0.3011 -0.3710  0.1203
 3532SOL    HW122232   3.978   1.921   2.628 -1.3596 -0.1030  1.1669
 3532SOL    HW222233   4.006   1.924   2.782 -0.9709 -1.1003  0.0797
 3533SOL     OW22234   1.408   2.499   5.582 -0.1626  0.1028  0.3549
 3533SOL    HW122235   1.442   2.440   5.514  0.8360  0.1255  0.8334
 3533SOL    HW222236   1.463   2.576   5.568 -1.1725  0.6795 -0.3562
 3534SOL     OW22237   3.584   0.473   4.279 -0.2608 -0.6015 -0.5634
 3534SOL    HW122238   3.667   0.425   4.280  0.1330  0.0999  0.2092
 3534SOL    HW222239   3.548   0.422   4.351 -0.3255 -0.0007 -0.1756
 3535SOL     OW22240   1.580   4.704   5.218 -0.1034  0.1996 -0.7329
 3535SOL    HW122241   1.556   4.721   5.309  1.4608 -0.6598 -0.1600
 3535SOL    HW222242   1.535   4.622   5.197  0.7488 -0.4190 -0.1453
 3536SOL     OW22243   2.705   3.828  16.407  0.0240 -0.2096  0.4763
 3536SOL    HW122244   2.646   3.756  16.383 -0.2110  1.0433 -2.6581
 3536SOL    HW222245   2.681   3.888  16.336  1.4721  0.1822  0.3316
 3537SOL     OW22246   1.106   4.180   0.688 -0.1779 -0.1174 -0.2888
 3537SOL    HW122247   1.202   4.180   0.693 -0.0938  0.9459 -2.0298
 3537SOL    HW222248   1.083   4.158   0.598 -2.3700  1.4116 -0.1115
 3538SOL     OW22249   4.149   3.943   6.597  0.0220 -0.8291 -0.4601
 3538SOL    HW122250   4.081   3.950   6.664  0.1315 -0.2606 -0.4125
 3538SOL    HW222251   4.164   3.848   6.592  3.7278 -0.2972  0.9218
 3539SOL     OW22252   0.040   4.546   5.586  0.2609 -0.0716 -0.5818
 3539SOL    HW122253   0.046   4.500   5.670 -0.6364  0.5034 -0.2129
 3539SOL    HW222254   0.038   4.632   5.628 -2.9055  0.0281 -0.9476
 3540SOL     OW22255   1.587   2.825  13.702 -0.6630  0.3568 -0.0205
 3540SOL    HW122256   1.606   2.835  13.795  0.8811 -1.0216 -0.1966
 3540SOL    HW222257   1.517   2.890  13.689 -0.0314  1.0113 -0.1404
 3541SOL     OW22258   1.461   1.932   2.611  0.3518  0.0491 -0.1468
 3541SOL    HW122259   1.508   1.853   2.585  1.1865  0.1654  1.0237
 3541SOL    HW222260   1.505   2.003   2.565 -0.4444  0.0531 -0.9067
 3542SOL     OW22261   3.137   4.096  14.770 -0.5978 -0.5041 -0.1420
 3542SOL    HW122262   3.092   4.156  14.710 -0.6073  1.0820  1.4783
 3542SOL    HW222263   3.083   4.097  14.849 -0.7363 -1.6070 -0.2255
 3543SOL     OW22264   4.083   1.495  13.317 -0.3174  0.1437  0.1480
 3543SOL    HW122265   4.064   1.584  13.287 -1.8927 -0.4913 -0.7240
 3543SOL    HW222266   4.002   1.444  13.321  0.1201 -0.5457  0.1923
 3544SOL     OW22267   4.085   2.468   0.661  0.7283  0.1660 -0.2008
 3544SOL    HW122268   4.102   2.562   0.674 -1.7479  0.2590  2.3778
 3544SOL    HW222269   4.102   2.458   0.567  0.9642 -0.9174 -0.0389
 3545SOL     OW22270   0.519   4.337   3.790  0.1163 -0.1516  0.4260
 3545SOL    HW122271   0.530   4.273   3.720 -0.5162  0.8336 -0.5715
 3545SOL    HW222272   0.492   4.273   3.856  1.3146 -1.1274 -0.0161
 3546SOL     OW22273   1.152   0.559   1.324 -1.2069  0.2690  0.5543
 3546SOL    HW122274   1.119   0.471   1.305  0.4874  0.0203 -1.2727
 3546SOL    HW222275   1.138   0.598   1.237  1.4543 -1.6100 -0.7266
 3547SOL     OW22276   3.228   4.347   7.935  0.3537  0.2882  0.4141
 3547SOL    HW122277   3.276   4.400   7.999 -1.2784  1.7811  0.3969
 3547SOL    HW222278   3.274   4.378   7.857  0.6487  0.5518  0.6922
 3548SOL     OW22279   2.234   0.625   4.845  0.1319  0.2428  0.0235
 3548SOL    HW122280   2.268   0.621   4.756 -0.4886  2.9346 -0.3359
 3548SOL    HW222281   2.244   0.536   4.879  3.5291 -0.2900 -2.4129
 3549SOL     OW22282   1.208   1.622   8.529 -0.1544 -0.5962  0.1016
 3549SOL    HW122283   1.194   1.544   8.477  0.0972  0.1488 -1.0758
 3549SOL    HW222284   1.179   1.599   8.618 -0.9940 -1.0419 -0.2949
 3550SOL     OW22285   0.560   0.882   8.790 -0.6162 -0.2922  0.2341
 3550SOL    HW122286   0.629   0.898   8.726 -2.8043 -0.3418 -2.1260
 3550SOL    HW222287   0.509   0.959   8.768  2.4766  1.3533 -1.2068
 3551SOL     OW22288   4.293   3.928   2.542  0.3237 -0.2713  0.4050
 3551SOL    HW122289   4.307   3.850   2.489 -0.9899  0.6401 -1.2624
 3551SOL    HW222290   4.371   3.942   2.596 -1.4631 -1.7281  3.3375
 3552SOL     OW22291   4.091   0.091   5.805  0.8382  0.2085 -0.7911
 3552SOL    HW122292   4.126   0.041   5.730  0.0314  0.3003 -1.2312
 3552SOL    HW222293   4.057   0.025   5.865  0.0655 -0.1232 -1.5795
 3553SOL     OW22294   2.817   2.008   4.749  0.3918  0.5322 -0.1182
 3553SOL    HW122295   2.818   2.103   4.761 -1.4594  0.4703  0.5054
 3553SOL    HW222296   2.790   1.989   4.839  2.8689 -1.1092  0.3127
 3554SOL     OW22297   2.760   1.239   0.780 -0.4528  0.5994 -0.3686
 3554SOL    HW122298   2.830   1.299   0.807 -0.9645  1.9268 -2.0029
 3554SOL    HW222299   2.714   1.301   0.723  0.6096  1.3546 -0.4060
 3555SOL     OW22300   1.689   2.980   0.774 -0.9918  0.4332  0.3178
 3555SOL    HW122301   1.601   2.979   0.736 -0.5998  1.7855 -0.6473
 3555SOL    HW222302   1.742   2.927   0.715 -1.5500 -0.2294  0.4114
 3556SOL     OW22303   4.182   4.426   0.929  0.1104 -0.0186 -0.0773
 3556SOL    HW122304   4.260   4.407   0.877 -0.8925 -1.7587 -0.9243
 3556SOL    HW222305   4.222   4.414   1.015  1.1227 -2.4582 -0.9074
 3557SOL     OW22306   2.466   0.545   0.680 -0.3830 -0.1957 -0.0343
 3557SOL    HW122307   2.425   0.518   0.598  2.0325  1.5337 -1.8242
 3557SOL    HW222308   2.540   0.484   0.684  2.6559  3.4597 -0.6638
 3558SOL     OW22309   2.431   0.654   6.384 -0.1711  0.1666 -0.1721
 3558SOL    HW122310   2.415   0.563   6.409  0.3485  0.2557  0.4928
 3558SOL    HW222311   2.518   0.671   6.421  0.9525 -2.5543 -1.5460
 3559SOL     OW22312   0.504   4.480  17.529  0.1035  0.1716 -0.4091
 3559SOL    HW122313   0.421   4.433  17.519 -0.4041  0.9249  0.2880
 3559SOL    HW222314   0.546   4.416  17.586  0.6035  2.3098  1.6640
 3560SOL     OW22315   3.638   0.081  10.965 -0.4198  0.5567 -0.3354
 3560SOL    HW122316   3.558   0.042  10.930 -1.9118  0.9142  2.6759
 3560SOL    HW222317   3.617   0.174  10.960 -1.6654  0.3196  0.5561
 3561SOL     OW22318   3.526   0.475   3.280 -0.0415 -0.2121 -0.3802
 3561SOL    HW122319   3.444   0.508   3.243 -0.8378  0.2437  1.7483
 3561SOL    HW222320   3.566   0.426   3.208 -0.3639 -1.5186  0.3321
 3562SOL     OW22321   3.825   2.792   6.570  0.2122  0.3609  0.2255
 3562SOL    HW122322   3.853   2.830   6.653  1.6725 -1.5463  0.6168
 3562SOL    HW222323   3.742   2.746   6.583  1.3409 -1.5791  0.7006
 3563SOL     OW22324   1.017   4.193   6.242 -0.0423 -0.2194  0.0879
 3563SOL    HW122325   1.077   4.119   6.253 -0.2306 -0.4227 -0.2429
 3563SOL    HW222326   0.943   4.152   6.196 -0.8630  1.8375 -0.4213
 3564SOL     OW22327   2.860   4.506  15.628 -0.2835 -0.2415 -0.9947
 3564SOL    HW122328   2.783   4.460  15.596  0.1012 -1.6937  0.1265
 3564SOL    HW222329   2.930   4.441  15.628  0.2208  0.3091 -2.9866
 3565SOL     OW22330   4.420   0.319   0.162  0.2807 -0.3381 -0.9453
 3565SOL    HW122331   4.337   0.365   0.175  0.8760  0.6697 -0.6792
 3565SOL    HW222332   4.483   0.379   0.204 -0.8054  2.4883 -3.3545
 3566SOL     OW22333   0.148   3.480  14.964  0.0518 -0.0246  0.4491
 3566SOL    HW122334   0.224   3.527  14.999 -0.5511  1.8919 -0.8027
 3566SOL    HW222335   0.167   3.498  14.872  2.8024 -1.2661  0.7727
 3567SOL     OW22336   4.184   2.431   2.199 -0.6605  0.6295  0.6444
 3567SOL    HW122337   4.148   2.360   2.145 -0.6656  1.1305 -0.0169
 3567SOL    HW222338   4.103   2.458   2.242 -1.6548  0.0280 -0.8208
 3568SOL     OW22339   0.664   0.470   1.612  0.1842 -0.0097  0.3751
 3568SOL    HW122340   0.590   0.489   1.670  1.1525 -0.4467  1.7362
 3568SOL    HW222341   0.643   0.533   1.543  1.4838 -1.0043 -0.9231
 3569SOL     OW22342   0.053   0.764  11.076  0.0933  0.2237 -0.2178
 3569SOL    HW122343   0.104   0.794  11.151  1.4986 -0.2738 -0.9556
 3569SOL    HW222344   4.708   0.758  11.120  1.4158  2.8364  2.6004
 3570SOL     OW22345   1.372   2.264   4.699  0.8412 -0.1720 -0.2468
 3570SOL    HW122346   1.423   2.246   4.620  0.8865  2.1456 -0.7339
 3570SOL    HW222347   1.437   2.303   4.758  1.1592 -1.0507 -0.0220
 3571SOL     OW22348   0.323   2.700   2.708 -0.2810  0.0678  0.0134
 3571SOL    HW122349   0.394   2.681   2.646  0.1742 -1.1730  0.9163
 3571SOL    HW222350   0.291   2.611   2.727  1.3214 -0.6230 -0.5146
 3572SOL     OW22351   0.419   3.664  14.548  0.0515  0.0314  0.3137
 3572SOL    HW122352   0.345   3.683  14.489  0.0057 -0.5542  0.1755
 3572SOL    HW222353   0.473   3.740  14.532 -1.8754  1.3218 -0.1076
 3573SOL     OW22354   0.567   4.644   6.159  0.0909  0.3743  0.4282
 3573SOL    HW122355   0.508   4.714   6.131 -0.4721 -0.5698 -0.7855
 3573SOL    HW222356   0.588   4.610   6.072  3.4405  1.8784  0.6845
 3574SOL     OW22357   3.272   1.776   3.998  0.2866 -0.5787  0.6614
 3574SOL    HW122358   3.312   1.810   4.078  1.2776 -0.0627 -0.0642
 3574SOL    HW222359   3.196   1.735   4.041 -0.4757  0.2252  0.0813
 3575SOL     OW22360   1.021   2.390  13.439 -0.6539  0.0982 -0.0442
 3575SOL    HW122361   1.027   2.482  13.413 -0.1827  0.1135  0.1112
 3575SOL    HW222362   0.990   2.397  13.529 -0.0962  2.2903 -0.0331
 3576SOL     OW22363   0.222   4.493   2.783 -0.0070 -0.0406 -0.3650
 3576SOL    HW122364   0.205   4.533   2.869 -1.0501  2.2852 -1.6469
 3576SOL    HW222365   0.145   4.437   2.779 -0.0603 -0.0042  0.1578
 3577SOL     OW22366   1.778   0.831   1.402 -1.0212 -0.1384 -0.5218
 3577SOL    HW122367   1.850   0.775   1.372  0.5193  1.3571  0.3968
 3577SOL    HW222368   1.727   0.780   1.464 -0.2410 -0.8464 -0.4519
 3578SOL     OW22369   2.622   1.697  13.010  0.1807 -0.5007  0.0329
 3578SOL    HW122370   2.611   1.612  13.054 -3.7989 -0.2741 -0.5028
 3578SOL    HW222371   2.529   1.715  12.992  0.1304  0.1456  0.9448
 3579SOL     OW22372   0.912   2.358   6.163 -0.2745 -0.6765 -0.1980
 3579SOL    HW122373   0.931   2.280   6.214  0.9818 -0.6974 -0.6873
 3579SOL    HW222374   1.003   2.379   6.139 -0.9187 -0.5135 -2.5215
 3580SOL     OW22375   0.384   1.186   1.179 -0.1043 -0.4705  0.0024
 3580SOL    HW122376   0.378   1.219   1.090 -0.1323 -1.1167 -0.2365
 3580SOL    HW222377   0.449   1.117   1.165  0.4591 -0.6034  3.2989
 3581SOL     OW22378   2.974   1.210  10.535  0.1511  0.2587  0.1792
 3581SOL    HW122379   3.039   1.172  10.594  0.2033  0.7295  0.4226
 3581SOL    HW222380   2.935   1.132  10.494  1.1216  0.6131 -1.3982
 3582SOL     OW22381   3.084   2.255  15.870 -0.1193  0.4803 -0.2294
 3582SOL    HW122382   3.002   2.208  15.858  0.8957 -1.3432 -0.1026
 3582SOL    HW222383   3.072   2.334  15.819  0.0627  1.7051  1.6093
 3583SOL     OW22384   3.415   2.046  17.034  0.0031  0.1227  0.2449
 3583SOL    HW122385   3.321   2.034  17.021  0.3645  1.1481 -3.1502
 3583SOL    HW222386   3.455   2.040  16.948  1.0528  0.2593  0.7309
 3584SOL     OW22387   0.694   0.339   2.518 -0.1704  0.4993  0.4595
 3584SOL    HW122388   0.770   0.362   2.572 -0.6357  2.7111  0.1830
 3584SOL    HW222389   0.661   0.258   2.558  0.3983 -0.6609 -1.4080
 3585SOL     OW22390   4.640   2.521   5.524 -0.0626 -0.4347 -0.4167
 3585SOL    HW122391   4.630   2.543   5.616 -2.3595  1.0344 -1.0122
 3585SOL    HW222392   4.664   2.608   5.493  1.1150  0.0686  1.9146
 3586SOL     OW22393   0.146   1.820  11.191  0.1206  0.3987  0.4949
 3586SOL    HW122394   0.093   1.810  11.111  2.7856 -1.7588 -1.0158
 3586SOL    HW222395   0.078   1.867  11.239 -0.9591  0.1633 -0.7777
 3587SOL     OW22396   4.668   0.978   3.011 -0.1457  0.3867 -0.1173
 3587SOL    HW122397   4.684   0.889   3.042  0.4927  0.8127  0.8001
 3587SOL    HW222398   4.679   1.036   3.086 -0.1916 -0.3158  0.4345
 3588SOL     OW22399   2.000   1.382  17.370 -0.2658  0.4310 -0.4183
 3588SOL    HW122400   2.082   1.428  17.351  0.0767 -0.1926 -0.4644
 3588SOL    HW222401   2.038   1.294  17.379  1.9634  1.3067 -1.2895
 3589SOL     OW22402   2.553   3.904   2.116  0.5343 -0.4195 -0.2583
 3589SOL    HW122403   2.553   3.983   2.062 -1.0338 -0.7717 -0.7949
 3589SOL    HW222404   2.474   3.861   2.083 -0.5964  0.5081  1.2159
 3590SOL     OW22405   4.332   1.074  12.579 -0.3132  0.6985  0.5327
 3590SOL    HW122406   4.425   1.057  12.563 -0.2009 -0.0780  2.0802
 3590SOL    HW222407   4.319   1.062  12.673  0.5796  1.5127  0.7632
 3591SOL     OW22408   1.443   2.541   9.466  0.2588  0.0512  0.2939
 3591SOL    HW122409   1.369   2.556   9.407  0.9747  1.1471 -0.3323
 3591SOL    HW222410   1.518   2.562   9.411 -0.0650 -0.1413 -0.2166
 3592SOL     OW22411   1.749   3.500  14.265 -0.3263 -0.0360 -0.1641
 3592SOL    HW122412   1.795   3.575  14.227  0.5474 -0.3484  0.2637
 3592SOL    HW222413   1.726   3.544  14.347  1.6836 -1.2073  1.0347
 3593SOL     OW22414   2.655   3.490   2.394 -0.1829  0.3177 -0.2136
 3593SOL    HW122415   2.666   3.579   2.359  3.5391 -0.3494 -0.7621
 3593SOL    HW222416   2.575   3.497   2.446  0.2461 -1.7304  0.7006
 3594SOL     OW22417   2.516   1.792   8.456 -0.2581 -0.3712 -0.3078
 3594SOL    HW122418   2.525   1.698   8.470  1.8820  0.2958  2.8175
 3594SOL    HW222419   2.569   1.804   8.377  0.7452  1.1353  0.5964
 3595SOL     OW22420   1.326   3.594   2.161  0.4018  0.2155  0.1668
 3595SOL    HW122421   1.326   3.541   2.081  1.5049 -1.7733  1.5060
 3595SOL    HW222422   1.281   3.528   2.214 -0.6781  1.6272  1.0097
 3596SOL     OW22423   1.207   0.619   7.987 -0.6393 -0.7956  0.3422
 3596SOL    HW122424   1.213   0.571   8.070  3.3587  1.6672  1.4667
 3596SOL    HW222425   1.114   0.612   7.966 -0.1478 -0.3042 -2.0091
 3597SOL     OW22426   3.913   0.280  17.179  0.2253 -0.3627  0.0149
 3597SOL    HW122427   3.887   0.207  17.234  1.6759 -0.8742  0.0074
 3597SOL    HW222428   3.993   0.314  17.220 -0.2949 -0.6763  1.2822
 3598SOL     OW22429   3.178   1.762   1.050  0.0434  0.1384  0.1028
 3598SOL    HW122430   3.203   1.817   0.976 -1.5410 -0.3884 -0.8179
 3598SOL    HW222431   3.258   1.764   1.103  0.4798 -2.6894 -0.4582
 3599SOL     OW22432   1.777   3.429   8.204  0.4593 -0.2463 -0.4146
 3599SOL    HW122433   1.832   3.508   8.208 -0.0474  0.0970 -0.2579
 3599SOL    HW222434   1.838   3.363   8.236  1.4157  1.0898  0.5197
 3600SOL     OW22435   4.490   0.613  12.316  0.5801 -0.3625  0.3128
 3600SOL    HW122436   4.581   0.633  12.299  0.8937 -0.5215  1.7626
 3600SOL    HW222437   4.484   0.524  12.281  2.0889 -1.0947  1.9121
 3601SOL     OW22438   4.230   4.514   2.797 -0.1606 -0.6228 -0.7809
 3601SOL    HW122439   4.179   4.584   2.837 -0.8833 -1.3445 -0.4298
 3601SOL    HW222440   4.158   4.479   2.744  1.7879 -2.0101 -2.5043
 3602SOL     OW22441   0.184   3.442  17.714  0.0170  0.7148  0.6123
 3602SOL    HW122442   0.196   3.439   0.053  3.4349 -0.5731  0.1211
 3602SOL    HW222443   0.089   3.444  17.703 -0.0916  2.1349  1.7396
 3603SOL     OW22444   2.552   0.698  12.104 -0.1405 -0.1499 -0.1015
 3603SOL    HW122445   2.496   0.761  12.150 -2.3432 -1.4519 -1.0541
 3603SOL    HW222446   2.484   0.632  12.094 -2.0884  2.1156 -1.7945
 3604SOL     OW22447   1.174   1.630  13.566 -0.0897  0.7207 -0.5739
 3604SOL    HW122448   1.085   1.659  13.552 -1.5895 -2.5017  2.1380
 3604SOL    HW222449   1.226   1.710  13.569  1.3130 -0.1978 -0.2390
 3605SOL     OW22450   1.509   0.241   5.203 -0.0681 -0.7360  0.1056
 3605SOL    HW122451   1.524   0.149   5.181  2.0064 -0.1103 -1.1324
 3605SOL    HW222452   1.466   0.284   5.129 -0.6441  0.1291  0.9539
 3606SOL     OW22453   2.342   2.567   4.251 -0.1217  0.5001  0.3523
 3606SOL    HW122454   2.352   2.580   4.157  1.8219 -1.0691  0.3233
 3606SOL    HW222455   2.392   2.642   4.283 -1.2010  1.4998 -0.3388
 3607SOL     OW22456   3.531   4.372   8.449  0.2416  0.5083 -0.2672
 3607SOL    HW122457   3.443   4.349   8.477  0.9337 -1.5164  0.2208
 3607SOL    HW222458   3.535   4.350   8.356  1.5606  1.7509 -0.5134
 3608SOL     OW22459   1.585   1.438   4.516 -0.4586 -0.3706  0.0764
 3608SOL    HW122460   1.633   1.484   4.448 -1.0966  1.2777  0.7525
 3608SOL    HW222461   1.643   1.444   4.591 -1.0834 -1.8358  0.6924
 3609SOL     OW22462   0.915   4.100   5.947  0.2013 -0.2384 -0.7243
 3609SOL    HW122463   0.901   4.027   6.007  1.6282 -0.2342 -0.3831
 3609SOL    HW222464   0.986   4.068   5.890 -0.9669  0.3634 -2.5256
 3610SOL     OW22465   1.883   2.779   8.234 -0.0955  0.3389  0.2863
 3610SOL    HW122466   1.934   2.826   8.300 -0.9534 -1.3281  2.1435
 3610SOL    HW222467   1.952   2.783   8.168  0.6138 -1.4668  0.9295
 3611SOL     OW22468   2.050   4.395   6.211  0.2688 -0.3178  0.2379
 3611SOL    HW122469   2.115   4.335   6.248  2.4780  1.3789 -0.9089
 3611SOL    HW222470   2.000   4.337   6.153  0.9241  1.0428 -1.6689
 3612SOL     OW22471   4.206   2.107   7.127 -0.6513  0.0401  0.4542
 3612SOL    HW122472   4.176   2.145   7.045  0.3940  1.8052  0.8813
 3612SOL    HW222473   4.148   2.164   7.179 -1.4040  0.5919 -1.0083
 3613SOL     OW22474   3.385   2.242   3.570  0.4436  0.3360  0.4995
 3613SOL    HW122475   3.375   2.232   3.664 -0.0591  1.5734  0.5750
 3613SOL    HW222476   3.465   2.194   3.547 -0.0234 -0.8429  1.3639
 3614SOL     OW22477   3.629   2.188  11.665 -0.0929  0.0658  0.1125
 3614SOL    HW122478   3.668   2.245  11.732 -0.9052 -0.5512  1.0936
 3614SOL    HW222479   3.538   2.214  11.655 -0.4174 -0.8417  0.7169
 3615SOL     OW22480   4.638   3.174   7.691 -0.1601 -0.3201  0.1425
 3615SOL    HW122481   4.560   3.144   7.737 -0.3724 -1.0871 -0.7312
 3615SOL    HW222482   4.697   3.102   7.714  1.4449  0.9276 -0.0179
 3616SOL     OW22483   2.324   2.397   5.256 -0.1883 -0.0857  0.2028
 3616SOL    HW122484   2.327   2.302   5.260 -3.0341 -0.2680 -2.9636
 3616SOL    HW222485   2.328   2.408   5.351  1.3890 -2.1066  0.3617
 3617SOL     OW22486   3.697   2.368  10.268 -0.1445  0.3095 -0.8501
 3617SOL    HW122487   3.734   2.319  10.342  1.0729 -0.6062 -2.0762
 3617SOL    HW222488   3.619   2.408  10.308 -0.5840 -0.9870 -0.4052
 3618SOL     OW22489   1.814   4.586   8.090  0.2304  0.6636 -0.3586
 3618SOL    HW122490   1.830   4.551   8.002  1.8171  1.8001 -0.5251
 3618SOL    HW222491   1.746   4.650   8.070 -1.0777 -0.4191  0.6945
 3619SOL     OW22492   4.382   2.838   6.557 -0.4262  0.1347 -0.2429
 3619SOL    HW122493   4.298   2.875   6.586  0.3811  1.9688 -0.2360
 3619SOL    HW222494   4.407   2.913   6.503  1.3105 -0.7331 -0.6225
 3620SOL     OW22495   0.561   3.612  12.920  0.7038  0.1210  0.5702
 3620SOL    HW122496   0.655   3.613  12.902  0.9638 -0.6003  1.9107
 3620SOL    HW222497   0.577   3.638  13.011  0.1667  1.4881  0.2776
 3621SOL     OW22498   3.989   2.300   3.030  0.1242 -0.1070  0.0963
 3621SOL    HW122499   4.064   2.358   3.038 -1.5210  1.9386  0.9577
 3621SOL    HW222500   3.963   2.307   3.122 -1.4063 -0.2667 -0.3203
 3622SOL     OW22501   4.540   3.392  14.603 -0.2107  0.4975 -0.2264
 3622SOL    HW122502   4.572   3.428  14.685 -0.3371  1.6208 -0.6601
 3622SOL    HW222503   4.470   3.347  14.649 -1.3274  2.3473 -0.1068
 3623SOL     OW22504   1.419   2.657   4.094 -0.3288 -0.3825 -0.0252
 3623SOL    HW122505   1.507   2.619   4.092 -0.6345 -1.1281  0.4983
 3623SOL    HW222506   1.378   2.626   4.175  1.0579 -2.3433 -0.0496
 3624SOL     OW22507   4.002   0.676   9.224  0.2263  0.0749 -0.0110
 3624SOL    HW122508   3.982   0.699   9.133 -0.9197  0.7853  0.4178
 3624SOL    HW222509   4.078   0.733   9.231 -0.7438  1.7474 -2.9047
 3625SOL     OW22510   4.061   3.736   2.517 -0.2183 -0.0140 -0.0048
 3625SOL    HW122511   4.101   3.823   2.513 -0.3497  0.0450 -0.0343
 3625SOL    HW222512   3.971   3.755   2.546  0.0743  3.2808 -1.2620
 3626SOL     OW22513   0.139   2.883  11.002 -0.0009  0.0099 -0.4971
 3626SOL    HW122514   0.048   2.906  11.023  0.0291 -0.6703  0.3714
 3626SOL    HW222515   0.167   2.974  10.988 -1.8467  0.7543  0.5677
 3627SOL     OW22516   2.172   3.432   5.224  0.5174  0.1310  0.4649
 3627SOL    HW122517   2.247   3.433   5.284 -0.0026 -0.9685  1.1464
 3627SOL    HW222518   2.123   3.502   5.267 -1.4010 -1.7247  1.3336
 3628SOL     OW22519   1.146   1.436   3.961 -0.5237  0.1894 -0.5840
 3628SOL    HW122520   1.213   1.403   3.900  2.6072  2.2737  1.7233
 3628SOL    HW222521   1.169   1.396   4.045 -1.2652  0.4837 -0.2417
 3629SOL     OW22522   2.027   2.339   8.172 -0.3732 -0.0190  0.0045
 3629SOL    HW122523   2.109   2.305   8.136  0.2434  2.2664 -0.7487
 3629SOL    HW222524   1.970   2.286   8.117 -1.5474 -0.1449  1.3461
 3630SOL     OW22525   1.157   3.025  13.541  0.4545  0.7312  0.5069
 3630SOL    HW122526   1.088   2.971  13.579  0.6667 -0.9822 -1.5632
 3630SOL    HW222527   1.119   3.112  13.554 -3.6149 -1.2440  1.9400
 3631SOL     OW22528   2.029   1.872   6.778 -0.4200  0.2880  0.0775
 3631SOL    HW122529   1.967   1.927   6.826 -1.8403  0.8678 -2.4432
 3631SOL    HW222530   2.011   1.892   6.686 -0.9166 -1.1695 -0.1486
 3632SOL     OW22531   1.616   3.157   3.544 -0.7089 -0.1838  0.4791
 3632SOL    HW122532   1.546   3.222   3.555  1.7534  2.0282  2.9756
 3632SOL    HW222533   1.646   3.166   3.453  0.4963 -0.1541  0.8899
 3633SOL     OW22534   1.428   1.813   1.819 -0.2485 -0.3791 -0.1944
 3633SOL    HW122535   1.442   1.802   1.725 -0.8887 -0.3128 -0.2961
 3633SOL    HW222536   1.440   1.724   1.854 -2.8214  0.6544  3.2575
 3634SOL     OW22537   4.147   3.721  12.771  0.3884  0.1510  0.4471
 3634SOL    HW122538   4.121   3.806  12.807  2.7703  2.4385 -3.1749
 3634SOL    HW222539   4.238   3.748  12.756 -0.1216  0.4533 -2.2202
 3635SOL     OW22540   0.435   1.729  10.462 -0.2593 -0.2023  0.1623
 3635SOL    HW122541   0.429   1.799  10.528 -0.6756  0.3519 -0.4602
 3635SOL    HW222542   0.521   1.691  10.482 -0.2866 -0.4866 -0.2735
 3636SOL     OW22543   3.721   4.138   4.726 -0.1769 -0.3191 -0.4121
 3636SOL    HW122544   3.690   4.183   4.805  1.7425  0.9196 -0.3480
 3636SOL    HW222545   3.640   4.091   4.708 -0.9535  1.1766 -0.7861
 3637SOL     OW22546   0.680   3.375   1.658 -0.1986 -0.4868 -0.0033
 3637SOL    HW122547   0.670   3.427   1.579 -0.8574 -0.8699 -0.1763
 3637SOL    HW222548   0.648   3.286   1.641  0.9568 -0.7338 -0.8456
 3638SOL     OW22549   1.936   0.241   3.533 -0.0795  0.2001 -0.3187
 3638SOL    HW122550   1.945   0.235   3.437  0.7821  2.7095 -0.4239
 3638SOL    HW222551   2.008   0.298   3.560 -1.0116  1.0749  0.3108
 3639SOL     OW22552   2.866   3.856   3.198  0.2790  0.2158 -0.2201
 3639SOL    HW122553   2.864   3.904   3.282 -0.8041 -0.6357  0.2381
 3639SOL    HW222554   2.959   3.842   3.184 -0.2501 -1.1851 -2.2702
 3640SOL     OW22555   0.221   2.216   3.899 -0.2051  0.2620 -0.1626
 3640SOL    HW122556   0.248   2.295   3.946 -0.2540 -0.0703  0.4172
 3640SOL    HW222557   0.299   2.197   3.846  1.2990 -0.1939  2.2337
 3641SOL     OW22558   1.055   3.537  11.291  0.3992  0.0651  0.1380
 3641SOL    HW122559   0.987   3.533  11.224  0.0293 -0.4933  0.5415
 3641SOL    HW222560   1.107   3.608  11.253 -1.0155  0.5459 -0.9101
 3642SOL     OW22561   2.561   4.145   8.716  0.2789  0.6876 -0.0138
 3642SOL    HW122562   2.580   4.153   8.622 -1.9648  1.2431 -0.4171
 3642SOL    HW222563   2.524   4.058   8.725  1.4268  0.2723  0.7822
 3643SOL     OW22564   2.660   2.898   1.731  0.2344  0.2764  0.4042
 3643SOL    HW122565   2.571   2.883   1.699  1.1792 -0.4717 -1.9167
 3643SOL    HW222566   2.697   2.817   1.768  2.7428  0.6484 -1.2805
 3644SOL     OW22567   4.667   2.160   2.500 -0.1985 -0.1317  0.2610
 3644SOL    HW122568   4.737   2.174   2.436  0.2946  0.3753  0.9116
 3644SOL    HW222569   4.598   2.123   2.444 -1.2511  4.7027 -1.7214
 3645SOL     OW22570   0.237   3.491   1.960 -0.3369  0.5093 -0.6407
 3645SOL    HW122571   0.285   3.410   1.974 -1.5950 -0.0564  0.4217
 3645SOL    HW222572   0.302   3.556   1.987 -0.7454  1.1406 -1.1621
 3646SOL     OW22573   0.521   1.071  11.088 -0.3610 -0.2275 -0.3395
 3646SOL    HW122574   0.488   1.006  11.150 -1.4563 -0.8759 -1.5990
 3646SOL    HW222575   0.607   1.080  11.128 -1.4580  0.9403  1.8039
 3647SOL     OW22576   3.089   0.600  11.585 -0.2390 -0.2510  0.3399
 3647SOL    HW122577   3.049   0.521  11.621  0.8305 -1.1272 -0.3874
 3647SOL    HW222578   3.173   0.597  11.630 -0.7463  0.1278  1.3082
 3648SOL     OW22579   3.831   2.712   0.993  0.0241  0.3956 -0.2125
 3648SOL    HW122580   3.807   2.800   0.963 -1.0634 -0.6348 -2.3915
 3648SOL    HW222581   3.750   2.663   1.007 -0.2131  0.9586  0.4168
 3649SOL     OW22582   2.958   2.473  13.926 -0.2788  0.0920  0.0502
 3649SOL    HW122583   3.047   2.501  13.948  0.0521  0.4161 -1.7427
 3649SOL    HW222584   2.938   2.406  13.992 -0.6252  0.4149  0.2736
 3650SOL     OW22585   4.493   1.384  16.894  0.6816 -0.2757  0.3876
 3650SOL    HW122586   4.474   1.475  16.869  0.0771  0.1321  2.3330
 3650SOL    HW222587   4.489   1.391  16.989 -0.5520 -0.4392  0.3492
 3651SOL     OW22588   0.311   2.353   5.387  0.2063 -0.0512  0.2286
 3651SOL    HW122589   0.313   2.308   5.472 -3.2456 -1.1006 -0.2390
 3651SOL    HW222590   0.315   2.442   5.421  3.0276 -0.1956  0.2831
 3652SOL     OW22591   1.506   4.085   7.012  0.1264  0.3735  0.1814
 3652SOL    HW122592   1.425   4.129   6.984  1.4912  2.9850  0.3964
 3652SOL    HW222593   1.509   4.110   7.104 -0.2761  0.8957  0.0500
 3653SOL     OW22594   4.714   3.668   6.440  0.2486  0.0419  0.3770
 3653SOL    HW122595   0.007   3.690   6.353  0.0436  0.9925  0.5411
 3653SOL    HW222596   0.001   3.575   6.443  2.6110  0.6746 -0.4814
 3654SOL     OW22597   3.226   2.236   4.769 -0.1768 -0.4923  0.3463
 3654SOL    HW122598   3.271   2.317   4.742  0.2503 -0.6359  0.6306
 3654SOL    HW222599   3.169   2.280   4.832  0.3246  0.5594  0.0697
 3655SOL     OW22600   3.829   0.483   3.864 -0.5718 -0.5259 -0.1787
 3655SOL    HW122601   3.829   0.578   3.860  2.2306 -0.4095  2.3801
 3655SOL    HW222602   3.776   0.472   3.944 -1.2515  0.8599 -0.4337
 3656SOL     OW22603   1.830   0.116   2.129  0.5193 -0.2707  0.3336
 3656SOL    HW122604   1.919   0.120   2.163  0.1398  1.8242  1.1293
 3656SOL    HW222605   1.829   0.168   2.049  1.3265 -0.2518  0.3365
 3657SOL     OW22606   1.074   3.084   2.507 -0.0383  0.1160 -0.4596
 3657SOL    HW122607   1.138   3.040   2.564  1.4960  0.3912 -1.9685
 3657SOL    HW222608   0.997   3.065   2.560 -1.3084  1.8989 -1.6779
 3658SOL     OW22609   1.288   0.899   3.923 -0.4243  0.0102  0.4115
 3658SOL    HW122610   1.242   0.845   3.859  1.8066 -0.4685 -0.8001
 3658SOL    HW222611   1.237   0.879   4.001 -0.8414  1.7782  0.5911
 3659SOL     OW22612   0.702   3.375   9.661  0.0270 -0.2798  0.1429
 3659SOL    HW122613   0.661   3.351   9.744 -1.3286  0.8318 -0.1889
 3659SOL    HW222614   0.757   3.445   9.697 -1.0592  2.0805 -2.7659
 3660SOL     OW22615   1.251   3.544  15.510  0.1478 -0.0018  0.1766
 3660SOL    HW122616   1.162   3.558  15.475  1.2527  0.0979 -2.6146
 3660SOL    HW222617   1.285   3.520  15.423  0.4093 -0.0698  0.2990
 3661SOL     OW22618   3.997   0.180  13.405  0.2375 -0.1608  0.1044
 3661SOL    HW122619   3.930   0.196  13.338  1.7515 -1.7553 -1.8023
 3661SOL    HW222620   4.060   0.246  13.375  0.6288 -0.1194  1.0219
 3662SOL     OW22621   3.181   2.060   7.401  0.3355  0.2540  0.2674
 3662SOL    HW122622   3.183   2.018   7.316 -0.7642  0.8313 -0.0471
 3662SOL    HW222623   3.259   2.027   7.446  0.1427  1.1770  1.2995
 3663SOL     OW22624   0.296   2.686   4.106  0.6484  0.5073  0.5907
 3663SOL    HW122625   0.280   2.780   4.095 -1.2277 -0.2137 -2.8778
 3663SOL    HW222626   0.330   2.670   4.018 -2.7579  1.0710 -0.8545
 3664SOL     OW22627   2.739   0.490  11.554 -0.6705 -0.2505  0.2244
 3664SOL    HW122628   2.737   0.584  11.538  0.5987 -0.2953 -0.2692
 3664SOL    HW222629   2.767   0.500  11.645 -0.9303 -0.1902  0.2964
 3665SOL     OW22630   0.569   0.462  13.810  0.0565 -0.1218 -0.4349
 3665SOL    HW122631   0.638   0.420  13.757 -0.0680 -2.1197  0.9858
 3665SOL    HW222632   0.556   0.549  13.772  0.3400 -0.5710 -1.5564
 3666SOL     OW22633   1.689   3.882   2.085 -0.3150  0.3298  0.5519
 3666SOL    HW122634   1.616   3.908   2.142 -0.8863 -0.0681 -0.0063
 3666SOL    HW222635   1.686   3.953   2.022  1.6087 -0.1822 -0.0938
 3667SOL     OW22636   0.123   0.316   6.233 -0.2638 -0.1397  0.2640
 3667SOL    HW122637   0.063   0.370   6.284 -1.4854 -0.0504 -1.2907
 3667SOL    HW222638   0.194   0.375   6.208 -0.3300  0.5528  1.7116
 3668SOL     OW22639   0.257   0.861   4.714 -0.2913 -0.1753 -0.1276
 3668SOL    HW122640   0.250   0.852   4.809  1.8254  3.2485  0.3759
 3668SOL    HW222641   0.341   0.908   4.708 -0.7494  0.4062 -1.9309
 3669SOL     OW22642   4.735   1.564   1.495 -0.0478 -0.2539  0.4782
 3669SOL    HW122643   0.087   1.544   1.511  0.2392  1.8194  1.4447
 3669SOL    HW222644   4.713   1.476   1.465 -0.4848 -0.0735  0.2549
 3670SOL     OW22645   0.860   3.470   4.718 -0.6757  0.0082  0.3691
 3670SOL    HW122646   0.769   3.489   4.695 -0.4471 -1.3016 -1.5930
 3670SOL    HW222647   0.876   3.386   4.675 -0.1015  0.0005  0.5953
 3671SOL     OW22648   2.815   3.951  13.279  0.5633 -0.0707  0.3105
 3671SOL    HW122649   2.805   3.950  13.184  2.7622 -0.3494  0.0782
 3671SOL    HW222650   2.805   3.860  13.306 -0.7306  0.3650  1.2643
 3672SOL     OW22651   2.947   3.027   7.374  0.5592 -0.4455 -0.0594
 3672SOL    HW122652   2.930   3.103   7.430  1.2922  0.3647 -0.9352
 3672SOL    HW222653   2.957   2.956   7.438  2.4197  0.1289  0.2628
 3673SOL     OW22654   4.340   3.757   0.298  0.2225 -0.0365  0.2521
 3673SOL    HW122655   4.333   3.731   0.390  2.6330  0.0819  0.4648
 3673SOL    HW222656   4.280   3.831   0.297  0.3791  0.0953  0.6225
 3674SOL     OW22657   2.368   3.754  13.615  0.5124  0.7079 -0.4562
 3674SOL    HW122658   2.454   3.741  13.575  0.8890  0.6215  0.3770
 3674SOL    HW222659   2.336   3.807  13.542 -1.2592 -0.5086 -0.5618
 3675SOL     OW22660   1.339   3.575   5.313 -0.3627  0.0449  0.0459
 3675SOL    HW122661   1.372   3.552   5.226  0.7243  1.2010  0.1539
 3675SOL    HW222662   1.246   3.554   5.306 -0.4666 -0.3142  2.7596
 3676SOL     OW22663   0.440   1.047  10.276  0.1331  0.2470 -0.1828
 3676SOL    HW122664   0.501   1.099  10.224 -0.8658  1.2135 -0.3733
 3676SOL    HW222665   0.414   0.970  10.224  1.3720  1.1309 -2.1140
 3677SOL     OW22666   2.973   1.449  13.833  0.5040 -0.1283 -0.1134
 3677SOL    HW122667   3.040   1.380  13.830  0.0107 -0.4984 -3.3671
 3677SOL    HW222668   2.917   1.409  13.899 -3.4921  2.9575 -1.6342
 3678SOL     OW22669   0.369   3.793   8.694 -0.6658 -0.3357  0.1606
 3678SOL    HW122670   0.283   3.755   8.710  0.2476 -3.2391 -1.8871
 3678SOL    HW222671   0.336   3.880   8.670  1.0359  1.5122  4.5245
 3679SOL     OW22672   0.233   1.210   7.975 -0.2682  0.4218  0.4278
 3679SOL    HW122673   0.158   1.258   7.942  0.0573 -0.1860 -1.2083
 3679SOL    HW222674   0.215   1.220   8.068  2.1340 -0.3468  0.9983
 3680SOL     OW22675   2.774   4.093   7.617  0.0630  0.1504  0.2170
 3680SOL    HW122676   2.702   4.045   7.576  0.2534 -0.8158  0.9932
 3680SOL    HW222677   2.840   4.086   7.547  0.5831 -2.4621  0.9593
 3681SOL     OW22678   4.635   3.716   6.143 -0.1501 -0.7921  0.0696
 3681SOL    HW122679   4.589   3.772   6.079  0.6443 -0.9657 -0.6549
 3681SOL    HW222680   4.558   3.690   6.193  0.0092 -1.7687 -0.2001
 3682SOL     OW22681   2.722   1.822   8.725  0.1095  0.1944 -0.6244
 3682SOL    HW122682   2.631   1.851   8.717  0.5987  1.3103 -2.2582
 3682SOL    HW222683   2.756   1.880   8.793  0.1624 -1.8221  1.0662
 3683SOL     OW22684   3.064   0.993   5.346  0.0421  0.4085  0.3436
 3683SOL    HW122685   3.019   0.918   5.384  0.0652  0.3263  0.2088
 3683SOL    HW222686   3.031   0.987   5.256  1.5951 -1.5683 -0.0925
 3684SOL     OW22687   4.535   2.056   3.111  0.0623 -0.6405 -0.3483
 3684SOL    HW122688   4.503   1.965   3.109 -1.0623 -0.2243 -1.0380
 3684SOL    HW222689   4.606   2.030   3.170 -0.2740 -2.3846 -0.7013
 3685SOL     OW22690   1.069   2.236   8.756 -0.0761  0.2067  0.4309
 3685SOL    HW122691   1.056   2.307   8.819  1.5970  0.1627  0.8222
 3685SOL    HW222692   1.104   2.174   8.820  0.7545  0.6437  0.4046
 3686SOL     OW22693   0.072   4.083   6.397  0.3103 -0.3141  0.2329
 3686SOL    HW122694   0.139   4.099   6.464  0.2859 -0.7293  0.3514
 3686SOL    HW222695   0.055   4.174   6.372  2.1462  0.4302  1.6023
 3687SOL     OW22696   4.263   1.891   2.295 -0.0078  0.2532 -0.7080
 3687SOL    HW122697   4.208   1.827   2.339 -0.9932  1.4300 -0.2406
 3687SOL    HW222698   4.273   1.953   2.368 -0.5152  0.0239 -0.4438
 3688SOL     OW22699   0.524   3.559   4.815  0.4652 -0.6295  0.3700
 3688SOL    HW122700   0.588   3.599   4.756 -1.6907 -0.9397 -2.1796
 3688SOL    HW222701   0.465   3.511   4.757 -0.4684  0.0529  0.7443
 3689SOL     OW22702   2.100   4.529   8.682 -0.3451  0.1982 -0.2834
 3689SOL    HW122703   2.069   4.455   8.630 -0.9909  0.4713 -0.2844
 3689SOL    HW222704   2.016   4.560   8.715  0.3451  0.8918  0.8437
 3690SOL     OW22705   3.769   0.533  17.180 -0.2302 -0.0653 -0.0892
 3690SOL    HW122706   3.835   0.471  17.149 -1.0523 -1.6127  1.2294
 3690SOL    HW222707   3.747   0.500  17.267  0.0467 -0.9216 -0.3392
 3691SOL     OW22708   3.850   1.921  15.970  0.1374  0.0945  0.0227
 3691SOL    HW122709   3.815   1.883  15.889 -0.1244  0.4214 -0.0138
 3691SOL    HW222710   3.857   1.848  16.031 -0.0802 -0.6973 -0.9011
 3692SOL     OW22711   1.777   1.476   4.706 -0.2200  0.1880 -0.5149
 3692SOL    HW122712   1.863   1.435   4.701  0.0311  0.7406 -0.7842
 3692SOL    HW222713   1.783   1.538   4.633  0.9531 -1.4018 -1.7627
 3693SOL     OW22714   2.096   2.568   3.188 -0.1474 -0.4054  0.2041
 3693SOL    HW122715   2.033   2.616   3.135 -1.4415 -2.5744 -0.2402
 3693SOL    HW222716   2.056   2.568   3.275  2.4079 -0.1497  1.3795
 3694SOL     OW22717   4.338   3.365   5.124  0.1982 -0.0546  0.2424
 3694SOL    HW122718   4.300   3.415   5.052 -0.1148  0.3479  0.6919
 3694SOL    HW222719   4.350   3.278   5.084 -0.7759  0.1849 -0.5815
 3695SOL     OW22720   0.788   4.682  16.728  0.4105 -0.4279  0.2728
 3695SOL    HW122721   0.728   4.633  16.672  0.1443 -0.6939  0.7941
 3695SOL    HW222722   0.872   4.660  16.689 -0.2059  0.2976 -1.4366
 3696SOL     OW22723   0.454   2.661   7.533 -0.0525  0.4236 -0.0665
 3696SOL    HW122724   0.496   2.593   7.586 -0.3570  0.9021  0.7875
 3696SOL    HW222725   0.510   2.656   7.456  2.7877  0.0772  1.9986
 3697SOL     OW22726   4.111   4.030   5.201 -0.0521 -0.6713 -0.5934
 3697SOL    HW122727   4.203   4.007   5.188 -0.6797 -2.7945 -1.1891
 3697SOL    HW222728   4.091   4.106   5.145  1.0176 -0.5580 -0.8258
 3698SOL     OW22729   4.593   2.579   8.198 -0.3028  0.8725  1.2374
 3698SOL    HW122730   4.674   2.617   8.234  1.9383 -1.9539 -0.9007
 3698SOL    HW222731   4.577   2.641   8.127  1.7930  0.3699  0.3365
 3699SOL     OW22732   0.658   3.082   4.520  0.2819  0.4039 -0.4752
 3699SOL    HW122733   0.613   3.155   4.477  0.7778  0.7313 -0.4386
 3699SOL    HW222734   0.630   3.020   4.453  1.5537  0.2236 -0.8368
 3700SOL     OW22735   0.998   3.624  15.430  0.6851 -0.0083  0.9517
 3700SOL    HW122736   0.912   3.653  15.459 -0.3923 -1.4360 -0.7539
 3700SOL    HW222737   0.990   3.620  15.334 -0.1839 -1.0436  1.0695
 3701SOL     OW22738   4.438   4.104  14.526  0.1823 -0.1729 -0.1042
 3701SOL    HW122739   4.386   4.039  14.573 -1.2016 -0.2676 -1.7546
 3701SOL    HW222740   4.416   4.180  14.579 -1.8941 -0.3661 -0.6776
 3702SOL     OW22741   4.397   3.157   7.799 -0.7037 -0.0043  0.1803
 3702SOL    HW122742   4.327   3.210   7.760  0.1573  0.0939 -1.2416
 3702SOL    HW222743   4.424   3.218   7.868  1.1218 -2.5325  1.7104
 3703SOL     OW22744   0.214   3.407   1.274 -0.8087 -0.8209  0.2533
 3703SOL    HW122745   0.256   3.476   1.327 -2.1996 -0.3922  0.8008
 3703SOL    HW222746   0.150   3.455   1.222  0.9519  0.9342 -0.3108
 3704SOL     OW22747   3.025   2.554   1.053 -0.0611  0.0650  0.4270
 3704SOL    HW122748   2.964   2.608   1.102 -0.3043  1.8615 -1.8370
 3704SOL    HW222749   3.077   2.509   1.119 -1.2290  2.0158  2.6498
 3705SOL     OW22750   4.188   3.551   1.987  0.4794  0.3418  0.4346
 3705SOL    HW122751   4.181   3.635   2.033 -0.4625  1.0218 -0.9493
 3705SOL    HW222752   4.099   3.527   1.962 -0.3061 -0.3623  3.8561
 3706SOL     OW22753   3.626   1.364   8.203 -0.1826 -0.2510 -0.0464
 3706SOL    HW122754   3.564   1.347   8.273 -0.5721  1.6526  0.0771
 3706SOL    HW222755   3.568   1.329   8.135 -0.6773  0.0048  0.2523
 3707SOL     OW22756   0.889   2.532   5.260 -0.2342  0.4741  0.1404
 3707SOL    HW122757   0.825   2.509   5.328 -1.3865  0.9231 -0.7806
 3707SOL    HW222758   0.918   2.447   5.227 -1.2600  0.2410 -0.1898
 3708SOL     OW22759   4.217   0.058   3.736  0.0958  0.0906  0.0763
 3708SOL    HW122760   4.248   0.141   3.700 -0.7253  0.7783  0.9435
 3708SOL    HW222761   4.122   0.058   3.721  0.4680 -1.8051 -2.2385
 3709SOL     OW22762   0.522   2.525  12.093 -0.3666 -0.1154  0.0623
 3709SOL    HW122763   0.509   2.555  12.003  1.5945  0.1894 -0.1238
 3709SOL    HW222764   0.518   2.602  12.150  0.7042  0.0524 -0.0843
 3710SOL     OW22765   0.799   0.164  12.602  0.3583  0.3705 -0.1077
 3710SOL    HW122766   0.705   0.166  12.620  0.4513 -0.1673  0.4370
 3710SOL    HW222767   0.832   0.186  12.689  0.0511  0.7748 -0.0968
 3711SOL     OW22768   2.793   1.122   1.828 -0.2763 -0.4714  0.3639
 3711SOL    HW122769   2.698   1.110   1.828 -0.6456  2.4833  0.6262
 3711SOL    HW222770   2.796   1.198   1.770  1.5902  0.4499  1.6641
 3712SOL     OW22771   1.771   4.521   2.962  0.1210 -0.0923  0.0497
 3712SOL    HW122772   1.694   4.475   2.995  0.1815 -0.9361 -0.9887
 3712SOL    HW222773   1.805   4.531   3.051  0.0871 -0.7945  0.1386
 3713SOL     OW22774   1.948   1.623   6.843  0.0875  0.2899 -0.2815
 3713SOL    HW122775   1.995   1.704   6.823  0.9193 -0.2881 -0.6520
 3713SOL    HW222776   1.927   1.644   6.934 -0.5882 -0.8913 -0.1713
 3714SOL     OW22777   4.609   2.445  16.785  0.1244  0.5563  0.0205
 3714SOL    HW122778   4.540   2.477  16.727 -0.8806 -2.7301 -0.5956
 3714SOL    HW222779   4.668   2.414  16.716 -0.0948  2.8401 -1.1821
 3715SOL     OW22780   3.588   3.271   9.743  0.6536  0.0269 -0.1243
 3715SOL    HW122781   3.579   3.196   9.685  1.9558 -1.5572  1.7283
 3715SOL    HW222782   3.636   3.232   9.816  0.5153 -0.2456 -0.1795
 3716SOL     OW22783   3.804   0.888  10.307 -0.0224  0.0926 -0.4112
 3716SOL    HW122784   3.727   0.926  10.350  0.2713  0.3892 -0.1503
 3716SOL    HW222785   3.844   0.964  10.264 -0.8325  0.3906 -0.6445
 3717SOL     OW22786   3.282   2.458   3.437 -0.2552 -0.3958  0.3502
 3717SOL    HW122787   3.321   2.396   3.498  1.7199 -0.2457 -0.7529
 3717SOL    HW222788   3.353   2.503   3.390  1.2751 -2.3885  0.7798
 3718SOL     OW22789   0.669   4.526   5.923 -0.4045 -0.1183 -0.0856
 3718SOL    HW122790   0.755   4.485   5.931 -0.1668  0.7776  2.1604
 3718SOL    HW222791   0.612   4.451   5.940 -0.8133 -0.2133 -1.9045
 3719SOL     OW22792   2.598   0.378   7.582 -0.5609  0.3752  0.0811
 3719SOL    HW122793   2.647   0.296   7.592  0.5064  1.0660  0.5699
 3719SOL    HW222794   2.670   0.441   7.574 -0.1090  0.0749  1.6930
 3720SOL     OW22795   4.124   1.735  15.978  0.3180  0.0138  0.1178
 3720SOL    HW122796   4.029   1.727  15.978  0.5190 -2.4409 -0.8563
 3720SOL    HW222797   4.146   1.678  15.904  1.3608  1.5864 -0.7851
 3721SOL     OW22798   4.415   1.942   6.372 -0.0256  0.0691 -0.0732
 3721SOL    HW122799   4.416   2.034   6.397 -2.1922 -0.1903  0.8827
 3721SOL    HW222800   4.360   1.941   6.294 -2.9027 -1.5072  2.0022
 3722SOL     OW22801   4.718   3.366  10.994 -0.3588  0.0622  0.1017
 3722SOL    HW122802   4.665   3.414  11.058 -1.0116 -0.0443 -0.3635
 3722SOL    HW222803   0.058   3.419  11.001 -1.0171  1.0908 -0.3711
 3723SOL     OW22804   0.166   3.751   8.124  0.1441  0.0160 -0.0470
 3723SOL    HW122805   0.083   3.780   8.161 -0.3655 -0.1094 -1.0939
 3723SOL    HW222806   0.222   3.829   8.120  0.9879 -0.5172  1.0848
 3724SOL     OW22807   0.742   0.535   5.253  0.4501  0.0400 -0.4280
 3724SOL    HW122808   0.696   0.618   5.251  0.8735  0.2474 -1.3191
 3724SOL    HW222809   0.803   0.545   5.326  0.1607  0.7432 -0.2902
 3725SOL     OW22810   3.218   0.486  10.882  0.2511  0.6757 -0.1953
 3725SOL    HW122811   3.229   0.412  10.942 -2.4056  1.9430  1.8113
 3725SOL    HW222812   3.223   0.444  10.796  1.0959  0.7086 -0.1596
 3726SOL     OW22813   0.335   0.835   1.977  0.1165 -0.1157  0.6463
 3726SOL    HW122814   0.296   0.821   1.891 -3.0016  1.9833  1.7573
 3726SOL    HW222815   0.300   0.761   2.027 -0.0064 -1.3796 -1.3304
 3727SOL     OW22816   1.484   1.369  12.290  0.6107 -0.2791 -0.3526
 3727SOL    HW122817   1.530   1.449  12.313 -1.5840  0.6964  0.6893
 3727SOL    HW222818   1.421   1.371  12.362  0.3169 -2.8462 -0.5289
 3728SOL     OW22819   2.574   1.633   9.327 -0.3502 -0.5085 -0.0928
 3728SOL    HW122820   2.652   1.672   9.288  0.6578 -1.5666  0.8768
 3728SOL    HW222821   2.598   1.541   9.318  2.0506  0.2256 -1.3189
 3729SOL     OW22822   4.026   1.175   3.489 -0.0404  0.8032  0.4653
 3729SOL    HW122823   4.001   1.144   3.402  0.7824  0.7701  0.2407
 3729SOL    HW222824   4.030   1.270   3.474  1.0215  0.7551  0.4660
 3730SOL     OW22825   0.700   4.384   3.189 -0.4124  0.0564  0.6039
 3730SOL    HW122826   0.689   4.289   3.199 -1.1069 -0.0616 -1.2949
 3730SOL    HW222827   0.685   4.427   3.273  0.7363  1.0431  0.3045
 3731SOL     OW22828   1.088   4.714   3.831  0.2727 -0.4733 -0.2498
 3731SOL    HW122829   1.048   0.033   3.895 -1.8457 -0.5120 -1.5459
 3731SOL    HW222830   1.024   4.724   3.761  1.2303 -0.3044 -1.1090
 3732SOL     OW22831   4.369   0.434   7.297 -0.6743  0.2304 -0.2321
 3732SOL    HW122832   4.311   0.432   7.373  0.4475  0.5234  0.6255
 3732SOL    HW222833   4.448   0.472   7.335 -1.0331 -0.2675  1.0166
 3733SOL     OW22834   4.368   1.086   7.114 -0.0220  0.1928 -0.0150
 3733SOL    HW122835   4.352   1.131   7.198 -0.5829 -1.7995  0.9416
 3733SOL    HW222836   4.332   1.002   7.140 -0.5939  0.7310  0.9535
 3734SOL     OW22837   3.576   0.082  11.238  1.2920 -0.0760  0.2956
 3734SOL    HW122838   3.504   0.018  11.229  0.0799  1.6405 -1.9787
 3734SOL    HW222839   3.597   0.090  11.146 -0.0396  0.3416  0.0319
 3735SOL     OW22840   0.522   2.016   6.951 -0.0934 -0.0372  0.2540
 3735SOL    HW122841   0.522   1.961   6.873  0.0377  1.5350 -0.8595
 3735SOL    HW222842   0.445   1.984   6.997 -0.8305  2.2722  0.6392
 3736SOL     OW22843   4.545   4.226  14.007  0.1325 -0.0618  0.2075
 3736SOL    HW122844   4.593   4.287  14.063 -2.1781 -0.8614  3.0681
 3736SOL    HW222845   4.523   4.164  14.076  0.6104 -0.7356 -0.2534
 3737SOL     OW22846   4.391   4.106   3.820 -0.3727 -0.0886  0.1151
 3737SOL    HW122847   4.303   4.070   3.826 -1.1126  1.6536 -0.0607
 3737SOL    HW222848   4.387   4.140   3.730 -2.0960 -2.3653 -0.6707
 3738SOL     OW22849   1.114   2.924  10.657 -0.2420  0.2746 -0.3501
 3738SOL    HW122850   1.145   3.008  10.692  0.1871 -0.2983  0.6392
 3738SOL    HW222851   1.174   2.871  10.709 -0.6455 -1.7800 -1.9583
 3739SOL     OW22852   1.715   0.277   2.882 -0.4591  0.2066 -0.4071
 3739SOL    HW122853   1.783   0.296   2.946  0.2525  0.4336 -1.2315
 3739SOL    HW222854   1.731   0.187   2.853  0.2611  0.6824 -1.4864
 3740SOL     OW22855   0.485   1.054   9.649 -0.0616  0.0500 -0.2870
 3740SOL    HW122856   0.570   1.051   9.694  0.5436 -0.2005 -1.4452
 3740SOL    HW222857   0.480   1.149   9.639  2.9139  0.2303 -0.0922
 3741SOL     OW22858   2.915   4.238  17.242 -0.0857 -0.8078  0.1562
 3741SOL    HW122859   2.882   4.170  17.182  1.0307 -1.4840  0.3067
 3741SOL    HW222860   2.841   4.297  17.227 -0.8426 -2.2408 -1.8345
 3742SOL     OW22861   2.796   0.394  14.139 -0.3219 -0.0786 -0.1329
 3742SOL    HW122862   2.865   0.449  14.103 -1.2712  0.7687 -0.6341
 3742SOL    HW222863   2.853   0.359  14.208 -0.5104 -1.0692 -0.4741
 3743SOL     OW22864   2.549   1.191   5.325 -0.6553 -0.0326  0.3272
 3743SOL    HW122865   2.547   1.248   5.401  1.0937 -0.0761  0.4112
 3743SOL    HW222866   2.601   1.120   5.364  0.9855  0.3441 -1.1319
 3744SOL     OW22867   1.002   1.244   7.670 -0.6802  0.5002  0.0485
 3744SOL    HW122868   1.079   1.280   7.626 -2.3140  1.2754 -2.1646
 3744SOL    HW222869   1.042   1.215   7.752  0.5364 -2.1894 -1.4947
 3745SOL     OW22870   3.126   2.436   3.187 -0.0401 -0.1218  0.5213
 3745SOL    HW122871   3.178   2.433   3.267  1.4182 -0.8966 -0.4608
 3745SOL    HW222872   3.046   2.410   3.233 -0.0935  0.6294  0.8417
 3746SOL     OW22873   1.992   3.599   8.254 -0.2640 -0.4971 -0.1464
 3746SOL    HW122874   2.079   3.562   8.245 -0.3477 -0.6555 -0.3077
 3746SOL    HW222875   2.000   3.626   8.345  1.1406  2.3206 -1.1050
 3747SOL     OW22876   2.116   4.606  12.307 -0.3639 -0.1345  0.6024
 3747SOL    HW122877   2.211   4.613  12.307 -0.0625 -4.1073  0.9337
 3747SOL    HW222878   2.101   4.534  12.370 -1.1870 -1.0972 -0.6894
 3748SOL     OW22879   0.935   1.357   5.640 -0.3526  0.6345  0.2263
 3748SOL    HW122880   1.015   1.317   5.675 -1.0409 -1.4004 -0.5420
 3748SOL    HW222881   0.895   1.367   5.726 -1.2953  2.8492 -0.4621
 3749SOL     OW22882   0.249   2.998   4.383 -0.1110 -0.1334  0.1034
 3749SOL    HW122883   0.162   3.028   4.358  0.4655  0.8487 -0.6957
 3749SOL    HW222884   0.290   2.985   4.298 -0.2949 -0.2141  0.0288
 3750SOL     OW22885   3.853   4.393   2.726  0.2860 -0.9007 -0.5794
 3750SOL    HW122886   3.857   4.321   2.788 -0.6767 -0.7564 -0.3448
 3750SOL    HW222887   3.928   4.377   2.669  1.0008 -1.8759  0.6567
 3751SOL     OW22888   0.629   1.031   7.632 -0.2522 -0.0401 -0.0500
 3751SOL    HW122889   0.582   0.948   7.635  2.2381 -1.4574 -0.4930
 3751SOL    HW222890   0.585   1.065   7.554  0.2417  0.7386  0.0049
 3752SOL     OW22891   3.907   4.666   7.407 -0.1607  0.0016  0.5197
 3752SOL    HW122892   3.821   4.698   7.435 -0.3959 -0.1928  0.0312
 3752SOL    HW222893   3.963   4.683   7.482  0.2184 -0.6970  0.3933
 3753SOL     OW22894   2.511   4.443   5.960 -0.2424  0.2269  0.2788
 3753SOL    HW122895   2.503   4.391   6.040  0.5780 -0.4371 -0.0651
 3753SOL    HW222896   2.529   4.529   5.997 -0.5267  1.1293 -1.7027
 3754SOL     OW22897   1.721   3.703   2.858 -0.8315  0.2047  0.1086
 3754SOL    HW122898   1.705   3.743   2.773  1.2634  0.4148 -0.1671
 3754SOL    HW222899   1.720   3.781   2.913 -0.7027 -0.4478  1.0369
 3755SOL     OW22900   4.470   0.673  12.597  0.7581  0.5282 -0.3355
 3755SOL    HW122901   4.483   0.666  12.502  0.5512  1.7152 -0.4509
 3755SOL    HW222902   4.453   0.583  12.624 -2.0619  1.4870  1.1459
 3756SOL     OW22903   1.462   4.693   8.293 -0.0154  0.0943  0.3072
 3756SOL    HW122904   1.435   0.003   8.216  0.1095  0.2324  0.3517
 3756SOL    HW222905   1.511   0.020   8.342 -0.3610  2.1404 -2.1275
 3757SOL     OW22906   4.380   1.389  13.758  0.2494  0.3912  0.2701
 3757SOL    HW122907   4.437   1.415  13.686  0.7200 -0.2056  0.4177
 3757SOL    HW222908   4.296   1.406  13.717 -0.2628  1.5003  1.7867
 3758SOL     OW22909   3.478   3.611  12.569 -0.0327 -0.1808 -0.1643
 3758SOL    HW122910   3.405   3.654  12.525 -0.5897 -0.1408  0.7948
 3758SOL    HW222911   3.497   3.666  12.644 -2.3997 -0.2997  0.5330
 3759SOL     OW22912   1.635   2.363  12.500 -0.1875  0.0593 -0.2302
 3759SOL    HW122913   1.674   2.294  12.554 -2.9589 -0.7424  0.7750
 3759SOL    HW222914   1.576   2.398  12.567  0.6911  1.1029 -0.0076
 3760SOL     OW22915   0.696   1.070   5.999  0.2371 -0.2150 -0.2711
 3760SOL    HW122916   0.782   1.074   5.958  0.7153  2.3084  0.9696
 3760SOL    HW222917   0.656   1.019   5.929 -0.2475 -1.1803  0.7037
 3761SOL     OW22918   2.815   2.928   7.665  0.1658 -0.2976  0.2215
 3761SOL    HW122919   2.722   2.917   7.649 -0.1907  0.2654  1.8944
 3761SOL    HW222920   2.863   2.870   7.605 -0.8814 -1.1562  0.2161
 3762SOL     OW22921   2.133   0.583   6.292 -0.3026 -0.7624  0.2773
 3762SOL    HW122922   2.168   0.506   6.249 -1.6320 -1.8184  1.0786
 3762SOL    HW222923   2.145   0.652   6.226  0.1920 -0.5814  0.5573
 3763SOL     OW22924   1.060   3.482  14.807 -0.1187  0.1600  0.3183
 3763SOL    HW122925   1.129   3.538  14.842 -0.0997 -0.5496  1.4353
 3763SOL    HW222926   1.016   3.546  14.751 -1.4816 -2.6168 -1.7446
 3764SOL     OW22927   1.008   3.791   1.932 -0.2513 -0.1255 -0.1661
 3764SOL    HW122928   1.079   3.777   1.868  0.0257  0.4395  0.0175
 3764SOL    HW222929   1.002   3.698   1.956  4.0934 -0.3013  0.3766
 3765SOL     OW22930   0.226   0.039   6.289 -0.2114  0.0621  0.3285
 3765SOL    HW122931   0.204   4.718   6.218  1.1766 -0.7587  0.5878
 3765SOL    HW222932   0.183   0.122   6.271  1.7031  1.1953  0.9529
 3766SOL     OW22933   1.044   3.145   7.516 -0.5739  0.4126 -0.2168
 3766SOL    HW122934   1.067   3.053   7.532  0.0760  0.5590 -0.3113
 3766SOL    HW222935   0.963   3.125   7.469  1.1417 -0.5439 -2.7894
 3767SOL     OW22936   2.396   2.773   4.671  0.4951  0.1200 -0.5205
 3767SOL    HW122937   2.471   2.719   4.700 -0.5542  0.4933  2.9505
 3767SOL    HW222938   2.337   2.699   4.657  1.2139 -0.4708 -0.4412
 3768SOL     OW22939   2.845   0.071   5.237  0.2054  0.0429  0.0217
 3768SOL    HW122940   2.811   0.134   5.301  2.2081  2.4329 -1.2656
 3768SOL    HW222941   2.814   4.726   5.268  0.9615  0.3939  1.7165
 3769SOL     OW22942   1.646   4.658   9.567  0.2252 -0.3580 -0.0626
 3769SOL    HW122943   1.701   4.683   9.641 -0.0940 -0.8711  0.3501
 3769SOL    HW222944   1.567   4.641   9.619  0.3327  1.3033  0.6394
 3770SOL     OW22945   0.956   1.602  15.243 -0.6083 -0.2638 -0.0267
 3770SOL    HW122946   1.000   1.522  15.271 -1.1681 -0.5831 -0.0520
 3770SOL    HW222947   0.874   1.606  15.293  0.7476  2.1439  2.0059
 3771SOL     OW22948   1.857   2.506   0.892  0.1424 -0.2115 -0.8335
 3771SOL    HW122949   1.820   2.469   0.972 -0.6368  2.7319  0.1666
 3771SOL    HW222950   1.937   2.454   0.890 -0.1786 -0.7628  0.7094
 3772SOL     OW22951   1.483   4.019   6.103  0.3987  0.4592 -0.0646
 3772SOL    HW122952   1.501   4.046   6.193  0.2075 -1.1668  0.4721
 3772SOL    HW222953   1.565   3.974   6.082  0.3011 -0.0897  0.7548
 3773SOL     OW22954   2.584   0.040   4.578 -0.4133 -0.0670  0.0427
 3773SOL    HW122955   2.502   0.051   4.626 -1.1283 -0.1736 -1.1443
 3773SOL    HW222956   2.607   0.132   4.562 -1.1931  0.0603 -0.3426
 3774SOL     OW22957   2.254   2.791  17.398 -0.2404  0.4369 -0.2840
 3774SOL    HW122958   2.173   2.784  17.449 -0.1864 -0.3751 -0.3105
 3774SOL    HW222959   2.262   2.885  17.382  0.0397  0.5216  0.3531
 3775SOL     OW22960   3.167   2.894  12.753 -0.1195 -0.0868  0.4418
 3775SOL    HW122961   3.188   2.988  12.753 -2.0267  0.3534 -0.4714
 3775SOL    HW222962   3.223   2.860  12.822  1.7087  0.6734 -0.6597
 3776SOL     OW22963   2.056   0.726   5.080  0.3347  0.5693 -0.2187
 3776SOL    HW122964   2.106   0.713   4.999  0.8069  0.8877  0.0293
 3776SOL    HW222965   2.032   0.817   5.065  0.2190  0.7373  1.0129
 3777SOL     OW22966   2.427   0.753  11.390  0.2227 -0.0254  0.3228
 3777SOL    HW122967   2.438   0.774  11.297 -0.8518 -1.5096 -0.1530
 3777SOL    HW222968   2.518   0.757  11.420  0.9298 -1.2743 -1.6095
 3778SOL     OW22969   4.461   2.371  15.737 -0.4830  0.5415 -0.2048
 3778SOL    HW122970   4.467   2.447  15.795  0.8467  0.2532  0.0531
 3778SOL    HW222971   4.402   2.416  15.677 -0.7666 -1.0191 -1.0886
 3779SOL     OW22972   2.971   3.995   7.438 -0.1223 -0.4754 -0.4459
 3779SOL    HW122973   3.007   4.012   7.351  2.3706 -3.3071  0.0367
 3779SOL    HW222974   3.031   3.930   7.474  0.0074 -0.1834 -0.1379
 3780SOL     OW22975   0.977   0.655   7.402 -0.1932 -0.1589 -0.1489
 3780SOL    HW122976   1.020   0.684   7.483  0.7411 -3.3197  0.4832
 3780SOL    HW222977   1.034   0.685   7.332  1.9389 -0.9396  1.2352
 3781SOL     OW22978   2.878   1.251   4.226  0.3316 -0.0087 -0.5609
 3781SOL    HW122979   2.944   1.319   4.225 -0.9614  1.2357 -1.3233
 3781SOL    HW222980   2.922   1.197   4.161  1.3706 -0.5415  0.5754
 3782SOL     OW22981   3.207   1.640   1.457 -0.6283 -0.3616  0.0136
 3782SOL    HW122982   3.179   1.691   1.533 -0.2322  0.3694 -0.3313
 3782SOL    HW222983   3.136   1.666   1.398 -0.7323 -0.2012  0.2101
 3783SOL     OW22984   2.732   3.720   8.790  0.0768 -0.4095 -0.8297
 3783SOL    HW122985   2.824   3.708   8.765  0.8120 -0.8543  2.0944
 3783SOL    HW222986   2.705   3.799   8.742 -1.3335 -0.7420 -0.5921
 3784SOL     OW22987   2.950   4.389   2.577 -0.4172 -0.5394  0.0227
 3784SOL    HW122988   3.001   4.468   2.591 -1.5978  0.2647 -0.1936
 3784SOL    HW222989   2.929   4.395   2.484  0.5459  1.4653 -0.0747
 3785SOL     OW22990   2.775   4.270   5.561  0.1989  0.4069 -0.0271
 3785SOL    HW122991   2.710   4.208   5.528 -0.2144  0.1644  1.2557
 3785SOL    HW222992   2.721   4.325   5.617 -1.7435  0.5296 -2.0429
 3786SOL     OW22993   2.742   4.424   7.894  0.6529 -0.1035 -0.0437
 3786SOL    HW122994   2.799   4.374   7.952 -0.0841  0.2637  0.9902
 3786SOL    HW222995   2.745   4.514   7.926 -1.1679 -0.6463  1.6704
 3787SOL     OW22996   3.828   0.762   3.857  0.3390  0.2071 -0.5414
 3787SOL    HW122997   3.871   0.795   3.936  0.8669 -0.2464 -0.6439
 3787SOL    HW222998   3.779   0.840   3.829  1.9679  2.0367  1.6690
 3788SOL     OW22999   3.762   1.912   5.670 -0.4265  0.0240 -0.1976
 3788SOL    HW123000   3.715   1.853   5.610 -2.8518  2.5726 -0.7577
 3788SOL    HW223001   3.751   1.869   5.755  0.2087 -3.4034 -1.8307
 3789SOL     OW23002   4.585   0.572  17.160 -0.1100  0.7730 -0.1190
 3789SOL    HW123003   4.622   0.565  17.072  0.1954  4.9212 -0.3130
 3789SOL    HW223004   4.640   0.517  17.216 -1.4566 -1.7099 -1.2252
 3790SOL     OW23005   3.728   0.079   2.022 -0.0355 -0.3271 -0.0140
 3790SOL    HW123006   3.692   0.090   2.110 -0.4475  1.0804 -0.3635
 3790SOL    HW223007   3.649   0.059   1.973 -0.1216  1.4541 -0.6142
 3791SOL     OW23008   0.240   0.991   9.762  0.3044  0.0802  0.2248
 3791SOL    HW123009   0.214   1.042   9.839  2.1064  0.1718  0.7585
 3791SOL    HW223010   0.325   1.029   9.739 -0.3618  1.0876 -0.5833
 3792SOL     OW23011   4.203   1.538   4.104  0.3031  0.7833  0.0979
 3792SOL    HW123012   4.118   1.532   4.061 -0.6368 -2.3779  2.3670
 3792SOL    HW223013   4.200   1.487   4.185  0.1829  1.6076  0.6134
 3793SOL     OW23014   4.028   4.113  14.210 -0.1453  0.1833  0.0497
 3793SOL    HW123015   3.956   4.115  14.272  0.7523 -2.3279  1.1664
 3793SOL    HW223016   3.989   4.108  14.122  1.1722  0.4356 -0.5496
 3794SOL     OW23017   4.256   0.014  14.656 -0.4043  0.1345 -0.1793
 3794SOL    HW123018   4.190   0.023  14.724  0.2160  0.3687  0.3994
 3794SOL    HW223019   4.220   0.074  14.591  0.3196 -1.1089 -1.7487
 3795SOL     OW23020   4.324   3.235  15.148  0.2812 -0.0142  0.0002
 3795SOL    HW123021   4.334   3.182  15.068 -1.4663 -0.4791  0.1035
 3795SOL    HW223022   4.295   3.166  15.207  1.4290  0.7338  1.4582
 3796SOL     OW23023   1.579   0.641   6.108  0.2798  0.4847  0.1055
 3796SOL    HW123024   1.555   0.616   6.019 -3.6441 -2.4292  2.0049
 3796SOL    HW223025   1.635   0.715   6.084  0.3281 -0.2897 -2.0896
 3797SOL     OW23026   1.178   2.871   4.938 -0.3405  0.2936  0.2077
 3797SOL    HW123027   1.171   2.841   5.029  0.0162  0.2861  0.2303
 3797SOL    HW223028   1.131   2.797   4.900  1.0125 -0.1289 -0.6317
 3798SOL     OW23029   2.181   1.801   0.407 -0.2400  0.0241 -0.0019
 3798SOL    HW123030   2.179   1.710   0.437 -1.0015  0.1966  0.4868
 3798SOL    HW223031   2.117   1.790   0.337 -0.9270  0.8585  0.4858
 3799SOL     OW23032   0.808   0.835   7.486  0.3256 -0.0486 -0.1963
 3799SOL    HW123033   0.725   0.817   7.441  0.3069  0.1070 -0.2213
 3799SOL    HW223034   0.862   0.760   7.460 -0.1035 -0.5656  0.3981
 3800SOL     OW23035   1.759   0.710   8.598 -0.4081 -0.4947  0.1540
 3800SOL    HW123036   1.701   0.635   8.611 -2.0703  0.3216 -2.3822
 3800SOL    HW223037   1.791   0.722   8.687 -0.2643 -1.1441  0.1849
 3801SOL     OW23038   3.319   1.759   5.631  0.1859  0.3033  0.1694
 3801SOL    HW123039   3.400   1.787   5.587 -0.8646  2.1677 -0.6002
 3801SOL    HW223040   3.305   1.675   5.588  2.5072 -0.3344  0.6391
 3802SOL     OW23041   4.399   2.132   8.476  0.2810  0.1017  0.0985
 3802SOL    HW123042   4.317   2.166   8.514  0.7343  1.3998 -0.1005
 3802SOL    HW223043   4.431   2.190   8.407  0.0895  0.7723  0.5746
 3803SOL     OW23044   2.225   3.474   3.772  0.1206  0.1242  0.0733
 3803SOL    HW123045   2.266   3.449   3.855 -0.9262  0.3997  0.6773
 3803SOL    HW223046   2.140   3.430   3.781 -0.9419  2.3131  0.9107
 3804SOL     OW23047   1.666   1.140  16.511 -0.2168 -0.3088 -0.2972
 3804SOL    HW123048   1.664   1.235  16.526  2.5810 -0.0075 -1.7796
 3804SOL    HW223049   1.707   1.135  16.425  0.5165  1.3615 -0.0457
 3805SOL     OW23050   0.085   0.252  17.234 -0.2094 -0.0515  0.4895
 3805SOL    HW123051   0.166   0.302  17.227  0.4776 -1.0763  1.1469
 3805SOL    HW223052   0.084   0.213  17.146  0.4544  0.8754  0.0749
 3806SOL     OW23053   0.093   0.457   7.940 -0.0096  0.2940  0.4625
 3806SOL    HW123054   0.079   0.459   8.035  0.6838 -0.5118  0.5819
 3806SOL    HW223055   0.001   0.447   7.917  0.2600 -0.6007 -0.2039
 3807SOL     OW23056   3.291   0.326   6.283  0.2346 -0.4716  0.0908
 3807SOL    HW123057   3.251   0.284   6.359  0.2621  0.6904  0.7598
 3807SOL    HW223058   3.379   0.342   6.318  0.2056 -0.1814  0.0281
 3808SOL     OW23059   4.657   2.080   2.778 -0.3783 -0.0462  0.1474
 3808SOL    HW123060   4.630   2.086   2.686 -0.1473  0.0110  0.0836
 3808SOL    HW223061   4.582   2.105   2.831 -0.9155 -2.5172  0.5774
 3809SOL     OW23062   0.146   4.528   0.107  0.3250  0.4552 -0.1146
 3809SOL    HW123063   0.090   4.532   0.185 -2.1021 -1.1290 -1.7972
 3809SOL    HW223064   0.082   4.568   0.048  0.6965  0.2676 -0.6437
 3810SOL     OW23065   3.080   2.004  14.481  0.3549 -0.1426  0.0362
 3810SOL    HW123066   3.008   1.973  14.536 -0.1376  1.1608  0.1101
 3810SOL    HW223067   3.165   2.000  14.524  1.0538  0.7807 -1.2559
 3811SOL     OW23068   3.573   0.522  10.584 -0.1773  0.7218  0.5639
 3811SOL    HW123069   3.665   0.520  10.559 -0.1312  1.0361  0.7169
 3811SOL    HW223070   3.533   0.484  10.506  0.8219  1.8857 -0.5260
 3812SOL     OW23071   0.285   2.307   5.657  0.1432 -0.2064  0.3264
 3812SOL    HW123072   0.314   2.393   5.688  1.3565 -0.5847  0.2085
 3812SOL    HW223073   0.222   2.274   5.721 -2.1892  0.4129 -1.6468
 3813SOL     OW23074   0.867   2.092   2.821  0.2003 -0.0096 -0.4756
 3813SOL    HW123075   0.781   2.076   2.861  1.2128  0.7267  2.0415
 3813SOL    HW223076   0.918   2.103   2.901 -0.0450 -2.6146  0.0247
 3814SOL     OW23077   0.334   4.235   1.691 -0.5319 -0.3555  0.1447
 3814SOL    HW123078   0.351   4.166   1.756 -0.5971  0.5207  1.1033
 3814SOL    HW223079   0.329   4.317   1.741 -0.8592 -1.6770  2.3020
 3815SOL     OW23080   2.127   1.896   8.031 -0.2109  0.0167  0.1966
 3815SOL    HW123081   2.204   1.840   8.023 -1.1804 -1.2205 -0.4181
 3815SOL    HW223082   2.079   1.856   7.958 -1.6776 -0.6082  1.5095
 3816SOL     OW23083   0.230   1.247  14.737 -0.4312  0.3735 -0.3406
 3816SOL    HW123084   0.297   1.194  14.694  1.0256  0.4386  1.8126
 3816SOL    HW223085   0.214   1.191  14.813  0.1666  1.5520  0.6509
 3817SOL     OW23086   4.145   0.177   7.286  0.2120  0.0513  0.1364
 3817SOL    HW123087   4.053   0.172   7.313  0.7254  1.6221  2.1544
 3817SOL    HW223088   4.194   0.146   7.363  0.8708 -1.4630 -0.9002
 3818SOL     OW23089   2.230   3.917   8.888 -0.1926  0.2251 -0.4007
 3818SOL    HW123090   2.182   3.993   8.922  1.6608  0.9212  0.6713
 3818SOL    HW223091   2.250   3.945   8.799  0.6828 -1.4960 -0.7470
 3819SOL     OW23092   4.596   3.957   0.336  0.2820 -0.3805 -0.0380
 3819SOL    HW123093   4.665   4.018   0.310 -0.1837  0.2657  0.2569
 3819SOL    HW223094   4.566   3.998   0.417  0.2028  0.9275 -0.7370
 3820SOL     OW23095   2.225   1.775   7.518 -0.5520 -0.0818 -0.3150
 3820SOL    HW123096   2.307   1.804   7.478 -0.1211 -0.8404  0.0077
 3820SOL    HW223097   2.227   1.800   7.611 -0.8163 -0.4614 -0.2035
 3821SOL     OW23098   3.757   1.664   7.912  0.3718 -0.1409 -0.5703
 3821SOL    HW123099   3.684   1.706   7.866 -1.6377 -1.2112  1.6332
 3821SOL    HW223100   3.783   1.735   7.972 -0.0576  0.5716 -1.2264
 3822SOL     OW23101   4.346   2.218   8.098  0.3517 -0.5855 -0.6931
 3822SOL    HW123102   4.372   2.270   8.174 -3.2006 -0.4790  0.4077
 3822SOL    HW223103   4.426   2.166   8.096 -0.0532 -1.2504  0.6792
 3823SOL     OW23104   0.658   2.814   7.768  0.6991  0.4011 -0.5160
 3823SOL    HW123105   0.646   2.863   7.850 -2.1558  2.7712 -2.3930
 3823SOL    HW223106   0.570   2.790   7.741  1.1097 -0.6343 -0.9305
 3824SOL     OW23107   3.446   3.020  11.980  0.5852  0.0808  0.7836
 3824SOL    HW123108   3.519   2.973  12.019 -0.0179 -0.9320  0.6713
 3824SOL    HW223109   3.428   2.963  11.905 -1.0806  1.5737  0.0411
 3825SOL     OW23110   3.397   3.035   8.582 -0.2061  0.3449 -0.3714
 3825SOL    HW123111   3.317   2.985   8.596  0.3544  0.5425  3.5359
 3825SOL    HW223112   3.466   2.969   8.589 -0.0942  0.6037  0.9945
 3826SOL     OW23113   0.151   2.036   5.630  0.2066  0.1446 -0.6213
 3826SOL    HW123114   0.240   2.001   5.632  1.3124  3.0859  1.5830
 3826SOL    HW223115   0.127   2.042   5.722 -2.3538 -1.2861 -1.1880
 3827SOL     OW23116   3.253   1.844   8.354  0.0979  0.2835  0.5408
 3827SOL    HW123117   3.185   1.909   8.333 -1.8468 -1.2952  1.9931
 3827SOL    HW223118   3.199   1.798   8.418  0.0818 -1.2042 -0.5693
 3828SOL     OW23119   4.270   1.426   4.392 -0.0304 -0.7380 -0.3076
 3828SOL    HW123120   4.351   1.374   4.384  0.3606 -0.4227  1.5986
 3828SOL    HW223121   4.244   1.413   4.483  1.9118  1.4103  0.5520
 3829SOL     OW23122   2.771   3.819  12.048  0.3780  0.6807  0.7211
 3829SOL    HW123123   2.860   3.855  12.047  1.1604 -1.2236  1.5099
 3829SOL    HW223124   2.729   3.867  11.977 -1.2586  1.4549  2.1871
 3830SOL     OW23125   2.045   2.863   5.014 -0.6623  0.1865  0.7462
 3830SOL    HW123126   1.973   2.810   4.979 -0.2968  0.5142 -0.4780
 3830SOL    HW223127   2.095   2.860   4.933 -2.5591 -0.0603 -0.4139
 3831SOL     OW23128   3.674   0.192   6.201 -0.1111  0.3060 -0.1178
 3831SOL    HW123129   3.648   0.220   6.289  2.8499  2.3304  0.1232
 3831SOL    HW223130   3.633   0.106   6.195 -1.2871  0.7965  0.7893
 3832SOL     OW23131   0.232   1.759  16.242  0.3475  0.0518 -0.4831
 3832SOL    HW123132   0.263   1.834  16.193  2.2940  0.8162  1.9160
 3832SOL    HW223133   0.153   1.796  16.282  0.2564 -0.9859  0.3106
 3833SOL     OW23134   1.583   2.358   6.103 -0.0404  0.5096  0.3317
 3833SOL    HW123135   1.575   2.409   6.023  1.9960  1.4039  0.7064
 3833SOL    HW223136   1.619   2.283   6.057  0.4149  0.4110  0.8430
 3834SOL     OW23137   1.919   2.346   6.735 -0.0236  0.1599 -0.1904
 3834SOL    HW123138   1.881   2.382   6.655 -0.1783  1.3270  0.4049
 3834SOL    HW223139   1.883   2.415   6.792 -0.6394 -0.9070  0.7094
 3835SOL     OW23140   1.585   1.645   5.459 -0.5122  0.2487  0.7393
 3835SOL    HW123141   1.540   1.659   5.376  1.0056 -2.9931 -0.6154
 3835SOL    HW223142   1.513   1.660   5.520 -0.8652 -1.0028  0.6460
 3836SOL     OW23143   0.974   0.882  11.810 -0.2157 -0.6987  0.1795
 3836SOL    HW123144   0.950   0.974  11.814 -0.0266 -0.6730  0.7106
 3836SOL    HW223145   1.004   0.866  11.720 -2.2171  0.8598 -0.7604
 3837SOL     OW23146   1.417   1.393   5.149  0.1019  0.1310  0.5455
 3837SOL    HW123147   1.352   1.343   5.100  1.4251 -2.1524  1.0976
 3837SOL    HW223148   1.495   1.337   5.147  1.4481  2.0161  0.3090
 3838SOL     OW23149   3.276   0.562   5.173 -0.1960  0.3748 -0.0490
 3838SOL    HW123150   3.266   0.552   5.268 -0.2503  1.9284  0.1197
 3838SOL    HW223151   3.185   0.542   5.152  0.3164 -1.1638 -0.8067
 3839SOL     OW23152   3.299   1.643   8.133  0.0697  0.3690  0.0788
 3839SOL    HW123153   3.230   1.701   8.167 -1.6596 -1.3246 -0.5767
 3839SOL    HW223154   3.258   1.565   8.171 -2.1195  1.7183  0.4964
 3840SOL     OW23155   0.391   4.685   0.685  0.6194 -0.2296 -0.7056
 3840SOL    HW123156   0.369   4.595   0.710 -0.1974  0.2620  0.3334
 3840SOL    HW223157   0.349   4.684   0.599 -0.9803 -1.3015  0.0909
 3841SOL     OW23158   3.503   0.297   6.872  0.1314  0.1091  0.2378
 3841SOL    HW123159   3.557   0.360   6.920 -0.9071  2.1417 -1.2655
 3841SOL    HW223160   3.553   0.216   6.876 -1.1298 -0.7740 -1.6471
 3842SOL     OW23161   0.173   0.819   6.394  0.0140 -0.1569  0.4798
 3842SOL    HW123162   0.164   0.870   6.475  1.4298  1.3100 -0.2718
 3842SOL    HW223163   0.258   0.842   6.357  0.5580 -2.0106  0.5940
 3843SOL     OW23164   2.926   4.177   6.169  0.3085  0.0300  0.2439
 3843SOL    HW123165   2.897   4.133   6.249 -1.0232 -2.9704 -1.9059
 3843SOL    HW223166   3.014   4.142   6.177  0.2383  0.2197  1.9386
 3844SOL     OW23167   3.638   3.679  15.189  0.0415 -0.1787 -0.4478
 3844SOL    HW123168   3.707   3.613  15.197  0.0815 -0.0623  0.2023
 3844SOL    HW223169   3.697   3.748  15.158  1.1826 -0.6928  0.5697
 3845SOL     OW23170   4.443   4.204   8.014 -0.1526  0.1307  0.2341
 3845SOL    HW123171   4.513   4.202   8.079  0.2049  2.0483 -0.0974
 3845SOL    HW223172   4.500   4.192   7.938  0.0692 -2.9470  0.8757
 3846SOL     OW23173   0.595   3.455  13.595 -0.1308  0.6017 -0.6851
 3846SOL    HW123174   0.598   3.543  13.557 -1.4882  1.3553  0.9739
 3846SOL    HW223175   0.639   3.403  13.527 -2.4138 -1.7195 -0.3812
 3847SOL     OW23176   1.669   3.032   8.853  0.0915  0.0536  0.2256
 3847SOL    HW123177   1.746   3.086   8.869  1.1170 -1.1093 -0.8611
 3847SOL    HW223178   1.669   3.016   8.759 -1.3889  0.0083  0.2254
 3848SOL     OW23179   2.342   4.427  16.346  0.9287 -0.1229 -0.0700
 3848SOL    HW123180   2.272   4.363  16.335  0.5095  0.0432  1.6489
 3848SOL    HW223181   2.291   4.507  16.342  0.6673 -0.3251 -0.6855
 3849SOL     OW23182   4.450   2.742  15.511  0.1629  0.0850 -0.3349
 3849SOL    HW123183   4.531   2.734  15.562 -0.1743  3.4274  0.7315
 3849SOL    HW223184   4.479   2.773  15.426  1.1701  1.5033  0.5110
 3850SOL     OW23185   4.543   3.373   8.954  0.7310  0.2606  0.5117
 3850SOL    HW123186   4.625   3.401   8.995  1.0382  1.0631 -0.6519
 3850SOL    HW223187   4.576   3.380   8.864  0.0518 -0.0636  0.2362
 3851SOL     OW23188   2.304   3.038   6.248  0.0121 -0.1273  0.2009
 3851SOL    HW123189   2.333   2.950   6.225  0.7779  1.1811 -3.8617
 3851SOL    HW223190   2.345   3.097   6.185  0.2865  0.4869  0.9526
 3852SOL     OW23191   2.135   2.287   3.556 -0.0196  0.7739 -0.1617
 3852SOL    HW123192   2.159   2.282   3.463  1.5583 -0.6781  0.3147
 3852SOL    HW223193   2.205   2.253   3.611  0.7149  1.1965 -0.8319
 3853SOL     OW23194   3.882   0.073   6.365 -0.4235 -0.1461  0.0631
 3853SOL    HW123195   3.835   0.122   6.298  0.8746  0.9984 -0.0186
 3853SOL    HW223196   3.970   0.109   6.355  0.0569 -0.9204  1.4315
 3854SOL     OW23197   2.667   3.368   5.194  0.2190  0.1832 -0.4835
 3854SOL    HW123198   2.760   3.350   5.211  0.0396 -0.2646  0.0180
 3854SOL    HW223199   2.630   3.283   5.170  1.1479 -0.0673 -1.0521
 3855SOL     OW23200   3.122   4.127   0.850  0.4684 -0.5959  0.0144
 3855SOL    HW123201   3.094   4.219   0.855 -0.8811 -1.1431  2.5636
 3855SOL    HW223202   3.042   4.088   0.885  0.9571 -0.0618  1.7179
 3856SOL     OW23203   1.290   4.220  17.071 -0.1227  0.4919  0.2295
 3856SOL    HW123204   1.299   4.223  17.167 -2.5689  0.0592  0.4836
 3856SOL    HW223205   1.379   4.215  17.036 -0.6615 -0.1955 -1.0060
 3857SOL     OW23206   3.156   1.488   8.317  0.3734  0.2466 -0.0897
 3857SOL    HW123207   3.162   1.546   8.393  0.0617  1.7130 -1.1995
 3857SOL    HW223208   3.173   1.407   8.365  0.7485  0.4074  0.0468
 3858SOL     OW23209   0.857   0.283   8.747  0.1567 -0.0491  0.4069
 3858SOL    HW123210   0.911   0.239   8.682 -0.5513  0.5753 -0.6134
 3858SOL    HW223211   0.797   0.214   8.773 -1.1207  0.3127 -1.5392
 3859SOL     OW23212   0.858   2.235  15.051 -0.2027  0.2836 -0.3191
 3859SOL    HW123213   0.933   2.246  15.109  0.1661  0.4576 -0.8258
 3859SOL    HW223214   0.808   2.184  15.115 -2.8294  3.6295  0.3363
 3860SOL     OW23215   2.040   2.307   3.961 -0.3458  0.3635 -0.0396
 3860SOL    HW123216   2.038   2.387   4.014  1.6183 -0.0701  0.6899
 3860SOL    HW223217   1.986   2.328   3.885  2.0148  2.9210 -0.9652
 3861SOL     OW23218   3.168   4.010   3.732 -0.1194  0.0768 -0.1771
 3861SOL    HW123219   3.106   3.990   3.661  0.2877  1.6818 -1.0054
 3861SOL    HW223220   3.144   4.098   3.761  0.7032 -0.0197  0.8018
 3862SOL     OW23221   2.587   3.664  13.503  0.1460  0.2560 -0.3341
 3862SOL    HW123222   2.637   3.642  13.424 -0.0996  0.6485 -0.6004
 3862SOL    HW223223   2.645   3.628  13.569 -1.2609  0.9928  1.3021
 3863SOL     OW23224   4.206   2.246  16.524 -0.1210 -0.1084 -0.0818
 3863SOL    HW123225   4.122   2.291  16.530  1.5739  3.1547 -0.9835
 3863SOL    HW223226   4.197   2.176  16.588 -0.3347 -0.5434 -0.5834
 3864SOL     OW23227   2.409   3.025   3.904 -0.3648 -0.0823  0.4530
 3864SOL    HW123228   2.453   3.009   3.821 -0.9884  1.9891 -0.2681
 3864SOL    HW223229   2.483   3.063   3.950  1.1088 -2.7905  0.3539
 3865SOL     OW23230   2.000   1.021   7.817 -0.3409  0.1983 -0.6915
 3865SOL    HW123231   2.035   0.940   7.779 -1.0171  0.8440 -2.6925
 3865SOL    HW223232   1.989   1.064   7.732 -0.0348 -0.0778 -0.8730
 3866SOL     OW23233   2.426   1.269   2.569  0.2561 -0.0261  0.1518
 3866SOL    HW123234   2.342   1.248   2.527  0.0177 -0.2083  0.7147
 3866SOL    HW223235   2.394   1.298   2.655 -1.0447 -3.0871  0.7042
 3867SOL     OW23236   4.356   0.786   3.018  0.0540 -0.5505  0.1320
 3867SOL    HW123237   4.371   0.863   2.963 -1.1038 -1.2571 -1.1860
 3867SOL    HW223238   4.391   0.817   3.101 -0.5107 -2.1968  0.9770
 3868SOL     OW23239   4.085   1.820  15.351 -0.2155 -0.4896  0.4745
 3868SOL    HW123240   4.074   1.769  15.431 -1.1778 -0.4856  0.3482
 3868SOL    HW223241   4.175   1.796  15.333 -0.4917 -1.2816  0.1514
 3869SOL     OW23242   4.608   1.122   7.490  0.3154 -0.4393 -0.7434
 3869SOL    HW123243   4.622   1.118   7.584  0.3067  1.5642 -0.6544
 3869SOL    HW223244   4.633   1.211   7.463 -0.6999  0.0619 -0.0050
 3870SOL     OW23245   4.516   2.021   1.054 -0.3165 -0.6032 -0.0763
 3870SOL    HW123246   4.501   1.984   1.142 -0.9227  0.9211  0.4538
 3870SOL    HW223247   4.524   2.114   1.074  1.0984 -0.2484 -2.3176
 3871SOL     OW23248   0.062   0.717   2.734 -0.3554  0.4206  0.5371
 3871SOL    HW123249   0.050   0.775   2.659 -0.1008  0.2848  0.3894
 3871SOL    HW223250   4.717   0.698   2.773 -0.3228  1.9003  1.3121
 3872SOL     OW23251   1.472   3.484   3.248  0.3679  0.1260 -0.2409
 3872SOL    HW123252   1.379   3.486   3.270  0.2652  0.8120 -0.7298
 3872SOL    HW223253   1.463   3.473   3.153  3.8929  1.9534 -0.7684
 3873SOL     OW23254   4.272   3.574   8.022  0.6907 -0.5532  0.4270
 3873SOL    HW123255   4.324   3.584   8.102 -0.0933 -1.8619  1.1089
 3873SOL    HW223256   4.287   3.481   8.004  0.1819 -0.7890  1.1971
 3874SOL     OW23257   3.202   0.571   3.222  0.3826  0.3371  0.4465
 3874SOL    HW123258   3.208   0.665   3.235 -2.1451  0.6213 -0.4066
 3874SOL    HW223259   3.231   0.555   3.312  1.9075  0.5779 -0.0063
 3875SOL     OW23260   3.935   2.396  14.603  0.2935 -0.8969 -0.7828
 3875SOL    HW123261   4.024   2.366  14.622  0.2601 -1.1515 -1.0266
 3875SOL    HW223262   3.911   2.433  14.688 -2.1675  0.0529 -1.8762
 3876SOL     OW23263   1.466   1.876   9.568  0.2532  0.1485 -0.1232
 3876SOL    HW123264   1.417   1.844   9.492 -2.3225  1.4921  0.9494
 3876SOL    HW223265   1.551   1.891   9.527 -0.1973  1.3840 -0.6271
 3877SOL     OW23266   1.551   4.342   6.624  0.2601  0.1532  0.6008
 3877SOL    HW123267   1.540   4.379   6.537  0.2711  1.1179  1.0078
 3877SOL    HW223268   1.502   4.260   6.615  0.7355 -0.1263  0.5441
 3878SOL     OW23269   1.307   2.443   7.843 -0.6317  0.0653 -0.4664
 3878SOL    HW123270   1.264   2.357   7.847  1.1669 -0.9216 -2.3146
 3878SOL    HW223271   1.274   2.475   7.759  1.2015 -1.1242 -1.6355
 3879SOL     OW23272   0.323   1.033  14.580  0.1750  0.0170  0.2664
 3879SOL    HW123273   0.258   0.983  14.629  0.1067  1.0049  1.2041
 3879SOL    HW223274   0.385   0.970  14.544 -2.1329 -1.2296 -1.5063
 3880SOL     OW23275   3.265   2.366   8.423 -0.2589 -0.9695 -0.2661
 3880SOL    HW123276   3.216   2.390   8.344 -0.8591 -1.2234  0.0300
 3880SOL    HW223277   3.190   2.329   8.470 -1.7717  2.2019 -0.2018
 3881SOL     OW23278   1.934   2.237   9.323 -0.0123 -0.2238 -0.0757
 3881SOL    HW123279   1.996   2.307   9.305  1.2135 -1.4372 -0.5682
 3881SOL    HW223280   1.857   2.283   9.292 -0.2883 -1.4038 -1.1551
 3882SOL     OW23281   4.124   3.394  15.229 -0.0465 -0.3692  0.0902
 3882SOL    HW123282   4.178   3.334  15.177  0.1278 -0.9475  0.9289
 3882SOL    HW223283   4.189   3.439  15.283  0.7849 -1.5998  0.1394
 3883SOL     OW23284   4.147   4.259   0.534 -0.0725  0.1785  0.0005
 3883SOL    HW123285   4.127   4.257   0.628  1.0113 -0.1764  0.2240
 3883SOL    HW223286   4.081   4.197   0.504 -1.1901  0.5601  1.6894
 3884SOL     OW23287   3.351   4.559   3.486  0.5323 -0.0956  0.2894
 3884SOL    HW123288   3.284   4.500   3.520  0.9621 -0.9468 -0.3593
 3884SOL    HW223289   3.340   4.637   3.542  0.5493 -0.2830  0.5546
 3885SOL     OW23290   2.330   0.031   0.662  0.0775  0.5901  0.2559
 3885SOL    HW123291   2.293   0.025   0.573  0.3538  0.9758  0.1137
 3885SOL    HW223292   2.338   4.677   0.681 -2.4625  0.3651  0.2598
 3886SOL     OW23293   3.543   0.722   4.773 -0.3297  0.6704  0.1593
 3886SOL    HW123294   3.598   0.649   4.744 -3.1460 -1.0914 -0.7694
 3886SOL    HW223295   3.610   0.789   4.788 -1.2721  1.3181  1.4573
 3887SOL     OW23296   3.813   0.982   5.547 -0.0661  0.0797  0.9516
 3887SOL    HW123297   3.908   0.978   5.536 -0.1008 -3.5306  1.9659
 3887SOL    HW223298   3.805   0.899   5.593 -1.1861  0.1267  0.8286
 3888SOL     OW23299   3.648   0.827   4.119  0.5898 -0.1308 -0.2706
 3888SOL    HW123300   3.681   0.779   4.195 -1.1786  0.2253  0.7164
 3888SOL    HW223301   3.714   0.896   4.108 -0.9289  0.9432 -2.6897
 3889SOL     OW23302   4.352   0.717  13.562 -0.2403 -0.3528  0.1597
 3889SOL    HW123303   4.312   0.631  13.558  0.3795 -0.6253 -0.1753
 3889SOL    HW223304   4.424   0.713  13.498 -0.1669  1.8871  0.0957
 3890SOL     OW23305   3.353   3.614   2.333  0.2834 -0.7946 -0.1207
 3890SOL    HW123306   3.411   3.688   2.316 -1.9144  0.8099 -0.5539
 3890SOL    HW223307   3.370   3.580   2.245  0.9891 -1.4075  0.2502
 3891SOL     OW23308   0.591   3.013   6.592  0.1349  0.1121  0.0863
 3891SOL    HW123309   0.502   2.997   6.622  0.6621 -1.8494  0.6027
 3891SOL    HW223310   0.570   3.044   6.505  3.1977 -0.9496 -1.0429
 3892SOL     OW23311   2.602   0.379   6.786 -0.0099 -0.1468 -0.3712
 3892SOL    HW123312   2.616   0.403   6.877  0.4022  0.9482 -0.7218
 3892SOL    HW223313   2.673   0.418   6.735  0.7483 -2.0672 -0.7611
 3893SOL     OW23314   3.595   2.251   4.985 -0.2133  0.0046  0.1778
 3893SOL    HW123315   3.533   2.305   5.033 -2.1659 -2.1713  0.0891
 3893SOL    HW223316   3.586   2.277   4.893  1.6233 -0.3270 -0.0944
 3894SOL     OW23317   3.541   3.121   6.603 -0.4231  0.0990 -0.6388
 3894SOL    HW123318   3.570   3.089   6.689  0.5137  1.4387 -0.4556
 3894SOL    HW223319   3.571   3.054   6.542  1.8308  0.4577  0.0761
 3895SOL     OW23320   2.765   4.529   1.457  0.1354  0.3164  0.5745
 3895SOL    HW123321   2.779   4.438   1.485 -1.8275 -0.0315  0.4718
 3895SOL    HW223322   2.822   4.567   1.524  1.5369 -2.0569  0.7216
 3896SOL     OW23323   0.804   3.331  14.823 -0.0131  0.1999 -0.2948
 3896SOL    HW123324   0.869   3.399  14.806 -1.1805  1.1244 -1.1111
 3896SOL    HW223325   0.844   3.246  14.804  1.5110  0.9059 -0.2243
 3897SOL     OW23326   3.031   4.256  12.533  0.4262 -0.1631  0.1782
 3897SOL    HW123327   3.050   4.258  12.439 -0.6982 -3.1697 -0.1189
 3897SOL    HW223328   3.092   4.189  12.564 -4.3925 -3.7181  1.9295
 3898SOL     OW23329   0.891   3.672   1.530 -0.4468 -0.0051  0.6450
 3898SOL    HW123330   0.894   3.724   1.609 -0.3616 -0.8975  1.2336
 3898SOL    HW223331   0.949   3.706   1.462  0.8027 -0.1511  1.6393
 3899SOL     OW23332   4.309   0.998   5.180 -0.6611  0.6180  0.4918
 3899SOL    HW123333   4.366   1.074   5.173  0.9747 -0.5950  0.5666
 3899SOL    HW223334   4.294   0.984   5.086  0.2738  0.6199  0.3480
 3900SOL     OW23335   3.624   1.260   7.522  0.1786 -0.4220  0.4940
 3900SOL    HW123336   3.661   1.322   7.586 -0.0804 -0.5015  0.7249
 3900SOL    HW223337   3.532   1.276   7.543 -0.1589 -0.6323 -0.8740
 3901SOL     OW23338   1.560   3.359  16.364  0.1327  0.0111  0.4389
 3901SOL    HW123339   1.547   3.452  16.379 -0.8191 -0.0498 -0.0329
 3901SOL    HW223340   1.604   3.329  16.444 -1.0930  1.2433  1.5590
 3902SOL     OW23341   2.288   4.632   9.048 -0.3968 -0.1502  0.3234
 3902SOL    HW123342   2.216   4.678   9.092  1.0081  2.1535  0.1685
 3902SOL    HW223343   2.335   4.713   9.028 -0.3957 -0.1156  0.4661
 3903SOL     OW23344   3.948   0.514  16.020  0.6945  0.1794  0.3471
 3903SOL    HW123345   4.021   0.512  16.083 -0.3840 -0.7064  1.5709
 3903SOL    HW223346   3.945   0.605  15.991 -0.4213  0.3271  0.9258
 3904SOL     OW23347   4.336   2.441   5.721  0.1641  0.9830  0.2750
 3904SOL    HW123348   4.425   2.475   5.722  0.0916  1.1348  1.8095
 3904SOL    HW223349   4.289   2.521   5.744  1.7259  2.4036 -1.5140
 3905SOL     OW23350   2.970   1.117  13.131 -0.3435  0.1196  0.0184
 3905SOL    HW123351   2.990   1.091  13.221  0.6093  1.6166  0.2407
 3905SOL    HW223352   2.949   1.209  13.150  2.4926  0.7900 -0.0828
 3906SOL     OW23353   2.193   2.578   5.034 -0.1675  0.1904  0.2581
 3906SOL    HW123354   2.225   2.668   5.050 -0.5079  0.4139 -0.3389
 3906SOL    HW223355   2.245   2.532   5.099 -1.1715  1.9136  2.3152
 3907SOL     OW23356   4.454   3.654  15.931  0.2650  0.3705  0.1301
 3907SOL    HW123357   4.483   3.591  15.997  0.2514 -0.1333 -0.3386
 3907SOL    HW223358   4.517   3.722  15.954 -0.9646  1.2365  0.9125
 3908SOL     OW23359   3.639   0.906   8.269  0.4924 -0.0867 -0.1458
 3908SOL    HW123360   3.709   0.966   8.244 -1.5602  2.0510 -0.7459
 3908SOL    HW223361   3.682   0.851   8.334  2.5451 -2.0479 -3.1541
 3909SOL     OW23362   4.596   2.217  16.497 -0.4925  0.2601  0.1977
 3909SOL    HW123363   4.660   2.289  16.500 -2.6581  2.0972  1.7304
 3909SOL    HW223364   4.565   2.213  16.587 -0.7945  0.8279  0.1151
 3910SOL     OW23365   2.229   2.222   1.689 -0.3468  0.4271  0.6546
 3910SOL    HW123366   2.304   2.261   1.643 -0.3371 -0.7926 -0.3481
 3910SOL    HW223367   2.179   2.189   1.614  1.2074 -1.6056  0.5197
 3911SOL     OW23368   2.021   4.505  16.327  0.1529  0.0873 -0.2232
 3911SOL    HW123369   1.934   4.543  16.341 -0.1837 -1.0570  0.7821
 3911SOL    HW223370   2.080   4.579  16.340  0.0998  0.3759 -1.6409
 3912SOL     OW23371   4.559   1.803   4.684 -0.5118  0.4507 -0.3183
 3912SOL    HW123372   4.654   1.817   4.686 -0.6230  0.9199  2.3375
 3912SOL    HW223373   4.541   1.749   4.607 -0.7325  2.7362 -1.8620
 3913SOL     OW23374   2.004   0.793  13.134 -0.0784  0.5245  0.4902
 3913SOL    HW123375   2.019   0.712  13.184 -0.0779 -0.3203 -0.8676
 3913SOL    HW223376   1.978   0.846  13.209 -0.8388  1.3386 -0.3450
 3914SOL     OW23377   2.713   2.181   1.492  0.3802 -0.2774 -0.0862
 3914SOL    HW123378   2.703   2.275   1.510 -2.6709 -0.9962  2.0265
 3914SOL    HW223379   2.673   2.181   1.405  1.2088 -0.4450 -0.4696
 3915SOL     OW23380   3.586   2.443   9.283  0.0939  0.2561 -0.0123
 3915SOL    HW123381   3.490   2.443   9.277  0.0938  0.1636 -0.0138
 3915SOL    HW223382   3.596   2.538   9.290  0.2922  0.3016 -1.0358
 3916SOL     OW23383   3.303   0.814   4.625  0.0537 -1.0852 -0.6472
 3916SOL    HW123384   3.267   0.861   4.700 -0.8015 -0.0537 -1.7122
 3916SOL    HW223385   3.385   0.781   4.663  0.8180  0.9675 -0.5070
 3917SOL     OW23386   3.415   1.184   5.920  0.0322  0.2123  0.5755
 3917SOL    HW123387   3.360   1.150   5.849 -0.3686 -1.1204  1.5303
 3917SOL    HW223388   3.500   1.141   5.915 -0.3469 -0.5004  0.2811
 3918SOL     OW23389   3.378   3.786   4.338 -0.6481 -0.3822 -0.8802
 3918SOL    HW123390   3.337   3.839   4.270  0.1310  0.4335 -0.7103
 3918SOL    HW223391   3.298   3.741   4.367  0.0585  1.5502  4.1419
 3919SOL     OW23392   4.564   1.724   6.316 -0.2414  0.0589 -0.1889
 3919SOL    HW123393   4.501   1.791   6.343 -1.3024 -0.3183 -1.7073
 3919SOL    HW223394   4.569   1.735   6.221  0.7135  4.6680  0.3827
 3920SOL     OW23395   1.356   4.618  13.278  0.0954 -0.0798 -0.4412
 3920SOL    HW123396   1.283   4.675  13.304  0.3226 -0.6380  1.4563
 3920SOL    HW223397   1.418   4.689  13.261 -0.3823 -0.1769 -2.5572
 3921SOL     OW23398   2.448   4.120  17.221  0.1241  0.6815  0.3763
 3921SOL    HW123399   2.394   4.141  17.145 -0.3056 -2.1116 -0.0861
 3921SOL    HW223400   2.527   4.166  17.192  1.4001 -1.0237  1.1488
 3922SOL     OW23401   0.003   3.539   2.882  0.2789 -0.3561 -0.2601
 3922SOL    HW123402   4.662   3.586   2.860  1.5528  1.1310 -1.8067
 3922SOL    HW223403   0.032   3.588   2.959  0.2745  0.9418 -1.0881
 3923SOL     OW23404   4.331   3.596   5.928  0.1416 -0.0559  0.1675
 3923SOL    HW123405   4.320   3.629   6.017 -0.1101  3.4405 -1.1530
 3923SOL    HW223406   4.323   3.678   5.878 -0.3387 -0.2288 -0.0397
 3924SOL     OW23407   1.875   3.048   6.521  0.4738 -0.4207  0.3169
 3924SOL    HW123408   1.948   3.076   6.465  2.4825 -1.8780  2.2295
 3924SOL    HW223409   1.893   2.958   6.550 -0.3970 -1.7523 -3.1902
 3925SOL     OW23410   0.428   4.726   0.324  0.3130 -0.1914 -0.6463
 3925SOL    HW123411   0.483   4.698   0.251  1.4464  0.3269  0.0046
 3925SOL    HW223412   0.355   0.037   0.289  0.5570 -0.0728 -0.9802
 3926SOL     OW23413   3.310   1.857   0.818  0.0704  0.3832  0.0630
 3926SOL    HW123414   3.285   1.915   0.745 -0.2681 -0.7369 -0.7205
 3926SOL    HW223415   3.380   1.909   0.857  0.7773  1.0577 -2.0926
 3927SOL     OW23416   1.633   3.819  11.425  0.7132 -0.3433  0.9487
 3927SOL    HW123417   1.618   3.881  11.497 -1.1482  0.1493  0.1465
 3927SOL    HW223418   1.543   3.790  11.409 -0.5716  3.5500  1.1906
 3928SOL     OW23419   4.329   1.140   4.209 -0.0273  0.3852 -0.6062
 3928SOL    HW123420   4.381   1.106   4.136 -0.5419 -0.4721 -0.5675
 3928SOL    HW223421   4.400   1.177   4.262  2.2020 -0.3741 -3.0382
 3929SOL     OW23422   2.667   0.949   5.375  0.2288  0.2923  0.4897
 3929SOL    HW123423   2.599   0.885   5.355 -0.7001  1.3647  0.2146
 3929SOL    HW223424   2.668   0.929   5.469 -0.5299  0.2398  0.4885
 3930SOL     OW23425   0.948   1.592   2.008 -0.9907  0.5830  1.0155
 3930SOL    HW123426   0.973   1.676   1.970 -2.8067  1.3627  1.5685
 3930SOL    HW223427   0.893   1.555   1.939 -0.0124 -2.3199  1.7487
 3931SOL     OW23428   4.603   0.058  13.156 -0.0447  0.5086 -0.1972
 3931SOL    HW123429   4.651   4.715  13.152  0.4222  0.6401  3.3929
 3931SOL    HW223430   4.512   0.028  13.157 -0.3561  1.4651  0.2126
 3932SOL     OW23431   4.283   3.427   2.898  0.1784  0.0736  0.1511
 3932SOL    HW123432   4.196   3.410   2.932  0.5261 -3.0580 -0.5683
 3932SOL    HW223433   4.317   3.345   2.862  0.8964 -0.4128  1.9222
 3933SOL     OW23434   1.843   3.413   8.782 -0.4072 -0.3542  0.5009
 3933SOL    HW123435   1.797   3.341   8.738 -0.6020  0.6172 -0.8879
 3933SOL    HW223436   1.777   3.480   8.764  0.5047  0.2517 -0.5941
 3934SOL     OW23437   3.529   2.457  14.655  0.4735 -0.2859  0.1828
 3934SOL    HW123438   3.440   2.488  14.673  0.0173 -3.1181  2.8361
 3934SOL    HW223439   3.558   2.532  14.603  0.0395  0.3575  0.8697
 3935SOL     OW23440   3.374   4.734   2.475  0.4282  0.3939  0.4892
 3935SOL    HW123441   3.407   0.063   2.534  0.3037  2.0727 -1.4025
 3935SOL    HW223442   3.337   4.676   2.542  1.5640 -0.0029  0.7754
 3936SOL     OW23443   1.963   3.693  11.115  0.6499 -0.4074  0.1473
 3936SOL    HW123444   1.994   3.662  11.031 -1.9433 -2.2155 -0.1390
 3936SOL    HW223445   1.871   3.666  11.122  0.3305  0.8213  0.7883
 3937SOL     OW23446   3.247   4.048  11.817 -0.5306  0.5447 -0.1860
 3937SOL    HW123447   3.200   4.054  11.734  0.2266 -0.8375 -0.7188
 3937SOL    HW223448   3.329   4.038  11.770 -0.8313  1.3808 -0.8786
 3938SOL     OW23449   1.298   2.313   3.872 -0.3548  0.1090 -0.0078
 3938SOL    HW123450   1.231   2.271   3.925  0.0815 -0.8559 -0.2184
 3938SOL    HW223451   1.302   2.256   3.795  0.3136  0.9969 -0.6363
 3939SOL     OW23452   4.523   2.180  13.543 -0.4898  0.6140  0.3150
 3939SOL    HW123453   4.508   2.088  13.565 -0.1938  0.4851 -0.0338
 3939SOL    HW223454   4.596   2.181  13.481 -0.6963 -0.5734  0.0503
 3940SOL     OW23455   1.364   0.884  14.433  0.5431 -0.2753  0.5054
 3940SOL    HW123456   1.427   0.823  14.471  0.2679 -1.4199 -0.8711
 3940SOL    HW223457   1.301   0.815  14.411 -1.6743  1.3646  1.6625
 3941SOL     OW23458   4.240   3.801   2.216  0.0703 -0.3628 -0.3301
 3941SOL    HW123459   4.262   3.894   2.206  1.1792 -0.4641  1.1091
 3941SOL    HW223460   4.325   3.762   2.194 -0.2582  0.0312 -2.2180
 3942SOL     OW23461   2.415   2.031   5.442 -0.0550  0.0406 -0.1914
 3942SOL    HW123462   2.375   2.063   5.523 -1.9513 -0.0142 -1.0985
 3942SOL    HW223463   2.370   1.949   5.420 -0.7046  0.3404  0.0050
 3943SOL     OW23464   2.105   0.789  10.924  0.0223  0.3275  0.0194
 3943SOL    HW123465   2.138   0.879  10.921 -0.5391  0.5892  2.2929
 3943SOL    HW223466   2.082   0.777  11.016 -1.2601  1.3428 -0.1706
 3944SOL     OW23467   2.118   0.892   3.722 -0.0535 -0.8515 -0.4490
 3944SOL    HW123468   2.158   0.910   3.807 -0.5947 -3.0878  0.2748
 3944SOL    HW223469   2.036   0.937   3.742  0.3222  0.1366 -1.1070
 3945SOL     OW23470   3.294   4.474   7.145  0.3953 -0.3929  0.3061
 3945SOL    HW123471   3.322   4.438   7.229  0.2687  2.0370  1.3791
 3945SOL    HW223472   3.244   4.551   7.170  0.5047 -0.8650  1.9556
 3946SOL     OW23473   1.348   1.449   3.104 -0.1802  0.0465  0.2671
 3946SOL    HW123474   1.305   1.371   3.138  0.6571  0.4087  2.1295
 3946SOL    HW223475   1.415   1.419   3.043 -0.5479  1.7200 -0.9693
 3947SOL     OW23476   0.998   1.984   2.111  0.8271  0.7444 -0.2247
 3947SOL    HW123477   1.053   1.944   2.043  1.6099  1.4659 -0.0174
 3947SOL    HW223478   0.962   2.057   2.061 -1.4450 -0.1119  0.1705
 3948SOL     OW23479   2.486   1.493   4.196  0.3643  0.0238 -0.0081
 3948SOL    HW123480   2.558   1.555   4.184  0.8927 -0.0234  2.9048
 3948SOL    HW223481   2.446   1.532   4.274  1.4772 -2.3713  1.7466
 3949SOL     OW23482   0.627   3.833   9.745  0.0267 -0.3543 -0.1272
 3949SOL    HW123483   0.691   3.829   9.674  1.5175 -0.0568  1.1951
 3949SOL    HW223484   0.589   3.745   9.746 -0.4552 -0.1422  0.3636
 3950SOL     OW23485   4.551   1.803   5.358  0.5932  0.0346  0.0166
 3950SOL    HW123486   4.624   1.865   5.362  0.5501  0.2689 -2.8507
 3950SOL    HW223487   4.596   1.721   5.379 -0.1171  0.0277  1.5404
 3951SOL     OW23488   1.053   1.001   8.782 -0.1358 -0.2181  0.0714
 3951SOL    HW123489   1.099   0.939   8.839 -2.2870  0.1058  2.1258
 3951SOL    HW223490   1.049   1.077   8.839 -2.0630 -0.4232  0.1910
 3952SOL     OW23491   4.263   0.565  14.417 -0.8892 -0.2064 -0.2683
 3952SOL    HW123492   4.271   0.510  14.495 -0.2704 -0.0067 -0.1840
 3952SOL    HW223493   4.173   0.553  14.388 -0.6115  0.3381 -1.3783
 3953SOL     OW23494   2.111   0.380   6.048 -0.3184  0.0814 -0.3977
 3953SOL    HW123495   2.141   0.360   6.137  2.5542 -1.9975 -1.8067
 3953SOL    HW223496   2.039   0.320   6.028 -1.3705  0.5148  2.0593
 3954SOL     OW23497   4.275   0.416  11.174  0.0146  0.1761  0.4031
 3954SOL    HW123498   4.225   0.434  11.253 -0.9564 -0.5354 -0.0582
 3954SOL    HW223499   4.360   0.416  11.218 -0.2153 -0.8511  0.8273
 3955SOL     OW23500   0.336   3.489   8.986  0.2363 -0.7425  0.0074
 3955SOL    HW123501   0.297   3.442   8.912 -2.2286 -0.0220  0.8649
 3955SOL    HW223502   0.431   3.481   8.975  0.2358  1.2099 -1.4371
 3956SOL     OW23503   4.146   4.645   4.438  0.3986  0.1567 -0.4648
 3956SOL    HW123504   4.172   4.557   4.411  1.1158  0.1668  0.1985
 3956SOL    HW223505   4.062   4.628   4.480  1.4710  2.6772  2.6942
 3957SOL     OW23506   1.439   0.688   3.640 -0.1218 -0.4523 -0.4433
 3957SOL    HW123507   1.529   0.720   3.645  0.5892 -2.1964 -2.1945
 3957SOL    HW223508   1.395   0.754   3.587  0.3158  0.2267  0.0540
 3958SOL     OW23509   2.375   3.843   3.086 -0.6163 -0.0608  0.0161
 3958SOL    HW123510   2.368   3.909   3.018 -0.6396 -0.0936 -0.0132
 3958SOL    HW223511   2.454   3.873   3.131  0.5263 -2.9453 -0.0600
 3959SOL     OW23512   2.769   3.310  15.432  0.1123 -0.5215 -1.0910
 3959SOL    HW123513   2.838   3.363  15.391  1.1622 -2.0913 -1.3565
 3959SOL    HW223514   2.801   3.301  15.522  0.6555 -1.5782 -1.3928
 3960SOL     OW23515   1.215   2.062  10.951 -0.4817 -0.5460 -0.2116
 3960SOL    HW123516   1.253   2.006  10.884  0.1696 -1.7752  1.1887
 3960SOL    HW223517   1.133   2.090  10.910 -1.2477  1.2377  2.5290
 3961SOL     OW23518   1.604   3.204   0.001 -0.1989 -0.0217 -0.1539
 3961SOL    HW123519   1.674   3.185  17.694 -1.7020 -0.0436 -1.8524
 3961SOL    HW223520   1.646   3.274   0.050  0.7752 -0.0670 -0.9243
 3962SOL     OW23521   1.322   1.401   7.326  0.3055 -0.0012 -0.1364
 3962SOL    HW123522   1.274   1.484   7.333  0.5813  0.1211  0.2879
 3962SOL    HW223523   1.400   1.418   7.379 -0.2400  1.9485  0.0625
 3963SOL     OW23524   3.540   3.116   8.347 -0.1989 -0.0978 -0.5806
 3963SOL    HW123525   3.483   3.103   8.422 -2.6001 -1.8441 -2.6941
 3963SOL    HW223526   3.611   3.161   8.391 -1.2096  0.5829  0.3612
 3964SOL     OW23527   3.122   0.886   7.601  0.0865  0.2695 -0.2787
 3964SOL    HW123528   3.105   0.792   7.595 -0.9566  0.5837 -2.2377
 3964SOL    HW223529   3.134   0.902   7.507 -2.2107  2.2505 -0.2204
 3965SOL     OW23530   0.053   3.928  16.901  0.5124  0.0512 -0.3137
 3965SOL    HW123531   0.050   4.018  16.870  2.8097  0.7024  1.3633
 3965SOL    HW223532   4.721   3.931  16.964  1.5551  1.0678  0.8282
 3966SOL     OW23533   3.431   4.573   4.766 -0.1027 -0.3766 -0.8001
 3966SOL    HW123534   3.378   4.642   4.806  0.1561 -1.5325  1.5176
 3966SOL    HW223535   3.511   4.581   4.817 -1.5370 -0.1298  1.3883
 3967SOL     OW23536   4.355   4.406  10.693 -0.1429 -0.6318  0.4853
 3967SOL    HW123537   4.389   4.334  10.641  1.1878 -0.4686  1.1268
 3967SOL    HW223538   4.360   4.475  10.627  1.6511  1.1222  2.4272
 3968SOL     OW23539   4.341   4.165   5.866 -0.1244 -0.0952 -0.5068
 3968SOL    HW123540   4.415   4.158   5.805  0.5058  1.0095  0.1424
 3968SOL    HW223541   4.311   4.255   5.859  0.5438  0.1719  0.0547
 3969SOL     OW23542   0.692   3.544   3.767 -0.3222 -0.2918  0.2986
 3969SOL    HW123543   0.769   3.594   3.740 -0.8840 -0.7323 -2.1206
 3969SOL    HW223544   0.736   3.464   3.797  0.8055  0.3380  0.3123
 3970SOL     OW23545   4.705   4.414  11.460 -0.3441 -0.9611  0.1490
 3970SOL    HW123546   0.027   4.457  11.400 -0.7557 -1.3705 -0.5635
 3970SOL    HW223547   4.680   4.340  11.405 -0.5422  0.2284 -1.3644
 3971SOL     OW23548   3.688   1.981   5.089 -0.2814 -0.5123 -0.2118
 3971SOL    HW123549   3.643   2.053   5.046  0.8379  0.1763 -0.2252
 3971SOL    HW223550   3.739   2.017   5.161  0.6074  0.3380 -1.2636
 3972SOL     OW23551   2.146   1.142   1.187  0.4607  0.1381  0.3917
 3972SOL    HW123552   2.095   1.215   1.224  0.4143  0.3834 -0.1687
 3972SOL    HW223553   2.088   1.122   1.113 -0.5292  3.4449  0.2969
 3973SOL     OW23554   2.050   1.915  10.174 -0.3173 -0.1066  0.1378
 3973SOL    HW123555   2.098   1.871  10.104  0.0118  0.0758  0.2485
 3973SOL    HW223556   1.977   1.853  10.183  0.0562 -0.5855 -0.1070
 3974SOL     OW23557   1.101   2.853   8.104  0.0573 -0.2244  0.2772
 3974SOL    HW123558   1.053   2.805   8.037 -0.9141  2.8763 -1.2169
 3974SOL    HW223559   1.034   2.853   8.173 -0.8341  0.4617 -0.5964
 3975SOL     OW23560   3.344   1.137   1.301 -0.3900  0.2802 -0.3883
 3975SOL    HW123561   3.428   1.116   1.260  0.1242  1.4199  0.0825
 3975SOL    HW223562   3.363   1.103   1.388 -0.1111 -0.7668 -0.8574
 3976SOL     OW23563   1.569   0.159   3.740 -0.7089 -0.4802  0.7328
 3976SOL    HW123564   1.597   0.160   3.831 -1.1348 -2.1194  0.8832
 3976SOL    HW223565   1.543   0.251   3.731  0.2103 -0.1932  0.9504
 3977SOL     OW23566   4.568   1.157  16.526 -0.8090  0.0914 -0.0362
 3977SOL    HW123567   4.495   1.150  16.588 -0.9515  1.1242 -0.0927
 3977SOL    HW223568   4.641   1.125  16.579  0.2902  1.4914 -0.7294
 3978SOL     OW23569   0.457   1.419   4.772  0.0881  0.1010 -0.2024
 3978SOL    HW123570   0.469   1.345   4.713 -1.7799  1.1304 -1.8710
 3978SOL    HW223571   0.380   1.458   4.730  0.8261  1.7492 -0.0549
 3979SOL     OW23572   2.140   0.122   7.540  0.0759 -0.0273  0.1489
 3979SOL    HW123573   2.084   0.135   7.463  0.3775  0.2402 -0.0270
 3979SOL    HW223574   2.187   0.205   7.541 -1.8428  1.0959 -1.7315
 3980SOL     OW23575   3.556   0.015  17.690 -0.7763 -0.5329 -0.2196
 3980SOL    HW123576   3.512   0.100  17.697 -0.9075 -0.6312  0.1620
 3980SOL    HW223577   3.641   0.052  17.665 -0.3595  1.1301  3.5780
 3981SOL     OW23578   4.377   2.467  16.595  0.8783 -0.0069 -0.0184
 3981SOL    HW123579   4.338   2.460  16.682 -0.8982 -2.0561 -0.9831
 3981SOL    HW223580   4.325   2.402  16.548 -0.9186 -0.0172  1.9754
 3982SOL     OW23581   2.599   1.354   8.726 -0.2498  0.7124 -0.0628
 3982SOL    HW123582   2.620   1.311   8.809 -0.0613 -1.5703 -1.2819
 3982SOL    HW223583   2.531   1.292   8.700  0.0105  0.0077  0.9038
 3983SOL     OW23584   3.473   0.351   4.879 -0.2031  0.3036 -0.1492
 3983SOL    HW123585   3.464   0.409   4.955  0.8142 -0.8074  0.8195
 3983SOL    HW223586   3.389   0.360   4.836  0.4140  0.8795 -1.2468
 3984SOL     OW23587   3.467   1.644  11.878  0.0092  0.2113 -0.5170
 3984SOL    HW123588   3.561   1.658  11.890  0.0614 -1.2038  0.6461
 3984SOL    HW223589   3.465   1.627  11.784 -0.3506  0.7550 -0.6075
 3985SOL     OW23590   3.817   3.238   6.664 -0.0185 -0.6155 -0.5086
 3985SOL    HW123591   3.793   3.275   6.579 -1.8717 -0.3324  0.1261
 3985SOL    HW223592   3.869   3.303   6.711 -3.5814  0.8449  1.4275
 3986SOL     OW23593   4.715   3.625   1.942 -0.6986  0.1781 -0.0868
 3986SOL    HW123594   4.678   3.552   1.891  0.8554 -1.3369  0.9611
 3986SOL    HW223595   0.062   3.584   1.940 -0.6771  0.1983  0.5043
 3987SOL     OW23596   2.471   2.172   7.430 -0.0828  0.1660  0.1725
 3987SOL    HW123597   2.388   2.145   7.390  0.5840  0.8817 -1.6865
 3987SOL    HW223598   2.478   2.257   7.385 -0.7195  2.1862  3.8529
 3988SOL     OW23599   3.041   1.973   5.303 -0.2450  0.4600  0.4318
 3988SOL    HW123600   3.104   2.016   5.360 -0.1190 -0.1567  0.7566
 3988SOL    HW223601   3.028   1.891   5.350  3.5494 -0.9980 -1.1301
 3989SOL     OW23602   0.789   3.316   3.465 -0.1009  0.3938  0.0933
 3989SOL    HW123603   0.873   3.277   3.439  0.5898  1.5781  0.5115
 3989SOL    HW223604   0.762   3.375   3.394 -0.2704 -2.8437 -2.5030
 3990SOL     OW23605   3.670   0.752  11.501 -0.1987  0.5242  0.3029
 3990SOL    HW123606   3.746   0.806  11.522 -0.2085  0.7859 -0.3280
 3990SOL    HW223607   3.631   0.726  11.585 -0.8539  1.8311  0.3999
 3991SOL     OW23608   2.991   1.812   6.751 -0.1647  0.1098 -0.3777
 3991SOL    HW123609   3.015   1.883   6.810  1.3691 -0.4811 -0.2786
 3991SOL    HW223610   2.897   1.827   6.749  0.0196  1.2926 -0.2720
 3992SOL     OW23611   4.091   2.546   9.656  0.2736 -0.7513 -0.3678
 3992SOL    HW123612   4.098   2.586   9.743 -0.0893 -0.5875 -0.4111
 3992SOL    HW223613   4.141   2.603   9.598  0.0846  2.6617  2.8153
 3993SOL     OW23614   0.306   4.568   5.492  0.5113 -0.0135  0.1613
 3993SOL    HW123615   0.216   4.549   5.518 -0.0094  0.1898 -1.4866
 3993SOL    HW223616   0.328   4.645   5.544  2.5710  1.8967 -3.5283
 3994SOL     OW23617   2.663   3.425   8.066 -0.6625  0.4227 -0.1194
 3994SOL    HW123618   2.646   3.460   7.979  0.6007  1.7056  0.1544
 3994SOL    HW223619   2.700   3.339   8.045 -2.8892 -0.7603  0.7533
 3995SOL     OW23620   0.059   1.086  16.657 -0.6981  0.5426 -0.0722
 3995SOL    HW123621   0.101   1.132  16.729 -2.2609 -1.7546  2.2889
 3995SOL    HW223622   0.136   1.037  16.628 -0.5970  1.6994 -1.7709
 3996SOL     OW23623   2.367   4.002  12.268 -0.3015  0.0150  0.3190
 3996SOL    HW123624   2.283   4.028  12.232 -0.6101 -1.7977 -0.2760
 3996SOL    HW223625   2.344   3.936  12.334  0.3252  1.7163  2.2050
 3997SOL     OW23626   1.344   3.590   6.296 -0.1609 -0.2043 -0.0363
 3997SOL    HW123627   1.437   3.567   6.306 -0.0563  0.6819  1.0419
 3997SOL    HW223628   1.306   3.510   6.262  1.9802 -2.9303  3.9573
 3998SOL     OW23629   2.909   2.532   2.661 -0.5687 -0.3896  0.6776
 3998SOL    HW123630   2.890   2.612   2.710  0.9457  0.5342 -0.2239
 3998SOL    HW223631   2.943   2.484   2.737  1.9669  1.2684  0.6007
 3999SOL     OW23632   4.149   0.296  10.771 -0.5564 -0.5103 -0.2470
 3999SOL    HW123633   4.089   0.289  10.846 -2.2334  0.4867 -1.4758
 3999SOL    HW223634   4.204   0.223  10.800 -0.7589 -0.7800 -0.5348
 4000SOL     OW23635   0.606   1.334   5.733 -0.3547  0.6033  0.2599
 4000SOL    HW123636   0.627   1.426   5.716  1.5943  0.2443  0.7485
 4000SOL    HW223637   0.614   1.286   5.651  0.1863  1.7086 -0.3389
 4001SOL     OW23638   1.209   2.574   7.613  0.2191  0.0540 -0.5820
 4001SOL    HW123639   1.254   2.526   7.544  1.0788  0.6959 -0.4658
 4001SOL    HW223640   1.181   2.650   7.561 -1.8069  0.0766  0.5468
 4002SOL     OW23641   1.249   1.130  11.566  0.9346  0.5704  0.2676
 4002SOL    HW123642   1.251   1.124  11.661  1.7737  1.1937  0.2957
 4002SOL    HW223643   1.238   1.225  11.564  2.5660  0.7802  0.9508
 4003SOL     OW23644   2.101   1.182   8.006 -0.1065 -0.1246  0.1031
 4003SOL    HW123645   2.040   1.146   8.071  1.0062 -0.5427  0.9142
 4003SOL    HW223646   2.069   1.142   7.926 -1.1001  1.4032 -0.2705
 4004SOL     OW23647   4.036   1.404  11.935 -0.6991  0.1269  0.1279
 4004SOL    HW123648   4.102   1.356  11.985  0.6680  0.4993 -1.3603
 4004SOL    HW223649   3.990   1.439  12.011  1.4886  0.5491  1.2498
 4005SOL     OW23650   2.760   1.081  11.707 -0.2811  0.5421  0.5464
 4005SOL    HW123651   2.676   1.070  11.663 -0.9284 -1.9580  2.4223
 4005SOL    HW223652   2.772   0.994  11.746  0.8234  1.3810  2.0849
 4006SOL     OW23653   0.073   2.100   8.201  0.0771  0.0647  0.6025
 4006SOL    HW123654   0.097   2.182   8.243 -0.9972  1.0698 -0.7489
 4006SOL    HW223655   0.075   2.128   8.109  0.4994 -1.1154  0.2458
 4007SOL     OW23656   3.493   1.962   4.126  0.4561  0.1721  0.6667
 4007SOL    HW123657   3.510   1.960   4.220  0.3023  1.0498  0.7152
 4007SOL    HW223658   3.435   2.038   4.125  0.9942  0.5762  0.6808
 4008SOL     OW23659   1.227   2.439   2.352  0.3237 -0.4066  0.6705
 4008SOL    HW123660   1.282   2.480   2.286  0.3030  0.7690  1.3836
 4008SOL    HW223661   1.225   2.352   2.313 -2.9166  0.6276 -1.5038
 4009SOL     OW23662   1.449   0.186   2.874  0.4610  0.0678  0.2044
 4009SOL    HW123663   1.540   0.215   2.883  0.3232  0.7538 -0.6049
 4009SOL    HW223664   1.430   0.202   2.782 -0.3284 -0.2249  0.3161
 4010SOL     OW23665   4.611   4.463   6.035  0.1427 -0.1790  0.1582
 4010SOL    HW123666   4.578   4.471   6.124  1.2201  1.3452  0.4116
 4010SOL    HW223667   4.544   4.507   5.983 -0.1722  0.2218  0.9051
 4011SOL     OW23668   2.854   2.346   6.142 -0.6147  0.2513  0.5125
 4011SOL    HW123669   2.855   2.260   6.184  0.0780  0.2908  0.5861
 4011SOL    HW223670   2.918   2.402   6.187 -1.5409  0.7726  1.1807
 4012SOL     OW23671   0.710   0.112   3.840  0.1648 -0.4612 -0.2496
 4012SOL    HW123672   0.617   0.133   3.836  0.3318  0.8840  2.9394
 4012SOL    HW223673   0.697   0.019   3.821 -0.3658 -0.6743  1.1039
 4013SOL     OW23674   3.601   1.893   1.871 -0.1084  0.3542  0.3604
 4013SOL    HW123675   3.672   1.917   1.812  1.2721 -2.1303  1.0031
 4013SOL    HW223676   3.534   1.868   1.806  0.9232  1.0565 -0.9767
 4014SOL     OW23677   3.138   1.895   7.987  0.3588 -0.4031 -0.4696
 4014SOL    HW123678   3.057   1.882   7.938  0.4313  0.0751 -0.7177
 4014SOL    HW223679   3.199   1.912   7.916  0.2772  0.4729 -0.3297
 4015SOL     OW23680   4.164   0.504   5.668 -0.0513 -0.8256 -0.2868
 4015SOL    HW123681   4.098   0.439   5.692 -1.5676  0.1405 -1.8499
 4015SOL    HW223682   4.222   0.448   5.616  1.2155  2.2381 -2.2030
 4016SOL     OW23683   3.023   1.563  14.955 -0.1344 -0.3979 -0.6490
 4016SOL    HW123684   3.069   1.534  15.033  1.1694  0.2466 -1.1815
 4016SOL    HW223685   3.101   1.590  14.906  0.2686 -0.0495  0.1935
 4017SOL     OW23686   0.251   3.352   8.613  0.7869 -0.4121  0.0283
 4017SOL    HW123687   0.309   3.280   8.588  0.8361 -0.0976 -0.7331
 4017SOL    HW223688   0.210   3.323   8.695 -0.4828 -0.3972 -0.5885
 4018SOL     OW23689   1.666   1.594   3.525  0.2795  1.2644  0.3150
 4018SOL    HW123690   1.628   1.631   3.605  2.0288 -1.0820  2.2290
 4018SOL    HW223691   1.586   1.578   3.475  0.8781  0.5496 -0.4027
 4019SOL     OW23692   3.440   3.775   8.741 -0.7684  0.7992  0.0420
 4019SOL    HW123693   3.398   3.736   8.818 -0.3260 -1.1358 -0.7023
 4019SOL    HW223694   3.375   3.737   8.682  1.0816 -1.5090 -0.4799
 4020SOL     OW23695   4.392   1.923   4.881  0.2044 -0.4440  1.0380
 4020SOL    HW123696   4.441   1.897   4.959  0.5901  1.1910  1.3528
 4020SOL    HW223697   4.443   1.880   4.813 -3.1155  1.0088 -2.3408
 4021SOL     OW23698   4.397   1.168  10.409 -0.2984  0.2181 -0.2337
 4021SOL    HW123699   4.491   1.150  10.411 -0.0611  1.6738  1.1294
 4021SOL    HW223700   4.400   1.260  10.384  0.8282  0.6451  1.4082
 4022SOL     OW23701   3.737   2.781   4.392 -0.2099  0.5628  0.1973
 4022SOL    HW123702   3.766   2.730   4.316 -2.1539  0.3647 -0.3970
 4022SOL    HW223703   3.751   2.715   4.460  2.3882  0.2052 -0.6623
 4023SOL     OW23704   3.761   1.289  10.636  0.1395 -0.2520 -0.4969
 4023SOL    HW123705   3.752   1.325  10.724  1.6652 -1.3529  0.1009
 4023SOL    HW223706   3.787   1.201  10.661 -0.5579 -0.8771 -1.9821
 4024SOL     OW23707   0.922   0.920  17.061  0.0621  0.0740 -0.7059
 4024SOL    HW123708   0.945   0.876  17.143 -0.2243 -0.1146 -0.7268
 4024SOL    HW223709   0.826   0.914  17.056 -0.0399  0.8936  0.1601
 4025SOL     OW23710   3.589   3.090   4.929 -0.3387 -0.4116  0.1217
 4025SOL    HW123711   3.504   3.065   4.964  0.8897 -0.8483  2.7655
 4025SOL    HW223712   3.629   3.151   4.991 -1.4864  0.3577  0.1060
 4026SOL     OW23713   1.354   2.119   9.703  0.0843 -0.3327  0.1794
 4026SOL    HW123714   1.435   2.102   9.750 -1.2331 -2.5283  1.6781
 4026SOL    HW223715   1.393   2.109   9.616 -0.5627  0.1268 -0.1628
 4027SOL     OW23716   2.704   3.264   5.576  0.1038  0.2360  1.0810
 4027SOL    HW123717   2.646   3.281   5.502 -2.0954 -2.2188  2.2542
 4027SOL    HW223718   2.740   3.351   5.597 -2.6680  1.0287  2.6491
 4028SOL     OW23719   1.050   4.237   5.017 -0.8558  0.2826 -0.0178
 4028SOL    HW123720   1.125   4.294   5.035  0.8069 -1.0384 -2.7846
 4028SOL    HW223721   1.011   4.270   4.936  0.0983 -2.3390 -1.5046
 4029SOL     OW23722   3.986   1.626   6.994  0.1570  0.7041  0.0649
 4029SOL    HW123723   4.016   1.717   6.987 -0.5638  1.1466  2.7155
 4029SOL    HW223724   3.984   1.598   7.085 -0.1452  0.7195  0.0615
 4030SOL     OW23725   1.576   0.017   2.217  0.0934 -0.3864 -0.5434
 4030SOL    HW123726   1.562   0.091   2.275 -1.3543 -2.4383  1.7279
 4030SOL    HW223727   1.662   0.045   2.187 -0.1471  0.3756 -0.5290
 4031SOL     OW23728   4.007   3.774   5.075 -0.0500  0.0191 -1.0319
 4031SOL    HW123729   3.970   3.803   4.992 -0.2828 -1.4007 -1.4274
 4031SOL    HW223730   4.026   3.852   5.127 -1.7165 -1.3263  1.5842
 4032SOL     OW23731   0.322   1.860   5.466 -0.3695 -0.3161  0.2631
 4032SOL    HW123732   0.265   1.791   5.500  0.8976 -1.5029  0.0226
 4032SOL    HW223733   0.299   1.853   5.373 -0.5940 -2.3251  0.4722
 4033SOL     OW23734   0.990   4.730   0.110 -0.1120 -0.0683 -0.6642
 4033SOL    HW123735   0.988   4.688   0.196  0.2382  0.8735 -0.2016
 4033SOL    HW223736   1.063   4.686   0.065  1.3227  1.0380  0.5735
 4034SOL     OW23737   0.209   1.719   7.775  0.0884 -0.2505 -0.4126
 4034SOL    HW123738   0.146   1.718   7.847  0.6827  1.8223  0.1259
 4034SOL    HW223739   0.154   1.667   7.716 -3.4885  2.6243  0.4234
 4035SOL     OW23740   3.844   3.922   5.302 -0.4751 -0.5188 -0.1050
 4035SOL    HW123741   3.903   3.997   5.304  0.4730 -1.2974  0.9346
 4035SOL    HW223742   3.870   3.882   5.385  0.3852 -0.1383 -0.2031
 4036SOL     OW23743   0.638   0.261   6.292  0.2532 -0.4751  1.1629
 4036SOL    HW123744   0.727   0.285   6.317  0.0255  0.9625  0.5922
 4036SOL    HW223745   0.583   0.336   6.315  1.0625 -0.0358  1.6419
 4037SOL     OW23746   1.527   4.132   5.483 -0.5871 -0.6779  0.2195
 4037SOL    HW123747   1.532   4.222   5.517 -0.5706 -0.1873 -1.0708
 4037SOL    HW223748   1.612   4.091   5.499 -0.6143 -1.3736 -1.4700
 4038SOL     OW23749   1.669   3.511   1.964 -0.3326 -0.7551  0.2855
 4038SOL    HW123750   1.598   3.559   1.921  0.1497 -0.0005  0.3353
 4038SOL    HW223751   1.625   3.426   1.970  0.3920 -1.1260  0.4037
 4039SOL     OW23752   3.786   2.639   1.719 -0.1758 -0.2126 -0.5482
 4039SOL    HW123753   3.770   2.555   1.678  0.8022 -1.1022  0.8945
 4039SOL    HW223754   3.866   2.627   1.771  0.3790  1.8645 -0.9232
 4040SOL     OW23755   2.851   0.410   8.904  0.6109 -0.4495 -0.2515
 4040SOL    HW123756   2.876   0.356   8.829 -2.5258 -0.8312 -0.9988
 4040SOL    HW223757   2.779   0.461   8.868 -0.4867 -0.1351  2.4325
 4041SOL     OW23758   4.387   3.853  13.560 -0.5078  0.0787  0.2106
 4041SOL    HW123759   4.461   3.828  13.616 -0.2315 -0.8319 -0.5674
 4041SOL    HW223760   4.338   3.773  13.579 -0.8838  0.2342 -0.1102
 4042SOL     OW23761   1.170   3.341   7.188 -0.1684  0.2311  0.1962
 4042SOL    HW123762   1.127   3.347   7.274  1.3982  0.4973  0.9620
 4042SOL    HW223763   1.174   3.246   7.181 -1.7840  0.3760 -2.7002
 4043SOL     OW23764   0.843   2.338   4.518 -0.1454  0.1980 -0.3027
 4043SOL    HW123765   0.905   2.287   4.570  0.5143  0.1495 -1.1231
 4043SOL    HW223766   0.901   2.334   4.442 -2.2784 -1.2785 -1.8589
 4044SOL     OW23767   1.712   1.457  16.227  0.3540  0.5913  0.0091
 4044SOL    HW123768   1.759   1.518  16.169 -0.3374  1.8709  0.7924
 4044SOL    HW223769   1.679   1.393  16.164  0.5216 -0.5229  1.0666
 4045SOL     OW23770   1.866   4.293   1.964  0.2594  0.2555 -0.2059
 4045SOL    HW123771   1.852   4.378   2.007 -1.9845 -0.9322  1.3945
 4045SOL    HW223772   1.898   4.238   2.035 -1.0540  1.1865  1.0996
 4046SOL     OW23773   2.399   2.181   3.134 -0.4416  0.2244 -1.2149
 4046SOL    HW123774   2.377   2.120   3.204 -0.0957 -0.3250 -1.5892
 4046SOL    HW223775   2.495   2.173   3.129 -0.7497 -3.1439 -1.4359
 4047SOL     OW23776   0.146   3.286  13.792  0.1300 -0.4863 -0.2274
 4047SOL    HW123777   0.188   3.305  13.877 -0.1836 -2.5082  0.3663
 4047SOL    HW223778   0.177   3.363  13.744  1.0067 -1.2791 -0.9399
 4048SOL     OW23779   1.475   4.489  17.673  0.4861  1.0216 -0.4450
 4048SOL    HW123780   1.406   4.493  17.739  0.2378 -0.3347 -0.6136
 4048SOL    HW223781   1.502   4.399  17.690  2.1449  1.6297  0.1410
 4049SOL     OW23782   1.656   4.705  15.613  0.5112  0.3217  0.6269
 4049SOL    HW123783   1.569   4.736  15.637 -0.3895 -1.5317 -0.2503
 4049SOL    HW223784   1.704   0.041  15.648  0.2529  0.5610  0.4634
 4050SOL     OW23785   1.428   2.787  10.555 -0.7295 -0.2494  0.0686
 4050SOL    HW123786   1.382   2.819  10.633  0.8874  2.0511  0.0866
 4050SOL    HW223787   1.364   2.730  10.512 -2.4245  0.1121  2.1322
 4051SOL     OW23788   3.325   1.968   7.786 -0.1350  0.5406  0.1457
 4051SOL    HW123789   3.393   2.033   7.768  3.1156 -2.4488  1.6909
 4051SOL    HW223790   3.375   1.900   7.831 -1.3533 -1.1464 -1.0743
 4052SOL     OW23791   1.212   2.417  13.128  0.5121  0.4421 -0.0951
 4052SOL    HW123792   1.284   2.479  13.118  1.3147 -0.7579 -1.7359
 4052SOL    HW223793   1.152   2.454  13.193  1.7469  2.8864 -0.3129
 4053SOL     OW23794   4.684   0.405   8.177 -0.4049  0.3667 -0.0639
 4053SOL    HW123795   0.005   0.367   8.241 -0.0953 -1.6021 -1.5465
 4053SOL    HW223796   4.604   0.364   8.210  0.5149  0.0005  1.7184
 4054SOL     OW23797   1.866   1.970  10.747 -0.0070 -0.1809  0.1373
 4054SOL    HW123798   1.809   2.017  10.808 -1.7828  0.6376 -2.2061
 4054SOL    HW223799   1.828   1.882  10.753  0.7549 -0.5130  0.1814
 4055SOL     OW23800   0.839   1.938   4.466 -0.5658  0.3556 -0.5806
 4055SOL    HW123801   0.886   1.995   4.527  1.5992 -0.3231 -1.6044
 4055SOL    HW223802   0.901   1.937   4.393  2.4724  0.4659  2.0100
 4056SOL     OW23803   1.634   3.157   1.011  0.0764  0.0162 -0.5516
 4056SOL    HW123804   1.583   3.237   0.999 -1.0007 -0.6635 -0.4629
 4056SOL    HW223805   1.640   3.124   0.922  1.3363 -0.5127 -0.2709
 4057SOL     OW23806   1.790   2.249   1.632 -0.5402 -0.4167 -0.7897
 4057SOL    HW123807   1.814   2.332   1.673 -0.2949 -0.6676 -0.4302
 4057SOL    HW223808   1.851   2.184   1.664 -0.7579 -0.1456  0.1904
 4058SOL     OW23809   2.509   4.290   1.041  0.7576 -0.4370  0.0658
 4058SOL    HW123810   2.553   4.211   1.073  0.8505 -0.9807 -1.4226
 4058SOL    HW223811   2.566   4.357   1.080 -0.6015  0.8235 -0.1043
 4059SOL     OW23812   4.045   4.408   2.085  0.1085  0.2994  0.2023
 4059SOL    HW123813   3.999   4.338   2.039  0.1059 -0.4876  1.3987
 4059SOL    HW223814   4.086   4.465   2.020  0.0501  0.2714  0.1411
 4060SOL     OW23815   1.214   2.705   5.164  0.2027  0.7192 -1.3043
 4060SOL    HW123816   1.247   2.616   5.157  0.4664  0.4794  2.8528
 4060SOL    HW223817   1.164   2.713   5.245 -2.4069  0.0756 -2.8662
 4061SOL     OW23818   3.015   2.670  14.289  0.2430 -0.3707 -0.5462
 4061SOL    HW123819   3.055   2.746  14.248 -1.2822  1.2575  0.9577
 4061SOL    HW223820   3.073   2.595  14.277  1.1086  0.1591  0.3542
 4062SOL     OW23821   1.840   1.441  14.939  0.0166  0.0101 -0.0412
 4062SOL    HW123822   1.748   1.419  14.924 -0.5778  2.6855 -0.3075
 4062SOL    HW223823   1.826   1.532  14.914 -0.1793  0.0559  0.2303
 4063SOL     OW23824   4.415   0.799   8.794 -0.0080 -0.0989  0.1032
 4063SOL    HW123825   4.495   0.755   8.766 -0.8426  0.1661 -2.7181
 4063SOL    HW223826   4.415   0.877   8.737 -2.5003 -0.3775 -0.2684
 4064SOL     OW23827   1.459   0.373   2.344 -0.1866  0.1977  0.2122
 4064SOL    HW123828   1.470   0.384   2.250 -3.0138  0.9096 -0.0120
 4064SOL    HW223829   1.530   0.433   2.371 -1.0510  0.8114  1.1346
 4065SOL     OW23830   3.878   4.064   5.774 -0.1623 -0.1498 -0.2678
 4065SOL    HW123831   3.810   4.119   5.734  0.8498  1.4074  0.1555
 4065SOL    HW223832   3.951   4.119   5.745 -0.7906  1.5179  1.2786
 4066SOL     OW23833   4.141   0.553  17.719  0.3138 -0.0431 -0.4669
 4066SOL    HW123834   4.204   0.619  17.749  0.2383  0.4987 -1.5148
 4066SOL    HW223835   4.106   0.514   0.044  0.2871  0.4049 -0.2591
 4067SOL     OW23836   4.684   1.456   6.396  0.3983  0.0497 -0.3290
 4067SOL    HW123837   4.721   1.472   6.482 -0.2390 -2.5239  0.4300
 4067SOL    HW223838   4.659   1.543   6.364 -0.5213  0.2016  0.7977
 4068SOL     OW23839   3.543   0.689   9.158 -0.4438 -0.0399  0.4672
 4068SOL    HW123840   3.478   0.663   9.223  0.7505  1.0204  2.1000
 4068SOL    HW223841   3.626   0.681   9.205  0.6094  0.3868 -1.3454
 4069SOL     OW23842   1.468   2.591   3.620  0.3723  0.4413  0.6111
 4069SOL    HW123843   1.480   2.643   3.699  0.0962 -1.2550  1.7756
 4069SOL    HW223844   1.492   2.657   3.555  1.3599 -0.2090  0.3198
 4070SOL     OW23845   1.602   4.093   0.451  0.0484 -0.0223  0.2765
 4070SOL    HW123846   1.521   4.102   0.502 -1.0204 -4.1507 -0.7251
 4070SOL    HW223847   1.571   4.113   0.363 -2.5413 -3.5103  0.3848
 4071SOL     OW23848   0.480   4.019   2.477 -0.4149  0.5749 -0.6628
 4071SOL    HW123849   0.407   4.011   2.417 -0.6678  2.4394 -0.5896
 4071SOL    HW223850   0.551   3.982   2.425 -0.6679  0.1198 -0.6833
 4072SOL     OW23851   0.579   4.675   6.715  0.2184 -0.4791 -0.5684
 4072SOL    HW123852   0.587   4.726   6.635  1.1600  0.1934 -0.0419
 4072SOL    HW223853   0.524   4.730   6.770  1.1835 -0.8937  0.8204
 4073SOL     OW23854   2.455   0.166   2.818  0.6898  0.4047  0.2523
 4073SOL    HW123855   2.413   0.201   2.896  1.0118 -0.6558  0.9071
 4073SOL    HW223856   2.393   0.100   2.789 -0.8254  0.7183  2.7933
 4074SOL     OW23857   1.299   4.353   7.176  0.1913  0.1435 -0.0138
 4074SOL    HW123858   1.382   4.369   7.221  0.5419 -2.1990  0.1705
 4074SOL    HW223859   1.242   4.360   7.253  1.4029  3.8462  0.5618
 4075SOL     OW23860   3.324   3.937   4.131 -0.1817 -0.1563  0.3929
 4075SOL    HW123861   3.301   4.030   4.131  1.7623  0.3173  0.3896
 4075SOL    HW223862   3.359   3.939   4.042 -0.9963 -0.7223  0.0588
 4076SOL     OW23863   1.919   1.543   7.320  0.3940  0.5452  0.0564
 4076SOL    HW123864   2.011   1.527   7.340 -0.0963  1.6769  3.2018
 4076SOL    HW223865   1.886   1.465   7.276 -0.6899  0.9612  0.1325
 4077SOL     OW23866   1.224   3.547  10.010 -0.2309  0.2738  0.6430
 4077SOL    HW123867   1.246   3.548   9.917 -0.2210  0.9567  0.6556
 4077SOL    HW223868   1.298   3.497  10.045 -0.0778  1.3012  1.8210
 4078SOL     OW23869   3.342   3.124   5.401 -0.1461 -0.1833  0.0150
 4078SOL    HW123870   3.324   3.035   5.370  0.5157 -0.8493  1.5835
 4078SOL    HW223871   3.437   3.136   5.395 -0.1796  0.3748  0.6002
 4079SOL     OW23872   4.085   1.152  12.897  1.3522  0.8296 -0.1708
 4079SOL    HW123873   4.168   1.106  12.885  1.8192  1.8356 -0.7953
 4079SOL    HW223874   4.062   1.148  12.990  2.8998 -0.2013  0.1728
 4080SOL     OW23875   2.881   1.656  12.561  0.2398  0.4763 -0.2191
 4080SOL    HW123876   2.895   1.678  12.469 -2.7216  1.3433 -0.4507
 4080SOL    HW223877   2.791   1.624  12.556  0.3343  0.1215  0.4040
 4081SOL     OW23878   1.392   4.543   9.633  0.2285  0.4759  0.0954
 4081SOL    HW123879   1.333   4.470   9.615 -0.4132  1.0929 -0.3087
 4081SOL    HW223880   1.327   4.613   9.641 -0.0584  0.5037 -2.5967
 4082SOL     OW23881   3.513   0.188  15.337  0.7899 -1.1378  0.4638
 4082SOL    HW123882   3.420   0.209  15.337  0.7902 -1.1362  0.3807
 4082SOL    HW223883   3.513   0.119  15.271 -0.4388  0.3573 -1.0870
 4083SOL     OW23884   1.944   3.217   9.346 -0.2199 -0.3438  0.3559
 4083SOL    HW123885   1.868   3.198   9.291  0.7822  1.9036 -1.8168
 4083SOL    HW223886   1.985   3.131   9.342  2.4578  0.9990 -1.0068
 4084SOL     OW23887   1.982   2.970   8.381  0.0889 -0.1108  0.1982
 4084SOL    HW123888   1.940   3.031   8.442 -0.4955 -1.1306  0.8383
 4084SOL    HW223889   2.053   3.026   8.352  1.5736 -1.7384  0.6580
 4085SOL     OW23890   1.340   0.862   2.626  0.7438 -0.7399 -0.1125
 4085SOL    HW123891   1.431   0.830   2.625  1.0647  0.1580  0.3780
 4085SOL    HW223892   1.342   0.902   2.712 -2.2525 -0.1311 -0.3490
 4086SOL     OW23893   0.685   4.280  13.233  0.2560  0.2689  0.1089
 4086SOL    HW123894   0.758   4.317  13.283  1.7436 -0.5515 -1.4650
 4086SOL    HW223895   0.645   4.367  13.222  1.1283  0.4023 -1.9191
 4087SOL     OW23896   2.098   3.193  13.661 -0.3641 -0.1222 -0.3011
 4087SOL    HW123897   2.090   3.204  13.755 -1.9286 -0.6387 -0.3802
 4087SOL    HW223898   2.161   3.258  13.630 -0.4338 -0.0663 -0.3243
 4088SOL     OW23899   4.220   2.082   2.898  0.1201  0.5581 -0.2263
 4088SOL    HW123900   4.159   2.033   2.843  1.2828 -0.3308 -0.7072
 4088SOL    HW223901   4.260   2.148   2.841 -0.2326  1.6351  0.7604
 4089SOL     OW23902   0.476   2.234   3.793  0.3524 -0.0235 -0.3473
 4089SOL    HW123903   0.563   2.276   3.796 -0.4879  1.6477  0.5521
 4089SOL    HW223904   0.483   2.165   3.727 -0.5527  1.9043 -2.4649
 4090SOL     OW23905   2.574   4.472   3.028  0.6476  0.1265 -0.4694
 4090SOL    HW123906   2.577   4.487   3.122 -0.6334 -0.9937 -0.2412
 4090SOL    HW223907   2.577   4.376   3.019  0.3492 -0.0467  1.1976
 4091SOL     OW23908   2.089   2.576   8.825 -0.0722  0.7929  0.6176
 4091SOL    HW123909   2.007   2.624   8.813 -0.4683 -0.1933 -0.5984
 4091SOL    HW223910   2.145   2.653   8.811 -0.1800  0.9896  1.2502
 4092SOL     OW23911   4.339   1.780   4.031  0.6177  0.1376 -0.5226
 4092SOL    HW123912   4.309   1.689   4.033  1.6233 -0.1766  0.0878
 4092SOL    HW223913   4.349   1.801   3.938 -1.3547  1.4519 -0.4472
 4093SOL     OW23914   3.393   3.738   6.261  0.5046  0.5340 -0.1272
 4093SOL    HW123915   3.485   3.730   6.284  0.4441  2.5329  0.8230
 4093SOL    HW223916   3.361   3.666   6.316  0.9441 -0.4191 -1.1246
 4094SOL     OW23917   0.464   1.926  15.802  0.0615 -0.5348  0.4490
 4094SOL    HW123918   0.504   1.845  15.772 -3.2914 -2.5059  1.3451
 4094SOL    HW223919   0.414   1.957  15.727  1.2466 -1.7864 -0.8555
 4095SOL     OW23920   0.693   2.146   6.376 -0.4266  0.0230 -0.2761
 4095SOL    HW123921   0.704   2.106   6.289 -0.1692 -0.4986 -0.0031
 4095SOL    HW223922   0.618   2.100   6.411  0.4018 -0.9367  0.2378
 4096SOL     OW23923   3.329   0.244   6.035 -0.3757  0.5057  0.0242
 4096SOL    HW123924   3.310   0.237   6.129  2.5969 -1.7518  0.4817
 4096SOL    HW223925   3.381   0.324   6.035 -1.0043  0.9018 -1.7083
 4097SOL     OW23926   0.995   1.935   3.919  0.0290  0.5928 -0.2324
 4097SOL    HW123927   0.945   1.902   3.994  1.5418  0.1701  0.6005
 4097SOL    HW223928   1.038   1.856   3.888 -0.1147  0.0750  0.8587
 4098SOL     OW23929   2.676   3.442  14.405  0.3834  0.3993 -0.8888
 4098SOL    HW123930   2.744   3.384  14.440  0.1516  0.5157 -0.2456
 4098SOL    HW223931   2.695   3.403  14.320 -0.4513  0.2072 -0.9906
 4099SOL     OW23932   3.890   2.554   7.027 -0.5978  0.7123  0.1065
 4099SOL    HW123933   3.888   2.555   7.123 -0.8827  0.8605  0.0989
 4099SOL    HW223934   3.815   2.610   7.011  0.0580  1.2317 -1.1492
 4100SOL     OW23935   2.341   0.100   7.166  0.0193  0.0835  0.3914
 4100SOL    HW123936   2.263   0.050   7.143  1.1114 -1.2591 -0.4004
 4100SOL    HW223937   2.309   0.189   7.177 -0.0482 -0.1257  1.9214
 4101SOL     OW23938   4.382   1.357   8.714  0.1835  0.2997 -0.7855
 4101SOL    HW123939   4.308   1.365   8.774 -0.6962 -0.7709 -1.7465
 4101SOL    HW223940   4.409   1.447   8.695 -1.3198  1.5083  2.8817
 4102SOL     OW23941   3.717   1.140   0.334  0.5872 -0.2215  0.0151
 4102SOL    HW123942   3.628   1.160   0.303  0.3473 -0.4392  0.5678
 4102SOL    HW223943   3.753   1.228   0.347 -0.4434 -0.2872  3.3209
 4103SOL     OW23944   3.193   1.545   4.947 -0.2123  0.2439 -0.1889
 4103SOL    HW123945   3.155   1.460   4.927 -3.4143  2.3431 -2.9024
 4103SOL    HW223946   3.124   1.607   4.927  0.2139  1.1064  1.0021
 4104SOL     OW23947   4.652   4.418   3.517  0.3869 -0.7381 -0.2470
 4104SOL    HW123948   4.650   4.497   3.464  1.4322 -1.5788 -1.5272
 4104SOL    HW223949   4.593   4.442   3.589 -1.2163 -0.3060 -1.7202
 4105SOL     OW23950   1.370   1.927   3.514  0.5401 -0.1224 -0.0565
 4105SOL    HW123951   1.433   1.996   3.536 -1.4940  2.4070 -2.2168
 4105SOL    HW223952   1.412   1.878   3.443  0.6362 -2.3330  1.5430
 4106SOL     OW23953   4.127   3.904   8.463  0.0882 -0.6869 -0.0000
 4106SOL    HW123954   4.070   3.978   8.487  0.8615 -0.5378  1.4036
 4106SOL    HW223955   4.206   3.909   8.516  0.0950  0.0897 -0.0897
 4107SOL     OW23956   3.363   3.420   9.436  0.3218  0.0137 -0.0120
 4107SOL    HW123957   3.334   3.358   9.503 -0.4954  0.8475  0.4211
 4107SOL    HW223958   3.275   3.434   9.399 -0.0068  0.7792  1.0415
 4108SOL     OW23959   0.270   1.644   1.634 -0.1399 -0.1521 -0.0353
 4108SOL    HW123960   0.347   1.700   1.637 -0.8717  0.9367 -1.5578
 4108SOL    HW223961   0.201   1.710   1.626  1.5938  1.5567 -0.7114
 4109SOL     OW23962   2.467   4.168   2.567 -0.2564  0.0881 -0.3680
 4109SOL    HW123963   2.490   4.260   2.552 -2.6188  1.0036  1.6201
 4109SOL    HW223964   2.485   4.131   2.481 -2.3387  0.0153 -0.7598
 4110SOL     OW23965   3.384   1.510   7.865 -0.2831  0.2498 -0.3481
 4110SOL    HW123966   3.400   1.433   7.920 -0.0469 -0.8341 -1.9129
 4110SOL    HW223967   3.311   1.552   7.909  0.5970  1.6308 -0.2049
 4111SOL     OW23968   2.133   3.890   6.170  0.1484  0.1637 -0.0849
 4111SOL    HW123969   2.174   3.859   6.251  0.7996 -1.8524 -1.1987
 4111SOL    HW223970   2.187   3.847   6.104 -0.6780  1.2919 -1.4800
 4112SOL     OW23971   4.434   1.495  10.748  0.2331  0.3244 -0.0490
 4112SOL    HW123972   4.480   1.412  10.760  0.4890  0.2407 -1.5999
 4112SOL    HW223973   4.364   1.486  10.813 -0.1375 -0.6504 -0.5742
 4113SOL     OW23974   0.056   1.788   2.513  0.7714  0.3346  0.0850
 4113SOL    HW123975   4.711   1.806   2.471  0.8803  0.0108 -0.2699
 4113SOL    HW223976   0.080   1.859   2.574 -1.0708  0.7618  0.3154
 4114SOL     OW23977   4.552   3.783  15.192 -0.1341  0.2625  0.1356
 4114SOL    HW123978   4.625   3.724  15.177 -0.8662 -0.7623  0.5943
 4114SOL    HW223979   4.489   3.753  15.126 -0.6243  3.6116 -0.9266
 4115SOL     OW23980   1.386   3.954   5.032 -0.1808 -0.0331  0.3775
 4115SOL    HW123981   1.336   3.948   4.950  0.5016 -0.7331  0.0121
 4115SOL    HW223982   1.330   4.002   5.092  0.1955  0.0646  0.6526
 4116SOL     OW23983   2.246   3.790   6.402 -0.7566 -0.9185 -0.5651
 4116SOL    HW123984   2.243   3.813   6.495 -3.7901 -0.1136 -0.8712
 4116SOL    HW223985   2.260   3.696   6.410 -0.5435 -0.9036 -0.7657
 4117SOL     OW23986   1.226   3.178   5.492  0.1092  0.1276 -0.3802
 4117SOL    HW123987   1.138   3.201   5.461 -0.4209  2.0089  2.5478
 4117SOL    HW223988   1.227   3.085   5.512  0.2388 -0.7275 -4.3275
 4118SOL     OW23989   3.738   4.611   8.783  0.0705  0.0220 -0.0323
 4118SOL    HW123990   3.744   4.566   8.699  0.0842 -1.7594  0.9244
 4118SOL    HW223991   3.808   4.574   8.836  0.7853  1.4199  0.0058
 4119SOL     OW23992   3.621   3.333   1.126 -0.2458  0.1529 -0.4729
 4119SOL    HW123993   3.619   3.238   1.115  0.0552 -0.0247  1.0129
 4119SOL    HW223994   3.574   3.342   1.208  0.9008 -1.3797  0.3553
 4120SOL     OW23995   1.650   2.029   6.188 -0.0885  0.0917  0.0483
 4120SOL    HW123996   1.704   1.991   6.119 -0.9790 -1.5650  0.2565
 4120SOL    HW223997   1.710   2.082   6.240 -0.0580  0.5275 -0.4257
 4121SOL     OW23998   1.054   3.901   7.385  0.0796  0.5083 -0.0838
 4121SOL    HW123999   1.123   3.950   7.340  0.9101  0.0362  0.6638
 4121SOL    HW224000   0.987   3.919   7.319  1.4324 -3.7274 -2.6801
 4122SOL     OW24001   2.678   3.034   6.917 -0.1577 -0.1729 -0.3729
 4122SOL    HW124002   2.703   3.073   7.001 -2.9480  1.5170 -0.3495
 4122SOL    HW224003   2.584   3.050   6.908 -0.5510 -2.6656 -0.5046
 4123SOL     OW24004   3.911   0.617   4.283 -0.3774  0.4235 -0.0758
 4123SOL    HW124005   3.863   0.632   4.364  0.1958 -1.1798  0.5678
 4123SOL    HW224006   3.895   0.523   4.274  1.2284  0.2247 -0.8781
 4124SOL     OW24007   1.502   1.940   7.553 -0.1819 -0.1332 -0.4824
 4124SOL    HW124008   1.587   1.965   7.517 -0.9088  0.6684 -1.6645
 4124SOL    HW224009   1.533   1.903   7.636 -1.5608  0.5554  0.3341
 4125SOL     OW24010   0.917   3.833  11.239  0.6402  0.3313 -0.0609
 4125SOL    HW124011   0.880   3.848  11.326 -0.2574  1.9096 -0.7054
 4125SOL    HW224012   0.836   3.824  11.190 -0.0254  2.1354  0.7087
 4126SOL     OW24013   0.128   3.423   1.615  0.2183 -0.0857 -0.4491
 4126SOL    HW124014   0.148   3.515   1.595 -1.0909  0.4288  0.6585
 4126SOL    HW224015   0.213   3.407   1.656 -0.3860 -0.1376  0.7615
 4127SOL     OW24016   3.342   1.617   4.281  0.0595 -0.2475 -0.1231
 4127SOL    HW124017   3.310   1.657   4.362 -1.3447 -0.4564 -0.5764
 4127SOL    HW224018   3.428   1.659   4.275  0.9606 -2.1164 -0.1594
 4128SOL     OW24019   2.238   0.561   9.747  0.4228 -0.2186 -0.0402
 4128SOL    HW124020   2.165   0.583   9.689  0.8214  1.7535  0.2108
 4128SOL    HW224021   2.296   0.558   9.671  0.8545 -1.8970  0.3482
 4129SOL     OW24022   3.676   0.511  16.714 -0.0114 -0.4820 -0.3302
 4129SOL    HW124023   3.729   0.535  16.638 -0.6303 -0.1738 -0.6588
 4129SOL    HW224024   3.672   0.588  16.770 -1.5647 -0.5080 -0.4092
 4130SOL     OW24025   2.900   1.152  17.391 -0.1806 -0.0611 -0.5636
 4130SOL    HW124026   2.961   1.110  17.452  1.1271 -1.6340 -2.9600
 4130SOL    HW224027   2.869   1.075  17.343 -0.2798  0.9019 -2.0299
 4131SOL     OW24028   0.267   1.498   5.165  0.0850  0.4175 -0.2210
 4131SOL    HW124029   0.295   1.586   5.192  0.7609  0.9717 -2.6703
 4131SOL    HW224030   0.182   1.496   5.209  0.0415  0.9759 -0.2732
 4132SOL     OW24031   4.290   0.637   5.876 -0.1060 -0.1240  0.1630
 4132SOL    HW124032   4.264   0.620   5.785  1.0970  0.6403 -0.3396
 4132SOL    HW224033   4.228   0.582   5.923  2.2193 -1.9766  1.1180
 4133SOL     OW24034   1.397   2.029   7.098 -0.4879  0.6963  0.7038
 4133SOL    HW124035   1.325   1.966   7.098  0.8165 -0.8097 -0.2357
 4133SOL    HW224036   1.476   1.976   7.085  1.4110  3.3751  1.5019
 4134SOL     OW24037   0.727   0.121   1.083 -0.1495 -0.2615 -0.9209
 4134SOL    HW124038   0.733   0.047   1.143  0.5240 -1.5273 -2.5559
 4134SOL    HW224039   0.702   0.192   1.142  0.8154 -0.9623  0.3397
 4135SOL     OW24040   1.599   3.293  14.348 -0.0938 -0.2514  0.2784
 4135SOL    HW124041   1.653   3.365  14.314 -0.1691  0.3282  1.4076
 4135SOL    HW224042   1.628   3.306  14.438  2.2823  2.7101 -0.9209
 4136SOL     OW24043   1.854   0.383   6.294  0.5080 -0.3557  0.1229
 4136SOL    HW124044   1.944   0.376   6.327  0.7650 -1.3545 -0.8112
 4136SOL    HW224045   1.853   0.312   6.230 -4.9346 -0.9482  0.8446
 4137SOL     OW24046   3.603   1.293   6.494 -0.1174 -0.1845  0.2759
 4137SOL    HW124047   3.653   1.330   6.567  2.2565 -1.9020 -0.4973
 4137SOL    HW224048   3.646   1.335   6.419 -0.1175  0.5566  0.6963
 4138SOL     OW24049   2.422   1.312  13.279 -0.0920 -0.3862 -0.0726
 4138SOL    HW124050   2.451   1.249  13.346  0.2281 -1.0118 -0.7983
 4138SOL    HW224051   2.350   1.349  13.330 -2.9207 -1.5984 -3.2223
 4139SOL     OW24052   4.208   4.535   7.743 -0.0648  0.4993  0.0343
 4139SOL    HW124053   4.157   4.465   7.785 -1.2606  1.1866 -0.2917
 4139SOL    HW224054   4.268   4.553   7.815  0.1451  5.2047 -1.3465
 4140SOL     OW24055   3.849   3.869   4.881 -0.7567  0.0096 -0.1262
 4140SOL    HW124056   3.829   3.884   4.789 -2.6330  1.2091  0.4818
 4140SOL    HW224057   3.762   3.869   4.920 -0.4266 -0.3189  0.6203
 4141SOL     OW24058   3.947   3.316  15.424  0.1635  0.9080  0.3867
 4141SOL    HW124059   3.985   3.250  15.481 -3.2203 -2.4572 -1.2703
 4141SOL    HW224060   4.002   3.331  15.347 -1.4170  1.1024 -0.7115
 4142SOL     OW24061   2.835   2.732   6.027  0.1533  0.3353  0.1559
 4142SOL    HW124062   2.861   2.750   5.937 -0.4434  0.1586 -0.0511
 4142SOL    HW224063   2.891   2.656   6.044 -2.7291 -1.4598  1.6540
 4143SOL     OW24064   2.463   2.857  10.708 -0.4312  0.0125  0.5367
 4143SOL    HW124065   2.422   2.783  10.753  0.1201  0.1588  1.2830
 4143SOL    HW224066   2.497   2.910  10.780 -0.5302  2.0117 -0.8990
 4144SOL     OW24067   3.036   1.036   0.973 -0.1898 -0.1022 -0.1490
 4144SOL    HW124068   3.061   0.944   0.961 -0.0145  0.0052 -0.6106
 4144SOL    HW224069   3.051   1.043   1.067  2.3192 -1.0529 -0.4927
 4145SOL     OW24070   4.112   4.110   6.938  0.1134 -0.1859  0.3530
 4145SOL    HW124071   4.075   4.153   7.015  0.0704  1.3643 -0.5407
 4145SOL    HW224072   4.042   4.121   6.873 -1.4239 -0.6695  1.9002
 4146SOL     OW24073   3.502   3.531   5.499 -0.3285 -0.3334  0.1961
 4146SOL    HW124074   3.420   3.575   5.479  0.5560  1.4009  0.3804
 4146SOL    HW224075   3.544   3.611   5.532  0.0806  0.0590 -1.2788
 4147SOL     OW24076   0.505   1.756   1.635  0.0436  0.3972 -0.1667
 4147SOL    HW124077   0.588   1.762   1.588  0.9812 -0.2956  1.4213
 4147SOL    HW224078   0.456   1.830   1.599  0.0604  0.7133  0.4548
 4148SOL     OW24079   0.236   1.602   3.387  0.0933  0.4725  0.0218
 4148SOL    HW124080   0.266   1.571   3.302  2.2771 -2.2243  1.7843
 4148SOL    HW224081   0.293   1.570   3.457 -0.2293 -2.7766 -1.2241
 4149SOL     OW24082   3.073   1.476   4.231 -0.4748  0.6783 -0.1311
 4149SOL    HW124083   3.091   1.452   4.322  1.8541 -1.2322 -1.1058
 4149SOL    HW224084   3.148   1.457   4.175 -0.1851  0.8200  0.2099
 4150SOL     OW24085   1.566   4.400   2.460 -0.5714 -0.2257  0.1564
 4150SOL    HW124086   1.653   4.418   2.424 -0.9688 -0.3630 -0.8651
 4150SOL    HW224087   1.567   4.305   2.457 -0.8397 -0.2566  0.8742
 4151SOL     OW24088   4.654   0.381  17.398  0.3037 -0.4280 -0.0473
 4151SOL    HW124089   4.728   0.341  17.353 -0.1844 -1.6681  0.2478
 4151SOL    HW224090   4.673   0.367  17.491 -0.5456  1.5207  0.4047
 4152SOL     OW24091   0.172   0.403   3.713 -0.4920  0.6939 -0.4422
 4152SOL    HW124092   0.199   0.396   3.805  0.2431 -0.4438 -0.7441
 4152SOL    HW224093   0.080   0.383   3.729 -0.5930  1.2097 -0.3637
 4153SOL     OW24094   1.625   1.166   8.774  1.0051 -0.0899  0.2392
 4153SOL    HW124095   1.544   1.204   8.805  1.0748  1.8217 -1.8761
 4153SOL    HW224096   1.653   1.108   8.845 -0.2111 -1.5556 -0.4788
 4154SOL     OW24097   1.524   4.522  13.687  0.1136 -0.4795 -0.8222
 4154SOL    HW124098   1.561   4.445  13.731  0.9453  1.0695  1.1950
 4154SOL    HW224099   1.560   4.522  13.598  0.2151  1.3206 -0.7816
 4155SOL     OW24100   0.545   1.979   4.877  0.4601 -1.0701  0.2626
 4155SOL    HW124101   0.523   1.977   4.784 -0.8890  0.3063  0.5546
 4155SOL    HW224102   0.555   1.885   4.894  1.1838 -1.0079  0.1847
 4156SOL     OW24103   4.592   0.703   8.229 -0.2154  0.2196  0.3591
 4156SOL    HW124104   4.628   0.634   8.285  0.8292  2.2029  2.1079
 4156SOL    HW224105   4.539   0.751   8.293  0.7302  1.0181  0.5380
 4157SOL     OW24106   2.142   4.566  14.407  0.5565 -0.6842  0.1213
 4157SOL    HW124107   2.212   4.630  14.394 -1.1570  1.3798  1.0138
 4157SOL    HW224108   2.110   4.572  14.497 -2.2432  3.9344 -1.2145
 4158SOL     OW24109   0.023   0.622   1.658  0.0847 -0.4306  0.3277
 4158SOL    HW124110   0.049   0.548   1.713  1.0453 -1.2423 -1.2456
 4158SOL    HW224111   0.016   0.583   1.572  1.4882  0.0047  0.0045
 4159SOL     OW24112   3.367   1.943   5.235 -0.3457 -0.4994 -0.2412
 4159SOL    HW124113   3.382   1.850   5.220 -0.1566 -0.3930 -0.7093
 4159SOL    HW224114   3.452   1.975   5.266 -0.1387 -1.6609  0.4100
 4160SOL     OW24115   4.403   1.831   5.616  0.1555  0.7294 -0.2912
 4160SOL    HW124116   4.386   1.822   5.522 -0.6948 -2.4463  0.1718
 4160SOL    HW224117   4.434   1.922   5.620 -2.1887  1.5125 -0.0492
 4161SOL     OW24118   2.835   4.357   8.705  0.2651 -0.3551 -0.2798
 4161SOL    HW124119   2.747   4.392   8.720  1.2815  1.1756  2.2197
 4161SOL    HW224120   2.831   4.287   8.771  0.1657  0.9140  1.0549
 4162SOL     OW24121   4.056   3.568   7.671  0.1806 -0.3694  0.1188
 4162SOL    HW124122   3.997   3.618   7.614  1.9318  0.1729 -1.2010
 4162SOL    HW224123   4.089   3.641   7.723 -1.9709  1.8730 -1.5944
 4163SOL     OW24124   4.010   3.310   4.692  0.2428  0.1132 -0.6976
 4163SOL    HW124125   3.951   3.386   4.696 -0.2998 -0.3780  0.7599
 4163SOL    HW224126   3.982   3.262   4.614  0.4695  1.0833 -1.3712
 4164SOL     OW24127   3.593   2.265   7.697 -0.0644  0.0751 -0.6413
 4164SOL    HW124128   3.578   2.274   7.603 -0.2113  0.9238 -0.5348
 4164SOL    HW224129   3.630   2.350   7.720  0.8028 -0.0814 -1.4865
 4165SOL     OW24130   4.461   2.612  15.865  0.3625 -0.7100 -0.2964
 4165SOL    HW124131   4.447   2.620  15.960 -0.8467 -2.0165 -0.3624
 4165SOL    HW224132   4.382   2.657  15.835  1.6572  1.3904 -0.5221
 4166SOL     OW24133   1.994   2.669  12.864  0.4997 -0.2587  0.0892
 4166SOL    HW124134   1.908   2.638  12.836  0.1278 -0.0825  1.0649
 4166SOL    HW224135   2.015   2.715  12.782 -2.1640  1.1520  0.2115
 4167SOL     OW24136   3.824   0.117  10.323  0.3686  0.2652  0.1346
 4167SOL    HW124137   3.895   0.175  10.296  2.7244 -1.9427  1.5074
 4167SOL    HW224138   3.743   0.163  10.302  1.9957  1.7560 -2.7761
 4168SOL     OW24139   1.920   3.502   5.022 -0.8027 -0.1960 -0.0552
 4168SOL    HW124140   1.917   3.580   5.077 -0.7056  0.6629 -1.2729
 4168SOL    HW224141   1.880   3.531   4.940 -0.1370 -1.3025 -0.7762
 4169SOL     OW24142   0.249   3.520  14.719  0.1704  0.3239  0.0786
 4169SOL    HW124143   0.278   3.600  14.675  0.6841  1.1269  1.8888
 4169SOL    HW224144   0.223   3.474  14.639 -0.7441 -0.0543  0.5935
 4170SOL     OW24145   2.947   1.777   7.681  0.5864 -0.0993  0.2402
 4170SOL    HW124146   2.886   1.767   7.607 -1.3418 -0.9204  1.9361
 4170SOL    HW224147   3.034   1.761   7.645  0.6520  3.0539 -1.0165
 4171SOL     OW24148   1.613   1.435  12.896 -0.4647  0.1515 -0.1958
 4171SOL    HW124149   1.648   1.520  12.922 -1.1904  0.7644 -1.2339
 4171SOL    HW224150   1.699   1.393  12.886 -0.0289  0.9066  0.3819
 4172SOL     OW24151   2.263   3.120   2.863 -0.0999 -0.5840  0.3597
 4172SOL    HW124152   2.289   3.042   2.814 -2.8488 -0.4252 -1.3595
 4172SOL    HW224153   2.173   3.096   2.886 -0.4215  1.2034  0.9575
 4173SOL     OW24154   1.538   2.953   3.299  0.6704  0.4763 -0.3688
 4173SOL    HW124155   1.466   2.981   3.243  0.7240 -1.4024 -1.3857
 4173SOL    HW224156   1.587   3.034   3.289 -1.2689  1.7625  0.5550
 4174SOL     OW24157   4.268   2.051  16.715 -0.4503  0.2848  0.1677
 4174SOL    HW124158   4.199   2.006  16.764 -0.5512 -3.0103 -3.0335
 4174SOL    HW224159   4.301   1.980  16.661  0.0094  0.5809  0.0597
 4175SOL     OW24160   1.306   0.811   5.698 -0.1930 -0.1563 -0.1573
 4175SOL    HW124161   1.213   0.822   5.677 -0.0783  0.2458 -0.4652
 4175SOL    HW224162   1.336   0.901   5.684 -0.7150  0.2223  1.1339
 4176SOL     OW24163   1.676   3.253   8.621  0.0214 -0.6782 -0.6679
 4176SOL    HW124164   1.601   3.278   8.674  0.4822 -0.2392 -0.2223
 4176SOL    HW224165   1.646   3.284   8.535  0.0090  1.2076  0.0247
 4177SOL     OW24166   3.854   2.905   4.012  0.3013  0.1079 -0.3100
 4177SOL    HW124167   3.866   2.815   3.982  2.5158  0.4237 -0.3850
 4177SOL    HW224168   3.759   2.912   4.005 -0.0263 -2.1984  1.8129
 4178SOL     OW24169   0.670   4.418   6.615 -0.2421  0.6100  0.1807
 4178SOL    HW124170   0.637   4.439   6.528  1.8954  0.0749 -0.7641
 4178SOL    HW224171   0.642   4.496   6.663  0.0708  1.1546 -0.5251
 4179SOL     OW24172   3.044   0.536   7.292  0.2906  0.2038  0.0738
 4179SOL    HW124173   3.086   0.594   7.229 -0.3514  0.4204 -0.1565
 4179SOL    HW224174   2.971   0.501   7.241  0.3509  1.9136 -1.1696
 4180SOL     OW24175   3.893   0.427   6.127  0.0614 -0.1361 -0.0900
 4180SOL    HW124176   3.798   0.432   6.139  0.2127  2.0654  0.1685
 4180SOL    HW224177   3.908   0.333   6.118 -4.0763 -0.7759 -0.5718
 4181SOL     OW24178   4.620   4.539  12.558  0.6633  0.0312 -0.3011
 4181SOL    HW124179   4.716   4.548  12.556  0.2845  4.2919 -0.6048
 4181SOL    HW224180   4.610   4.448  12.584  1.2381  0.4385  1.3672
 4182SOL     OW24181   2.121   2.185  14.899  0.0938 -0.4814 -0.4977
 4182SOL    HW124182   2.104   2.164  14.990  0.5478  4.7895  0.7830
 4182SOL    HW224183   2.216   2.184  14.884 -0.1330  2.7959 -2.1691
 4183SOL     OW24184   2.068   4.328   3.444 -0.1095 -0.0324  0.5449
 4183SOL    HW124185   2.118   4.270   3.501 -0.8030 -2.1944 -1.0249
 4183SOL    HW224186   2.115   4.327   3.360  0.7477  1.4621  1.0197
 4184SOL     OW24187   1.605   4.706   0.021  1.1383 -0.1634 -0.1790
 4184SOL    HW124188   1.532   0.028   0.030  1.9153  1.1120 -2.6958
 4184SOL    HW224189   1.568   4.636  17.724 -1.1909  0.4881  0.6192
 4185SOL     OW24190   1.369   0.130  16.013 -0.0389 -0.4042 -0.0735
 4185SOL    HW124191   1.338   0.210  16.055  1.3852  0.2879 -0.3328
 4185SOL    HW224192   1.446   0.121  16.070 -0.0684  0.5125  0.1028
 4186SOL     OW24193   1.588   1.348   6.597  0.1712  0.1150 -0.3197
 4186SOL    HW124194   1.634   1.317   6.519  1.7669  0.0366  0.6530
 4186SOL    HW224195   1.591   1.270   6.653  0.4289  0.3395 -0.0237
 4187SOL     OW24196   3.398   0.244  17.736  0.4213  1.0145  0.2750
 4187SOL    HW124197   3.338   0.234  17.662  0.5702 -2.0542  0.5905
 4187SOL    HW224198   3.372   0.333   0.005 -0.8665  1.0708 -1.3125
 4188SOL     OW24199   3.405   2.792   3.705 -0.4588  0.6887  0.5694
 4188SOL    HW124200   3.327   2.795   3.649  0.7743 -0.9512 -1.2634
 4188SOL    HW224201   3.417   2.884   3.729  0.7803 -0.0179  2.7107
 4189SOL     OW24202   1.129   2.081   4.466 -0.4426  0.2229 -0.8969
 4189SOL    HW124203   1.154   2.130   4.545  1.2561  1.0128 -1.9112
 4189SOL    HW224204   1.183   2.003   4.480 -0.6189  0.3915  0.7457
 4190SOL     OW24205   3.371   3.470   5.182 -0.1857  0.1691 -0.1849
 4190SOL    HW124206   3.445   3.509   5.136  0.1660  0.2963  0.4899
 4190SOL    HW224207   3.317   3.548   5.192  1.3053  1.3872 -1.7407
 4191SOL     OW24208   4.526   2.747  10.978 -0.0018  0.2320  0.5285
 4191SOL    HW124209   4.435   2.770  10.994  0.3758  1.3232  1.1493
 4191SOL    HW224210   4.563   2.828  11.012 -0.2167 -0.0317  1.4081
 4192SOL     OW24211   0.214   0.492  14.843  0.3394 -0.4730 -0.3338
 4192SOL    HW124212   0.278   0.516  14.777  1.2823  0.3627  0.8823
 4192SOL    HW224213   0.210   0.397  14.834  0.0713 -0.4772 -0.1664
 4193SOL     OW24214   0.302   1.844   3.552  0.7295 -0.1647 -0.2813
 4193SOL    HW124215   0.250   1.809   3.624  1.8034 -0.1578  0.4950
 4193SOL    HW224216   0.268   1.801   3.473 -0.2183  1.4308 -0.7226
 4194SOL     OW24217   3.842   0.451  10.509  0.3355  0.3827  0.1321
 4194SOL    HW124218   3.848   0.366  10.551 -0.3383  0.5747  0.6266
 4194SOL    HW224219   3.919   0.450  10.453  1.3199  0.8991  1.4726
 4195SOL     OW24220   3.349   4.457   1.906 -0.5723 -0.8142 -0.0748
 4195SOL    HW124221   3.255   4.444   1.895 -0.7234 -0.4944  0.7758
 4195SOL    HW224222   3.369   4.515   1.833 -0.0193  0.8459  1.3962
 4196SOL     OW24223   0.079   1.276  10.934 -0.0249  0.3534 -0.3396
 4196SOL    HW124224   4.728   1.266  10.965 -0.6682  1.8731 -1.7328
 4196SOL    HW224225   0.120   1.195  10.966 -1.1641 -0.2247 -0.3189
 4197SOL     OW24226   2.811   0.368   8.611  0.4446 -0.2157 -0.2552
 4197SOL    HW124227   2.842   0.387   8.523  0.5949  0.2666 -0.0951
 4197SOL    HW224228   2.756   0.444   8.626  0.6726  0.2375 -1.6926
 4198SOL     OW24229   1.809   2.605   4.432 -0.1962 -0.1896 -0.3990
 4198SOL    HW124230   1.866   2.556   4.492  1.4837 -1.4285 -3.0121
 4198SOL    HW224231   1.727   2.560   4.453  0.4121 -0.6829  0.9532
 4199SOL     OW24232   3.280   4.308   8.520 -0.2379  0.4022  0.8032
 4199SOL    HW124233   3.249   4.220   8.544 -2.1278  0.3288 -1.9494
 4199SOL    HW224234   3.223   4.352   8.583 -3.6317 -2.3841 -0.2909
 4200SOL     OW24235   3.195   0.733  10.994 -0.1436  0.2709  0.5002
 4200SOL    HW124236   3.255   0.699  11.060 -1.5640 -2.1333  0.5682
 4200SOL    HW224237   3.174   0.657  10.940  1.1513  0.4912 -0.3127
 4201SOL     OW24238   2.780   4.234   4.871 -0.4481  0.3071 -0.0063
 4201SOL    HW124239   2.745   4.173   4.805  0.7854 -0.6195  0.1775
 4201SOL    HW224240   2.841   4.171   4.911 -0.2325  1.2588  1.1332
 4202SOL     OW24241   0.354   0.509   7.652 -0.0046  0.1325  0.3709
 4202SOL    HW124242   0.332   0.431   7.703  1.0086  0.1034  0.7437
 4202SOL    HW224243   0.439   0.534   7.686  0.8001  1.4067 -2.5176
 4203SOL     OW24244   1.584   0.360   7.175 -0.1537  0.2662 -0.1535
 4203SOL    HW124245   1.597   0.452   7.154 -0.3372  0.4187  0.3932
 4203SOL    HW224246   1.530   0.349   7.254 -1.1337  0.9750 -0.7250
 4204SOL     OW24247   1.468   3.936   2.222  0.1875 -0.3368  0.1833
 4204SOL    HW124248   1.387   3.981   2.246 -0.4657 -0.9441 -0.9312
 4204SOL    HW224249   1.502   3.902   2.305  0.1980 -1.6435 -0.3746
 4205SOL     OW24250   0.881   2.769  10.683  0.2372 -0.4193 -0.3960
 4205SOL    HW124251   0.904   2.837  10.619  2.3739  0.8280  1.6738
 4205SOL    HW224252   0.826   2.824  10.739  1.6673  1.2803 -0.6683
 4206SOL     OW24253   4.170   2.207   3.451 -0.0027  0.6181 -0.2964
 4206SOL    HW124254   4.131   2.123   3.476  1.2107  0.2779  0.4267
 4206SOL    HW224255   4.190   2.188   3.359  0.4137 -2.6889  0.4593
 4207SOL     OW24256   0.977   2.042  12.005  0.2725  0.2600  0.0012
 4207SOL    HW124257   1.059   2.089  11.996  0.8634 -0.6378  0.7160
 4207SOL    HW224258   0.946   2.076  12.089 -0.6188 -1.8115  0.5053
 4208SOL     OW24259   1.820   2.540  14.463  0.0075 -0.1941 -0.4534
 4208SOL    HW124260   1.775   2.499  14.537  0.2090 -0.1991 -0.3342
 4208SOL    HW224261   1.873   2.604  14.510 -1.4208  0.4514  0.2580
 4209SOL     OW24262   0.239   4.137  15.867 -0.3901  0.2934 -0.0974
 4209SOL    HW124263   0.285   4.188  15.800 -0.1617  1.0719  0.6635
 4209SOL    HW224264   0.155   4.122  15.822 -0.3769  0.8391 -0.3057
 4210SOL     OW24265   3.356   3.925   7.049  0.1048 -0.0884  0.3296
 4210SOL    HW124266   3.285   3.885   6.999 -1.4732  1.2950  1.4243
 4210SOL    HW224267   3.331   4.017   7.040  0.5350  0.1216  1.3031
 4211SOL     OW24268   1.146   3.195   0.427  0.4250 -0.1809  0.0958
 4211SOL    HW124269   1.136   3.274   0.480 -0.7683  0.3064 -0.8428
 4211SOL    HW224270   1.122   3.228   0.340  1.5606 -0.3235 -0.2757
 4212SOL     OW24271   4.680   2.647   3.405  0.3577 -0.1814 -0.5539
 4212SOL    HW124272   4.671   2.728   3.456 -1.1338 -0.7839  0.1275
 4212SOL    HW224273   4.737   2.681   3.336  0.8662  0.8367  0.3557
 4213SOL     OW24274   3.956   1.172   5.262 -0.0781  0.0228 -0.4398
 4213SOL    HW124275   4.018   1.223   5.209 -1.4576 -0.3002 -2.3533
 4213SOL    HW224276   3.878   1.199   5.213 -0.4923  0.4036  0.4332
 4214SOL     OW24277   1.342   1.839   9.283 -0.6109  0.2982 -0.2717
 4214SOL    HW124278   1.261   1.836   9.232 -0.6987  1.1603 -0.1714
 4214SOL    HW224279   1.365   1.931   9.284 -1.8765  0.6065  0.3846
 4215SOL     OW24280   1.584   3.908   9.031 -0.7384 -0.5413 -0.0400
 4215SOL    HW124281   1.561   3.825   8.989 -1.0197 -0.4897  0.0140
 4215SOL    HW224282   1.496   3.937   9.054 -0.0375  0.1504  1.7860
 4216SOL     OW24283   0.516   1.484  13.079  0.1302  0.2660 -0.4449
 4216SOL    HW124284   0.434   1.471  13.030 -1.0526  0.1557  1.5593
 4216SOL    HW224285   0.553   1.400  13.052 -0.8288  0.4913 -2.4942
 4217SOL     OW24286   0.400   0.384   6.718 -0.3411 -0.1005  0.2565
 4217SOL    HW124287   0.494   0.372   6.730  0.0415  0.3940 -2.2610
 4217SOL    HW224288   0.359   0.368   6.803 -1.8350  0.7875 -0.3016
 4218SOL     OW24289   4.716   2.795   0.514 -0.6759 -0.0908 -0.4006
 4218SOL    HW124290   0.026   2.855   0.570  1.0295 -1.1647 -0.7543
 4218SOL    HW224291   4.627   2.828   0.526 -0.9753 -0.3271 -1.9900
 4219SOL     OW24292   3.065   3.903   7.007 -0.3434 -0.1048  0.0918
 4219SOL    HW124293   3.086   3.819   7.050 -0.3797  1.2795  2.8001
 4219SOL    HW224294   2.992   3.873   6.953  0.6109 -0.7288 -0.8510
 4220SOL     OW24295   1.654   1.389   5.563  0.0295  0.4923  0.1475
 4220SOL    HW124296   1.657   1.473   5.517 -0.4692  1.2963  1.5765
 4220SOL    HW224297   1.584   1.338   5.521 -1.6549  2.0255  1.1006
 4221SOL     OW24298   0.500   0.702   1.766  0.1472 -0.1807  0.3932
 4221SOL    HW124299   0.485   0.792   1.735 -1.4533 -0.4188  0.4505
 4221SOL    HW224300   0.545   0.718   1.848  1.4041 -1.4152 -0.0636
 4222SOL     OW24301   1.435   4.196   0.245  0.2297  0.3597 -0.4161
 4222SOL    HW124302   1.348   4.175   0.212 -0.7337  2.5522  0.6937
 4222SOL    HW224303   1.416   4.264   0.310  1.4046  0.8370 -0.5610
 4223SOL     OW24304   3.636   4.006   4.057  0.0556 -0.1351 -0.1690
 4223SOL    HW124305   3.711   4.021   3.999  0.0272 -0.3576 -0.2643
 4223SOL    HW224306   3.559   4.042   4.012 -0.6549 -1.4433 -0.0121
 4224SOL     OW24307   4.646   3.913   3.336 -0.7833  0.3808 -0.3379
 4224SOL    HW124308   4.733   3.944   3.363 -0.5326  0.0098 -0.7187
 4224SOL    HW224309   4.594   3.975   3.388 -0.4535 -0.9801  1.6302
 4225SOL     OW24310   4.688   2.850  15.941 -0.1178  0.3148 -0.1202
 4225SOL    HW124311   4.684   2.789  15.867  0.4576  0.3122 -0.1523
 4225SOL    HW224312   4.597   2.862  15.966  0.4352  1.2926  1.4032
 4226SOL     OW24313   2.939   1.513   3.791  0.3597  0.2405  0.4143
 4226SOL    HW124314   2.906   1.538   3.878 -0.0190  3.4256 -0.6196
 4226SOL    HW224315   2.975   1.596   3.759 -2.0019  0.8542 -0.5637
 4227SOL     OW24316   1.664   3.873  16.946  0.3695  0.2533  0.5723
 4227SOL    HW124317   1.577   3.876  16.986  0.5181  1.8272  0.7804
 4227SOL    HW224318   1.627   3.850  16.861  0.0945  1.7567  0.2828
 4228SOL     OW24319   3.240   2.987   3.971 -0.3082 -0.5731  0.1109
 4228SOL    HW124320   3.272   2.897   3.977 -0.1569 -0.6234 -1.4617
 4228SOL    HW224321   3.279   3.022   3.891 -0.5295 -3.2090 -1.1496
 4229SOL     OW24322   1.170   3.942   7.069 -0.1253  0.5992 -0.4336
 4229SOL    HW124323   1.088   3.935   7.020  0.0638 -2.5221 -0.3156
 4229SOL    HW224324   1.227   3.920   6.995 -0.5983 -2.1093 -0.0088
 4230SOL     OW24325   1.486   4.452   8.731 -0.1645  0.3766  0.4765
 4230SOL    HW124326   1.535   4.428   8.653  0.0940 -1.6739  1.2785
 4230SOL    HW224327   1.556   4.505   8.769 -0.1770 -0.2077  1.3275
 4231SOL     OW24328   0.621   3.614   4.579  0.0467 -0.0384 -0.0960
 4231SOL    HW124329   0.634   3.577   4.492  0.0703  1.3325 -0.6809
 4231SOL    HW224330   0.663   3.699   4.566  1.5546 -0.6695  0.6554
 4232SOL     OW24331   1.031   0.415  15.961 -0.1377  0.3520  0.3413
 4232SOL    HW124332   0.996   0.335  15.922  2.3079 -2.6061  4.2268
 4232SOL    HW224333   1.124   0.397  15.951 -0.1626 -0.1993  1.1489
 4233SOL     OW24334   0.471   3.725   2.338  0.3793 -0.5400  0.3334
 4233SOL    HW124335   0.512   3.646   2.374 -1.5798 -2.2679 -1.1974
 4233SOL    HW224336   0.547   3.781   2.324  1.4887 -2.1667 -0.1486
 4234SOL     OW24337   1.564   0.838   5.116 -0.0946  0.2916 -0.2004
 4234SOL    HW124338   1.629   0.777   5.151  1.6052  2.8109  1.0545
 4234SOL    HW224339   1.541   0.806   5.029  0.4572  1.7061 -0.8650
 4235SOL     OW24340   1.755   1.468   4.255  0.2285 -0.5381 -0.1725
 4235SOL    HW124341   1.823   1.411   4.291  0.9509 -0.9152 -2.1600
 4235SOL    HW224342   1.813   1.538   4.227 -0.0864 -0.1780  0.0737
 4236SOL     OW24343   3.827   2.944   7.267 -0.0432  0.6547 -0.6938
 4236SOL    HW124344   3.782   2.996   7.333 -1.4592 -0.6298 -0.6383
 4236SOL    HW224345   3.905   2.919   7.317 -0.4330  2.1897  0.6798
 4237SOL     OW24346   3.909   1.331   2.928 -0.1604 -0.0506 -0.3614
 4237SOL    HW124347   3.960   1.317   2.849  1.5168  0.5960  0.6136
 4237SOL    HW224348   3.829   1.283   2.905 -0.3143 -0.4610  1.0573
 4238SOL     OW24349   1.563   3.437   6.934  0.0797 -0.0304  0.0776
 4238SOL    HW124350   1.510   3.504   6.976  1.9110  1.2214  0.4040
 4238SOL    HW224351   1.520   3.365   6.981 -0.5931  0.2124 -0.1681
 4239SOL     OW24352   1.890   4.125   3.761 -0.1000 -0.6930  0.5915
 4239SOL    HW124353   1.885   4.189   3.832 -0.2620 -1.5856  1.3901
 4239SOL    HW224354   1.796   4.111   3.746 -0.2491  2.3974 -1.3300
 4240SOL     OW24355   0.876   3.434   6.654 -0.5528 -0.3539  0.5072
 4240SOL    HW124356   0.916   3.437   6.741  0.1665  2.7452  0.0737
 4240SOL    HW224357   0.867   3.339   6.643  2.5281 -0.4031 -1.6507
 4241SOL     OW24358   0.492   3.108   5.313 -0.3132 -0.2249 -0.1929
 4241SOL    HW124359   0.505   3.199   5.285  0.2280  0.4334  2.2311
 4241SOL    HW224360   0.511   3.068   5.228 -0.2013 -1.5949  0.4823
 4242SOL     OW24361   2.211   4.353   3.223  0.2769 -0.2630  0.5147
 4242SOL    HW124362   2.242   4.266   3.199  0.8543 -0.1345  0.8122
 4242SOL    HW224363   2.143   4.359   3.155 -0.7619 -0.1216  1.5635
 4243SOL     OW24364   0.772   1.833  15.631 -0.2111 -0.1320  0.2705
 4243SOL    HW124365   0.707   1.872  15.572 -0.6941 -0.2192  0.7489
 4243SOL    HW224366   0.757   1.891  15.705 -0.3906  1.1519 -0.7636
 4244SOL     OW24367   3.786   3.022  12.422  0.5329  0.5371 -0.0995
 4244SOL    HW124368   3.826   3.086  12.362  0.4159 -0.3969 -1.1691
 4244SOL    HW224369   3.861   2.963  12.432  1.3448  1.7479  0.9592
 4245SOL     OW24370   1.816   3.216   3.729 -0.1323 -0.3551 -0.2259
 4245SOL    HW124371   1.734   3.193   3.686 -0.4069  0.1865  0.0084
 4245SOL    HW224372   1.869   3.151   3.682 -0.6002 -0.6032 -0.4090
 4246SOL     OW24373   3.845   2.193  17.750 -0.1541  0.4925  0.6618
 4246SOL    HW124374   3.802   2.137   0.059  0.3742 -0.7900 -0.1080
 4246SOL    HW224375   3.779   2.186  17.681  1.4631 -0.1839 -0.8254
 4247SOL     OW24376   4.129   3.150  11.618 -0.3397 -0.1344  0.3262
 4247SOL    HW124377   4.133   3.066  11.572 -2.7201 -0.3152  0.4393
 4247SOL    HW224378   4.214   3.191  11.606  0.4346 -1.6071  0.7287
 4248SOL     OW24379   1.007   2.879  11.092 -0.3084  0.3327  0.2979
 4248SOL    HW124380   1.010   2.789  11.060  3.5259  0.3869  0.5388
 4248SOL    HW224381   1.083   2.897  11.148  1.3438  0.0129 -1.8410
 4249SOL     OW24382   0.541   1.961  13.768 -0.8081  0.3114  0.4170
 4249SOL    HW124383   0.506   1.961  13.857 -1.8461 -0.3661  0.0112
 4249SOL    HW224384   0.463   1.955  13.714 -0.4763  0.0682 -0.0310
 4250SOL     OW24385   1.946   1.171   8.699 -0.3495 -0.5760 -0.2580
 4250SOL    HW124386   1.899   1.254   8.706 -1.2316 -1.3830  3.3275
 4250SOL    HW224387   1.881   1.117   8.655  0.0460 -3.3289  2.5667
 4251SOL     OW24388   3.511   0.685   2.693 -0.0624  0.6489 -0.8754
 4251SOL    HW124389   3.566   0.662   2.768  0.3564  0.7871 -1.1440
 4251SOL    HW224390   3.425   0.673   2.736  0.8518 -0.2954  0.6985
 4252SOL     OW24391   2.898   2.747  13.787 -0.5406 -0.3512  0.1462
 4252SOL    HW124392   2.814   2.747  13.741 -1.1972  1.0930  1.3488
 4252SOL    HW224393   2.891   2.667  13.840  0.9111 -0.6059 -0.0487
 4253SOL     OW24394   2.695   2.641   4.346  0.7315 -0.4054  0.2848
 4253SOL    HW124395   2.671   2.697   4.420  1.1257 -2.4411  1.9467
 4253SOL    HW224396   2.736   2.566   4.388  1.9508 -0.3130 -0.7361
 4254SOL     OW24397   0.874   3.304   2.753  0.5372 -0.9359 -0.1568
 4254SOL    HW124398   0.926   3.383   2.737 -1.2620  0.4246  0.6723
 4254SOL    HW224399   0.801   3.319   2.693  0.9233 -1.6131 -0.7955
 4255SOL     OW24400   2.963   2.141   3.522  0.2772  0.1392  0.4603
 4255SOL    HW124401   2.883   2.100   3.553 -0.9672  0.9342 -1.6329
 4255SOL    HW224402   3.011   2.167   3.600  1.3421 -0.1632 -0.0928
 4256SOL     OW24403   2.095   3.330  11.724  0.0309 -0.5418  0.2136
 4256SOL    HW124404   2.007   3.328  11.760  0.4792  0.4606  1.3810
 4256SOL    HW224405   2.071   3.393  11.656  1.0489  0.7503  1.0480
 4257SOL     OW24406   3.217   2.082   3.394 -0.6330 -0.2693  0.6073
 4257SOL    HW124407   3.272   2.157   3.414  0.4372 -0.8295 -0.2224
 4257SOL    HW224408   3.133   2.106   3.433 -1.4792  0.3375 -1.5496
 4258SOL     OW24409   1.476   0.464  13.174 -0.4831 -0.5135 -0.5732
 4258SOL    HW124410   1.514   0.379  13.196  2.2149  0.5244 -1.2179
 4258SOL    HW224411   1.500   0.468  13.082 -0.1284 -1.7332 -0.5328
 4259SOL     OW24412   4.162   2.966   8.489  0.4666 -0.4095  0.3181
 4259SOL    HW124413   4.220   3.035   8.456  0.3227 -0.3047  0.2887
 4259SOL    HW224414   4.218   2.939   8.561 -0.2129  0.6660  1.2368
 4260SOL     OW24415   2.176   0.097   1.499 -0.0330 -0.2286 -0.2962
 4260SOL    HW124416   2.170   0.188   1.472  0.1200 -0.5122 -1.3059
 4260SOL    HW224417   2.238   0.092   1.571 -2.2039 -1.0922  1.5020
 4261SOL     OW24418   3.972   3.483   6.240 -0.3738 -0.4464 -0.5185
 4261SOL    HW124419   3.915   3.409   6.220 -0.4039 -1.1852  2.3683
 4261SOL    HW224420   3.959   3.540   6.164 -1.9688  1.2863  1.0375
 4262SOL     OW24421   2.581   3.963   3.503  0.1196 -0.2819 -0.0319
 4262SOL    HW124422   2.508   3.906   3.478 -0.2025  0.9285 -1.8411
 4262SOL    HW224423   2.542   4.049   3.493  0.8794  0.1662  0.8318
 4263SOL     OW24424   3.726   1.841   0.908 -0.2398  0.4487  0.3675
 4263SOL    HW124425   3.791   1.840   0.838 -1.0220  0.6543 -0.3607
 4263SOL    HW224426   3.671   1.764   0.893  0.2522 -0.1122  1.4521
 4264SOL     OW24427   2.381   2.053   4.398  0.1018  0.0707  0.4697
 4264SOL    HW124428   2.393   1.958   4.398  0.5572  0.1259 -0.4236
 4264SOL    HW224429   2.317   2.057   4.470  1.3027  0.9625  1.4909
 4265SOL     OW24430   2.081   1.510   9.504  0.4086 -0.2490 -0.9432
 4265SOL    HW124431   2.117   1.427   9.473  2.0687 -0.5504  1.7231
 4265SOL    HW224432   2.148   1.549   9.560  0.6774 -2.0938  0.0190
 4266SOL     OW24433   3.410   3.360   4.903  0.6833  0.6079  0.0575
 4266SOL    HW124434   3.450   3.275   4.923 -1.1825 -0.2262  0.2866
 4266SOL    HW224435   3.451   3.432   4.950  1.1521 -0.2264  0.9219
 4267SOL     OW24436   3.514   3.206  13.010  0.0853  0.0347 -0.5801
 4267SOL    HW124437   3.552   3.126  12.973 -0.9864  0.0692 -1.7321
 4267SOL    HW224438   3.569   3.271  12.967 -1.3129  2.8550  1.9020
 4268SOL     OW24439   1.432   3.268   4.368  0.3525  0.2301 -0.1331
 4268SOL    HW124440   1.392   3.286   4.283  2.2354  0.8195 -0.8882
 4268SOL    HW224441   1.468   3.180   4.356  0.9326  0.3564  0.6394
 4269SOL     OW24442   2.869   3.351   2.511  0.0692 -0.5643  0.2154
 4269SOL    HW124443   2.811   3.427   2.502 -0.6152 -1.3263 -1.7800
 4269SOL    HW224444   2.808   3.278   2.516 -0.0012 -0.3914  1.9359
 4270SOL     OW24445   0.484   1.599  17.385  0.2760 -0.7037 -0.1273
 4270SOL    HW124446   0.445   1.555  17.309 -0.5945  0.8685 -0.5806
 4270SOL    HW224447   0.450   1.545  17.457  1.0957 -1.0338  0.0129
 4271SOL     OW24448   0.442   3.602   6.864  0.0601  0.4812  0.2713
 4271SOL    HW124449   0.471   3.544   6.794  0.2974  0.7795  0.1186
 4271SOL    HW224450   0.486   3.563   6.940 -0.9099 -0.7448  0.1862
 4272SOL     OW24451   0.844   3.339  11.836  0.0246 -0.1865 -0.6175
 4272SOL    HW124452   0.903   3.299  11.772  0.4086 -1.9687  0.8501
 4272SOL    HW224453   0.798   3.261  11.866 -0.5276  0.4192  0.1293
 4273SOL     OW24454   3.966   4.715   8.478 -0.4465  0.0947 -0.1546
 4273SOL    HW124455   3.886   4.667   8.500 -0.5951  0.6087  0.4226
 4273SOL    HW224456   3.990   4.735   8.568  1.2877  1.0761 -0.8247
 4274SOL     OW24457   1.871   3.460  11.618 -0.2484 -0.0298 -0.4065
 4274SOL    HW124458   1.897   3.533  11.562  0.1330 -1.2940 -1.9209
 4274SOL    HW224459   1.810   3.412  11.562 -0.2902  1.1725 -1.3828
 4275SOL     OW24460   1.271   2.427   2.961  0.0957  0.0227 -0.2627
 4275SOL    HW124461   1.301   2.417   3.051  0.2911 -1.6616 -0.5071
 4275SOL    HW224462   1.316   2.356   2.914  2.1507  2.1030 -1.4307
 4276SOL     OW24463   1.518   2.655   8.792 -0.6596 -0.0259 -0.4342
 4276SOL    HW124464   1.445   2.596   8.776  1.6984 -2.9174 -0.5786
 4276SOL    HW224465   1.540   2.695   8.707  1.1450 -0.1408 -0.0265
 4277SOL     OW24466   2.582   1.250   3.145  0.2432  0.2087  0.5537
 4277SOL    HW124467   2.671   1.262   3.180  0.1267 -0.5401  1.1183
 4277SOL    HW224468   2.541   1.246   3.232  2.1106  0.7307  1.4653
 4278SOL     OW24469   3.312   0.478   6.830 -0.3470 -0.0510  0.1551
 4278SOL    HW124470   3.368   0.401   6.826 -1.1918 -0.7295  1.2680
 4278SOL    HW224471   3.259   0.459   6.908 -1.8128 -4.0445 -1.7862
 4279SOL     OW24472   4.658   1.831  16.964 -0.0508 -0.4734  0.7373
 4279SOL    HW124473   4.691   1.792  16.883 -1.6487 -0.4616  0.0934
 4279SOL    HW224474   4.710   1.911  16.963 -2.3034  0.9712  0.0656
 4280SOL     OW24475   3.114   2.159   6.010  0.4400 -0.8569 -0.2472
 4280SOL    HW124476   3.204   2.128   6.018  0.6774  0.0300  0.5761
 4280SOL    HW224477   3.123   2.232   5.949 -0.4306 -0.4566  0.0997
 4281SOL     OW24478   3.327   0.960   5.333  0.1720 -0.4513 -0.2856
 4281SOL    HW124479   3.343   0.928   5.422 -0.1839 -0.0102 -0.0616
 4281SOL    HW224480   3.232   0.965   5.336  0.2061 -0.6002  1.0476
 4282SOL     OW24481   1.913   2.820   5.299  0.0939 -0.2022 -0.1023
 4282SOL    HW124482   1.857   2.827   5.222  0.4309  0.2697 -0.3027
 4282SOL    HW224483   1.975   2.892   5.292  1.9312 -1.7403  0.3785
 4283SOL     OW24484   0.429   1.804   5.816  0.1662 -0.4521  0.0986
 4283SOL    HW124485   0.340   1.821   5.846  0.1680  1.7351 -1.1830
 4283SOL    HW224486   0.454   1.884   5.770 -2.3581 -0.3952 -1.1454
 4284SOL     OW24487   4.528   1.229   1.137 -0.2483 -0.3774 -0.2891
 4284SOL    HW124488   4.459   1.171   1.170  0.0958 -1.8684 -2.1919
 4284SOL    HW224489   4.537   1.173   1.059  0.5145 -1.8269  0.8347
 4285SOL     OW24490   3.751   0.000   0.613 -0.0468  0.0795  0.1560
 4285SOL    HW124491   3.716   0.016   0.525  0.8301  1.9170  0.1311
 4285SOL    HW224492   3.686   4.687   0.658 -0.4368 -0.9319 -1.5873
 4286SOL     OW24493   1.005   1.271   5.332 -0.1599 -0.2678 -0.1460
 4286SOL    HW124494   0.996   1.189   5.381 -0.2217  1.0412  2.0483
 4286SOL    HW224495   0.914   1.294   5.310 -0.0790  0.3355  0.1377
 4287SOL     OW24496   4.432   1.773   3.111 -0.0243 -0.2743 -0.8638
 4287SOL    HW124497   4.370   1.745   3.043  0.0893  1.0841 -1.5438
 4287SOL    HW224498   4.376   1.795   3.186  0.9626  2.2322 -0.8548
 4288SOL     OW24499   2.957   1.938   1.301 -0.0625  0.8286  0.1377
 4288SOL    HW124500   3.036   1.990   1.316  0.7724 -0.8738  1.6897
 4288SOL    HW224501   2.982   1.858   1.254 -1.8528 -0.4270  1.3017
 4289SOL     OW24502   3.710   2.570   8.653  0.1206 -0.1570  0.0374
 4289SOL    HW124503   3.700   2.558   8.558  1.3112 -0.2542 -0.0637
 4289SOL    HW224504   3.687   2.481   8.677  0.5421 -0.7618 -1.7712
 4290SOL     OW24505   3.518   3.266   1.899  0.3433  0.1879 -0.3008
 4290SOL    HW124506   3.505   3.238   1.990 -2.6336 -0.3878 -0.9282
 4290SOL    HW224507   3.467   3.197   1.857  0.4270  0.4261 -0.7900
 4291SOL     OW24508   2.345   2.873   5.675 -0.4308 -1.0827  0.3191
 4291SOL    HW124509   2.405   2.828   5.616 -1.1592 -0.8430 -0.5951
 4291SOL    HW224510   2.258   2.837   5.656 -0.6262 -0.9546  0.9595
 4292SOL     OW24511   2.170   1.912  11.565 -0.2269 -0.0557 -0.7037
 4292SOL    HW124512   2.104   1.934  11.631 -0.3518  0.7480 -1.0912
 4292SOL    HW224513   2.196   1.826  11.598 -2.3106 -0.2283  0.5027
 4293SOL     OW24514   1.807   3.666   4.293  0.3574  0.1006  0.2480
 4293SOL    HW124515   1.746   3.593   4.280  1.8195 -0.8997 -0.9150
 4293SOL    HW224516   1.888   3.623   4.267  1.2345  2.5822 -1.1133
 4294SOL     OW24517   2.292   0.605  13.158 -0.6769 -0.1937 -0.1373
 4294SOL    HW124518   2.329   0.565  13.237 -1.0774  1.3482  0.8333
 4294SOL    HW224519   2.200   0.586  13.177 -0.0347 -2.8240  0.3923
 4295SOL     OW24520   4.524   2.061   5.577  0.6558 -0.5705  0.5432
 4295SOL    HW124521   4.576   2.132   5.539 -0.0621 -0.0755  0.4802
 4295SOL    HW224522   4.534   2.085   5.670  0.8026  0.0319  0.3732
 4296SOL     OW24523   0.892   4.374   5.977  0.5861 -0.2684 -0.3151
 4296SOL    HW124524   0.975   4.398   6.019  1.3080 -1.7006 -0.8935
 4296SOL    HW224525   0.885   4.278   5.974 -0.0814 -0.2929  2.4827
 4297SOL     OW24526   0.714   2.698  15.065  0.2179 -0.5356 -0.4354
 4297SOL    HW124527   0.621   2.715  15.081  0.2906  0.2075 -0.7766
 4297SOL    HW224528   0.750   2.779  15.027 -0.7088 -0.2784 -0.7637
 4298SOL     OW24529   3.108   2.273   2.963  0.3027  0.3725 -0.7777
 4298SOL    HW124530   3.116   2.202   3.027 -1.3618  0.3438 -0.6160
 4298SOL    HW224531   3.097   2.347   3.022  4.3618  0.3966 -0.0202
 4299SOL     OW24532   4.155   0.871   1.602 -0.4639  0.0916  0.0077
 4299SOL    HW124533   4.073   0.823   1.592  0.8249 -2.4399  1.4871
 4299SOL    HW224534   4.157   0.912   1.516 -0.7269 -1.7057 -0.8502
 4300SOL     OW24535   3.060   3.076  16.167 -0.1390  0.2346 -0.6994
 4300SOL    HW124536   3.023   3.148  16.115 -0.9260  0.2003 -0.1672
 4300SOL    HW224537   2.981   3.050  16.214 -1.7946  2.0490 -2.4586
 4301SOL     OW24538   1.073   4.346  16.959 -0.1803 -0.3690  0.3169
 4301SOL    HW124539   1.154   4.305  16.989  1.9256  2.8643 -0.9956
 4301SOL    HW224540   1.021   4.268  16.939 -0.8082 -0.2430  1.4726
 4302SOL     OW24541   3.554   2.733   2.296  0.4856 -0.6080 -0.6368
 4302SOL    HW124542   3.598   2.650   2.277 -0.7998 -1.7239  1.2657
 4302SOL    HW224543   3.562   2.789   2.218 -0.5569 -2.8268 -2.3458
 4303SOL     OW24544   1.589   3.469  15.353  0.4170 -0.3315  0.0959
 4303SOL    HW124545   1.512   3.484  15.299 -0.7553  1.7362  2.3348
 4303SOL    HW224546   1.658   3.484  15.287  0.2726 -2.5587 -0.5491
 4304SOL     OW24547   2.103   0.772   2.389  0.1764  0.2328 -0.0149
 4304SOL    HW124548   2.082   0.862   2.364 -0.5475  0.3000  0.8305
 4304SOL    HW224549   2.142   0.741   2.308  1.4896 -2.4369  1.6482
 4305SOL     OW24550   4.613   2.689   4.749  0.4286  0.0422  0.5646
 4305SOL    HW124551   4.597   2.758   4.685 -1.4503 -0.9415 -0.0418
 4305SOL    HW224552   4.647   2.626   4.685  0.7660 -2.1526  2.9253
 4306SOL     OW24553   2.592   2.087  15.419 -0.2185  0.4624 -0.5781
 4306SOL    HW124554   2.601   1.991  15.414 -0.1313  0.3189  1.9335
 4306SOL    HW224555   2.528   2.100  15.489  0.2302  0.7064 -0.2107
 4307SOL     OW24556   0.072   2.739   4.984  0.7307 -0.1878 -0.1275
 4307SOL    HW124557   4.728   2.779   4.960  1.2303  0.2392 -1.1543
 4307SOL    HW224558   0.135   2.804   4.952 -0.6383  0.4951 -1.4262
 4308SOL     OW24559   4.708   4.378   0.894 -0.3667  0.4193  0.7515
 4308SOL    HW124560   4.727   4.455   0.948 -1.3279  1.9182 -1.0250
 4308SOL    HW224561   4.734   4.302   0.946  0.1430 -0.8613 -1.3969
 4309SOL     OW24562   4.557   4.234   8.679 -0.3355  0.1179  0.5891
 4309SOL    HW124563   4.503   4.310   8.702 -2.3813 -1.3191  0.5231
 4309SOL    HW224564   4.641   4.281   8.686 -0.5951  0.3445  2.1847
 4310SOL     OW24565   2.876   2.905   0.957  1.0822  0.6005 -0.2633
 4310SOL    HW124566   2.945   2.968   0.975  3.2207 -2.0906  0.8500
 4310SOL    HW224567   2.927   2.841   0.908  0.3982  1.1226 -1.6805
 4311SOL     OW24568   3.497   4.604   7.534  0.2895 -0.0712 -0.0053
 4311SOL    HW124569   3.523   4.587   7.443 -1.4015 -0.8219 -0.3447
 4311SOL    HW224570   3.579   4.641   7.566 -0.6010  2.5504 -0.7187
 4312SOL     OW24571   0.202   0.230   4.230 -0.2653 -0.2780 -0.1273
 4312SOL    HW124572   0.281   0.176   4.236  1.0155  1.3933 -1.9220
 4312SOL    HW224573   0.206   0.263   4.140 -1.5605  0.5029  0.1138
 4313SOL     OW24574   2.821   0.202   5.530  0.1636  0.4361  0.0315
 4313SOL    HW124575   2.769   0.222   5.608  0.8193  1.3336  0.2390
 4313SOL    HW224576   2.896   0.161   5.572 -0.9565 -1.4447  0.2100
 4314SOL     OW24577   2.817   1.864   5.593 -0.1975 -0.3722  0.1347
 4314SOL    HW124578   2.774   1.945   5.623 -2.8162 -0.6454 -3.0080
 4314SOL    HW224579   2.903   1.876   5.633  1.0285  0.0580 -2.6384
 4315SOL     OW24580   1.396   1.935   3.968 -0.5410 -0.0526  0.1201
 4315SOL    HW124581   1.373   1.959   4.057 -0.1847 -2.0845  0.7401
 4315SOL    HW224582   1.336   1.863   3.953 -0.6981 -0.0130  0.5901
 4316SOL     OW24583   2.132   1.048   9.805  0.8272  0.1024 -0.2695
 4316SOL    HW124584   2.038   1.054   9.821  1.3342  1.1733  2.3350
 4316SOL    HW224585   2.159   1.032   9.896  1.9063  1.7022 -0.3212
 4317SOL     OW24586   1.197   0.432   9.059 -0.3424 -0.5422 -0.3734
 4317SOL    HW124587   1.119   0.465   9.014  0.5835 -0.0996 -1.6484
 4317SOL    HW224588   1.199   0.341   9.030 -3.0013 -1.0397  0.9982
 4318SOL     OW24589   3.646   3.051   1.612  0.0371 -0.1498 -0.2275
 4318SOL    HW124590   3.556   3.081   1.597 -0.7889 -1.9110  1.0527
 4318SOL    HW224591   3.675   3.075   1.525  1.5291  0.4104  0.4376
 4319SOL     OW24592   1.718   3.344   1.631 -0.1330 -0.0417  0.1502
 4319SOL    HW124593   1.789   3.345   1.695  0.6197 -1.8968 -0.6331
 4319SOL    HW224594   1.760   3.379   1.552  2.1138  0.0086  1.3516
 4320SOL     OW24595   1.613   2.226  17.508 -0.7241  0.3595  0.8611
 4320SOL    HW124596   1.645   2.304  17.461  1.6660 -1.1640 -0.0696
 4320SOL    HW224597   1.525   2.256  17.529 -0.5293 -0.6073  3.0404
 4321SOL     OW24598   4.614   4.513   2.517  0.4346  0.5111  0.1909
 4321SOL    HW124599   4.682   4.549   2.460  0.6703 -1.2976 -0.6867
 4321SOL    HW224600   4.665   4.460   2.578  2.1821  0.5315 -1.2547
 4322SOL     OW24601   1.765   1.316   8.191 -0.4245 -0.6414  0.2523
 4322SOL    HW124602   1.692   1.347   8.245  1.2647  3.3927  0.2368
 4322SOL    HW224603   1.769   1.385   8.125 -1.1701 -1.2479 -0.4229
 4323SOL     OW24604   4.227   3.701   4.210 -0.4950  0.1246 -0.7091
 4323SOL    HW124605   4.284   3.673   4.282 -0.3012  0.1451 -0.8542
 4323SOL    HW224606   4.252   3.632   4.148 -3.7637 -1.7711  0.1008
 4324SOL     OW24607   1.336   4.507   0.160 -0.0586 -0.2869 -0.4926
 4324SOL    HW124608   1.277   4.491   0.234  1.5195  0.0514  0.8372
 4324SOL    HW224609   1.416   4.522   0.210 -0.1635  0.6646 -0.6101
 4325SOL     OW24610   3.089   1.709   7.334 -0.2921 -0.1400 -0.6878
 4325SOL    HW124611   3.127   1.785   7.290  0.5293 -0.1016  0.0852
 4325SOL    HW224612   3.168   1.673   7.375 -1.3550 -0.7741  0.8137
 4326SOL     OW24613   0.502   0.264   2.904  0.3813  0.3826 -0.0671
 4326SOL    HW124614   0.462   0.237   2.821  1.7227  0.7754 -0.8389
 4326SOL    HW224615   0.538   0.351   2.887 -1.0542  1.1239  0.7536
 4327SOL     OW24616   3.378   0.711  16.624  0.6304 -0.1195 -0.1112
 4327SOL    HW124617   3.321   0.785  16.602 -0.8417 -1.4905 -0.9353
 4327SOL    HW224618   3.457   0.759  16.646 -0.2654  2.0180 -1.4807
 4328SOL     OW24619   0.439   1.944   3.179 -0.5295  0.1688 -0.2988
 4328SOL    HW124620   0.403   2.013   3.123 -0.8153  0.8360  0.7135
 4328SOL    HW224621   0.380   1.872   3.159 -1.8373  1.2186 -0.2404
 4329SOL     OW24622   4.676   0.364   4.695 -0.2744 -0.0180 -0.4580
 4329SOL    HW124623   4.703   0.452   4.720  0.8292 -1.1328  2.3478
 4329SOL    HW224624   4.722   0.307   4.757 -0.6027 -1.5507 -1.6091
 4330SOL     OW24625   0.223   3.591   8.492 -0.1048  0.4051 -0.2695
 4330SOL    HW124626   0.190   3.653   8.557  0.5869 -0.5268  0.9589
 4330SOL    HW224627   0.254   3.521   8.549  2.8489  2.4605  0.5949
 4331SOL     OW24628   4.164   2.867   6.307 -0.8793  0.7386  0.1924
 4331SOL    HW124629   4.097   2.822   6.358 -2.1616  1.5424 -0.7715
 4331SOL    HW224630   4.168   2.827   6.220 -0.7829  0.4409  0.3342
 4332SOL     OW24631   2.465   0.329   4.750  0.0074 -0.0550 -0.1774
 4332SOL    HW124632   2.550   0.326   4.707  0.9907 -2.7294  1.9833
 4332SOL    HW224633   2.420   0.252   4.715  2.6415 -0.5433 -2.4491
 4333SOL     OW24634   3.809   0.864  10.935  0.0725  0.7402  0.4492
 4333SOL    HW124635   3.833   0.773  10.948  0.4638  1.1617  2.7368
 4333SOL    HW224636   3.715   0.863  10.917  0.1419  2.1091 -0.0175
 4334SOL     OW24637   2.630   3.354   7.302  0.1873 -0.0387  0.3375
 4334SOL    HW124638   2.555   3.408   7.277  1.0627  1.6959  1.4169
 4334SOL    HW224639   2.696   3.423   7.317  0.5567 -0.1282 -0.8110
 4335SOL     OW24640   2.700   3.320  13.592  0.0235  0.7788  0.4854
 4335SOL    HW124641   2.609   3.321  13.620 -0.3986  0.5112 -0.9114
 4335SOL    HW224642   2.734   3.405  13.623  0.5327 -0.0851  2.3101
 4336SOL     OW24643   2.169   0.337   5.435 -0.0707  0.0102 -0.0661
 4336SOL    HW124644   2.124   0.417   5.462 -0.3720  0.6488 -2.4274
 4336SOL    HW224645   2.117   0.274   5.483 -0.1731 -0.9336 -1.4266
 4337SOL     OW24646   0.662   0.840  10.455 -0.1078  0.3215 -0.5440
 4337SOL    HW124647   0.627   0.826  10.367 -1.2499  1.9191 -0.3441
 4337SOL    HW224648   0.602   0.908  10.487  0.5843  1.3647 -1.4504
 4338SOL     OW24649   2.246   2.041   4.941  0.4113  0.6705 -0.4220
 4338SOL    HW124650   2.283   1.957   4.970  2.1362  1.6456  0.1937
 4338SOL    HW224651   2.324   2.095   4.952  1.4363 -1.0704  0.9636
 4339SOL     OW24652   2.807   2.523   3.784  0.1265  0.1695  0.3833
 4339SOL    HW124653   2.840   2.574   3.710  2.2204  0.8400  1.7739
 4339SOL    HW224654   2.883   2.531   3.842  0.1277 -1.2392  0.5670
 4340SOL     OW24655   3.247   1.114   5.686 -0.2773 -0.2559 -0.0216
 4340SOL    HW124656   3.180   1.047   5.693 -0.6874  0.0518 -0.9895
 4340SOL    HW224657   3.246   1.154   5.599  0.9488  0.8169  0.4461
 4341SOL     OW24658   4.302   1.942   4.354  0.0949 -0.1397 -0.4257
 4341SOL    HW124659   4.307   1.896   4.270  0.9715 -1.9873  0.6347
 4341SOL    HW224660   4.247   1.879   4.400 -0.5995  1.2516  0.6635
 4342SOL     OW24661   1.320   1.010  10.357 -0.0079 -0.1202 -1.0051
 4342SOL    HW124662   1.389   0.944  10.368 -0.6097 -0.4771  0.7132
 4342SOL    HW224663   1.357   1.090  10.394 -0.6278 -1.4616  2.5410
 4343SOL     OW24664   2.841   0.044   4.691 -0.3906 -0.0396  0.1980
 4343SOL    HW124665   2.845   0.043   4.787 -0.1367 -0.1238  0.1893
 4343SOL    HW224666   2.750   0.031   4.665 -0.4847  2.0060 -0.4753
 4344SOL     OW24667   1.947   3.209   4.435  0.5587 -0.7113  0.5361
 4344SOL    HW124668   2.002   3.192   4.359 -2.1215 -1.0742 -1.2960
 4344SOL    HW224669   2.011   3.207   4.507 -0.1720  1.6942  1.2639
 4345SOL     OW24670   1.096   4.058   8.521 -0.0977  0.0993  0.7635
 4345SOL    HW124671   1.030   4.023   8.461 -1.5744  1.8138  1.3798
 4345SOL    HW224672   1.143   3.980   8.549  0.9109  1.2870  2.3594
 4346SOL     OW24673   3.877   2.310   5.932 -0.2396 -0.6146 -0.1829
 4346SOL    HW124674   3.893   2.295   6.025  0.8901 -0.2717 -0.3158
 4346SOL    HW224675   3.912   2.230   5.893  1.5079  0.2714 -0.4548
 4347SOL     OW24676   1.769   3.337   5.238  1.3395 -0.2383 -0.5950
 4347SOL    HW124677   1.844   3.383   5.201  0.5005  2.0688  0.5794
 4347SOL    HW224678   1.707   3.404   5.211  0.1292 -1.4508 -0.8307
 4348SOL     OW24679   4.077   2.541   6.838  0.0052 -0.2075  0.2539
 4348SOL    HW124680   4.001   2.553   6.896  0.7244  0.3037  1.0977
 4348SOL    HW224681   4.113   2.464   6.881  1.5340 -0.2765 -1.1935
 4349SOL     OW24682   1.795   2.624   5.737  0.8064  0.0540  0.1032
 4349SOL    HW124683   1.845   2.701   5.712  1.2728 -0.1498  0.4003
 4349SOL    HW224684   1.866   2.564   5.760  2.2202  1.5340 -0.4136
 4350SOL     OW24685   1.599   1.114  12.239 -0.1462  0.3589 -0.3159
 4350SOL    HW124686   1.567   1.203  12.247 -1.3843  0.2339 -3.8538
 4350SOL    HW224687   1.626   1.088  12.327 -1.4106 -1.0954 -0.3444
 4351SOL     OW24688   0.851   3.132   5.931 -0.3061 -0.5571 -0.1826
 4351SOL    HW124689   0.769   3.132   5.881 -0.1338  1.4657 -0.4722
 4351SOL    HW224690   0.913   3.152   5.861 -0.0975  0.7722  0.3819
 4352SOL     OW24691   3.336   3.408   2.132 -0.4213 -0.3266  0.0515
 4352SOL    HW124692   3.259   3.393   2.186 -1.3815 -0.5346 -1.3827
 4352SOL    HW224693   3.387   3.328   2.143 -0.1470 -0.2039 -0.3033
 4353SOL     OW24694   0.587   1.898  14.587  0.1470  0.1348 -0.3987
 4353SOL    HW124695   0.639   1.835  14.537  1.6382  1.8891 -1.0540
 4353SOL    HW224696   0.526   1.847  14.640 -0.0582 -0.1695 -0.9303
 4354SOL     OW24697   2.422   3.624   5.043  0.0782 -0.2868  0.1631
 4354SOL    HW124698   2.334   3.587   5.048  0.2468 -0.8033 -0.6937
 4354SOL    HW224699   2.392   3.712   5.067 -0.2747 -0.3842  0.0796
 4355SOL     OW24700   3.411   2.107   4.381 -0.5403 -0.7227 -0.3708
 4355SOL    HW124701   3.485   2.106   4.442 -3.9416 -2.0124  3.7052
 4355SOL    HW224702   3.376   2.190   4.410 -0.9414 -1.6440  1.7454
 4356SOL     OW24703   1.212   3.040  17.387  0.0290  0.0400 -0.5448
 4356SOL    HW124704   1.242   3.081  17.468  1.6012 -2.5195  0.1769
 4356SOL    HW224705   1.276   2.969  17.385 -0.4718 -0.4589  1.2223
 4357SOL     OW24706   0.089   2.908   7.081 -0.0715 -0.4054  0.9600
 4357SOL    HW124707   0.165   2.853   7.061 -1.1938 -1.0813 -1.4930
 4357SOL    HW224708   0.081   2.869   7.168  2.0182 -2.2240  0.3426
 4358SOL     OW24709   3.686   1.488   7.672  0.4904 -0.6000 -0.2488
 4358SOL    HW124710   3.706   1.505   7.765  1.2142 -0.2741 -0.4588
 4358SOL    HW224711   3.766   1.527   7.635 -0.5142  0.7766 -0.9785
 4359SOL     OW24712   0.863   3.041   3.272 -0.2084  0.0984  0.1178
 4359SOL    HW124713   0.915   2.961   3.266  1.0509  0.7641  1.9949
 4359SOL    HW224714   0.774   3.010   3.284 -0.3667  0.8484  0.8574
 4360SOL     OW24715   1.427   2.687   7.387  0.2055  0.0655 -0.4190
 4360SOL    HW124716   1.398   2.711   7.299  0.8758  1.1350 -0.3446
 4360SOL    HW224717   1.387   2.601   7.401  0.5582  0.1047  0.8725
 4361SOL     OW24718   1.050   1.442   6.217 -0.1837  0.6127 -0.0789
 4361SOL    HW124719   1.145   1.455   6.224 -0.1549 -0.1907  0.9427
 4361SOL    HW224720   1.036   1.354   6.253 -1.3839  0.3002 -1.2974
 4362SOL     OW24721   2.228   1.816   8.424  0.6207  0.0959  0.0030
 4362SOL    HW124722   2.218   1.730   8.466  1.8124 -0.1977 -0.3115
 4362SOL    HW224723   2.322   1.803   8.408  0.3989 -0.8579 -0.5386
 4363SOL     OW24724   2.219   0.040   2.430 -0.2849  0.5050  0.1080
 4363SOL    HW124725   2.150   0.043   2.363  0.8751  0.9813 -1.0501
 4363SOL    HW224726   2.257   0.128   2.427  1.4060 -0.2170  0.3254
 4364SOL     OW24727   4.626   2.461  17.328  0.2284 -0.1744  0.0609
 4364SOL    HW124728   4.634   2.553  17.354 -0.5388 -0.9533  3.0705
 4364SOL    HW224729   4.652   2.424  17.412  0.7998  0.7322  0.2862
 4365SOL     OW24730   0.451   3.873   6.790 -0.0392 -0.3991  0.7508
 4365SOL    HW124731   0.422   3.795   6.837 -0.8782 -0.5406  0.0144
 4365SOL    HW224732   0.494   3.913   6.866  0.0971  1.0132 -0.0587
 4366SOL     OW24733   3.272   3.663   5.479  0.4222  0.3487 -0.5233
 4366SOL    HW124734   3.234   3.663   5.392 -0.8876  0.9927  0.0516
 4366SOL    HW224735   3.266   3.756   5.501 -2.0728  0.2901 -1.0307
 4367SOL     OW24736   3.235   0.839   9.753 -0.4930 -0.4352  0.5343
 4367SOL    HW124737   3.326   0.827   9.780  0.0855 -0.5281 -1.4537
 4367SOL    HW224738   3.235   0.877   9.665  0.1160  0.6081  0.9881
 4368SOL     OW24739   0.787   3.840   4.583  0.0793 -0.1104  0.0544
 4368SOL    HW124740   0.830   3.876   4.660  0.0186  1.3473 -0.5903
 4368SOL    HW224741   0.863   3.818   4.530 -0.2282 -1.3431  0.1360
 4369SOL     OW24742   0.383   1.660  16.431  0.0445 -0.1400 -0.5046
 4369SOL    HW124743   0.433   1.602  16.374  1.2220  0.5791 -0.2173
 4369SOL    HW224744   0.328   1.700  16.365  0.0997  0.5437 -0.1392
 4370SOL     OW24745   1.567   3.046  16.251  0.3407 -0.0587  0.1754
 4370SOL    HW124746   1.511   3.090  16.315 -0.0184 -1.7392  1.0105
 4370SOL    HW224747   1.648   3.095  16.253 -0.3025  1.0712 -1.1454
 4371SOL     OW24748   4.103   3.729   2.850  0.4349  0.1421  0.2271
 4371SOL    HW124749   4.077   3.658   2.909 -0.6791  0.1858 -0.2227
 4371SOL    HW224750   4.192   3.712   2.820  0.1492 -0.9563  0.0091
 4372SOL     OW24751   2.751   0.466  12.364 -0.1805  0.0507 -0.7285
 4372SOL    HW124752   2.694   0.511  12.301  0.4539  1.1679 -0.5021
 4372SOL    HW224753   2.725   0.490  12.452  0.9129 -0.0819 -0.3694
 4373SOL     OW24754   2.747   0.911  11.011  0.0282 -0.1962 -0.2065
 4373SOL    HW124755   2.831   0.924  11.056 -0.0564 -0.9614  0.1623
 4373SOL    HW224756   2.780   0.907  10.921 -0.0296 -0.1101 -0.2321
 4374SOL     OW24757   2.447   4.362   4.123  0.4798  0.5224  0.6249
 4374SOL    HW124758   2.404   4.303   4.060  1.1977 -0.3918  0.9919
 4374SOL    HW224759   2.371   4.388   4.176 -0.7691  0.3911 -1.0826
 4375SOL     OW24760   2.061   4.207   4.625  0.2056 -0.0995  0.7688
 4375SOL    HW124761   2.047   4.150   4.549  0.1410 -0.1727  0.8349
 4375SOL    HW224762   2.041   4.145   4.695  1.1295 -0.4896  0.6812
 4376SOL     OW24763   3.782   2.608   3.188 -0.2437  0.3831  0.3534
 4376SOL    HW124764   3.746   2.655   3.263  0.8949  1.2238  0.3743
 4376SOL    HW224765   3.752   2.519   3.206  0.6263  0.3620  1.6987
 4377SOL     OW24766   1.204   0.339   0.725  0.1257 -0.1961  0.1210
 4377SOL    HW124767   1.114   0.320   0.753 -0.1396 -0.6787 -1.0551
 4377SOL    HW224768   1.214   0.277   0.653  0.8961  0.9509 -0.7442
 4378SOL     OW24769   0.178   0.958  12.224 -0.3234 -0.1351  0.3745
 4378SOL    HW124770   0.100   0.905  12.242  0.5075 -1.2927  0.5134
 4378SOL    HW224771   0.138   1.040  12.193 -0.7739  0.7116  3.1323
 4379SOL     OW24772   1.257   1.861   7.480 -0.0998  0.2064 -0.2688
 4379SOL    HW124773   1.208   1.860   7.562 -0.9120 -1.5688 -0.7739
 4379SOL    HW224774   1.338   1.906   7.505 -1.8450  0.8088  4.3269
 4380SOL     OW24775   1.853   2.223  12.615  0.1969  0.2493 -0.4627
 4380SOL    HW124776   1.846   2.146  12.557 -1.9339  0.3207 -0.2944
 4380SOL    HW224777   1.942   2.243  12.585  0.2613 -0.2239 -0.5896
 4381SOL     OW24778   0.895   4.458   2.994  0.0981  0.2133 -0.2476
 4381SOL    HW124779   0.971   4.460   3.052 -0.2352 -0.0801  0.2023
 4381SOL    HW224780   0.831   4.413   3.049  0.6278  0.4450  0.5498
 4382SOL     OW24781   1.022   0.522  16.446  0.0453 -0.4189  0.0335
 4382SOL    HW124782   1.013   0.457  16.376  1.4183  1.6173 -2.0413
 4382SOL    HW224783   0.991   0.604  16.407 -1.1741 -1.3202 -0.8962
 4383SOL     OW24784   2.348   2.476   2.691 -0.5587 -0.1077 -0.0088
 4383SOL    HW124785   2.304   2.426   2.760 -1.7425  0.1765 -0.5691
 4383SOL    HW224786   2.278   2.532   2.658 -0.7018  0.1899  0.7864
 4384SOL     OW24787   2.777   4.385   4.407  0.2036  0.4603 -0.0556
 4384SOL    HW124788   2.724   4.465   4.415  1.3078  1.2073 -0.1598
 4384SOL    HW224789   2.705   4.323   4.400  0.3093  0.5511 -1.9253
 4385SOL     OW24790   1.417   1.079   7.338  0.3614  0.0200  0.5379
 4385SOL    HW124791   1.484   1.120   7.283  0.0138 -2.7274 -1.9400
 4385SOL    HW224792   1.352   1.061   7.271  1.6300 -1.9263 -0.1906
 4386SOL     OW24793   1.311   3.982   4.336  0.0636  0.1203  0.5898
 4386SOL    HW124794   1.271   3.983   4.248  0.6323  0.5058  0.3368
 4386SOL    HW224795   1.404   3.962   4.324  0.2420  0.8217  0.8185
 4387SOL     OW24796   3.551   2.714   4.123 -0.5361  0.1819  0.2267
 4387SOL    HW124797   3.533   2.790   4.068 -0.5563  1.0165  1.3748
 4387SOL    HW224798   3.524   2.642   4.067  0.4436 -0.8619  1.0968
 4388SOL     OW24799   0.866   3.030   2.674 -0.2040  0.0728  0.0478
 4388SOL    HW124800   0.826   2.970   2.737 -1.1390  1.8041  1.1455
 4388SOL    HW224801   0.856   3.113   2.722  1.6104  2.9118 -4.4874
 4389SOL     OW24802   1.835   4.158   7.839  0.2290 -0.0561  0.3061
 4389SOL    HW124803   1.916   4.109   7.825 -1.3268 -2.0388 -1.6184
 4389SOL    HW224804   1.799   4.170   7.751  0.1217  0.5988  0.4378
 4390SOL     OW24805   2.084   1.436  17.740 -0.4291 -0.4640 -0.0759
 4390SOL    HW124806   2.145   1.408  17.671 -0.3745  0.1018 -0.2617
 4390SOL    HW224807   2.030   1.358  17.742 -1.7664  0.4610 -0.1637
 4391SOL     OW24808   2.119   2.852   0.763  0.4322  0.3724  0.1486
 4391SOL    HW124809   2.203   2.896   0.776 -0.7547  2.3172  1.2671
 4391SOL    HW224810   2.088   2.850   0.854 -2.4966 -0.8413 -0.8558
 4392SOL     OW24811   1.966   2.673   7.176  0.3610 -0.2407 -0.2306
 4392SOL    HW124812   1.907   2.641   7.245 -1.1455  1.7457 -0.6024
 4392SOL    HW224813   2.027   2.728   7.225 -0.9405  1.4339 -0.4856
 4393SOL     OW24814   3.268   4.174   0.392 -0.1457  0.1405  0.1789
 4393SOL    HW124815   3.194   4.214   0.437  0.1734  0.3203  0.5479
 4393SOL    HW224816   3.287   4.244   0.329  0.2882  0.7887  1.0345
 4394SOL     OW24817   3.108   3.527   3.310  0.0026 -0.1464  0.1378
 4394SOL    HW124818   3.157   3.566   3.238 -3.1223 -1.2517 -2.5413
 4394SOL    HW224819   3.030   3.482   3.279 -1.1719  1.5040  0.6557
 4395SOL     OW24820   1.602   0.060   0.318 -0.6984 -0.1313 -0.0915
 4395SOL    HW124821   1.595   0.145   0.360  1.2594 -0.2182  0.3974
 4395SOL    HW224822   1.613   0.087   0.227 -0.3801 -1.0900 -0.3425
 4396SOL     OW24823   2.183   3.224   7.199  0.3111  0.4436  0.4692
 4396SOL    HW124824   2.105   3.261   7.240 -1.4020  0.9718 -3.2809
 4396SOL    HW224825   2.150   3.203   7.112  1.9922 -0.4142  0.0360
 4397SOL     OW24826   2.455   0.745   8.594  0.6463  0.2324  0.0739
 4397SOL    HW124827   2.505   0.750   8.513  0.3567 -2.6843 -0.2657
 4397SOL    HW224828   2.376   0.697   8.567  2.0890 -1.1740 -1.5787
 4398SOL     OW24829   4.430   1.282   6.009 -0.1426 -0.0087  0.6938
 4398SOL    HW124830   4.426   1.270   6.104  1.8020  0.1112  0.7728
 4398SOL    HW224831   4.402   1.194   5.983 -0.3940  0.3253 -0.1854
 4399SOL     OW24832   3.969   3.316   7.625  0.4347  0.1833  0.4645
 4399SOL    HW124833   4.001   3.404   7.647 -0.4880  0.4207  0.8638
 4399SOL    HW224834   3.879   3.332   7.597  0.3815 -1.9898 -0.5936
 4400SOL     OW24835   4.343   2.316   7.541  0.4206  0.2116  0.3064
 4400SOL    HW124836   4.289   2.254   7.493  1.2642  0.0324 -0.4105
 4400SOL    HW224837   4.281   2.343   7.609 -1.5997 -1.3022 -0.9541
 4401SOL     OW24838   1.475   1.936   5.756 -0.5039 -0.4629 -0.5392
 4401SOL    HW124839   1.392   1.958   5.800  1.2140 -1.0416  2.9407
 4401SOL    HW224840   1.437   1.916   5.670 -1.4891  0.9525 -0.4370
 4402SOL     OW24841   1.815   2.335   7.724  0.1139  0.4005 -0.2020
 4402SOL    HW124842   1.814   2.424   7.757 -1.1809  1.0298 -1.9381
 4402SOL    HW224843   1.733   2.336   7.675  1.1531 -0.8719 -1.9914
 4403SOL     OW24844   1.581   1.509   9.148  0.1991  0.2421 -0.3615
 4403SOL    HW124845   1.508   1.489   9.206  0.4222  3.3527  1.0021
 4403SOL    HW224846   1.605   1.419   9.127 -0.9006  0.5450 -2.7954
 4404SOL     OW24847   0.888   2.362   3.395 -0.0518  0.8656 -0.3585
 4404SOL    HW124848   0.932   2.359   3.480 -0.2380 -1.9748 -0.3708
 4404SOL    HW224849   0.947   2.313   3.338  0.1627  1.0477 -0.2962
 4405SOL     OW24850   3.211   1.197   7.730 -0.2147 -0.3223  0.1066
 4405SOL    HW124851   3.116   1.187   7.728 -0.0900 -1.1621 -1.8746
 4405SOL    HW224852   3.235   1.110   7.763  2.7305 -0.2063 -1.6837
 4406SOL     OW24853   0.377   0.638   8.499 -0.6226 -0.2125 -0.0679
 4406SOL    HW124854   0.349   0.719   8.458  0.7778 -0.7331 -2.0269
 4406SOL    HW224855   0.458   0.615   8.453 -0.6039  1.1557 -0.7233
 4407SOL     OW24856   4.457   3.646   7.202  0.0394  0.7370 -0.4244
 4407SOL    HW124857   4.509   3.639   7.282 -1.7778 -0.1641  0.6780
 4407SOL    HW224858   4.369   3.621   7.231  1.1951  0.2630  2.6650
 4408SOL     OW24859   1.179   4.061   9.253  0.5290  0.1329  0.4908
 4408SOL    HW124860   1.226   3.995   9.201  1.2355  0.6303  0.4930
 4408SOL    HW224861   1.206   4.142   9.210 -1.1617  1.0190  1.0918
 4409SOL     OW24862   0.727   3.951  10.478 -0.0365  0.0366  0.3214
 4409SOL    HW124863   0.725   4.043  10.454 -2.7255  0.3696  1.8810
 4409SOL    HW224864   0.778   3.910  10.407  1.5235 -1.2707  2.1841
 4410SOL     OW24865   2.029   2.392   5.414 -0.2747 -0.0331 -0.1443
 4410SOL    HW124866   2.012   2.442   5.334  0.6642 -0.7274 -0.7766
 4410SOL    HW224867   2.119   2.417   5.436 -0.8150  1.8154 -0.0067
 4411SOL     OW24868   0.867   2.464  12.582 -0.0665  0.6895 -0.6674
 4411SOL    HW124869   0.867   2.369  12.598  2.4408  0.5951 -1.1305
 4411SOL    HW224870   0.861   2.467  12.487  2.0251  1.8230 -0.7815
 4412SOL     OW24871   0.525   3.340   6.807 -0.7182  0.3579  0.3126
 4412SOL    HW124872   0.589   3.278   6.843 -2.3532 -2.1402 -1.0878
 4412SOL    HW224873   0.491   3.299   6.728  1.4271  1.4953 -1.2081
 4413SOL     OW24874   2.333   4.118  16.470 -0.4295  0.2541  0.6401
 4413SOL    HW124875   2.266   4.160  16.417  0.2200 -0.9731 -1.1637
 4413SOL    HW224876   2.411   4.167  16.445 -2.3729  2.4623 -1.0382
 4414SOL     OW24877   0.472   2.460  12.907 -0.1466 -0.5270  0.4235
 4414SOL    HW124878   0.488   2.427  12.819  1.6582  0.1980  0.4723
 4414SOL    HW224879   0.507   2.549  12.908  1.2266 -1.0727 -0.2013
 4415SOL     OW24880   0.835   2.591   2.902  0.2440 -0.2544  0.0449
 4415SOL    HW124881   0.877   2.524   2.954 -1.6014 -2.6599 -1.5571
 4415SOL    HW224882   0.873   2.564   2.818 -1.5977  0.3581 -1.0052
 4416SOL     OW24883   1.008   3.533   3.480  0.4184 -0.0613  0.5410
 4416SOL    HW124884   0.966   3.581   3.409 -2.0358 -2.1706  0.5896
 4416SOL    HW224885   0.956   3.563   3.555 -4.1028 -1.6672 -1.9659
 4417SOL     OW24886   1.980   4.169   1.713 -0.4855  0.0135  0.0727
 4417SOL    HW124887   1.940   4.225   1.780  0.1663  1.8468 -1.0678
 4417SOL    HW224888   2.067   4.149   1.748 -0.3655 -1.5368 -1.0960
 4418SOL     OW24889   1.084   4.198  17.598  0.2434  0.5195  0.3535
 4418SOL    HW124890   1.056   4.286  17.575 -0.4473 -0.5490 -2.8921
 4418SOL    HW224891   1.021   4.138  17.558 -1.0447  1.1983  1.3712
 4419SOL     OW24892   3.950   4.353   7.552 -0.8166 -0.8849 -0.9355
 4419SOL    HW124893   3.996   4.433   7.527  0.9593 -1.2454  1.1043
 4419SOL    HW224894   3.987   4.345   7.640  1.2624 -1.5547 -1.8734
 4420SOL     OW24895   1.988   1.136   0.710 -0.1773 -0.0902 -0.0891
 4420SOL    HW124896   2.014   1.044   0.709  0.9916  0.2446 -1.0970
 4420SOL    HW224897   2.049   1.169   0.643  1.1312  0.0645  1.1838
 4421SOL     OW24898   2.773   2.447   5.014 -0.0633  0.2912  0.1509
 4421SOL    HW124899   2.769   2.389   5.090 -1.0819 -2.5089 -2.0198
 4421SOL    HW224900   2.857   2.490   5.026 -0.3008  1.4066 -2.2476
 4422SOL     OW24901   3.537   1.605   3.115 -0.1956 -0.5795 -0.0060
 4422SOL    HW124902   3.483   1.539   3.159 -2.4887  1.6325  0.5554
 4422SOL    HW224903   3.605   1.551   3.076  0.7294  0.9101 -0.4573
 4423SOL     OW24904   1.154   4.091  10.013  0.3651  0.1469 -0.1108
 4423SOL    HW124905   1.160   4.000   9.983  0.7279  0.1832 -0.1471
 4423SOL    HW224906   1.064   4.107   9.984  0.4679  0.1920 -0.4076
 4424SOL     OW24907   2.510   1.903   4.753  0.5998 -0.1999  0.2501
 4424SOL    HW124908   2.576   1.954   4.800 -1.4875  2.2304  0.5485
 4424SOL    HW224909   2.429   1.954   4.754  1.4450  1.1205  1.1578
 4425SOL     OW24910   1.847   0.859   8.410 -0.4000 -0.8165  0.3727
 4425SOL    HW124911   1.796   0.940   8.417 -0.5326 -0.6560 -2.4858
 4425SOL    HW224912   1.813   0.807   8.483  1.3883 -0.4766  1.4534
 4426SOL     OW24913   1.602   2.251  14.424 -0.0905  0.1992 -0.1841
 4426SOL    HW124914   1.646   2.313  14.366  0.1734  0.5007  0.3385
 4426SOL    HW224915   1.589   2.294  14.509  3.4118 -0.3763  0.6554
 4427SOL     OW24916   2.137   4.717   7.074  0.4004 -0.3089  0.7348
 4427SOL    HW124917   2.143   0.017   6.987 -2.3547 -3.3683 -0.8847
 4427SOL    HW224918   2.045   0.000   7.091  0.3506 -1.0152  1.3994
 4428SOL     OW24919   1.274   3.894  10.626  0.7992 -0.1741 -0.0268
 4428SOL    HW124920   1.298   3.929  10.540 -0.7580 -0.4883 -0.5867
 4428SOL    HW224921   1.252   3.975  10.672  0.4837 -0.8789  1.0435
 4429SOL     OW24922   1.016   3.717   1.245 -0.1407 -0.1429 -0.0916
 4429SOL    HW124923   1.108   3.745   1.239 -0.3380  0.4593 -0.2812
 4429SOL    HW224924   0.984   3.739   1.157  0.2045 -1.7612 -0.6237
 4430SOL     OW24925   2.455   1.833   1.668 -0.9673 -0.3740 -0.2398
 4430SOL    HW124926   2.412   1.878   1.741  0.3584  1.5041 -0.6052
 4430SOL    HW224927   2.532   1.889   1.677 -0.7659 -0.2472 -2.8151
 4431SOL     OW24928   2.736   1.317   8.422  0.1142  0.7736  0.4699
 4431SOL    HW124929   2.754   1.229   8.456 -1.4088 -0.3654 -1.6445
 4431SOL    HW224930   2.706   1.296   8.333 -0.0678  0.0856  0.6911
 4432SOL     OW24931   0.779   1.358   5.233  0.4990  0.3400  0.5750
 4432SOL    HW124932   0.747   1.365   5.143  1.0071  1.7221  0.5046
 4432SOL    HW224933   0.769   1.443   5.278 -2.9174 -0.1424  0.7341
 4433SOL     OW24934   0.054   3.568   7.135  0.6765 -0.1062  0.4593
 4433SOL    HW124935   4.728   3.622   7.092 -1.0314 -0.9860  1.9902
 4433SOL    HW224936   0.084   3.515   7.060  0.9120  2.3568 -1.1737
 4434SOL     OW24937   4.667   3.343   8.697 -0.1763  0.5083  0.4518
 4434SOL    HW124938   4.661   3.405   8.624 -1.5522 -1.1589 -0.8221
 4434SOL    HW224939   0.012   3.360   8.741  0.0895 -0.2942  0.2574
 4435SOL     OW24940   3.794   3.589   5.807  0.2040 -0.5579 -0.0356
 4435SOL    HW124941   3.722   3.633   5.760 -1.4968 -0.0279  3.1131
 4435SOL    HW224942   3.826   3.531   5.738  2.3363 -0.2638  0.7179
 4436SOL     OW24943   3.178   0.359   4.327  0.2327 -0.3264  0.6860
 4436SOL    HW124944   3.202   0.438   4.376 -0.8786  0.0316  0.6737
 4436SOL    HW224945   3.192   0.377   4.234  1.2750 -1.3314  0.6483
 4437SOL     OW24946   1.474   2.268  13.268 -0.5722 -0.5028  0.6920
 4437SOL    HW124947   1.537   2.317  13.321  0.5336 -0.2530 -0.8515
 4437SOL    HW224948   1.394   2.312  13.299  0.2851  1.5822 -0.0446
 4438SOL     OW24949   4.640   1.092   7.774  0.4037 -0.2364 -0.4650
 4438SOL    HW124950   4.557   1.063   7.814  0.1724  0.4856 -0.4261
 4438SOL    HW224951   4.703   1.022   7.791  0.3711 -0.7464 -2.4529
 4439SOL     OW24952   0.691   2.556   9.569  0.4665  0.0758  0.0058
 4439SOL    HW124953   0.779   2.593   9.576  0.8985 -0.7422 -1.0203
 4439SOL    HW224954   0.698   2.467   9.603  1.1848 -0.2454 -0.9929
 4440SOL     OW24955   4.325   3.387   4.302  0.2049 -0.1963  0.0962
 4440SOL    HW124956   4.297   3.297   4.320 -1.5390  0.3798  0.2997
 4440SOL    HW224957   4.283   3.398   4.216  0.8787 -1.3350 -0.3742
 4441SOL     OW24958   1.955   0.656  16.616 -0.0509  0.1975  0.2200
 4441SOL    HW124959   1.918   0.617  16.695  0.3224 -0.2594  0.1670
 4441SOL    HW224960   2.046   0.649  16.646 -0.5198  1.2341  1.8803
 4442SOL     OW24961   3.459   1.241  11.359  0.2361  0.4566  0.0902
 4442SOL    HW124962   3.467   1.155  11.400 -0.9337 -0.8586 -2.4520
 4442SOL    HW224963   3.478   1.224  11.267  2.1714 -1.8211  0.9129
 4443SOL     OW24964   4.515   3.162   6.995 -0.3763 -0.1795 -0.7833
 4443SOL    HW124965   4.491   3.090   7.053  1.4069 -0.2899 -0.1887
 4443SOL    HW224966   4.512   3.236   7.056 -0.1902 -1.7703  1.1121
 4444SOL     OW24967   3.411   0.445  10.386 -0.4244 -0.0584 -0.4457
 4444SOL    HW124968   3.472   0.420  10.316 -3.0252  1.5180 -3.2621
 4444SOL    HW224969   3.353   0.507  10.343  2.1595  1.9848 -0.9561
 4445SOL     OW24970   3.991   1.901   6.916  0.0276 -0.0810  0.3595
 4445SOL    HW124971   3.897   1.914   6.909  0.0182 -0.9853 -1.4303
 4445SOL    HW224972   4.024   1.988   6.894  0.6011 -0.3099  0.3159
 4446SOL     OW24973   4.261   4.603  16.303 -0.7376  0.1810 -0.3745
 4446SOL    HW124974   4.351   4.581  16.280 -0.9631 -0.8002 -0.3070
 4446SOL    HW224975   4.215   4.546  16.241  0.5287 -0.0946 -1.0529
 4447SOL     OW24976   3.712   1.590  15.233 -0.1765  0.5363  0.3156
 4447SOL    HW124977   3.728   1.618  15.323 -0.5963 -1.1952  0.9240
 4447SOL    HW224978   3.708   1.496  15.248  1.4011  0.0157 -2.3399
 4448SOL     OW24979   0.299   1.847  17.747  0.9030 -0.0004  0.4763
 4448SOL    HW124980   0.303   1.936   0.025 -0.1680  0.8441 -1.6541
 4448SOL    HW224981   0.364   1.797   0.040  0.9196 -1.5165 -1.0781
 4449SOL     OW24982   2.154   4.673   1.893 -0.2826  1.1290 -0.2207
 4449SOL    HW124983   2.139   4.615   1.819 -0.6390  0.8593  0.0642
 4449SOL    HW224984   2.119   4.622   1.966  1.2723  0.5526  0.1369
 4450SOL     OW24985   0.322   4.319  15.651 -0.0864  0.2215  0.2818
 4450SOL    HW124986   0.317   4.415  15.652  1.4948  0.2957  1.5007
 4450SOL    HW224987   0.344   4.288  15.564  0.1886  0.8119  0.1437
 4451SOL     OW24988   0.174   1.236  13.561  0.1778  0.3858  0.5201
 4451SOL    HW124989   0.202   1.242  13.470 -0.6940 -3.5124 -0.0006
 4451SOL    HW224990   0.088   1.195  13.553  0.5732 -0.3459  0.0249
 4452SOL     OW24991   0.513   0.773   7.943 -0.1942  0.1644  0.4405
 4452SOL    HW124992   0.589   0.777   8.001 -1.0305 -0.3293  1.5550
 4452SOL    HW224993   0.548   0.702   7.888  0.4529  1.8362 -1.3147
 4453SOL     OW24994   3.753   1.727   0.124  0.6255  0.6370  0.3063
 4453SOL    HW124995   3.814   1.678   0.068 -2.3294 -0.0462 -2.3764
 4453SOL    HW224996   3.707   1.659   0.173  1.2216 -0.7410 -1.0018
 4454SOL     OW24997   1.603   3.004   5.577 -0.0138  0.2391  0.4685
 4454SOL    HW124998   1.657   3.058   5.519 -0.8068 -0.7546 -1.1835
 4454SOL    HW224999   1.656   3.011   5.657  0.6181 -0.3519  0.0928
 4455SOL     OW25000   0.194   1.372  13.794 -0.6763 -0.5874 -0.0317
 4455SOL    HW125001   0.180   1.325  13.712 -0.9010  2.3745 -1.7104
 4455SOL    HW225002   0.271   1.320  13.813  1.2025  1.3685 -2.2749
 4456SOL     OW25003   3.236   4.242   5.899 -0.2406 -0.1762  0.8426
 4456SOL    HW125004   3.321   4.210   5.867  0.2523  1.8768  0.0943
 4456SOL    HW225005   3.244   4.207   5.988 -2.0215  0.7401  1.3584
 4457SOL     OW25006   0.044   2.382   6.487  0.0047 -0.5831  0.6915
 4457SOL    HW125007   0.083   2.338   6.563 -0.6142 -2.8339 -0.3031
 4457SOL    HW225008   0.013   2.312   6.429  1.6937 -0.1589 -0.7177
 4458SOL     OW25009   2.034   4.564   0.796  0.5353  0.4473  0.1844
 4458SOL    HW125010   2.048   4.549   0.703  1.2039 -1.8593  0.6571
 4458SOL    HW225011   2.050   4.477   0.834 -0.2430  0.3293  0.2537
 4459SOL     OW25012   3.255   4.646   8.336  0.0895  0.0737 -0.2847
 4459SOL    HW125013   3.339   4.632   8.380 -0.3937 -0.6928  0.3788
 4459SOL    HW225014   3.199   4.686   8.402 -1.3007 -0.0536 -1.4041
 4460SOL     OW25015   1.540   3.685   8.897 -0.4022 -0.5073  0.5196
 4460SOL    HW125016   1.611   3.634   8.858 -0.6809 -0.1833 -0.4064
 4460SOL    HW225017   1.465   3.678   8.838 -0.4416 -2.6474  0.8162
 4461SOL     OW25018   0.514   4.142   3.974 -0.2438  0.2876 -0.3462
 4461SOL    HW125019   0.487   4.072   3.915 -1.1670  0.6100 -0.3057
 4461SOL    HW225020   0.432   4.150   4.023 -0.5301  0.8527 -0.9121
 4462SOL     OW25021   3.502   4.590   5.417 -0.1258 -0.0496  0.3390
 4462SOL    HW125022   3.476   4.498   5.407 -0.5667  0.4959 -3.9303
 4462SOL    HW225023   3.464   4.626   5.337  1.0853  1.2901  0.3788
 4463SOL     OW25024   1.658   3.049   6.736  0.3820  0.0012 -0.4548
 4463SOL    HW125025   1.591   3.116   6.737  0.4129  0.0135  2.9366
 4463SOL    HW225026   1.689   3.046   6.646 -0.6941 -0.8649 -0.7932
 4464SOL     OW25027   3.713   3.070   5.469 -0.0929  0.1642  0.3882
 4464SOL    HW125028   3.744   3.155   5.438 -0.1949  0.2156  0.4271
 4464SOL    HW225029   3.747   3.009   5.403 -1.7271 -0.3902  0.0728
 4465SOL     OW25030   0.439   2.544  16.921  0.4546 -0.5856  0.1168
 4465SOL    HW125031   0.383   2.468  16.937  1.2149 -1.4228 -1.1571
 4465SOL    HW225032   0.375   2.615  16.924  0.5283 -0.5595  0.9274
 4466SOL     OW25033   1.826   0.087   6.824  0.4186 -0.3258  0.0580
 4466SOL    HW125034   1.748   0.129   6.861  0.4951 -0.9586  0.9319
 4466SOL    HW225035   1.887   0.157   6.804  1.2542 -0.2749  2.6963
 4467SOL     OW25036   4.079   3.762   1.826  0.3779  0.4369 -0.2099
 4467SOL    HW125037   4.039   3.675   1.834  0.9285 -0.1104 -3.5752
 4467SOL    HW225038   4.168   3.734   1.804  1.0881  0.6109  2.4382
 4468SOL     OW25039   1.110   3.736   6.246  0.5345 -0.3012 -0.1888
 4468SOL    HW125040   1.186   3.752   6.190 -1.5005 -0.0834 -2.9057
 4468SOL    HW225041   1.137   3.671   6.310  0.9823 -2.0767 -2.2046
 4469SOL     OW25042   3.377   1.328   6.330 -0.5713 -0.0196 -0.2932
 4469SOL    HW125043   3.309   1.277   6.373 -1.7410  0.5883 -1.4368
 4469SOL    HW225044   3.444   1.350   6.395 -0.2642  1.1737 -1.0108
 4470SOL     OW25045   2.259   3.298  10.593 -0.2399  0.1666  0.5760
 4470SOL    HW125046   2.344   3.262  10.619  0.0911  0.8245  0.4083
 4470SOL    HW225047   2.282   3.372  10.538 -0.0980 -0.9691 -0.9033
 4471SOL     OW25048   0.736   4.250   7.669 -0.1904 -0.1035 -0.2714
 4471SOL    HW125049   0.798   4.185   7.635 -1.5497 -0.8793 -1.2437
 4471SOL    HW225050   0.669   4.187   7.694 -0.6502  0.7142  0.5578
 4472SOL     OW25051   3.780   4.464  14.025 -0.3822 -0.2103  0.1192
 4472SOL    HW125052   3.695   4.507  14.017  0.4616  1.0613 -2.1089
 4472SOL    HW225053   3.766   4.378  13.986  0.8246 -0.1044 -0.5323
 4473SOL     OW25054   2.953   0.462  12.740 -0.4439 -0.5642 -0.2001
 4473SOL    HW125055   3.039   0.503  12.736  0.4078 -2.4344 -0.8550
 4473SOL    HW225056   2.971   0.369  12.726  0.0894 -0.2368 -1.6878
 4474SOL     OW25057   4.617   2.801   8.622  0.0069 -0.2043 -0.0165
 4474SOL    HW125058   4.598   2.740   8.693  1.4976  0.5265  1.0037
 4474SOL    HW225059   4.591   2.884   8.662  0.3239 -1.2605  2.3395
 4475SOL     OW25060   1.441   2.191  12.833  0.3263  0.5734 -0.1993
 4475SOL    HW125061   1.500   2.219  12.904  0.1446  0.0855  0.1432
 4475SOL    HW225062   1.358   2.209  12.878  0.9785  0.1071  1.2126
 4476SOL     OW25063   3.716   2.892   1.839 -0.4067  0.2871  0.5826
 4476SOL    HW125064   3.808   2.885   1.814 -0.2945 -3.3468  1.9462
 4476SOL    HW225065   3.675   2.935   1.764 -0.5633  0.7311  0.9168
 4477SOL     OW25066   3.136   3.153   1.990  0.8392  0.8881 -0.0384
 4477SOL    HW125067   3.096   3.211   1.925 -0.3633 -0.9366 -0.8971
 4477SOL    HW225068   3.063   3.110   2.035  1.4679 -0.9346 -0.7675
 4478SOL     OW25069   2.022   4.044   8.084  0.0216  0.3277 -0.2328
 4478SOL    HW125070   2.029   4.135   8.056  0.5106  0.2883 -0.2460
 4478SOL    HW225071   2.084   4.046   8.157 -0.0572  0.5836 -0.1751
 4479SOL     OW25072   3.021   0.506   1.860 -0.2734  0.5075 -0.2959
 4479SOL    HW125073   3.055   0.459   1.784  1.9614  0.3336  0.7974
 4479SOL    HW225074   2.972   0.577   1.820 -2.0589  0.5032  1.9130
 4480SOL     OW25075   1.629   3.119   1.492 -0.3372  0.3104  0.4287
 4480SOL    HW125076   1.699   3.170   1.531  1.3274 -1.2402 -0.5339
 4480SOL    HW225077   1.616   3.051   1.558 -0.8115  0.4699  0.5042
 4481SOL     OW25078   0.167   2.105   2.350  0.1686  0.1275  0.2043
 4481SOL    HW125079   0.252   2.150   2.356 -0.7701  1.8269  0.8387
 4481SOL    HW225080   0.192   2.015   2.330  1.1704  1.2764 -3.7474
 4482SOL     OW25081   2.586   2.608   2.682  0.4306  0.1944  0.1250
 4482SOL    HW125082   2.515   2.544   2.683  1.6693 -1.1401  2.1157
 4482SOL    HW225083   2.625   2.605   2.769  0.2002 -0.2942  0.2127
 4483SOL     OW25084   1.083   2.674  13.530 -0.0479  0.4913  0.0010
 4483SOL    HW125085   1.162   2.664  13.583 -0.2208  1.9172  0.5282
 4483SOL    HW225086   1.020   2.697  13.599 -1.9083 -1.1822 -1.1413
 4484SOL     OW25087   4.061   4.201   5.630  0.0203  0.2616  0.1410
 4484SOL    HW125088   4.150   4.200   5.593  0.3260  0.0016  0.8904
 4484SOL    HW225089   4.053   4.291   5.662 -1.4544  0.0254  0.4478
 4485SOL     OW25090   1.111   2.720   1.463 -0.1300 -0.0749 -0.1810
 4485SOL    HW125091   1.112   2.664   1.540 -0.1421  1.9119  1.2685
 4485SOL    HW225092   1.103   2.801   1.514  2.2599  0.1090 -0.0603
 4486SOL     OW25093   4.350   0.301  14.824  0.3348 -0.1451 -0.1545
 4486SOL    HW125094   4.319   0.390  14.839 -1.0848 -0.6184 -0.2764
 4486SOL    HW225095   4.275   0.247  14.849 -0.1681  0.5408 -0.1739
 4487SOL     OW25096   4.442   0.280  12.845 -0.2559 -0.0257  0.1794
 4487SOL    HW125097   4.450   0.232  12.762 -0.7506 -0.6412  0.4853
 4487SOL    HW225098   4.347   0.281  12.857 -0.5562  0.2848 -2.1774
 4488SOL     OW25099   1.890   2.761  13.115  0.2105  0.4572 -0.3107
 4488SOL    HW125100   1.806   2.787  13.076 -1.2759 -2.9515  0.6860
 4488SOL    HW225101   1.939   2.722  13.043 -1.2622 -2.1683  0.1271
 4489SOL     OW25102   3.179   0.274   5.372 -0.7365 -0.3454 -0.2887
 4489SOL    HW125103   3.137   0.361   5.377  0.0107 -0.2263  4.0776
 4489SOL    HW225104   3.104   0.214   5.366 -0.6299 -0.4981 -0.0728
 4490SOL     OW25105   2.934   1.979  10.495 -0.5227 -0.2486  0.2818
 4490SOL    HW125106   2.948   1.991  10.401 -1.4148  3.0391  0.5543
 4490SOL    HW225107   2.913   1.886  10.503  0.7868 -0.5846 -0.2831
 4491SOL     OW25108   2.804   3.212   6.381  0.0943 -1.1258  0.3163
 4491SOL    HW125109   2.863   3.206   6.306  0.6073 -0.2093  0.6451
 4491SOL    HW225110   2.728   3.159   6.356 -0.8582  0.3470  0.0900
 4492SOL     OW25111   0.779   2.090   3.106  0.0788 -0.0145 -0.3426
 4492SOL    HW125112   0.863   2.135   3.118 -0.6860  1.4364 -0.4423
 4492SOL    HW225113   0.781   2.009   3.156  0.8204 -0.2376 -0.7200
 4493SOL     OW25114   0.170   4.659   3.048  0.0701  0.4435 -0.2652
 4493SOL    HW125115   0.194   4.654   3.140  0.0096  1.8930 -0.1715
 4493SOL    HW225116   0.213   0.001   3.020 -1.6259  0.7602 -1.9751
 4494SOL     OW25117   2.071   1.709  13.201  0.1658  0.2310 -0.1117
 4494SOL    HW125118   1.988   1.758  13.206  0.4225  0.3730  2.4289
 4494SOL    HW225119   2.048   1.628  13.246  2.3072 -0.1359  0.2923
 4495SOL     OW25120   3.673   2.660   5.543  0.1218  0.3606 -0.6152
 4495SOL    HW125121   3.743   2.726   5.546 -0.5504  1.0574 -0.3005
 4495SOL    HW225122   3.704   2.589   5.600 -1.7970  0.2822  0.3261
 4496SOL     OW25123   0.700   0.796   3.456 -0.0525  0.0729  0.3416
 4496SOL    HW125124   0.657   0.746   3.386 -2.9299  0.8356  1.5372
 4496SOL    HW225125   0.649   0.877   3.453  1.3066  0.8486 -1.5476
 4497SOL     OW25126   2.628   3.891   1.595 -0.4783  0.1995 -0.7472
 4497SOL    HW125127   2.594   3.809   1.630 -0.1657 -0.5287 -2.1309
 4497SOL    HW225128   2.689   3.914   1.665  0.5757 -0.4257 -1.4480
 4498SOL     OW25129   2.177   2.015   9.571  0.1123  0.3024 -0.5420
 4498SOL    HW125130   2.220   2.095   9.602  3.8219 -1.5852 -0.7439
 4498SOL    HW225131   2.244   1.987   9.509 -1.7900 -1.1295 -1.9412
 4499SOL     OW25132   1.067   1.013   0.600  0.4710  0.0203 -0.0470
 4499SOL    HW125133   1.108   1.080   0.655  1.7189 -0.8713  0.0973
 4499SOL    HW225134   1.137   1.010   0.535  0.5147  0.6412 -0.0308
 4500SOL     OW25135   2.975   3.843  14.292  0.6447  0.0452  0.2063
 4500SOL    HW125136   3.001   3.782  14.223  3.5442 -1.1266  2.3307
 4500SOL    HW225137   2.904   3.792  14.331  1.9653 -0.4475  1.9350
 4501SOL     OW25138   0.403   1.379  17.583  0.3244  0.2659 -0.4650
 4501SOL    HW125139   0.491   1.345  17.572  0.2366  0.3685 -1.4460
 4501SOL    HW225140   0.390   1.370  17.678 -0.6934  2.1275 -0.4105
 4502SOL     OW25141   0.744   4.094   9.636 -0.2265 -0.2319  0.4333
 4502SOL    HW125142   0.686   4.135   9.572 -1.7089 -1.0932  1.2131
 4502SOL    HW225143   0.750   4.002   9.608 -3.5081  0.1131 -1.3679
 4503SOL     OW25144   1.914   2.196   5.065 -0.7936 -0.7361  0.6179
 4503SOL    HW125145   1.840   2.138   5.084  0.7520 -2.1488  2.3333
 4503SOL    HW225146   1.931   2.243   5.147 -0.9086  3.2697 -1.6599
 4504SOL     OW25147   4.294   1.946   2.022  0.2981 -0.6951 -0.0648
 4504SOL    HW125148   4.388   1.930   2.033 -0.0690 -2.4533  0.4076
 4504SOL    HW225149   4.278   1.928   2.114 -0.6157  0.1406 -0.0626
 4505SOL     OW25150   3.359   1.642   5.137 -0.1099 -0.7696 -0.3348
 4505SOL    HW125151   3.436   1.617   5.085  0.0351  0.7987 -0.8782
 4505SOL    HW225152   3.299   1.646   5.063 -0.4212  0.6854  0.0012
 4506SOL     OW25153   2.803   1.845   3.333 -0.2724  0.3157  0.0561
 4506SOL    HW125154   2.790   1.751   3.318 -0.1299  0.6322 -2.0106
 4506SOL    HW225155   2.732   1.859   3.395 -0.5547  0.1874 -0.2399
 4507SOL     OW25156   3.034   0.680   4.153  0.2365  0.6007  0.6905
 4507SOL    HW125157   2.979   0.604   4.136 -0.8373  0.9359  2.6458
 4507SOL    HW225158   3.042   0.680   4.249 -1.0698 -1.7426  0.7832
 4508SOL     OW25159   0.031   3.232   3.918 -0.6567 -0.0271 -0.3894
 4508SOL    HW125160   0.033   3.326   3.936 -1.0109 -0.4153  1.6502
 4508SOL    HW225161   4.683   3.210   3.950  0.3187  0.4891  2.6592
 4509SOL     OW25162   4.017   3.232   4.100  0.0498  0.1033  0.0966
 4509SOL    HW125163   3.955   3.272   4.161 -2.0343 -2.2508 -0.4602
 4509SOL    HW225164   4.034   3.150   4.148  1.6962  0.5180  0.2237
 4510SOL     OW25165   3.900   0.438   2.263 -0.3046 -0.1092 -1.2581
 4510SOL    HW125166   3.970   0.464   2.323 -0.7267 -0.3916 -0.6420
 4510SOL    HW225167   3.867   0.368   2.319  0.2346  0.0746 -0.7064
 4511SOL     OW25168   1.697   0.310   1.946 -0.3832 -0.6920 -0.1993
 4511SOL    HW125169   1.667   0.371   2.014 -0.9792  1.1258 -2.0967
 4511SOL    HW225170   1.741   0.371   1.887 -1.7160  2.2068  1.7962
 4512SOL     OW25171   3.760   1.818   8.135 -0.8989  0.0334  0.0291
 4512SOL    HW125172   3.679   1.822   8.185  0.3277  1.9406  1.8682
 4512SOL    HW225173   3.810   1.758   8.191 -1.6031 -0.5482  0.0325
 4513SOL     OW25174   1.725   2.203   0.245  0.0671  0.1084 -0.0113
 4513SOL    HW125175   1.754   2.262   0.315 -2.3232  0.0396  1.0233
 4513SOL    HW225176   1.778   2.230   0.170  2.2434  1.3944  1.9775
 4514SOL     OW25177   3.232   4.537   4.601 -0.2130 -0.4839 -0.3001
 4514SOL    HW125178   3.174   4.530   4.677 -0.5413  0.8314 -0.4266
 4514SOL    HW225179   3.315   4.535   4.649 -1.0299  2.5285  1.2473
 4515SOL     OW25180   0.554   0.729   3.228 -0.3232 -0.6991  0.0819
 4515SOL    HW125181   0.554   0.771   3.142 -0.2973 -0.9094 -0.0185
 4515SOL    HW225182   0.496   0.656   3.208 -0.1251 -0.2159 -2.2844
 4516SOL     OW25183   3.069   0.115   5.610 -0.0331 -0.3368  0.0695
 4516SOL    HW125184   3.135   0.126   5.679  1.8148  2.1628 -2.1095
 4516SOL    HW225185   3.125   0.058   5.558  0.1775  1.1545 -1.3134
 4517SOL     OW25186   4.230   0.466   8.327 -0.3244  0.2901 -0.0766
 4517SOL    HW125187   4.231   0.540   8.266  1.0258 -0.2067 -0.6627
 4517SOL    HW225188   4.320   0.433   8.321  0.7656  3.1052  0.9846
 4518SOL     OW25189   1.592   2.196   3.966  0.2631  0.0745  0.0745
 4518SOL    HW125190   1.615   2.219   3.876  1.0787  2.5674  0.9251
 4518SOL    HW225191   1.532   2.121   3.960  0.4469 -0.0033 -0.7695
 4519SOL     OW25192   0.011   1.584   2.120  0.6701 -0.5180  0.0396
 4519SOL    HW125193   0.048   1.518   2.061  1.3449 -2.7546  2.9522
 4519SOL    HW225194   4.684   1.619   2.061 -1.0488  1.3181  3.0596
 4520SOL     OW25195   2.079   1.118   3.957 -0.3934 -0.4981 -0.3722
 4520SOL    HW125196   2.143   1.165   3.902  0.1898 -1.9904 -0.9652
 4520SOL    HW225197   2.066   1.178   4.031  1.3263  0.8811 -1.1860
 4521SOL     OW25198   4.587   1.409   4.020 -0.1278  0.3550 -0.9737
 4521SOL    HW125199   4.615   1.446   4.104 -1.0652 -0.2034 -0.4138
 4521SOL    HW225200   4.642   1.461   3.962  1.0751  0.8107  0.5737
 4522SOL     OW25201   2.149   3.150   7.990 -0.2308  0.1606  0.0133
 4522SOL    HW125202   2.136   3.094   7.914 -0.2589  1.3628 -0.8568
 4522SOL    HW225203   2.075   3.208   7.971 -0.4467  0.9478  3.3091
 4523SOL     OW25204   2.677   0.000  16.134  0.0056  0.8614 -0.4992
 4523SOL    HW125205   2.615   4.678  16.173  0.1789  0.4370 -0.9025
 4523SOL    HW225206   2.696   0.048  16.215 -0.7498 -1.0380  0.7889
 4524SOL     OW25207   0.926   1.704  10.991 -0.1297  0.3652  0.1736
 4524SOL    HW125208   0.892   1.617  10.972  0.0840  0.1164  0.9266
 4524SOL    HW225209   0.847   1.749  11.022 -0.0351  0.9645 -0.4531
 4525SOL     OW25210   4.169   1.812   9.111  0.4858 -0.0798 -0.3282
 4525SOL    HW125211   4.134   1.866   9.182  2.1153 -1.2293  1.3481
 4525SOL    HW225212   4.194   1.730   9.155 -3.0390 -2.3258 -2.5061
 4526SOL     OW25213   2.087   4.325   5.374 -0.1290  0.1332  0.1700
 4526SOL    HW125214   1.995   4.346   5.387 -0.2356 -0.5380  0.5057
 4526SOL    HW225215   2.105   4.334   5.280  1.8122 -1.1437  0.4084
 4527SOL     OW25216   0.884   2.143   8.385  0.0235  0.2618  0.4386
 4527SOL    HW125217   0.793   2.175   8.387 -0.5212 -1.2399 -0.4943
 4527SOL    HW225218   0.923   2.208   8.326  0.2018  2.1750  2.6533
 4528SOL     OW25219   0.237   3.455   2.722  0.0425 -0.0731 -0.4736
 4528SOL    HW125220   0.175   3.454   2.650 -2.8536  1.4067  1.9975
 4528SOL    HW225221   0.185   3.511   2.780  0.6617  0.8903 -0.8478
 4529SOL     OW25222   4.523   4.127   3.461  0.2201 -0.3806 -0.0041
 4529SOL    HW125223   4.588   4.196   3.471 -2.4381  2.3509 -1.5969
 4529SOL    HW225224   4.450   4.161   3.513 -2.2091 -1.2397 -2.9009
 4530SOL     OW25225   3.241   0.522   8.445 -0.5545 -0.0156 -0.3466
 4530SOL    HW125226   3.218   0.609   8.411 -0.8493  0.4092  0.8937
 4530SOL    HW225227   3.245   0.549   8.537  1.2897 -4.3466  0.8117
 4531SOL     OW25228   0.358   4.018   1.881 -0.2233  0.0720  0.1499
 4531SOL    HW125229   0.312   3.937   1.906 -1.0638  0.7395  0.7879
 4531SOL    HW225230   0.359   4.002   1.787  0.6143 -2.4320  0.5877
 4532SOL     OW25231   2.198   2.178   8.038 -0.5269 -0.0360  0.5041
 4532SOL    HW125232   2.181   2.086   8.016 -0.2912 -0.1346  0.7337
 4532SOL    HW225233   2.290   2.162   8.061 -0.3200  1.2314  0.5545
 4533SOL     OW25234   2.761   0.015   7.331  0.2757 -0.0622  0.4228
 4533SOL    HW125235   2.684   0.025   7.387 -0.0579  1.2216 -0.2639
 4533SOL    HW225236   2.821   0.064   7.386  1.1634 -1.7605  0.9669
 4534SOL     OW25237   4.530   2.456   3.295 -0.5555 -0.3776 -0.4392
 4534SOL    HW125238   4.578   2.385   3.337 -1.3843 -1.5079 -1.4247
 4534SOL    HW225239   4.563   2.527   3.351  0.2690 -2.4286  1.6801
 4535SOL     OW25240   1.919   2.458  11.153 -0.1996 -0.7976 -0.5318
 4535SOL    HW125241   1.868   2.526  11.197  0.8796 -0.0449 -0.4256
 4535SOL    HW225242   1.915   2.385  11.213 -0.8071  0.3591  0.8209
 4536SOL     OW25243   3.267   0.735   4.978  0.3762  0.0043  0.3326
 4536SOL    HW125244   3.271   0.682   5.058 -0.7786 -0.6918 -0.0737
 4536SOL    HW225245   3.352   0.780   4.982 -0.0845  0.9356 -0.5478
 4537SOL     OW25246   1.031   0.046   2.570 -0.4193  0.8788  0.2340
 4537SOL    HW125247   0.972   0.023   2.643 -0.2957 -0.5807 -0.1272
 4537SOL    HW225248   0.992   4.738   2.497  1.9385  0.3326 -0.6780
 4538SOL     OW25249   2.917   2.775   9.403 -0.3119 -0.3179 -0.3423
 4538SOL    HW125250   2.954   2.809   9.322  0.1212 -0.1812 -0.0839
 4538SOL    HW225251   2.919   2.684   9.372 -0.5564 -0.8382  1.1692
 4539SOL     OW25252   3.884   3.279   5.351 -0.1633  0.8293  0.7862
 4539SOL    HW125253   3.972   3.244   5.340 -0.8998 -0.8643  0.3065
 4539SOL    HW225254   3.896   3.373   5.334 -0.9107  0.4499 -1.9118
 4540SOL     OW25255   0.136   0.004  11.078  0.0981 -0.1443 -0.1036
 4540SOL    HW125256   0.200   4.728  11.009  0.2438 -0.4618  0.1016
 4540SOL    HW225257   0.060   0.029  11.026  0.6374 -1.1379 -1.3934
 4541SOL     OW25258   0.787   2.261  13.718 -0.4943  0.1659  0.4060
 4541SOL    HW125259   0.835   2.186  13.751  0.0049 -0.8225 -2.5782
 4541SOL    HW225260   0.785   2.232  13.626 -0.4412 -0.9358  0.7529
 4542SOL     OW25261   2.506   4.475   7.786  0.0186 -0.3241  0.2500
 4542SOL    HW125262   2.505   4.411   7.715  1.6352  1.2499 -1.1905
 4542SOL    HW225263   2.592   4.448   7.819  0.8569  0.7681 -1.0733
 4543SOL     OW25264   2.969   2.964   8.759 -0.4461  0.2364  0.3310
 4543SOL    HW125265   2.995   3.055   8.773 -3.2083  1.1823 -0.6383
 4543SOL    HW225266   2.883   2.958   8.802 -0.1618  0.3618  0.9142
 4544SOL     OW25267   2.185   1.049   6.938  0.0870  0.1884 -0.2133
 4544SOL    HW125268   2.187   1.114   6.867 -0.3956 -0.5956 -0.9354
 4544SOL    HW225269   2.236   0.979   6.898  0.2112  1.2713 -1.9212
 4545SOL     OW25270   1.513   1.809   3.326 -0.1260  0.0080 -0.7355
 4545SOL    HW125271   1.597   1.768   3.306  0.8442  0.6304  2.0767
 4545SOL    HW225272   1.462   1.758   3.264 -1.3190  1.5311 -1.0086
 4546SOL     OW25273   0.997   2.075   9.053 -0.4453  0.6844 -0.1120
 4546SOL    HW125274   0.939   2.149   9.033  0.0224  0.9177 -0.6158
 4546SOL    HW225275   1.080   2.119   9.032  0.6533 -1.9297 -1.2784
 4547SOL     OW25276   3.676   2.680   8.084 -0.5707 -0.6556  0.3150
 4547SOL    HW125277   3.633   2.753   8.128  0.6302  0.5264 -0.4708
 4547SOL    HW225278   3.686   2.720   7.998 -2.2996 -1.1585 -0.1101
 4548SOL     OW25279   3.439   3.223   1.531  0.3990 -0.0234  0.4519
 4548SOL    HW125280   3.458   3.306   1.488 -0.3212  1.0184  2.1555
 4548SOL    HW225281   3.361   3.233   1.586 -0.1673  0.8841 -0.5409
 4549SOL     OW25282   0.136   0.842   5.504 -0.2311 -0.2132 -0.2243
 4549SOL    HW125283   0.110   0.895   5.579 -0.7946 -1.2404  0.3079
 4549SOL    HW225284   0.047   0.805   5.496  0.1858 -1.5487  1.2612
 4550SOL     OW25285   4.444   1.253   6.616  0.8420  0.3960 -0.4157
 4550SOL    HW125286   4.384   1.277   6.545  0.6464 -1.1383 -0.7650
 4550SOL    HW225287   4.488   1.337   6.629 -0.0845  0.6148  1.2459
 4551SOL     OW25288   0.155   1.618   6.823  0.4943 -0.1521 -0.5181
 4551SOL    HW125289   0.107   1.685   6.872  1.1693  1.3985 -1.9514
 4551SOL    HW225290   0.140   1.534   6.866  1.8923 -1.9116 -3.4864
 4552SOL     OW25291   1.083   3.380   2.542  0.2249 -0.2537  0.0038
 4552SOL    HW125292   1.053   3.292   2.568 -1.1154  0.2388  0.1037
 4552SOL    HW225293   0.998   3.419   2.526 -0.0635 -0.3610  1.2534
 4553SOL     OW25294   1.101   4.709   6.479  0.1769 -0.0232  0.2473
 4553SOL    HW125295   1.156   0.045   6.504  0.0834 -0.7289  2.5593
 4553SOL    HW225296   1.063   4.698   6.566  0.4306 -1.4237  0.1817
 4554SOL     OW25297   2.309   1.227  15.859 -0.0520  0.6867 -0.4891
 4554SOL    HW125298   2.329   1.319  15.877 -0.8145  0.5286  1.1646
 4554SOL    HW225299   2.315   1.226  15.763  3.7487 -0.8933 -0.2004
 4555SOL     OW25300   3.022   3.922   3.503 -0.0506 -0.5315  0.1797
 4555SOL    HW125301   3.002   4.005   3.459  0.2850 -1.7037 -2.1892
 4555SOL    HW225302   3.106   3.898   3.465 -1.2223 -0.9427 -2.1630
 4556SOL     OW25303   2.568   0.777  11.769  0.6603  0.2370 -0.3056
 4556SOL    HW125304   2.607   0.731  11.843  0.9492 -0.0601 -0.6496
 4556SOL    HW225305   2.619   0.747  11.695  0.8598  0.2654 -0.1798
 4557SOL     OW25306   1.709   0.194  15.792  0.1269 -0.5505 -0.3190
 4557SOL    HW125307   1.633   0.250  15.808 -0.2886 -0.6984 -1.7341
 4557SOL    HW225308   1.750   0.199  15.878 -0.2759  0.4745 -0.1836
 4558SOL     OW25309   1.420   0.035  15.745 -0.1061 -0.0423 -0.7348
 4558SOL    HW125310   1.429   0.064  15.836  2.9352 -2.1360 -0.3637
 4558SOL    HW225311   1.356   0.099  15.714 -0.6227 -0.4847 -0.5776
 4559SOL     OW25312   2.805   0.420   6.190  0.1817 -0.0465  0.7613
 4559SOL    HW125313   2.729   0.366   6.213 -1.2382  2.2890  1.6066
 4559SOL    HW225314   2.761   0.505   6.188 -0.6704 -0.4717  1.3939
 4560SOL     OW25315   0.367   0.478  14.353 -0.3548  0.5053  0.5596
 4560SOL    HW125316   0.298   0.537  14.322  0.1270  0.9434  0.3326
 4560SOL    HW225317   0.424   0.479  14.276  0.5420  2.1355  1.2464
 4561SOL     OW25318   1.205   1.209   3.191  0.2251  0.0271 -0.2808
 4561SOL    HW125319   1.253   1.134   3.225  0.9757 -0.3612 -2.1853
 4561SOL    HW225320   1.189   1.174   3.103 -1.3491  2.0274 -0.7811
 4562SOL     OW25321   4.326   1.093   4.560 -0.2278  0.5876  0.2233
 4562SOL    HW125322   4.318   1.093   4.464 -1.1347 -1.8282  0.2859
 4562SOL    HW225323   4.235   1.114   4.580 -0.4760 -1.1988  0.9482
 4563SOL     OW25324   0.501   1.058   7.413  0.4226 -0.1853  0.3561
 4563SOL    HW125325   0.426   1.001   7.400 -0.0920 -0.2498  3.5490
 4563SOL    HW225326   0.522   1.072   7.321 -0.4520 -0.4679  0.1181
 4564SOL     OW25327   3.901   3.430   4.288 -0.3907  0.2219 -0.4231
 4564SOL    HW125328   3.828   3.407   4.345  1.3987 -1.2107  1.2713
 4564SOL    HW225329   3.964   3.473   4.346 -0.1080 -0.3064 -0.3401
 4565SOL     OW25330   1.069   3.594  17.559  0.4857  0.1707 -0.1481
 4565SOL    HW125331   1.128   3.520  17.544  0.1471 -0.6328  2.4699
 4565SOL    HW225332   0.993   3.575  17.504 -0.3066  3.9182 -0.3781
 4566SOL     OW25333   3.032   0.545  14.166  0.1611 -0.1379 -0.0688
 4566SOL    HW125334   3.083   0.582  14.239 -1.0718  1.0583  0.1958
 4566SOL    HW225335   3.036   0.622  14.108  0.9419  0.4296  0.7293
 4567SOL     OW25336   0.702   1.836   3.179  0.7050 -0.5162  0.0670
 4567SOL    HW125337   0.668   1.749   3.158  0.2506 -0.4878  0.7059
 4567SOL    HW225338   0.620   1.885   3.182  2.4505  2.3440  1.1807
 4568SOL     OW25339   4.524   0.067  16.040 -0.1164 -0.1137 -0.1475
 4568SOL    HW125340   4.533   4.712  16.047  0.0995 -0.1976 -1.5619
 4568SOL    HW225341   4.610   0.107  16.051 -0.8225  0.8383  1.8752
 4569SOL     OW25342   4.693   2.779   5.497  0.0209  0.1490  0.4651
 4569SOL    HW125343   4.656   2.833   5.427  2.4855 -1.3182 -1.9931
 4569SOL    HW225344   4.676   2.834   5.573 -0.9244 -0.5446  0.7555
 4570SOL     OW25345   0.230   1.791   5.204  0.3175  0.6600  0.4567
 4570SOL    HW125346   0.167   1.862   5.191 -0.2613 -0.0253 -0.4378
 4570SOL    HW225347   0.243   1.770   5.112 -0.6522 -1.5445  0.8274
 4571SOL     OW25348   3.676   1.104   5.153 -0.2499 -0.0657 -0.0551
 4571SOL    HW125349   3.730   1.024   5.157  0.3680  0.3783  0.4584
 4571SOL    HW225350   3.591   1.073   5.185 -0.6104  1.0377  0.0471
 4572SOL     OW25351   2.457   3.969   0.771 -0.2165  0.0781 -0.2045
 4572SOL    HW125352   2.527   3.931   0.824 -1.5103 -0.0566  1.4210
 4572SOL    HW225353   2.381   3.926   0.811  0.2593 -0.2972  0.2989
 4573SOL     OW25354   3.598   2.898   9.420  0.1610 -0.3580 -0.0406
 4573SOL    HW125355   3.584   2.827   9.357  0.0107 -1.1650  0.8979
 4573SOL    HW225356   3.660   2.954   9.374  0.1464 -1.6882 -1.6726
 4574SOL     OW25357   2.828   0.871   6.911 -0.2398  0.1530 -0.1778
 4574SOL    HW125358   2.875   0.792   6.884 -2.1846 -0.9354 -0.3589
 4574SOL    HW225359   2.908   0.920   6.928  0.4087 -1.0988  0.4172
 4575SOL     OW25360   3.603   4.638   0.159  0.2281  0.1797 -0.5378
 4575SOL    HW125361   3.555   4.673   0.084  1.9712  1.1847 -1.1908
 4575SOL    HW225362   3.551   4.677   0.230 -3.3496 -0.4520 -2.7964
 4576SOL     OW25363   4.460   1.648  11.553  0.0137 -0.1380 -0.1809
 4576SOL    HW125364   4.524   1.712  11.584 -1.3407  0.8047  0.6728
 4576SOL    HW225365   4.457   1.587  11.627  1.6529 -0.3860 -0.3194
 4577SOL     OW25366   1.071   1.861  15.235 -0.1739 -0.3883 -0.4549
 4577SOL    HW125367   0.987   1.906  15.244 -1.1018 -2.4126  1.1141
 4577SOL    HW225368   1.039   1.771  15.238  2.0880 -1.1159  2.1651
 4578SOL     OW25369   4.333   2.170   4.214 -0.1382 -0.5040 -0.4310
 4578SOL    HW125370   4.307   2.096   4.269 -1.4384  0.2518 -0.0526
 4578SOL    HW225371   4.428   2.155   4.207 -0.0232  0.4840 -1.0297
 4579SOL     OW25372   1.959   1.706  17.053  0.1127  0.0097  0.6889
 4579SOL    HW125373   1.864   1.698  17.063 -0.1693  1.6813 -0.7671
 4579SOL    HW225374   1.976   1.748  17.137 -1.2302  2.1608 -0.1237
 4580SOL     OW25375   0.581   0.259   3.453 -0.4749 -0.1230  0.7734
 4580SOL    HW125376   0.487   0.247   3.465 -0.5862 -0.4880 -0.4426
 4580SOL    HW225377   0.618   0.176   3.484  2.0688  0.6044 -0.2938
 4581SOL     OW25378   4.305   0.099   7.487  0.0772 -0.2653  0.5005
 4581SOL    HW125379   4.243   0.061   7.550 -0.4092 -1.2268 -0.5550
 4581SOL    HW225380   4.370   0.119   7.555  2.6147 -0.7201 -1.7945
 4582SOL     OW25381   0.924   3.841   8.877 -0.0306 -0.5430  0.1088
 4582SOL    HW125382   0.937   3.794   8.794 -0.5903 -1.1405  0.3583
 4582SOL    HW225383   0.833   3.823   8.900 -0.9638 -0.2718 -3.3945
 4583SOL     OW25384   3.866   2.030  10.140 -0.3288  0.4000 -0.0360
 4583SOL    HW125385   3.956   2.011  10.164  0.5132  2.5329 -1.4801
 4583SOL    HW225386   3.825   1.962  10.194  0.8234  0.6318  1.1300
 4584SOL     OW25387   0.829   2.799   8.310 -0.0835 -0.2695  0.4754
 4584SOL    HW125388   0.858   2.716   8.272 -0.6888 -1.3695  2.3786
 4584SOL    HW225389   0.886   2.809   8.387 -0.0380  2.2673  0.1000
 4585SOL     OW25390   4.687   2.853   5.962 -0.0266  0.4736 -0.7324
 4585SOL    HW125391   4.602   2.834   6.000 -0.9197 -0.2429 -3.1188
 4585SOL    HW225392   4.738   2.776   5.989  0.5941  0.8370 -0.8776
 4586SOL     OW25393   1.904   3.397   6.059 -0.0073 -0.2657 -0.1550
 4586SOL    HW125394   1.971   3.333   6.033 -1.3861 -0.9120 -2.1483
 4586SOL    HW225395   1.957   3.474   6.035 -0.4270 -0.0298 -0.3240
 4587SOL     OW25396   0.997   4.444  17.503  0.3400  0.3995 -0.2125
 4587SOL    HW125397   0.992   4.402  17.417  1.2625 -3.8891  1.8392
 4587SOL    HW225398   0.984   4.536  17.477 -1.7762  0.0358 -0.4397
 4588SOL     OW25399   1.962   2.010   8.231 -0.1665  0.2206  0.4364
 4588SOL    HW125400   2.012   2.064   8.292  2.6858 -1.1386 -0.6853
 4588SOL    HW225401   2.035   1.972   8.181 -0.5664 -0.6556  0.5230
 4589SOL     OW25402   3.055   4.007  16.653  0.1234 -0.5803  0.2796
 4589SOL    HW125403   3.019   4.065  16.587  0.3221  0.2723  0.9258
 4589SOL    HW225404   2.998   3.932  16.636 -0.9874  0.2456  0.3515
 4590SOL     OW25405   1.121   3.307   4.571  0.5639 -0.4005 -0.3925
 4590SOL    HW125406   1.120   3.243   4.642 -1.1701  3.3283  2.9509
 4590SOL    HW225407   1.032   3.289   4.540 -0.5017  2.1952  1.1328
 4591SOL     OW25408   4.576   4.633  17.148  0.3966 -0.3469  0.2797
 4591SOL    HW125409   4.513   4.692  17.188 -0.8832 -0.1502 -2.0032
 4591SOL    HW225410   4.639   4.623  17.219  1.3828  0.8067 -0.4343
 4592SOL     OW25411   0.502   4.658   4.822 -0.7513  0.0552 -0.0042
 4592SOL    HW125412   0.530   4.602   4.749 -0.1761  2.7726 -1.8920
 4592SOL    HW225413   0.414   4.630   4.844 -0.0780 -0.6476  1.7856
 4593SOL     OW25414   1.843   2.412   0.432 -0.0324 -0.2193  0.2364
 4593SOL    HW125415   1.914   2.466   0.397 -0.4663  1.4513  1.9155
 4593SOL    HW225416   1.887   2.360   0.499  0.7439 -0.1177 -0.1993
 4594SOL     OW25417   2.843   3.836   5.424 -0.4796 -0.5850 -0.1971
 4594SOL    HW125418   2.793   3.831   5.343 -2.1309  0.5705  0.7595
 4594SOL    HW225419   2.769   3.822   5.482 -1.9963  2.3745 -1.4535
 4595SOL     OW25420   2.646   3.455   2.755 -0.3900  0.2817 -0.2815
 4595SOL    HW125421   2.604   3.393   2.816 -1.6454  0.6700 -0.7518
 4595SOL    HW225422   2.570   3.508   2.731  0.4872  1.6757  0.0563
 4596SOL     OW25423   3.968   4.613  16.451 -0.3354  0.2295 -0.6883
 4596SOL    HW125424   4.038   4.608  16.386  1.9406 -0.4295  1.8239
 4596SOL    HW225425   3.997   4.695  16.489  0.4505  0.0102 -0.8185
 4597SOL     OW25426   2.721   4.388   2.741 -0.6999  0.1360 -0.5184
 4597SOL    HW125427   2.643   4.403   2.686 -1.4151  0.1147  0.4896
 4597SOL    HW225428   2.785   4.388   2.670 -0.1113  0.0269  0.0180
 4598SOL     OW25429   2.288   1.523   9.683 -0.1962 -0.3496 -0.0262
 4598SOL    HW125430   2.344   1.458   9.726  2.0672  2.0398  0.6109
 4598SOL    HW225431   2.355   1.585   9.655  0.4443 -0.2020  1.8740
 4599SOL     OW25432   4.187   4.635   2.531  0.6594 -0.0348 -0.2687
 4599SOL    HW125433   4.234   4.697   2.475 -1.2495  0.6523 -1.1356
 4599SOL    HW225434   4.261   4.585   2.565 -1.0029 -1.3195  1.4351
 4600SOL     OW25435   4.336   1.857   8.205 -0.3593  0.0766  0.3207
 4600SOL    HW125436   4.405   1.909   8.164 -0.9901  0.3179 -0.4308
 4600SOL    HW225437   4.385   1.810   8.273  0.1087  0.8311  0.5109
 4601SOL     OW25438   2.729   3.879   8.293  0.4525 -0.0216  0.0439
 4601SOL    HW125439   2.667   3.810   8.313  0.7975  0.2159  1.9953
 4601SOL    HW225440   2.676   3.940   8.242  0.7374  0.2048  0.0150
 4602SOL     OW25441   3.377   0.865   7.676  0.3084  0.1481 -0.6706
 4602SOL    HW125442   3.382   0.769   7.677 -2.2620  0.0317 -0.1707
 4602SOL    HW225443   3.289   0.887   7.646  0.1638  1.2660  0.5747
 4603SOL     OW25444   3.518   0.534   6.237  0.2651  0.0294 -0.7900
 4603SOL    HW125445   3.540   0.482   6.314 -2.1410  1.8291  1.0975
 4603SOL    HW225446   3.475   0.600   6.290  0.0868 -0.4567 -0.3322
 4604SOL     OW25447   4.409   1.579   7.556  0.3790  0.0188  0.1113
 4604SOL    HW125448   4.483   1.579   7.617  0.2594 -2.8272  0.2606
 4604SOL    HW225449   4.467   1.587   7.480 -1.4078  2.5058 -0.9825
 4605SOL     OW25450   2.674   0.647  15.187 -0.5043  0.1639 -0.1909
 4605SOL    HW125451   2.640   0.680  15.104 -0.1078 -0.0329 -0.4311
 4605SOL    HW225452   2.613   0.573  15.194 -0.9912  0.6596  0.7645
 4606SOL     OW25453   2.474   0.838  11.120 -0.1559  0.1871 -0.3619
 4606SOL    HW125454   2.522   0.764  11.084 -1.4982 -0.0460 -1.6655
 4606SOL    HW225455   2.511   0.904  11.062  3.1394  0.7415  2.3720
 4607SOL     OW25456   3.308   3.411  12.244 -0.3344 -0.4718  0.1563
 4607SOL    HW125457   3.377   3.386  12.305  0.0639  0.4311  0.0770
 4607SOL    HW225458   3.290   3.326  12.203  2.1961 -0.4626 -0.9508
 4608SOL     OW25459   1.586   2.080   9.829  0.1277  0.4993  0.3629
 4608SOL    HW125460   1.663   2.096   9.883 -0.1912 -1.6342  1.4255
 4608SOL    HW225461   1.648   2.051   9.761 -0.0314  2.4877 -0.6290
 4609SOL     OW25462   3.556   2.982  12.875 -0.0232 -0.2240 -0.3675
 4609SOL    HW125463   3.577   3.009  12.785  0.8534  1.3801  0.3219
 4609SOL    HW225464   3.638   2.943  12.907  1.5659  2.1985 -1.4642
 4610SOL     OW25465   1.891   2.094   6.840 -0.3189 -0.1768 -0.4026
 4610SOL    HW125466   1.882   2.184   6.808 -0.0594 -0.2116 -0.5747
 4610SOL    HW225467   1.797   2.077   6.841 -0.5115  0.8516 -1.1804
 4611SOL     OW25468   3.307   1.859  10.665 -0.4318  0.2564  0.0507
 4611SOL    HW125469   3.305   1.930  10.729  0.2545  1.2965 -1.0838
 4611SOL    HW225470   3.399   1.861  10.640 -0.6663 -1.4466 -0.9268
 4612SOL     OW25471   0.776   2.744   8.671  0.5733 -0.3763  0.1539
 4612SOL    HW125472   0.722   2.796   8.731 -0.9644 -2.1857  0.3175
 4612SOL    HW225473   0.865   2.780   8.670 -0.0667  1.1933 -0.6353
 4613SOL     OW25474   1.326   4.588   3.902  0.0301 -0.1675  0.0473
 4613SOL    HW125475   1.352   4.626   3.818 -1.7718 -0.0668 -0.4681
 4613SOL    HW225476   1.237   4.622   3.899 -0.3317 -1.2041 -0.9242
 4614SOL     OW25477   3.634   1.127  15.500  0.1006  0.0062 -0.1354
 4614SOL    HW125478   3.706   1.177  15.461  0.8687 -0.1428  1.0954
 4614SOL    HW225479   3.560   1.131  15.439 -0.6450  1.8461  0.9035
 4615SOL     OW25480   3.672   1.965  11.836  0.3173  0.3242 -0.6422
 4615SOL    HW125481   3.763   1.991  11.820  0.3420  0.4013 -0.3914
 4615SOL    HW225482   3.639   2.034  11.778 -0.5267  1.0031  0.6337
 4616SOL     OW25483   1.634   2.401   8.647  0.3557 -0.2275  0.2076
 4616SOL    HW125484   1.571   2.430   8.582  0.9331 -2.2773 -1.2738
 4616SOL    HW225485   1.714   2.400   8.594  0.5053  0.0422  0.4274
 4617SOL     OW25486   2.653   4.505  14.039 -0.1298  0.2932  0.3358
 4617SOL    HW125487   2.602   4.426  14.057 -0.4567  0.3380 -0.3998
 4617SOL    HW225488   2.583   4.561  14.007  1.0071  0.6664 -1.4997
 4618SOL     OW25489   4.054   1.773   7.260 -0.5239  0.3312 -0.0969
 4618SOL    HW125490   4.084   1.751   7.349 -0.1819 -0.3281 -0.3835
 4618SOL    HW225491   3.976   1.718   7.251  1.1300 -2.0231  0.3209
 4619SOL     OW25492   1.889   0.020  16.919  0.4858  0.3692  0.0620
 4619SOL    HW125493   1.853   0.107  16.938 -0.2660  0.3249 -1.1383
 4619SOL    HW225494   1.818   4.699  16.896 -0.2554  0.7750  1.2259
 4620SOL     OW25495   1.802   4.365   4.875 -0.0446 -0.2829 -0.8440
 4620SOL    HW125496   1.870   4.404   4.820 -1.0754  0.5891 -1.5033
 4620SOL    HW225497   1.730   4.424   4.854  2.2899  2.2989 -1.7088
 4621SOL     OW25498   0.000   3.918   8.856  0.3603  0.4947  0.0042
 4621SOL    HW125499   4.680   3.984   8.821 -0.4897  0.4964  1.4651
 4621SOL    HW225500   4.687   3.884   8.928  0.7067  0.8578  0.4302
 4622SOL     OW25501   1.164   3.780   8.532  0.2526 -0.5877 -0.6195
 4622SOL    HW125502   1.106   3.719   8.488 -0.7405 -0.5046  0.5567
 4622SOL    HW225503   1.236   3.774   8.470  1.1469  0.0208  0.3456
 4623SOL     OW25504   1.949   3.302   8.391 -0.0548  1.1394 -0.3101
 4623SOL    HW125505   1.938   3.355   8.471 -0.6893 -0.7572  0.8681
 4623SOL    HW225506   2.040   3.274   8.389 -0.0125  1.1691  1.1622
 4624SOL     OW25507   4.252   0.762  12.227  0.5489 -0.3705  0.4752
 4624SOL    HW125508   4.220   0.802  12.308  1.4967  1.3795 -0.0131
 4624SOL    HW225509   4.332   0.715  12.250  0.7797  0.3027  1.0341
 4625SOL     OW25510   2.658   0.675   2.862  0.3912  0.0090 -0.1886
 4625SOL    HW125511   2.606   0.708   2.789  1.8570 -1.2527 -1.8313
 4625SOL    HW225512   2.651   0.761   2.903 -1.2606 -0.9521  1.5209
 4626SOL     OW25513   2.988   4.340   8.029  0.3697 -0.0849 -0.0108
 4626SOL    HW125514   3.007   4.408   8.093  0.6494 -0.9004  0.7723
 4626SOL    HW225515   3.072   4.323   7.987  1.0220  1.1849  0.8117
 4627SOL     OW25516   2.023   1.763  15.329 -0.3434  0.0405 -0.4968
 4627SOL    HW125517   2.111   1.733  15.348 -0.3187  0.8845  0.6947
 4627SOL    HW225518   1.974   1.681  15.325 -0.6721  0.2462 -0.7155
 4628SOL     OW25519   2.012   4.483   0.517 -0.4639 -0.1657 -0.3495
 4628SOL    HW125520   2.007   4.390   0.495  0.7198 -0.1065 -0.8881
 4628SOL    HW225521   1.930   4.519   0.483 -1.5832 -1.3966  1.0326
 4629SOL     OW25522   4.340   0.929   7.603 -0.0340 -0.2423 -0.6056
 4629SOL    HW125523   4.384   1.008   7.633 -1.4035  0.2249  0.1774
 4629SOL    HW225524   4.265   0.931   7.662  1.8535 -1.7490  1.8665
 4630SOL     OW25525   1.153   1.551   2.789 -0.0333 -0.3046 -0.5757
 4630SOL    HW125526   1.125   1.638   2.820 -1.0736 -0.9356  0.2627
 4630SOL    HW225527   1.079   1.492   2.804 -0.9806  0.7514 -1.0293
 4631SOL     OW25528   2.946   3.270   1.386 -0.7624  0.0285  0.1181
 4631SOL    HW125529   2.876   3.287   1.324  0.2596  1.1326 -0.7428
 4631SOL    HW225530   2.935   3.339   1.452  1.5558  0.1558  0.3938
 4632SOL     OW25531   3.366   4.387  17.368 -0.2917  0.1959 -0.0842
 4632SOL    HW125532   3.435   4.440  17.408 -1.3892  0.8839  0.8821
 4632SOL    HW225533   3.397   4.302  17.400 -1.8363 -0.8422 -1.3218
 4633SOL     OW25534   2.161   0.407   3.526 -0.8208 -0.5158 -0.6918
 4633SOL    HW125535   2.203   0.421   3.611  0.3504 -0.4419 -1.2835
 4633SOL    HW225536   2.211   0.455   3.459  1.6946  0.1860  1.6928
 4634SOL     OW25537   0.004   3.550   7.388  0.4153  0.3677 -0.8157
 4634SOL    HW125538   0.069   3.584   7.449  0.7985  0.1760 -1.1115
 4634SOL    HW225539   0.046   3.562   7.303  0.7337 -1.7737 -0.9621
 4635SOL     OW25540   1.411   1.173   1.961 -0.3133  0.5070 -0.1027
 4635SOL    HW125541   1.339   1.161   1.899 -1.3077  2.0937  0.7426
 4635SOL    HW225542   1.364   1.223   2.028  1.8937 -0.1567  1.9275
 4636SOL     OW25543   3.680   0.144   0.361 -0.1532 -0.0599 -0.3796
 4636SOL    HW125544   3.592   0.152   0.326 -0.0759 -2.4823 -1.0683
 4636SOL    HW225545   3.666   0.172   0.452 -2.5916  2.9178 -1.6504
 4637SOL     OW25546   3.033   1.454  12.743  0.2331 -0.2460  0.6002
 4637SOL    HW125547   3.015   1.529  12.687 -0.3353  0.0007  1.1124
 4637SOL    HW225548   2.958   1.479  12.796 -0.4660 -2.0099  0.4660
 4638SOL     OW25549   2.911   4.435   3.380 -0.2460  0.2988 -0.1967
 4638SOL    HW125550   2.980   4.480   3.330  2.4329 -1.2232  2.1367
 4638SOL    HW225551   2.881   4.377   3.310  2.4941 -2.9149  1.3250
 4639SOL     OW25552   4.331   2.179   5.317 -0.2285  0.3814 -0.4904
 4639SOL    HW125553   4.305   2.230   5.240 -0.8286  0.9405  0.0863
 4639SOL    HW225554   4.410   2.229   5.341  0.8967 -1.8661  0.4657
 4640SOL     OW25555   3.444   2.451   1.747 -0.7541 -0.4357  0.0843
 4640SOL    HW125556   3.447   2.369   1.796 -1.2656 -0.7247 -0.3676
 4640SOL    HW225557   3.509   2.501   1.795  0.7182 -1.3926 -0.9011
 4641SOL     OW25558   2.284   0.500   9.172  0.0456  0.2098 -0.3267
 4641SOL    HW125559   2.347   0.460   9.111  1.3418  1.8716 -0.0979
 4641SOL    HW225560   2.327   0.586   9.179  2.2181 -0.9260  0.4690
 4642SOL     OW25561   3.535   4.647   6.509 -0.2282  0.0164  0.2016
 4642SOL    HW125562   3.467   4.681   6.567  0.2624  2.1681 -0.4950
 4642SOL    HW225563   3.481   4.627   6.433  1.2672  1.4508 -1.2343
 4643SOL     OW25564   1.861   2.725   0.682  0.4952 -1.2363  0.2777
 4643SOL    HW125565   1.947   2.762   0.703  0.1519  0.2691 -0.9218
 4643SOL    HW225566   1.835   2.688   0.766  1.8978  0.2629  1.3739
 4644SOL     OW25567   4.144   0.418  16.209 -0.1075 -0.1193 -0.6834
 4644SOL    HW125568   4.217   0.357  16.215 -1.3063 -1.2972  1.9118
 4644SOL    HW225569   4.134   0.441  16.301 -0.0544 -1.5693 -0.3215
 4645SOL     OW25570   1.240   3.197   0.843 -0.2591  0.3193 -0.1481
 4645SOL    HW125571   1.275   3.136   0.779  0.3028  0.2159  0.2600
 4645SOL    HW225572   1.316   3.239   0.882 -1.7219  2.4156  0.4692
 4646SOL     OW25573   2.628   4.377   2.250  0.3111  0.6600  0.1000
 4646SOL    HW125574   2.650   4.287   2.273  1.8272  0.9690 -0.1510
 4646SOL    HW225575   2.555   4.360   2.191  0.2523  0.8959  0.1042
 4647SOL     OW25576   0.813   1.867   6.061 -0.2269 -0.1037  0.1832
 4647SOL    HW125577   0.841   1.872   5.970  1.7406  2.7003  0.9215
 4647SOL    HW225578   0.865   1.789   6.082  0.5954  0.4797  0.2879
 4648SOL     OW25579   0.159   2.096   5.924 -0.2342 -0.1808 -0.4680
 4648SOL    HW125580   0.247   2.109   5.959  0.7799 -3.3287 -1.8877
 4648SOL    HW225581   0.106   2.100   6.003 -1.3655 -0.6575 -1.2019
 4649SOL     OW25582   3.960   3.853   2.153  0.6968 -0.0377 -0.8610
 4649SOL    HW125583   4.055   3.864   2.163  0.6292  0.0073 -0.2863
 4649SOL    HW225584   3.945   3.780   2.213  0.7213  0.7507  0.1091
 4650SOL     OW25585   0.030   1.784   6.978 -0.4937  0.1577 -0.4808
 4650SOL    HW125586   4.703   1.775   7.047 -0.1550  1.8822  0.0728
 4650SOL    HW225587   0.103   1.826   7.023 -1.5933  1.6614 -0.0852
 4651SOL     OW25588   3.367   2.874   5.329 -0.2977 -0.5103  0.2450
 4651SOL    HW125589   3.407   2.848   5.246 -2.9785  0.2011 -1.2565
 4651SOL    HW225590   3.326   2.797   5.368 -2.5633  0.5433 -0.0841
 4652SOL     OW25591   2.770   0.972   3.782 -0.1353 -0.0857 -0.0732
 4652SOL    HW125592   2.723   1.004   3.859  0.6794 -0.5345  0.6232
 4652SOL    HW225593   2.851   0.940   3.822 -0.1228  0.0970  0.0486
 4653SOL     OW25594   3.742   2.254  14.956 -0.2361 -0.2939  0.0580
 4653SOL    HW125595   3.729   2.258  14.861  2.7069 -0.7361 -0.3752
 4653SOL    HW225596   3.757   2.161  14.975  0.7233  0.1450  1.4405
 4654SOL     OW25597   3.248   2.659  15.995 -0.0455  0.6830  0.0351
 4654SOL    HW125598   3.160   2.636  16.025  0.2521  1.1087  1.2491
 4654SOL    HW225599   3.255   2.748  16.029  1.4984  0.6320 -0.1655
 4655SOL     OW25600   3.299   2.574  16.331 -0.5353 -0.3656 -0.2628
 4655SOL    HW125601   3.380   2.525  16.315 -0.0173  0.2369  0.5385
 4655SOL    HW225602   3.321   2.597  16.421 -2.6513 -1.6854  0.6119
 4656SOL     OW25603   1.674   1.296  16.022  0.0323 -0.2419  0.7768
 4656SOL    HW125604   1.716   1.352  15.957  0.5656 -0.2424  1.1200
 4656SOL    HW225605   1.598   1.259  15.977  0.3708  1.0353 -0.8372
 4657SOL     OW25606   1.662   0.951   6.288 -0.2001  0.3592 -0.1503
 4657SOL    HW125607   1.686   0.865   6.320  0.5898 -0.2426 -2.4109
 4657SOL    HW225608   1.740   0.976   6.239  0.6109  1.4934  1.6983
 4658SOL     OW25609   2.142   1.443   1.509  0.1963 -0.4545  0.0097
 4658SOL    HW125610   2.081   1.393   1.564  0.0028 -1.1316 -0.8039
 4658SOL    HW225611   2.157   1.514   1.571  0.4625  0.0452 -0.6196
 4659SOL     OW25612   3.589   3.891   4.951 -0.1480 -0.3430  0.0491
 4659SOL    HW125613   3.554   3.808   4.917  0.3852 -0.3287 -0.5293
 4659SOL    HW225614   3.569   3.943   4.874  0.0079 -1.6595 -0.8879
 4660SOL     OW25615   0.887   0.329   6.092  0.5952  0.0683 -0.3531
 4660SOL    HW125616   0.840   0.410   6.072 -2.1252 -1.7054 -1.2407
 4660SOL    HW225617   0.819   0.271   6.126 -1.1377  2.6832  0.6125
 4661SOL     OW25618   4.497   2.212   6.173 -0.0752 -0.7143 -0.1423
 4661SOL    HW125619   4.556   2.186   6.243 -0.4670  1.0609  0.8358
 4661SOL    HW225620   4.531   2.151   6.107 -1.3065  0.1182 -1.5523
 4662SOL     OW25621   3.913   3.056   7.518 -0.4900 -0.4315  0.0478
 4662SOL    HW125622   3.926   3.142   7.556 -1.9320 -0.1308 -0.1295
 4662SOL    HW225623   3.987   3.053   7.457 -1.6649 -0.9128 -1.3428
 4663SOL     OW25624   0.455   3.789   1.299  0.4297 -0.2759  0.5748
 4663SOL    HW125625   0.549   3.792   1.317  0.4646  1.3811  0.1138
 4663SOL    HW225626   0.463   3.770   1.206 -0.6181  1.5782  0.0910
 4664SOL     OW25627   2.656   2.075   4.126 -0.2920  0.0901  0.2864
 4664SOL    HW125628   2.712   2.076   4.203 -0.4601 -0.2876  0.4157
 4664SOL    HW225629   2.627   1.984   4.130 -2.0116  0.6664  0.6681
 4665SOL     OW25630   1.699   4.095   5.226  0.2070 -0.3190  0.5612
 4665SOL    HW125631   1.611   4.118   5.255 -0.0422 -0.6729  0.0812
 4665SOL    HW225632   1.691   4.118   5.134  0.2844 -2.8911 -0.0876
 4666SOL     OW25633   2.067   3.769   2.496 -0.1930  0.0425 -0.0557
 4666SOL    HW125634   2.054   3.674   2.496  0.8996 -0.1121 -1.7071
 4666SOL    HW225635   2.082   3.796   2.587  0.3762 -0.7067  0.0681
 4667SOL     OW25636   0.915   2.795   7.808 -0.6994 -0.0814  0.1857
 4667SOL    HW125637   0.941   2.886   7.825  0.8035 -0.0712 -2.0977
 4667SOL    HW225638   0.833   2.801   7.759  0.0363  1.7280 -0.8271
 4668SOL     OW25639   1.653   0.889   2.888 -0.3865 -0.5838  0.5201
 4668SOL    HW125640   1.678   0.960   2.947  0.8812 -0.1481 -0.5299
 4668SOL    HW225641   1.566   0.868   2.922 -0.0334 -0.0458  1.7307
 4669SOL     OW25642   1.092   4.519   5.172 -0.5449  0.3009 -0.1996
 4669SOL    HW125643   1.050   4.595   5.213  0.5539  1.5604 -1.3867
 4669SOL    HW225644   1.038   4.505   5.094  1.3241  2.7355 -1.9386
 4670SOL     OW25645   3.973   1.398   3.182 -0.3736 -0.0537  0.4470
 4670SOL    HW125646   3.944   1.373   3.094 -0.2686 -1.5085  0.8225
 4670SOL    HW225647   3.964   1.311   3.221  0.6322 -0.3538  0.0043
 4671SOL     OW25648   4.341   3.296   9.245 -0.0749 -0.1482  0.3401
 4671SOL    HW125649   4.413   3.248   9.285  0.5855 -0.1035 -0.7953
 4671SOL    HW225650   4.265   3.254   9.285  1.2653 -1.0503  1.9035
 4672SOL     OW25651   4.582   1.676   5.781  0.3034 -0.1287 -0.0191
 4672SOL    HW125652   4.661   1.654   5.732 -0.1479  1.7701 -1.5622
 4672SOL    HW225653   4.531   1.722   5.715  2.2483  0.4607 -1.0967
 4673SOL     OW25654   4.085   1.449   5.228  0.1792 -0.1363 -0.2278
 4673SOL    HW125655   4.030   1.461   5.306 -0.5663 -1.2450 -0.5866
 4673SOL    HW225656   4.171   1.479   5.258  0.9221 -1.3437 -1.1697
 4674SOL     OW25657   1.382   1.005  11.354 -0.5000  0.3147 -0.3771
 4674SOL    HW125658   1.365   1.052  11.435  0.3989  0.0087 -0.0101
 4674SOL    HW225659   1.393   0.913  11.379 -1.1119  0.6367  1.0677
 4675SOL     OW25660   0.306   1.840   6.710  0.0930  0.3139  0.2027
 4675SOL    HW125661   0.290   1.826   6.617  2.0516  0.9716 -0.2500
 4675SOL    HW225662   0.287   1.752   6.741  0.7147  0.6555  1.6047
 4676SOL     OW25663   2.188   1.576  16.966 -0.0512 -0.1403  0.0859
 4676SOL    HW125664   2.099   1.603  16.988  0.7583  2.9536 -0.3603
 4676SOL    HW225665   2.179   1.484  16.941 -0.5074 -0.1189  0.1771
 4677SOL     OW25666   1.936   1.004   8.900  0.0902  0.4050 -0.1590
 4677SOL    HW125667   1.965   1.062   8.830 -1.4171  1.4159  0.0593
 4677SOL    HW225668   1.855   1.042   8.936  1.2592  0.5849  2.2909
 4678SOL     OW25669   4.567   1.158   4.675  0.1673  0.2071  0.1778
 4678SOL    HW125670   4.477   1.133   4.656  0.6169 -1.8147  0.7164
 4678SOL    HW225671   4.620   1.127   4.601  0.6054  1.3305  0.0225
 4679SOL     OW25672   2.570   1.127   4.532  0.2327 -0.5995  0.7185
 4679SOL    HW125673   2.663   1.121   4.554  0.5700 -2.1303 -1.2492
 4679SOL    HW225674   2.566   1.177   4.450  0.7833  1.2208  1.7854
 4680SOL     OW25675   3.669   1.879   3.940 -0.4745 -0.0022  0.4387
 4680SOL    HW125676   3.610   1.909   4.009  1.6165  0.7060  1.9041
 4680SOL    HW225677   3.672   1.787   3.966 -0.3012  0.6268  2.6580
 4681SOL     OW25678   0.008   4.308   4.275 -0.0362 -0.2530  0.0606
 4681SOL    HW125679   0.034   4.391   4.316  0.1101 -0.1759 -0.1912
 4681SOL    HW225680   4.701   4.342   4.199  0.1326 -0.0705  0.0397
 4682SOL     OW25681   2.710   2.029  16.704  0.0763 -0.4104  0.4555
 4682SOL    HW125682   2.724   1.935  16.687  0.2021 -0.3650  0.3024
 4682SOL    HW225683   2.615   2.032  16.700  0.1971  0.2035 -1.9732
 4683SOL     OW25684   3.517   4.730  10.664  0.8365  0.0952  0.0725
 4683SOL    HW125685   3.489   0.018  10.576  1.1080 -2.0682 -0.7057
 4683SOL    HW225686   3.517   0.071  10.715 -0.9455  0.3634 -0.3623
 4684SOL     OW25687   2.051   2.577   7.463 -0.4213 -0.1354  0.4716
 4684SOL    HW125688   1.990   2.633   7.511  0.0353  0.2497  0.6046
 4684SOL    HW225689   2.133   2.611   7.500  0.8347 -1.5311 -0.9918
 4685SOL     OW25690   1.385   1.574   9.309  0.2574 -0.0078 -0.0413
 4685SOL    HW125691   1.429   1.575   9.394 -1.4603 -2.1073  0.8824
 4685SOL    HW225692   1.385   1.668   9.294 -1.2083  0.0694  0.4911
 4686SOL     OW25693   0.330   3.307   7.347  0.2585 -0.7356 -0.2498
 4686SOL    HW125694   0.414   3.327   7.387  0.1798  0.7431 -0.8215
 4686SOL    HW225695   0.349   3.324   7.255 -2.4236  2.5678 -0.1787
 4687SOL     OW25696   1.545   2.840   2.854  0.3115  0.0751  0.0976
 4687SOL    HW125697   1.561   2.745   2.855  1.2824  0.2344 -0.9880
 4687SOL    HW225698   1.486   2.844   2.929  2.2224 -0.5898  1.6311
 4688SOL     OW25699   0.667   2.814   2.840 -0.6371  0.0631  0.4437
 4688SOL    HW125700   0.707   2.727   2.833 -1.6437 -0.3986  0.4339
 4688SOL    HW225701   0.620   2.806   2.923  1.1020  0.6075  1.4728
 4689SOL     OW25702   1.962   4.696   0.291 -0.4921 -0.0486  0.0273
 4689SOL    HW125703   1.888   4.694   0.351 -0.1746  0.2459  0.4248
 4689SOL    HW225704   1.932   4.685   0.200  2.5160 -2.2995 -0.7195
 4690SOL     OW25705   3.465   1.760   2.539  0.6676  0.2730 -0.0166
 4690SOL    HW125706   3.443   1.849   2.510  1.5117  0.0516 -1.3440
 4690SOL    HW225707   3.384   1.718   2.509  1.0860 -0.2698 -0.3738
 4691SOL     OW25708   2.556   1.099  13.419  0.3198 -0.0204 -0.2192
 4691SOL    HW125709   2.651   1.107  13.408  0.2810 -0.1884 -0.7130
 4691SOL    HW225710   2.558   1.060  13.506 -0.5887  0.7737  0.1609
 4692SOL     OW25711   1.343   2.564   4.320 -0.5679  0.5121 -0.0937
 4692SOL    HW125712   1.394   2.563   4.402 -3.1205 -1.7485  1.4593
 4692SOL    HW225713   1.256   2.579   4.357 -1.6271 -0.5517 -2.1650
 4693SOL     OW25714   2.522   2.010   5.812 -0.1788 -0.1737  0.2384
 4693SOL    HW125715   2.508   1.985   5.903 -1.2628 -0.9687 -0.1537
 4693SOL    HW225716   2.513   1.925   5.769  0.1834 -0.9526  1.7140
 4694SOL     OW25717   0.465   1.084   1.915  0.2008 -0.4163  0.4950
 4694SOL    HW125718   0.534   1.052   1.857  1.0225  1.0323  0.6542
 4694SOL    HW225719   0.433   1.000   1.947 -0.1755 -0.9056 -1.1882
 4695SOL     OW25720   4.478   2.480   6.419 -0.1043 -0.2745 -0.1465
 4695SOL    HW125721   4.515   2.503   6.504 -2.9676  1.8916  0.5160
 4695SOL    HW225722   4.498   2.387   6.425  0.4771 -0.0863  0.8729
 4696SOL     OW25723   2.453   1.678   2.804 -0.0093 -0.3185  0.3574
 4696SOL    HW125724   2.520   1.612   2.823  1.0145 -0.1083 -2.3836
 4696SOL    HW225725   2.477   1.694   2.712 -1.2086 -2.7319 -0.3875
 4697SOL     OW25726   3.176   2.753   1.457 -0.0537  0.1512  0.4212
 4697SOL    HW125727   3.136   2.834   1.490 -1.5972 -0.2013 -0.5492
 4697SOL    HW225728   3.263   2.791   1.450 -0.1300  0.1795 -0.3734
 4698SOL     OW25729   4.186   1.795   3.327 -0.5864  0.4480 -0.1326
 4698SOL    HW125730   4.126   1.846   3.381 -2.9815 -2.0040 -0.4795
 4698SOL    HW225731   4.131   1.747   3.265  0.2152 -1.3767  0.5608
 4699SOL     OW25732   2.988   2.313  16.461 -0.2651  0.0397 -0.4185
 4699SOL    HW125733   2.924   2.300  16.391  1.2069  2.2908 -2.1883
 4699SOL    HW225734   3.020   2.399  16.434 -1.3575  0.4698 -0.3299
 4700SOL     OW25735   2.210   4.399   7.755  0.1575  0.0961  0.1160
 4700SOL    HW125736   2.204   4.494   7.743 -0.4302  0.0904  0.3558
 4700SOL    HW225737   2.257   4.377   7.675  1.0859  1.2437  0.3351
 4701SOL     OW25738   2.791   2.973   0.294  0.1891  0.1105 -0.7205
 4701SOL    HW125739   2.845   3.044   0.261  2.5988 -0.9668  0.9069
 4701SOL    HW225740   2.708   3.000   0.256 -0.0817 -1.7643 -1.4982
 4702SOL     OW25741   4.215   4.611   8.636  0.5944 -0.1766 -0.0228
 4702SOL    HW125742   4.149   4.626   8.705  1.7685 -1.5582  1.4074
 4702SOL    HW225743   4.263   4.694   8.642 -0.8174  0.7908 -2.1080
 4703SOL     OW25744   3.376   2.316   5.156  0.2222 -0.4261  0.3325
 4703SOL    HW125745   3.299   2.296   5.103 -0.3409  1.1805  0.5518
 4703SOL    HW225746   3.340   2.391   5.204  1.0434  1.8626 -2.5991
 4704SOL     OW25747   3.387   2.143   9.832  0.1154  0.4789  0.3755
 4704SOL    HW125748   3.456   2.162   9.768  0.3240  1.0520  0.7741
 4704SOL    HW225749   3.368   2.231   9.862  1.5337  0.2051  2.0837
 4705SOL     OW25750   0.385   3.613   7.181 -0.3103 -0.3138 -0.1407
 4705SOL    HW125751   0.364   3.529   7.141 -1.0237 -1.7720  3.4016
 4705SOL    HW225752   0.335   3.674   7.126  0.7119  0.0415 -0.6819
 4706SOL     OW25753   1.746   0.433   2.275  0.5257  0.1953 -0.1286
 4706SOL    HW125754   1.827   0.465   2.235  1.5639 -0.5265  1.4074
 4706SOL    HW225755   1.750   0.340   2.250  1.8858  0.2844 -0.2343
 4707SOL     OW25756   3.124   3.239   0.345  0.5203  0.0138  0.6555
 4707SOL    HW125757   3.200   3.267   0.396  0.1317  0.2066  1.1246
 4707SOL    HW225758   3.056   3.251   0.412 -1.3902  0.7798 -1.4203
 4708SOL     OW25759   2.387   4.259   0.806 -0.0678 -0.0651  0.5331
 4708SOL    HW125760   2.425   4.282   0.891  0.5575  0.9396 -0.0178
 4708SOL    HW225761   2.447   4.201   0.760 -1.4776  0.5427 -2.0850
 4709SOL     OW25762   0.223   3.691  16.584 -0.0727 -0.2358 -0.1565
 4709SOL    HW125763   0.287   3.729  16.524  1.4447 -1.5400  0.6621
 4709SOL    HW225764   0.153   3.756  16.572  0.5379  0.0623 -2.2265
 4710SOL     OW25765   2.673   0.234  11.997  0.3562 -0.0676  0.0092
 4710SOL    HW125766   2.724   0.315  11.991 -0.5558  0.4420 -1.0162
 4710SOL    HW225767   2.677   0.213  12.090  1.5850  0.4584  0.0686
 4711SOL     OW25768   1.579   3.369   8.384 -0.5718  0.0661  0.2199
 4711SOL    HW125769   1.533   3.351   8.302 -0.7699 -0.5255  0.4598
 4711SOL    HW225770   1.665   3.400   8.353 -0.0731  0.2902  1.7973
 4712SOL     OW25771   1.178   4.693  15.933  0.3028 -0.4361  0.0933
 4712SOL    HW125772   1.241   0.011  15.977  0.9297 -2.3372  1.6929
 4712SOL    HW225773   1.210   4.608  15.965 -0.7858 -1.2869 -1.1184
 4713SOL     OW25774   3.780   4.666   5.227  0.2232 -0.4157  0.3300
 4713SOL    HW125775   3.789   0.011   5.183 -2.1064  0.8661  2.3363
 4713SOL    HW225776   3.786   4.690   5.319  0.3907 -0.9942  0.4684
 4714SOL     OW25777   3.212   3.974   5.716 -0.0946 -0.8894 -0.5505
 4714SOL    HW125778   3.129   3.995   5.674  1.5536 -1.0303 -3.8409
 4714SOL    HW225779   3.173   3.923   5.787 -0.4807  0.7007  0.3831
 4715SOL     OW25780   1.538   0.781   9.249 -0.2558  0.1869 -0.0313
 4715SOL    HW125781   1.490   0.735   9.180 -1.4925  0.1992  0.8238
 4715SOL    HW225782   1.490   0.862   9.235  0.1655  0.1826 -1.4992
 4716SOL     OW25783   0.651   2.404  17.037  0.0732 -0.1132  0.2090
 4716SOL    HW125784   0.658   2.359  16.952 -1.2271  0.0452  0.0211
 4716SOL    HW225785   0.578   2.464  17.021 -0.8324 -1.7669 -1.9074
 4717SOL     OW25786   4.160   2.383   4.179  0.6742 -0.0558 -0.2119
 4717SOL    HW125787   4.159   2.405   4.272 -0.5857 -1.9993  0.2241
 4717SOL    HW225788   4.229   2.317   4.186  1.3156  0.4400 -2.0166
 4718SOL     OW25789   3.909   3.587   6.621  0.6164  0.5701  0.9852
 4718SOL    HW125790   3.956   3.515   6.579  1.5870 -0.4608  3.7709
 4718SOL    HW225791   3.912   3.556   6.712 -1.6766 -0.0025  0.8653
 4719SOL     OW25792   2.764   1.325   1.648  0.3055 -0.3732 -0.3664
 4719SOL    HW125793   2.728   1.297   1.564 -1.6083  2.2569 -0.4392
 4719SOL    HW225794   2.681   1.325   1.695  0.1025 -2.8105 -0.7420
 4720SOL     OW25795   0.565   4.529   0.107 -0.4513  0.0313  0.4067
 4720SOL    HW125796   0.552   4.474   0.184 -0.8840  0.1134  0.3877
 4720SOL    HW225797   0.640   4.481   0.071  1.1775  0.8329  2.7246
 4721SOL     OW25798   1.285   0.283   4.191  0.7059  0.6159 -0.1789
 4721SOL    HW125799   1.306   0.341   4.117 -1.3719  1.3608 -0.1763
 4721SOL    HW225800   1.358   0.221   4.195 -1.1300 -1.4586  1.0092
 4722SOL     OW25801   4.394   2.113   7.743 -0.0310  0.6282  0.0597
 4722SOL    HW125802   4.392   2.158   7.658  0.6736  0.4242 -0.0639
 4722SOL    HW225803   4.463   2.171   7.774  0.4154 -0.9050  1.9067
 4723SOL     OW25804   0.838   1.962   5.755 -0.2124  0.3292  0.1282
 4723SOL    HW125805   0.876   2.049   5.758 -0.3117  0.3192  1.7326
 4723SOL    HW225806   0.749   1.996   5.750  0.2776  1.6640  0.4875
 4724SOL     OW25807   0.601   1.650   8.511  0.4490  0.0004 -0.0384
 4724SOL    HW125808   0.537   1.706   8.555  2.8440  2.4513  0.3419
 4724SOL    HW225809   0.614   1.706   8.434 -1.4767  1.1983  0.5009
 4725SOL     OW25810   4.117   3.687   9.137  0.5506  0.6612  0.2370
 4725SOL    HW125811   4.149   3.742   9.065 -0.7243 -0.6672 -1.3397
 4725SOL    HW225812   4.188   3.623   9.136  0.1789  0.2309  1.4512
 4726SOL     OW25813   0.408   3.442   5.682  0.3663 -0.2758 -0.4324
 4726SOL    HW125814   0.396   3.349   5.662 -2.7638 -0.1321  0.8207
 4726SOL    HW225815   0.404   3.481   5.595 -1.8031 -1.8266 -1.0389
 4727SOL     OW25816   3.352   3.034   1.819  0.1013 -0.6953 -0.0885
 4727SOL    HW125817   3.299   3.112   1.801 -1.9066 -2.3234 -1.1884
 4727SOL    HW225818   3.295   2.969   1.779 -1.5991  1.8966 -1.8793
 4728SOL     OW25819   1.534   0.619   5.367 -0.1448 -0.4879 -0.0356
 4728SOL    HW125820   1.489   0.695   5.330  0.8329 -0.1852 -0.5889
 4728SOL    HW225821   1.473   0.598   5.438 -1.2280 -2.1855 -1.4853
 4729SOL     OW25822   2.308   2.750   2.199 -0.8197  0.8123  0.1197
 4729SOL    HW125823   2.334   2.658   2.205 -0.8453  0.6647 -2.0249
 4729SOL    HW225824   2.359   2.783   2.273 -1.3877  1.9043  0.0227
 4730SOL     OW25825   2.199   0.887   0.992 -0.5335 -0.3305  0.0800
 4730SOL    HW125826   2.126   0.898   1.053  0.8907  1.3627  1.4933
 4730SOL    HW225827   2.277   0.921   1.039  0.4146 -0.6107 -1.3032
 4731SOL     OW25828   1.662   3.432   4.366 -0.0872 -0.0214 -0.4338
 4731SOL    HW125829   1.717   3.354   4.372 -2.0214 -1.6117 -3.4605
 4731SOL    HW225830   1.574   3.395   4.367 -0.2082  0.2993  1.0066
 4732SOL     OW25831   1.757   2.177   4.706 -0.8502 -0.0476  0.3084
 4732SOL    HW125832   1.699   2.148   4.776  0.8069  3.6012  3.1627
 4732SOL    HW225833   1.815   2.102   4.695 -0.4078  0.5112 -1.1182
 4733SOL     OW25834   0.896   2.451   7.323  0.6251 -0.1191  0.2502
 4733SOL    HW125835   0.870   2.383   7.385  1.8413  0.0016  0.9059
 4733SOL    HW225836   0.968   2.412   7.272 -1.4392 -2.1614 -1.0887
 4734SOL     OW25837   1.250   4.516   6.329 -0.3716 -0.3419  0.1061
 4734SOL    HW125838   1.343   4.534   6.338 -0.3165  0.0242 -1.3201
 4734SOL    HW225839   1.209   4.579   6.389  1.8313 -0.3693  1.6320
 4735SOL     OW25840   4.034   1.657  10.850 -0.3015  0.0556  0.9244
 4735SOL    HW125841   4.041   1.561  10.845 -0.6915  0.0674  0.0730
 4735SOL    HW225842   4.108   1.684  10.795 -0.5676 -0.5394  0.2771
 4736SOL     OW25843   3.974   3.110   5.634 -0.1526 -0.3750 -0.3526
 4736SOL    HW125844   3.974   3.190   5.687 -0.1822 -1.8841  1.9287
 4736SOL    HW225845   3.880   3.107   5.616 -0.2236  0.2972 -0.0796
 4737SOL     OW25846   3.936   4.153   2.961  0.6936 -0.0865 -0.1026
 4737SOL    HW125847   3.979   4.095   2.897  0.8754 -2.3279  2.0264
 4737SOL    HW225848   4.011   4.205   2.992  0.3098 -0.1377  0.8972
 4738SOL     OW25849   3.830   1.584   3.314  0.2391  0.1031  0.4561
 4738SOL    HW125850   3.829   1.642   3.239  1.6561 -0.0293  0.3355
 4738SOL    HW225851   3.889   1.517   3.279  1.8564  0.6070  2.1889
 4739SOL     OW25852   4.439   0.229  14.387 -0.1074 -0.1441  0.3986
 4739SOL    HW125853   4.473   0.268  14.467 -1.1270  1.9354 -0.1725
 4739SOL    HW225854   4.347   0.243  14.410  0.2635 -2.0620  2.9348
 4740SOL     OW25855   1.019   4.648   4.723 -0.0394  0.4413  0.4266
 4740SOL    HW125856   0.995   4.562   4.687 -0.0044 -0.1083  1.7356
 4740SOL    HW225857   1.082   4.617   4.788 -0.3714 -0.2915  0.4016
 4741SOL     OW25858   3.625   4.291  15.746 -0.0660 -0.3092 -0.2077
 4741SOL    HW125859   3.578   4.321  15.668 -0.6852  1.9718  1.0454
 4741SOL    HW225860   3.662   4.212  15.705 -0.5707 -0.5665 -0.1708
 4742SOL     OW25861   0.356   4.727   5.150  0.3266 -0.3687  0.2114
 4742SOL    HW125862   0.315   4.710   5.065  0.2970 -0.9095  0.3333
 4742SOL    HW225863   0.380   4.638   5.178  2.5071 -0.0288 -0.6210
 4743SOL     OW25864   3.203   2.893  13.136 -0.7604  0.0416 -0.6500
 4743SOL    HW125865   3.255   2.844  13.072  0.8616  0.0789  0.6525
 4743SOL    HW225866   3.240   2.865  13.219 -0.2972 -0.6821 -1.1025
 4744SOL     OW25867   0.641   3.562   0.224  0.3962 -0.5783 -0.4233
 4744SOL    HW125868   0.649   3.637   0.165  3.2065 -0.3562  0.2287
 4744SOL    HW225869   0.572   3.598   0.279  2.1806  0.2167  1.3191
 4745SOL     OW25870   0.581   3.839   2.693  0.2139 -0.0877 -0.6403
 4745SOL    HW125871   0.629   3.758   2.708 -2.3149 -0.9701  2.6023
 4745SOL    HW225872   0.629   3.872   2.617 -0.2260  1.2332 -0.3543
 4746SOL     OW25873   2.414   0.998   3.124 -0.2907  0.4214 -0.1576
 4746SOL    HW125874   2.398   1.086   3.157 -1.5783 -0.4378  1.5433
 4746SOL    HW225875   2.336   0.976   3.073 -0.4514  0.5779  0.0217
 4747SOL     OW25876   4.577   1.352   1.394  0.3147  0.0186  0.2980
 4747SOL    HW125877   4.582   1.265   1.354  0.6404  0.8109 -1.3727
 4747SOL    HW225878   4.483   1.366   1.383  0.3309  0.7947  1.1334
 4748SOL     OW25879   4.037   3.109   7.085 -0.0338  0.0096  0.2519
 4748SOL    HW125880   4.007   3.068   7.167 -0.4019  0.0269  0.1264
 4748SOL    HW225881   3.981   3.063   7.023 -1.1750  2.2598 -0.3589
 4749SOL     OW25882   4.025   3.963   7.680 -0.1267  0.3426 -0.2230
 4749SOL    HW125883   4.079   3.998   7.751 -0.2831 -1.6265  0.8943
 4749SOL    HW225884   3.957   3.908   7.719 -0.7274  0.4994 -1.0513
 4750SOL     OW25885   3.797   1.626  15.488 -0.3001  0.3454 -0.0559
 4750SOL    HW125886   3.760   1.558  15.544 -0.3250 -0.0308 -0.5311
 4750SOL    HW225887   3.886   1.614  15.522 -1.1761 -0.0076  2.1257
 4751SOL     OW25888   1.238   2.022   5.226  0.5710 -0.1202 -0.3596
 4751SOL    HW125889   1.231   1.989   5.136 -1.5961 -2.1294  0.5563
 4751SOL    HW225890   1.185   1.966   5.283 -0.4523  1.4222  0.1923
 4752SOL     OW25891   3.124   4.638   4.384  0.2217  0.0358  0.1481
 4752SOL    HW125892   3.094   4.711   4.437 -0.2666 -0.4926  0.6018
 4752SOL    HW225893   3.170   4.581   4.446 -1.0746 -0.0581  1.0206
 4753SOL     OW25894   1.136   1.389   1.587  0.0933 -0.6560  0.0517
 4753SOL    HW125895   1.091   1.345   1.659 -2.2927  0.4614 -0.7728
 4753SOL    HW225896   1.084   1.357   1.513 -0.6513 -0.3266  0.4371
 4754SOL     OW25897   1.938   0.943  12.910  0.1954  0.0687  0.1070
 4754SOL    HW125898   1.946   1.000  12.986 -1.9096  2.0545 -1.1503
 4754SOL    HW225899   1.942   0.863  12.962  0.2366  1.2509  1.9456
 4755SOL     OW25900   0.359   0.513   4.337  0.3309  0.0132  0.5635
 4755SOL    HW125901   0.428   0.558   4.386  2.1152 -1.1435 -0.8683
 4755SOL    HW225902   0.384   0.541   4.249  0.0094 -2.7639 -0.4122
 4756SOL     OW25903   0.242   4.038   2.360 -0.0381 -0.3163 -0.1764
 4756SOL    HW125904   0.191   3.958   2.373  1.7415 -1.4884 -0.5178
 4756SOL    HW225905   0.197   4.086   2.290 -0.0092 -1.4182 -0.9472
 4757SOL     OW25906   0.728   2.915   7.165 -0.0299  0.2278  0.0202
 4757SOL    HW125907   0.777   2.833   7.165 -1.4175 -0.6106 -1.8414
 4757SOL    HW225908   0.647   2.891   7.210  0.0348  1.0848  0.5907
 4758SOL     OW25909   2.630   2.915   6.001 -0.9209  0.3430 -0.0483
 4758SOL    HW125910   2.691   2.841   5.997 -1.3944 -0.0922  0.6568
 4758SOL    HW225911   2.542   2.878   5.990 -0.8058  0.2023 -0.4926
 4759SOL     OW25912   0.808   0.029   2.938  0.8743 -0.2411 -0.1302
 4759SOL    HW125913   0.751   4.708   2.987 -0.2541  0.5824 -0.4332
 4759SOL    HW225914   0.839   4.715   2.865 -1.3421 -0.8121 -0.6508
 4760SOL     OW25915   0.953   3.566   2.860 -0.6754 -0.0876  0.2508
 4760SOL    HW125916   1.011   3.513   2.915  3.0516  2.1371 -1.5702
 4760SOL    HW225917   0.908   3.619   2.925  1.3635  1.6063  0.2712
 4761SOL     OW25918   2.548   4.244  16.370 -0.3492  0.1646 -0.0383
 4761SOL    HW125919   2.479   4.310  16.370  1.0260  1.5790  0.2810
 4761SOL    HW225920   2.629   4.288  16.345 -0.0940  0.8245  1.9126
 4762SOL     OW25921   1.515   2.996   4.307  0.3039  0.3752  0.3764
 4762SOL    HW125922   1.590   3.004   4.365  0.5836  0.7984 -0.0395
 4762SOL    HW225923   1.466   2.937   4.363 -0.2417  1.8909  1.4843
 4763SOL     OW25924   3.996   2.697   8.339 -0.0927 -0.2541 -0.2058
 4763SOL    HW125925   3.981   2.784   8.377  0.1007 -1.2232  2.1019
 4763SOL    HW225926   3.909   2.659   8.356 -0.0161 -0.2709  0.1511
 4764SOL     OW25927   3.732   3.776  16.471  0.4445  0.0671  0.3855
 4764SOL    HW125928   3.724   3.796  16.565  2.2483  1.9993  0.1317
 4764SOL    HW225929   3.644   3.747  16.448  0.8323  0.7800 -1.9583
 4765SOL     OW25930   3.809   2.673  17.714  0.1461  0.1514 -0.2383
 4765SOL    HW125931   3.873   2.744  17.725 -0.9680  0.9687  0.9821
 4765SOL    HW225932   3.853   2.592  17.741  1.5890  0.7524 -0.7426
 4766SOL     OW25933   1.426   3.155   2.754  0.3068  0.3167  0.4969
 4766SOL    HW125934   1.349   3.119   2.711  0.5644 -0.9176  1.0765
 4766SOL    HW225935   1.397   3.227   2.809 -2.2683  1.3690 -2.2555
 4767SOL     OW25936   4.122   0.155  12.560 -0.0112 -0.2446 -0.5507
 4767SOL    HW125937   4.093   0.245  12.570 -1.3803 -0.7525  0.1016
 4767SOL    HW225938   4.108   0.127  12.470 -0.5018 -0.7038 -0.3330
 4768SOL     OW25939   1.789   0.458  13.214  0.0496  0.5970  0.6940
 4768SOL    HW125940   1.720   0.487  13.274 -1.8459 -1.0836 -0.7138
 4768SOL    HW225941   1.740   0.385  13.177 -0.4322  2.2828 -2.0109
 4769SOL     OW25942   2.817   4.042  11.080  0.1171  0.4013 -0.1088
 4769SOL    HW125943   2.773   4.125  11.102 -1.8876 -0.8396  0.6016
 4769SOL    HW225944   2.737   3.991  11.066 -0.0308  0.6100 -0.0478
 4770SOL     OW25945   2.789   4.435  12.326  0.1479  0.2919 -0.2290
 4770SOL    HW125946   2.868   4.385  12.306 -1.2620 -1.5306 -1.2904
 4770SOL    HW225947   2.734   4.435  12.247  1.2979  1.9899 -1.0011
 4771SOL     OW25948   1.434   3.358   4.093  0.2043 -0.4392  0.3776
 4771SOL    HW125949   1.529   3.351   4.084  0.2763  2.0185 -0.9113
 4771SOL    HW225950   1.399   3.347   4.004  2.5763  0.7511 -0.6928
 4772SOL     OW25951   1.194   2.995   6.499  0.1278 -0.4843 -0.4454
 4772SOL    HW125952   1.218   3.005   6.407 -2.7610 -2.1993 -1.3990
 4772SOL    HW225953   1.105   2.960   6.494  0.3355 -1.4422  2.3290
 4773SOL     OW25954   0.811   1.084   0.572  0.0078  0.5079  0.2245
 4773SOL    HW125955   0.784   1.069   0.663 -0.8126 -0.7936 -0.2338
 4773SOL    HW225956   0.903   1.064   0.587 -0.1197 -1.5287 -1.7411
 4774SOL     OW25957   3.794   2.813  12.666 -0.3578 -0.0201 -0.3809
 4774SOL    HW125958   3.750   2.861  12.596 -2.8988 -0.2734  1.0472
 4774SOL    HW225959   3.855   2.881  12.696  0.9551 -0.2097 -2.6411
 4775SOL     OW25960   0.774   4.453   0.550 -0.2539 -0.3618 -0.3431
 4775SOL    HW125961   0.706   4.421   0.609 -1.0461  1.5942 -0.1948
 4775SOL    HW225962   0.740   4.535   0.514 -2.3721 -1.1483 -0.1001
 4776SOL     OW25963   1.562   1.127  10.168 -0.6454 -0.3817  0.7537
 4776SOL    HW125964   1.572   1.097  10.259  2.2396  1.5913  1.1082
 4776SOL    HW225965   1.585   1.220  10.173  1.0766 -0.7882  0.4148
 4777SOL     OW25966   1.415   0.789   7.892 -0.1714  0.0938  0.2410
 4777SOL    HW125967   1.418   0.822   7.982 -0.2339  0.7315  0.0049
 4777SOL    HW225968   1.343   0.728   7.908 -0.8015  0.6137 -0.6162
 4778SOL     OW25969   2.542   1.818   9.852  0.0722  0.3330  0.7070
 4778SOL    HW125970   2.474   1.877   9.817 -0.3282 -0.8391 -0.4797
 4778SOL    HW225971   2.485   1.780   9.919  1.5398 -2.6032  0.2835
 4779SOL     OW25972   0.937   1.248  17.187  0.0946  0.1404  0.4116
 4779SOL    HW125973   0.933   1.211  17.276  0.7638 -0.9554 -0.0111
 4779SOL    HW225974   0.996   1.187  17.143 -0.5612  1.1751 -1.8673
 4780SOL     OW25975   3.128   1.766   4.503 -0.0209  0.5001 -0.1912
 4780SOL    HW125976   3.039   1.731   4.515  0.2405  0.7913  2.6453
 4780SOL    HW225977   3.132   1.830   4.574 -1.4648  1.2761 -0.8082
 4781SOL     OW25978   1.468   3.256   6.433 -0.1417 -0.0697  0.2480
 4781SOL    HW125979   1.496   3.165   6.422  0.4325  0.2349 -0.8503
 4781SOL    HW225980   1.450   3.260   6.527 -0.2156 -2.4495  0.3436
 4782SOL     OW25981   1.533   3.766   3.162 -0.4975  0.4643  0.2898
 4782SOL    HW125982   1.591   3.819   3.217  2.5279 -2.4192 -0.1638
 4782SOL    HW225983   1.526   3.683   3.209 -0.9254  0.2084 -0.2207
 4783SOL     OW25984   1.305   1.997  13.323  0.0134  0.5579 -0.4011
 4783SOL    HW125985   1.262   1.960  13.246  0.1531  1.3592 -0.8644
 4783SOL    HW225986   1.357   2.070  13.289 -0.2530  1.7337  1.7610
 4784SOL     OW25987   3.605   3.762   4.178  0.0252  0.6977 -0.0026
 4784SOL    HW125988   3.622   3.847   4.139  0.6048  0.0919 -1.0596
 4784SOL    HW225989   3.529   3.791   4.228  0.5861  2.5404 -0.2496
 4785SOL     OW25990   1.721   3.962  11.953  0.1889  0.6542  0.0030
 4785SOL    HW125991   1.801   3.909  11.959 -0.2564  0.1496  1.4991
 4785SOL    HW225992   1.749   4.036  11.899  0.3709  0.0033 -0.7913
 4786SOL     OW25993   3.769   2.748   1.357  0.3086 -0.1203 -0.4571
 4786SOL    HW125994   3.692   2.782   1.402 -1.0833 -0.4567 -2.5514
 4786SOL    HW225995   3.826   2.824   1.344 -2.2842  2.0997  1.0268
 4787SOL     OW25996   1.303   1.907  13.026 -0.0427  0.0012  0.9182
 4787SOL    HW125997   1.284   1.994  12.988 -0.3725 -0.4614  0.0148
 4787SOL    HW225998   1.250   1.845  12.976  0.7324  0.5113 -0.5579
 4788SOL     OW25999   1.038   2.863   0.482 -0.1489  0.8260  0.2519
 4788SOL    HW126000   0.970   2.816   0.531  0.4212 -0.2408  0.0160
 4788SOL    HW226001   1.074   2.792   0.429  0.4162 -0.6481  2.6091
 4789SOL     OW26002   3.853   0.996  16.851 -0.6437 -0.1590 -0.3324
 4789SOL    HW126003   3.896   0.955  16.776 -1.0814 -0.6467 -0.3132
 4789SOL    HW226004   3.855   0.921  16.910 -0.7683  1.9442  2.3591
 4790SOL     OW26005   0.496   4.323   5.967  0.2691  0.7608  0.3776
 4790SOL    HW126006   0.490   4.268   6.045 -1.0364  1.3288  0.6853
 4790SOL    HW226007   0.405   4.352   5.955 -0.4139 -1.4209  0.3113
 4791SOL     OW26008   2.025   3.735   3.860 -0.0388  1.0591  0.8743
 4791SOL    HW126009   2.118   3.716   3.850 -0.2244 -0.3695  1.9247
 4791SOL    HW226010   2.002   3.778   3.778  0.6584  0.8363  0.5603
 4792SOL     OW26011   1.354   1.784   4.863  0.1557 -0.1405  0.0907
 4792SOL    HW126012   1.372   1.715   4.800  1.0924  0.4031 -0.2353
 4792SOL    HW226013   1.287   1.729   4.904 -0.2089  1.1116  1.1626
 4793SOL     OW26014   1.738   2.099  11.488 -0.9197  0.0697  0.2949
 4793SOL    HW126015   1.715   2.088  11.580 -1.6012 -2.8441 -0.2007
 4793SOL    HW226016   1.789   2.018  11.481  3.1778  2.5909  1.6200
 4794SOL     OW26017   4.240   4.271   2.236  0.4297  0.5452  0.1097
 4794SOL    HW126018   4.167   4.318   2.197  3.6379  4.7923 -0.7841
 4794SOL    HW226019   4.282   4.330   2.298 -1.0044  0.1629  1.4329
 4795SOL     OW26020   4.298   4.135   5.526  0.5675  0.5212 -0.2554
 4795SOL    HW126021   4.317   4.162   5.436 -1.5192  4.0611  0.3698
 4795SOL    HW226022   4.383   4.113   5.564  1.5899  2.0050 -1.6947
 4796SOL     OW26023   0.983   0.058   6.982  0.7377 -0.0536  1.0638
 4796SOL    HW126024   0.915   0.095   7.038 -1.2144 -0.6520 -0.9030
 4796SOL    HW226025   0.997   4.712   7.023  1.0979  0.2684  1.6105
 4797SOL     OW26026   3.041   0.720   6.860  0.0424  0.4756  0.0777
 4797SOL    HW126027   3.019   0.628   6.869 -0.3424  0.5450 -0.1567
 4797SOL    HW226028   3.096   0.715   6.782  2.1634  0.5820  1.5516
 4798SOL     OW26029   2.049   2.588   0.320 -0.3104 -0.4684  0.1129
 4798SOL    HW126030   1.979   2.652   0.333  0.5464  0.5307 -0.1836
 4798SOL    HW226031   2.110   2.617   0.388  1.4478 -1.9567 -0.8033
 4799SOL     OW26032   1.956   2.763   2.821  0.7887 -0.2810  0.0730
 4799SOL    HW126033   1.909   2.717   2.751 -0.1149 -0.5080  0.8264
 4799SOL    HW226034   1.924   2.718   2.899  0.1683  0.9419  0.5236
 4800SOL     OW26035   4.594   1.088   1.514 -0.3492  0.6217 -0.6767
 4800SOL    HW126036   4.637   1.115   1.595  1.6059  2.8634 -2.4887
 4800SOL    HW226037   4.527   1.031   1.552 -0.9488  1.7092 -0.0975
 4801SOL     OW26038   2.354   0.863   3.918  0.3464 -0.4201 -0.1902
 4801SOL    HW126039   2.345   0.870   3.823 -2.0438 -1.2876 -0.0286
 4801SOL    HW226040   2.405   0.941   3.941  0.7859 -0.1390 -2.1211
 4802SOL     OW26041   4.118   2.671   8.923 -0.5060 -0.1778  0.0245
 4802SOL    HW126042   4.059   2.710   8.859 -1.0278  1.0992  1.2887
 4802SOL    HW226043   4.153   2.590   8.884 -1.2709 -0.5140  0.0433
 4803SOL     OW26044   2.317   4.011   0.503  0.1422 -0.0303 -0.3586
 4803SOL    HW126045   2.316   3.981   0.594  0.7131  0.1236 -0.3050
 4803SOL    HW226046   2.401   3.977   0.473  1.2542  1.0616  1.4825
 4804SOL     OW26047   0.445   2.701   8.140 -0.1454  0.1307  0.4338
 4804SOL    HW126048   0.406   2.659   8.064 -0.8547 -1.0550  1.4389
 4804SOL    HW226049   0.374   2.699   8.204 -0.3699  1.1078  0.2135
 4805SOL     OW26050   0.613   3.459   2.251 -0.0378 -0.2088 -0.5160
 4805SOL    HW126051   0.619   3.384   2.192  0.6341 -3.4079  3.6428
 4805SOL    HW226052   0.550   3.433   2.318  2.1198 -1.7998  0.9016
 4806SOL     OW26053   0.973   2.814   6.840  0.0387  0.2134 -0.2886
 4806SOL    HW126054   1.050   2.853   6.883  1.3320 -0.5288 -1.9425
 4806SOL    HW226055   1.014   2.736   6.803 -1.9586 -0.9354 -0.0665
 4807SOL     OW26056   4.483   4.593   7.141 -0.0977  0.4354  0.2985
 4807SOL    HW126057   4.466   4.676   7.185  4.5990  1.6927 -0.2560
 4807SOL    HW226058   4.409   4.583   7.082 -1.4845  1.0284  1.9583
 4808SOL     OW26059   1.878   3.789  17.309 -0.3554 -0.0081  0.0831
 4808SOL    HW126060   1.947   3.755  17.252  1.4016  1.8093  1.1185
 4808SOL    HW226061   1.872   3.884  17.301 -0.0059  0.0519  0.5511
 4809SOL     OW26062   0.267   1.322   7.218  0.1740  0.5274  0.0312
 4809SOL    HW126063   0.337   1.385   7.203 -1.4422  1.9528 -1.4931
 4809SOL    HW226064   0.280   1.305   7.311  0.0889 -3.2834 -0.6504
 4810SOL     OW26065   0.774   0.894  16.022 -0.6292  0.3959  0.2672
 4810SOL    HW126066   0.775   0.952  16.098 -1.5159  0.0432  0.5495
 4810SOL    HW226067   0.745   0.814  16.066  0.8192 -0.4019 -0.2392
 4811SOL     OW26068   4.294   3.249  11.887  0.0628  0.4254  0.4431
 4811SOL    HW126069   4.299   3.164  11.930  0.1569  0.3781  0.3380
 4811SOL    HW226070   4.301   3.227  11.795 -3.2638 -0.3202  0.3823
 4812SOL     OW26071   1.566   4.144  17.034 -0.0806 -0.0537 -0.0567
 4812SOL    HW126072   1.561   4.090  17.113  0.4431  0.0700  0.0543
 4812SOL    HW226073   1.614   4.086  16.975  0.1626 -0.1535  0.2410
 4813SOL     OW26074   1.381   2.796  15.566  0.2613  0.6902  0.3126
 4813SOL    HW126075   1.451   2.847  15.526  2.0164  0.3934  3.0259
 4813SOL    HW226076   1.423   2.711  15.563 -0.1805  0.4837 -0.0026
 4814SOL     OW26077   0.477   3.596   9.321 -0.4339 -0.0558  0.0074
 4814SOL    HW126078   0.533   3.520   9.337 -0.5370 -0.4232 -1.3809
 4814SOL    HW226079   0.519   3.631   9.243 -1.6995 -0.6799 -0.9626
 4815SOL     OW26080   0.261   2.080  16.649  0.1345 -0.1329  0.0416
 4815SOL    HW126081   0.355   2.085  16.631  0.3674 -0.6835  1.0832
 4815SOL    HW226082   0.233   2.113  16.564  0.4825 -0.1375 -0.0763
 4816SOL     OW26083   2.150   0.931   6.297  0.2330  0.3660 -0.4359
 4816SOL    HW126084   2.199   0.968   6.223 -0.8515  2.4721 -0.0983
 4816SOL    HW226085   2.060   0.942   6.264  0.1619  0.3828 -0.2356
 4817SOL     OW26086   0.314   2.947   2.844 -0.1751 -0.0726  0.6941
 4817SOL    HW126087   0.307   2.864   2.797  2.3538  0.0030  0.1698
 4817SOL    HW226088   0.230   2.985   2.818 -0.3655  0.0539  1.4775
 4818SOL     OW26089   2.776   3.647  13.297 -0.0131  0.8577  0.4829
 4818SOL    HW126090   2.755   3.638  13.204  2.1905 -0.3421  0.1050
 4818SOL    HW226091   2.856   3.595  13.305  0.6774  1.5172 -2.1156
 4819SOL     OW26092   2.188   4.240   4.139  0.4270  0.5105 -0.6630
 4819SOL    HW126093   2.098   4.212   4.118  0.6909 -0.7677 -0.1354
 4819SOL    HW226094   2.232   4.239   4.054 -0.4411 -2.1862 -1.1022
 4820SOL     OW26095   0.662   3.091   4.213  0.1870 -0.1993 -0.3052
 4820SOL    HW126096   0.688   3.090   4.121 -0.2518  1.2173 -0.4342
 4820SOL    HW226097   0.567   3.085   4.209  0.1753  0.0961 -0.4216
 4821SOL     OW26098   3.266   1.579   2.461  0.2275 -0.0677  0.6366
 4821SOL    HW126099   3.293   1.490   2.440 -0.1285 -0.1067  0.3412
 4821SOL    HW226100   3.250   1.607   2.370 -0.3386  0.5638  0.9316
 4822SOL     OW26101   2.906   2.049   5.888 -0.5198 -0.3620 -0.5762
 4822SOL    HW126102   2.957   2.017   5.814  0.9533 -1.8250  1.0757
 4822SOL    HW226103   2.976   2.083   5.943 -0.6030 -0.2283 -0.5525
 4823SOL     OW26104   3.398   2.229   7.195  0.0694  0.5495 -0.4273
 4823SOL    HW126105   3.372   2.137   7.198 -0.2993  0.6283 -1.2086
 4823SOL    HW226106   3.320   2.264   7.152 -0.0412  1.0605  0.1920
 4824SOL     OW26107   3.681   2.569   5.986 -0.5760 -0.7908 -0.3126
 4824SOL    HW126108   3.617   2.632   5.952  2.8901  1.4303 -2.7532
 4824SOL    HW226109   3.728   2.627   6.046  0.0622  0.0391 -1.6128
 4825SOL     OW26110   4.633   1.731   6.056 -0.4875  0.5174 -0.2086
 4825SOL    HW126111   4.602   1.727   5.965 -0.6670 -1.3569 -0.0736
 4825SOL    HW226112   4.671   1.643   6.058 -2.2267 -0.2405 -0.8702
 4826SOL     OW26113   4.072   4.472   6.910 -0.1864  0.4374  0.0673
 4826SOL    HW126114   4.155   4.502   6.872 -0.3046  0.0809 -0.4661
 4826SOL    HW226115   4.052   4.542   6.972 -1.0041 -0.3790  0.7275
 4827SOL     OW26116   1.529   0.962   1.664 -0.3914 -0.0713  0.3098
 4827SOL    HW126117   1.453   0.999   1.620 -1.1385 -1.6456  0.2597
 4827SOL    HW226118   1.588   1.022   1.619 -1.9816 -0.2643 -2.0138
 4828SOL     OW26119   2.662   2.721   9.360  0.4034 -0.1256 -0.2995
 4828SOL    HW126120   2.728   2.770   9.409 -1.3584  1.7862  0.1582
 4828SOL    HW226121   2.710   2.638   9.362 -2.0088 -1.5053  0.2688
 4829SOL     OW26122   4.604   2.651  12.508 -0.1068 -0.3743 -0.3405
 4829SOL    HW126123   4.617   2.562  12.474  0.7445 -0.3137 -0.1766
 4829SOL    HW226124   4.654   2.643  12.589 -0.3865  1.1474 -0.0196
 4830SOL     OW26125   2.597   2.447   7.116 -0.2456  0.3108  0.4159
 4830SOL    HW126126   2.634   2.416   7.034  2.5372 -3.1903  2.9775
 4830SOL    HW226127   2.625   2.538   7.112 -0.4703  0.4404  1.6244
 4831SOL     OW26128   4.288   2.353  17.131  0.3977 -0.2717  0.8824
 4831SOL    HW126129   4.242   2.299  17.066  0.9622  0.4221 -0.0939
 4831SOL    HW226130   4.213   2.412  17.147  0.1547 -0.1242 -0.7918
 4832SOL     OW26131   2.967   3.050   6.903  0.0604  0.1767 -0.2389
 4832SOL    HW126132   2.969   3.006   6.988 -1.6676  1.2006  0.3428
 4832SOL    HW226133   2.872   3.049   6.891  0.1231  1.7973 -0.8593
 4833SOL     OW26134   3.183   0.314  12.237 -0.1744 -0.0795  0.2358
 4833SOL    HW126135   3.153   0.233  12.278  1.6518 -0.6090  0.5102
 4833SOL    HW226136   3.134   0.309  12.155  1.7660  3.0469 -1.1253
 4834SOL     OW26137   4.670   3.153  13.870  0.5588 -0.2022 -0.3445
 4834SOL    HW126138   4.624   3.093  13.812 -1.9565 -1.1090  2.5891
 4834SOL    HW226139   4.737   3.201  13.822  0.8401  0.4556  0.6918
 4835SOL     OW26140   1.779   1.497  15.892 -0.4625  0.4967  0.3151
 4835SOL    HW126141   1.808   1.491  15.801 -0.3333  1.2607  0.3002
 4835SOL    HW226142   1.743   1.585  15.880 -3.2391 -0.3570  2.2726
 4836SOL     OW26143   0.381   3.854   5.096  0.4802  0.4611 -0.3148
 4836SOL    HW126144   0.410   3.897   5.176 -0.9742  0.3988  0.2493
 4836SOL    HW226145   0.463   3.806   5.087  0.1865 -0.2813  1.0043
 4837SOL     OW26146   0.215   3.961   7.897  0.1126  0.4013  0.2862
 4837SOL    HW126147   0.207   3.896   7.829  0.6940  0.8134 -0.1779
 4837SOL    HW226148   0.305   3.939   7.922 -0.3947 -1.1015  0.7584
 4838SOL     OW26149   3.844   1.175   7.117  0.7678  0.0203  0.5411
 4838SOL    HW126150   3.792   1.095   7.127  0.1668  0.1114 -1.8323
 4838SOL    HW226151   3.896   1.166   7.037 -1.1754 -0.1869 -0.7021
 4839SOL     OW26152   0.963   3.595   7.967  0.2537  0.2532  0.0743
 4839SOL    HW126153   0.972   3.687   7.944 -2.1665 -0.0059 -1.8439
 4839SOL    HW226154   0.998   3.598   8.056  0.1123 -0.7397  0.1606
 4840SOL     OW26155   1.410   0.368   8.089 -0.0822 -0.3854 -0.0307
 4840SOL    HW126156   1.494   0.406   8.062 -1.1663  0.4426 -2.2327
 4840SOL    HW226157   1.384   0.429   8.159 -0.2225 -1.4445  0.8358
 4841SOL     OW26158   1.655   1.369  10.194 -0.6559  0.1510 -0.0120
 4841SOL    HW126159   1.646   1.464  10.200  1.7943  0.4810 -1.5158
 4841SOL    HW226160   1.707   1.366  10.114 -1.6026 -2.0161 -0.5140
 4842SOL     OW26161   4.594   0.438   3.420  0.5162  0.0293  0.2395
 4842SOL    HW126162   4.566   0.454   3.330 -0.8670  2.5267  1.0974
 4842SOL    HW226163   4.687   0.448   3.398  0.8161  1.8795  2.3014
 4843SOL     OW26164   3.759   4.320   5.981 -0.2230 -0.2410 -0.4124
 4843SOL    HW126165   3.852   4.314   6.001 -0.5543 -0.2466  1.1252
 4843SOL    HW226166   3.740   4.237   5.935 -1.8741  1.1463 -2.2557
 4844SOL     OW26167   2.961   1.852  12.732  0.3245  0.7579 -0.0372
 4844SOL    HW126168   2.944   1.783  12.669  0.6935 -0.9410  1.7428
 4844SOL    HW226169   2.880   1.900  12.711 -1.5590 -1.9015  1.1893
 4845SOL     OW26170   1.887   3.831  10.471  1.1410 -0.2134 -0.1440
 4845SOL    HW126171   1.968   3.838  10.520  1.4596  0.9378 -0.8507
 4845SOL    HW226172   1.831   3.891  10.520 -0.1717 -1.1049 -0.5264
 4846SOL     OW26173   1.538   3.762   5.759  0.3980  0.5753  0.1374
 4846SOL    HW126174   1.493   3.718   5.688 -1.2492  0.9877  0.9391
 4846SOL    HW226175   1.508   3.852   5.749 -0.9158 -0.0016 -1.0087
 4847SOL     OW26176   2.402   1.778   4.496  0.1568 -0.0421 -0.4211
 4847SOL    HW126177   2.386   1.793   4.589  0.2972  5.2518 -1.2183
 4847SOL    HW226178   2.494   1.804   4.499  0.3216 -0.5655 -0.8817
 4848SOL     OW26179   3.085   3.156   4.482  0.1173 -0.6948  0.8688
 4848SOL    HW126180   3.001   3.196   4.460  0.8908 -0.0414 -0.9348
 4848SOL    HW226181   3.094   3.092   4.412  0.8935  1.0764 -0.6630
 4849SOL     OW26182   3.731   2.587   8.390 -0.3869  0.1548 -0.3676
 4849SOL    HW126183   3.721   2.498   8.355 -1.8234  0.3608 -0.4840
 4849SOL    HW226184   3.682   2.629   8.318 -1.2607 -2.1065 -1.0970
 4850SOL     OW26185   3.119   1.142   0.755  0.0538 -0.3807  0.5642
 4850SOL    HW126186   3.091   1.230   0.781  0.1211 -0.2430  0.1741
 4850SOL    HW226187   3.092   1.099   0.836  3.0035  1.3866  2.5015
 4851SOL     OW26188   1.429   0.987   9.109  0.1063 -0.3410  0.1474
 4851SOL    HW126189   1.335   0.974   9.115  0.1789 -1.6153 -1.4300
 4851SOL    HW226190   1.428   1.046   9.033  2.4816  2.8212  2.5684
 4852SOL     OW26191   2.638   4.584   1.957  0.3260  0.0653  0.0522
 4852SOL    HW126192   2.647   4.503   1.906  1.0464 -0.3329  0.7991
 4852SOL    HW226193   2.683   4.633   1.888  0.3505 -1.5923 -1.1070
 4853SOL     OW26194   4.669   0.334   8.867 -0.4657 -0.2054  0.4994
 4853SOL    HW126195   4.726   0.286   8.926  0.3638 -0.2149 -0.3208
 4853SOL    HW226196   4.729   0.337   8.793 -0.2351  1.8451  0.7572
 4854SOL     OW26197   1.854   4.265   6.062 -0.5358  0.2198  0.4048
 4854SOL    HW126198   1.852   4.171   6.044  0.6124  0.6848 -2.0191
 4854SOL    HW226199   1.802   4.285   5.985  1.6707 -0.5547 -1.2806
 4855SOL     OW26200   2.230   4.140  11.296 -0.4179 -0.5119  0.0926
 4855SOL    HW126201   2.291   4.070  11.319 -0.2872  0.7347  3.5637
 4855SOL    HW226202   2.155   4.085  11.275  0.6093 -1.4218 -1.2008
 4856SOL     OW26203   2.637   0.992  15.235  0.2512 -0.5776  0.0052
 4856SOL    HW126204   2.621   0.938  15.157  0.3579  0.9699 -1.0915
 4856SOL    HW226205   2.675   1.068  15.192  0.2302 -0.3508  0.3870
 4857SOL     OW26206   3.165   2.214   2.281 -0.4647  0.4438  0.0026
 4857SOL    HW126207   3.098   2.171   2.334 -2.1175  0.7967 -1.8046
 4857SOL    HW226208   3.241   2.159   2.300  0.3527  1.6582  0.3054
 4858SOL     OW26209   3.411   0.722   6.930 -0.7116 -0.1381 -0.1365
 4858SOL    HW126210   3.479   0.743   6.866 -0.7884 -1.1179 -0.5370
 4858SOL    HW226211   3.415   0.629   6.907  0.7600 -0.0807 -0.1567
 4859SOL     OW26212   3.485   4.659   8.517 -0.0379 -0.0847 -0.0212
 4859SOL    HW126213   3.495   4.566   8.538  1.3896  0.1126  0.1355
 4859SOL    HW226214   3.478   4.699   8.604 -2.5402 -1.4260  0.4080
 4860SOL     OW26215   0.444   0.785  10.080  0.0762  0.6934  0.1417
 4860SOL    HW126216   0.492   0.745  10.153 -1.2205  0.3511  0.8057
 4860SOL    HW226217   0.508   0.834  10.028 -1.3306  0.1997 -2.0446
 4861SOL     OW26218   3.461   0.975  15.272 -0.3295  0.0980  0.0270
 4861SOL    HW126219   3.470   0.914  15.346 -0.4374 -0.3091 -0.2972
 4861SOL    HW226220   3.489   0.909  15.209 -0.5352  0.1658 -0.1374
 4862SOL     OW26221   2.315   4.694   3.133  0.0503 -0.0784 -0.2128
 4862SOL    HW126222   2.270   0.039   3.125 -2.0493 -1.0202  1.7344
 4862SOL    HW226223   2.277   4.646   3.207 -2.8376 -1.3085 -2.5229
 4863SOL     OW26224   2.124   0.781   7.760 -0.5252  0.2388 -0.2130
 4863SOL    HW126225   2.127   0.735   7.676 -0.9458  0.5276 -0.3831
 4863SOL    HW226226   2.165   0.714   7.815 -0.5720 -1.0502 -1.7552
 4864SOL     OW26227   1.976   4.188  14.081 -0.2461  0.0951  0.8557
 4864SOL    HW126228   2.018   4.259  14.129  1.3864  0.0644 -0.5131
 4864SOL    HW226229   1.996   4.212  13.990  0.5046 -1.0871  0.7001
 4865SOL     OW26230   0.579   3.339   3.258 -0.1461  0.1258  0.1325
 4865SOL    HW126231   0.560   3.248   3.282  1.4406  0.0176  0.9560
 4865SOL    HW226232   0.637   3.324   3.183 -3.2070  2.2250 -2.6190
 4866SOL     OW26233   1.700   4.369   0.325  0.1116  0.1937  0.8240
 4866SOL    HW126234   1.770   4.311   0.355 -0.5052 -0.5822  0.7794
 4866SOL    HW226235   1.712   4.377   0.231 -0.2457  1.3368  0.8720
 4867SOL     OW26236   2.126   0.262   0.985  0.0518 -0.0890 -0.3341
 4867SOL    HW126237   2.196   0.269   0.920  0.4871 -0.0976  0.1365
 4867SOL    HW226238   2.061   0.292   0.921  1.7673  0.3905 -1.8489
 4868SOL     OW26239   2.240   1.478   0.224 -0.2911  0.1132  0.1057
 4868SOL    HW126240   2.183   1.485   0.300 -1.8019 -0.6229 -0.9686
 4868SOL    HW226241   2.189   1.445   0.150  0.2044 -0.5884  0.0666
 4869SOL     OW26242   3.441   0.782  10.670  0.9429  0.0740 -0.2476
 4869SOL    HW126243   3.442   0.756  10.762 -1.6726  1.7308  0.2458
 4869SOL    HW226244   3.490   0.708  10.636  0.8345  0.2209 -0.7277
 4870SOL     OW26245   4.557   0.305   4.980 -0.3720  0.1697 -0.0151
 4870SOL    HW126246   4.467   0.294   4.947 -0.3529 -1.4278  0.4992
 4870SOL    HW226247   4.599   0.225   4.950 -1.2221  0.3455 -1.6915
 4871SOL     OW26248   0.054   2.953   8.211 -0.2778 -0.3298  0.0195
 4871SOL    HW126249   0.065   2.879   8.271  1.6679 -0.0592 -0.0044
 4871SOL    HW226250   0.080   2.920   8.126  2.4520 -0.6240  0.9780
 4872SOL     OW26251   3.384   1.887   1.241  0.6927 -0.0789 -0.0158
 4872SOL    HW126252   3.319   1.924   1.300  1.0422 -2.3520  1.7979
 4872SOL    HW226253   3.462   1.936   1.266  0.2789  2.0685 -2.9066
 4873SOL     OW26254   1.822   2.579   2.694 -0.1314  0.5772 -0.1813
 4873SOL    HW126255   1.784   2.570   2.607  0.5685 -1.9568 -0.2322
 4873SOL    HW226256   1.748   2.550   2.747  2.0821 -2.3985  1.2882
 4874SOL     OW26257   0.562   2.067  16.609  0.0189 -0.7663  0.7155
 4874SOL    HW126258   0.618   1.990  16.603  0.2117 -0.4872 -1.0906
 4874SOL    HW226259   0.593   2.120  16.536  0.4497 -0.6752  0.9624
 4875SOL     OW26260   3.361   3.331   8.993  0.3669  0.1304 -0.0353
 4875SOL    HW126261   3.384   3.414   9.035 -1.2434  0.4404  0.2369
 4875SOL    HW226262   3.376   3.254   9.048 -7.1473 -1.4583 -0.2793
 4876SOL     OW26263   0.531   2.393  13.695 -0.2506  0.0572 -0.4772
 4876SOL    HW126264   0.614   2.355  13.722 -0.7197 -1.0667 -0.6149
 4876SOL    HW226265   0.528   2.368  13.602 -1.1735  0.1062 -0.4684
 4877SOL     OW26266   3.229   3.782   7.375  0.3853 -0.6492 -0.3714
 4877SOL    HW126267   3.319   3.795   7.346 -0.2288  3.5642 -0.4533
 4877SOL    HW226268   3.238   3.751   7.465  3.2762 -2.4537 -1.3025
 4878SOL     OW26269   1.783   0.818  11.090 -0.4195 -0.6963  0.2405
 4878SOL    HW126270   1.692   0.816  11.062 -1.1236 -0.8603  2.5892
 4878SOL    HW226271   1.830   0.842  11.010 -0.5649  0.0954  0.3915
 4879SOL     OW26272   3.998   0.788   3.555  0.2812  0.0273  0.2106
 4879SOL    HW126273   3.912   0.832   3.557  0.4512  0.2914  1.5711
 4879SOL    HW226274   4.014   0.782   3.461 -0.9259  1.6822 -0.1244
 4880SOL     OW26275   3.081   2.330   3.705  0.5381 -0.6736  0.0459
 4880SOL    HW126276   3.161   2.279   3.720  0.8032  0.2225  1.6934
 4880SOL    HW226277   3.033   2.319   3.787 -1.3854  1.3371 -0.8400
 4881SOL     OW26278   3.608   0.842  11.252  0.2554  0.1136 -0.2783
 4881SOL    HW126279   3.666   0.776  11.215 -2.2478 -2.4890  0.4994
 4881SOL    HW226280   3.619   0.815  11.343 -1.3452 -1.1217 -0.4537
 4882SOL     OW26281   2.615   3.758  11.146 -0.5113 -0.0433 -0.4956
 4882SOL    HW126282   2.549   3.711  11.095  0.0385 -1.0000 -0.3125
 4882SOL    HW226283   2.699   3.730  11.108 -0.4202  0.2060 -0.4802
 4883SOL     OW26284   1.520   1.777  13.126  0.3295 -0.1054 -0.1775
 4883SOL    HW126285   1.583   1.845  13.099 -0.4159  1.0703  1.0509
 4883SOL    HW226286   1.434   1.804  13.094  1.1296 -0.5237 -2.6883
 4884SOL     OW26287   3.550   1.723  16.660  0.3911  0.5197  0.1886
 4884SOL    HW126288   3.459   1.695  16.666  0.4613 -0.0135 -1.3129
 4884SOL    HW226289   3.540   1.787  16.590 -0.4538 -0.1310 -0.2946
 4885SOL     OW26290   3.973   3.127   3.596  0.1325 -0.4347  0.2051
 4885SOL    HW126291   3.899   3.108   3.539 -1.5056  2.9207  1.2144
 4885SOL    HW226292   4.010   3.039   3.602  1.2652  0.0798  0.8508
 4886SOL     OW26293   2.123   3.880   7.489 -0.2373 -0.1510  0.5563
 4886SOL    HW126294   2.144   3.866   7.582  0.1270  2.1692  0.8337
 4886SOL    HW226295   2.041   3.930   7.499  1.0452  1.9389  0.7200
 4887SOL     OW26296   2.011   3.462   2.395  0.5084 -0.1819  0.3501
 4887SOL    HW126297   1.921   3.461   2.363  0.8852  1.4111 -0.7735
 4887SOL    HW226298   2.024   3.374   2.430  0.1116 -0.3219  0.1431
 4888SOL     OW26299   4.728   1.362  13.975  0.0988  0.0332  0.7275
 4888SOL    HW126300   0.079   1.339  13.951 -1.0111 -2.6830 -0.7377
 4888SOL    HW226301   4.725   1.454  13.948 -1.7707 -0.8170 -1.9487
 4889SOL     OW26302   0.413   0.110  16.945  0.7782 -0.4871 -0.4106
 4889SOL    HW126303   0.339   0.107  17.006  2.7465  0.1404  2.0286
 4889SOL    HW226304   0.376   0.069  16.867 -0.9476 -0.7007  0.5142
 4890SOL     OW26305   3.021   0.817   3.906  0.2166 -0.7041  0.6738
 4890SOL    HW126306   3.023   0.777   3.992 -0.4278  0.5343  1.2644
 4890SOL    HW226307   3.014   0.738   3.852  1.0660  0.2530 -0.8603
 4891SOL     OW26308   0.431   1.881   2.265 -0.0581 -0.0033  0.5054
 4891SOL    HW126309   0.429   1.835   2.181 -0.5707  0.9378 -0.0073
 4891SOL    HW226310   0.398   1.815   2.326  1.4091 -1.3186 -0.1377
 4892SOL     OW26311   3.662   3.493  17.342 -0.0968  0.0863 -0.0639
 4892SOL    HW126312   3.631   3.538  17.420 -0.2240 -0.2479  0.0810
 4892SOL    HW226313   3.689   3.408  17.378  1.5226  0.7633  0.3217
 4893SOL     OW26314   4.591   2.146  17.239  0.3591 -0.0945  0.0429
 4893SOL    HW126315   4.678   2.133  17.277  0.0968  0.7256  0.9339
 4893SOL    HW226316   4.539   2.119  17.315 -0.6436 -0.4638 -0.7849
 4894SOL     OW26317   2.110   0.113  16.196 -0.0969  0.2595  0.3049
 4894SOL    HW126318   2.200   0.133  16.172  0.4623 -0.7696  1.5519
 4894SOL    HW226319   2.073   0.197  16.221 -1.1386  0.5010 -2.1034
 4895SOL     OW26320   4.685   0.667   4.475  0.4620  0.1333  0.1774
 4895SOL    HW126321   4.671   0.708   4.390 -0.3827 -0.8755 -0.1619
 4895SOL    HW226322   4.704   0.577   4.449 -0.4683  0.0686 -0.2504
 4896SOL     OW26323   2.588   2.912   9.142 -0.6570  0.0481  0.4819
 4896SOL    HW126324   2.598   2.962   9.223  1.5310 -0.3071  0.4209
 4896SOL    HW226325   2.597   2.827   9.184 -0.7771  0.1161  0.6454
 4897SOL     OW26326   0.609   4.687   4.076  0.1711 -0.1649 -0.5640
 4897SOL    HW126327   0.536   4.645   4.029 -0.6093 -0.0307  0.5214
 4897SOL    HW226328   0.678   4.621   4.067  1.3753  1.2401 -1.5149
 4898SOL     OW26329   1.701   4.197   5.821  0.4843  0.0602  0.1087
 4898SOL    HW126330   1.710   4.139   5.745 -3.1840 -0.2610 -0.0771
 4898SOL    HW226331   1.707   4.285   5.783  3.3970 -0.9447 -1.7690
 4899SOL     OW26332   1.662   0.546   2.802 -0.2061  1.0059  0.1509
 4899SOL    HW126333   1.570   0.545   2.775  0.4498 -2.0774 -1.9226
 4899SOL    HW226334   1.663   0.454   2.830  2.5992  0.3523 -2.0970
 4900SOL     OW26335   0.481   3.668   3.639 -0.0534 -0.1603 -0.4669
 4900SOL    HW126336   0.409   3.610   3.664 -0.5980  1.9925  2.9364
 4900SOL    HW226337   0.559   3.623   3.672 -0.0057  0.3154  0.0658
 4901SOL     OW26338   1.465   3.297   8.816 -0.0464  0.3073  0.2755
 4901SOL    HW126339   1.413   3.345   8.879  0.3853  1.3420 -0.1444
 4901SOL    HW226340   1.397   3.251   8.767  0.2578  0.9241 -0.7345
 4902SOL     OW26341   2.024   1.374   1.278 -0.7043 -0.4326 -0.1868
 4902SOL    HW126342   2.068   1.392   1.361 -1.4813  0.2707  0.0694
 4902SOL    HW226343   2.073   1.431   1.218 -0.3711  1.6921  2.0823
 4903SOL     OW26344   2.162   4.418  17.633  0.0529 -0.2542 -0.3026
 4903SOL    HW126345   2.071   4.439  17.657  0.5702  2.3039 -0.5885
 4903SOL    HW226346   2.158   4.384  17.543  1.5155  0.1669 -0.5184
 4904SOL     OW26347   4.289   3.984  15.949  0.2203 -0.0700 -0.6519
 4904SOL    HW126348   4.333   3.951  16.027 -1.5510 -1.8833 -0.4129
 4904SOL    HW226349   4.364   3.965  15.892  0.3113 -2.0835  0.1498
 4905SOL     OW26350   3.679   4.150  13.907  0.5338  0.3055 -0.4392
 4905SOL    HW126351   3.626   4.071  13.900  1.3916 -0.2519 -0.6769
 4905SOL    HW226352   3.766   4.110  13.907  1.4223  2.2142  1.2510
 4906SOL     OW26353   4.001   3.849   4.073  0.0987 -0.2445 -0.3295
 4906SOL    HW126354   4.084   3.804   4.088 -1.2985 -2.6131  0.4510
 4906SOL    HW226355   3.949   3.810   4.144  0.9336  0.6574  0.7732
 4907SOL     OW26356   0.645   3.554   4.284 -0.2519 -0.5093  0.6002
 4907SOL    HW126357   0.575   3.603   4.241  0.8950 -0.0197 -0.6988
 4907SOL    HW226358   0.724   3.594   4.248 -0.7080 -0.3148 -0.1708
 4908SOL     OW26359   1.919   0.205  11.237  0.4081  0.1609 -0.6111
 4908SOL    HW126360   1.861   0.281  11.240  2.5498  1.7043  1.5759
 4908SOL    HW226361   1.869   0.142  11.290  1.1917 -1.3542 -1.6775
 4909SOL     OW26362   1.143   3.457   0.873  0.6299 -0.2422 -0.0239
 4909SOL    HW126363   1.170   3.366   0.877 -1.3018 -0.8146  0.0298
 4909SOL    HW226364   1.052   3.441   0.847  0.3817 -1.9764  1.9161
 4910SOL     OW26365   1.810   4.700   2.476 -0.6117 -0.6348 -0.3066
 4910SOL    HW126366   1.877   4.685   2.543  0.1268  0.2647 -0.8508
 4910SOL    HW226367   1.794   4.608   2.454 -1.0872 -0.5877 -0.1574
 4911SOL     OW26368   1.983   0.712   1.726 -0.0076  0.3997  0.1374
 4911SOL    HW126369   1.985   0.719   1.630  0.8539  0.5682  0.1665
 4911SOL    HW226370   2.064   0.664   1.740 -1.1699 -1.8326 -0.9355
 4912SOL     OW26371   2.700   0.744   7.105  0.0743 -0.6657  0.3177
 4912SOL    HW126372   2.741   0.799   7.038  0.7957  0.5810  1.7914
 4912SOL    HW226373   2.617   0.723   7.062 -0.2041 -3.4198  2.2246
 4913SOL     OW26374   4.278   3.160   2.810 -0.0962  0.1359 -0.1225
 4913SOL    HW126375   4.236   3.130   2.890  0.5888  1.4329  0.7316
 4913SOL    HW226376   4.229   3.109   2.746  0.9034 -2.0135  0.8270
 4914SOL     OW26377   2.927   1.969   9.747 -0.2634  0.1887 -0.3523
 4914SOL    HW126378   2.961   2.058   9.753  1.4322 -0.5034  0.4426
 4914SOL    HW226379   2.861   1.979   9.816 -1.0395  1.7425 -1.3274
 4915SOL     OW26380   2.880   4.454   5.005 -0.3061  0.6170  0.0327
 4915SOL    HW126381   2.831   4.397   4.945  2.2687 -0.7807 -0.7381
 4915SOL    HW226382   2.898   4.398   5.081  1.5210  0.0199 -0.8618
 4916SOL     OW26383   0.218   4.558   4.647  0.2207  0.1831  0.5207
 4916SOL    HW126384   0.129   4.530   4.671 -0.3334  2.5085  1.1909
 4916SOL    HW226385   0.273   4.488   4.682  0.3516 -0.6266 -1.3154
 4917SOL     OW26386   3.910   2.958   9.082  0.8225 -0.1232  0.1060
 4917SOL    HW126387   3.898   2.996   8.995  0.2624  0.2035  0.3278
 4917SOL    HW226388   3.998   2.921   9.077  0.8574 -0.0729  0.3455
 4918SOL     OW26389   1.531   0.058   0.707  0.4228 -0.2837  0.2566
 4918SOL    HW126390   1.600   0.101   0.656 -0.1745 -1.7981 -1.8402
 4918SOL    HW226391   1.581   4.726   0.746 -0.7978 -1.6667 -0.7183
 4919SOL     OW26392   2.225   1.613   4.312 -0.1380 -0.1779 -0.0626
 4919SOL    HW126393   2.254   1.660   4.391 -2.4631 -1.0422  1.3038
 4919SOL    HW226394   2.211   1.529   4.356 -0.3259  0.0447  0.3093
 4920SOL     OW26395   2.638   2.009   8.195 -0.1757  0.5375  0.1261
 4920SOL    HW126396   2.711   2.060   8.161  0.4640 -0.0984  0.5357
 4920SOL    HW226397   2.656   1.921   8.161 -1.2895  0.8450 -1.2555
 4921SOL     OW26398   2.825   0.760  15.390 -0.2023 -0.2072  0.1429
 4921SOL    HW126399   2.775   0.714  15.322  0.7136 -0.1887 -0.5449
 4921SOL    HW226400   2.765   0.751  15.464  1.3861 -0.2859  1.4060
 4922SOL     OW26401   1.261   4.691   5.501  0.6373  0.2970  0.3927
 4922SOL    HW126402   1.343   4.731   5.474 -0.2719  1.6100 -0.3882
 4922SOL    HW226403   1.207   0.025   5.531 -0.8240 -0.4916 -0.3004
 4923SOL     OW26404   3.881   1.472   8.132  0.2146 -0.1100 -0.1011
 4923SOL    HW126405   3.874   1.522   8.051  0.0420 -0.4588 -0.3000
 4923SOL    HW226406   3.793   1.437   8.145  0.2775  0.8366  2.9931
 4924SOL     OW26407   2.440   2.646   6.571  0.0315  0.2897  0.5366
 4924SOL    HW126408   2.477   2.562   6.543 -0.8864 -0.1089  0.5431
 4924SOL    HW226409   2.357   2.622   6.611 -0.1563  0.7069  0.3997
 4925SOL     OW26410   0.099   4.534  11.268  0.1288 -0.5208 -0.0855
 4925SOL    HW126411   0.195   4.537  11.273  0.2068 -0.7850 -1.3403
 4925SOL    HW226412   0.084   4.589  11.192 -0.5585  0.0944  0.4964
 4926SOL     OW26413   2.336   2.165   5.657  0.1705  0.1871  0.1606
 4926SOL    HW126414   2.296   2.203   5.736 -0.6965 -0.3523 -0.0268
 4926SOL    HW226415   2.394   2.100   5.697 -1.3197 -1.1354  0.1619
 4927SOL     OW26416   3.900   2.293   4.999 -0.8063  0.0282  0.1090
 4927SOL    HW126417   3.916   2.386   5.008  1.3828 -0.6139  2.7469
 4927SOL    HW226418   3.807   2.301   4.978 -0.2344  1.6848 -1.7631
 4928SOL     OW26419   4.601   1.982   1.989  0.5228  0.4988  0.0055
 4928SOL    HW126420   4.672   2.039   2.020  2.2277 -2.3442  1.3549
 4928SOL    HW226421   4.565   2.023   1.911 -0.8920 -0.6682  0.0431
 4929SOL     OW26422   4.660   4.728   8.827 -0.2046  0.2029  0.1175
 4929SOL    HW126423   4.663   4.733   8.923  0.6391  1.7171  0.0209
 4929SOL    HW226424   4.736   0.039   8.796 -0.8500  0.1847 -1.5128
 4930SOL     OW26425   2.053   3.589  10.590 -0.5416 -0.4047  0.0553
 4930SOL    HW126426   2.054   3.651  10.517  0.1059  0.1270  0.5155
 4930SOL    HW226427   2.051   3.508  10.539  0.9850 -1.0084  0.9541
 4931SOL     OW26428   1.014   1.115   2.012 -0.2379 -0.6410  0.2504
 4931SOL    HW126429   1.038   1.114   1.919 -0.2768  0.4824  0.2347
 4931SOL    HW226430   0.992   1.205   2.034 -1.0827 -1.0091  0.9240
 4932SOL     OW26431   3.447   3.442   4.597 -0.3323 -0.4494  0.7036
 4932SOL    HW126432   3.433   3.405   4.684  2.2644 -0.4741  1.1139
 4932SOL    HW226433   3.408   3.382   4.534  0.2546  1.9851 -1.9629
 4933SOL     OW26434   2.284   0.982   1.635 -0.0424 -0.2497 -0.1978
 4933SOL    HW126435   2.324   0.896   1.623  1.6161  0.5143 -0.0074
 4933SOL    HW226436   2.232   0.975   1.555  1.0141  1.1027 -0.9905
 4934SOL     OW26437   1.311   4.371  16.463  0.0820  0.3519  0.1335
 4934SOL    HW126438   1.329   4.391  16.555 -1.7079  0.0675  0.5583
 4934SOL    HW226439   1.218   4.349  16.473  0.1611 -0.3864 -0.7645
 4935SOL     OW26440   2.230   0.644  16.642  0.7189  0.1004  1.0826
 4935SOL    HW126441   2.257   0.557  16.613  1.3689  0.5465  0.3566
 4935SOL    HW226442   2.260   0.699  16.570  2.9927 -1.5018  0.8115
 4936SOL     OW26443   1.331   3.543  17.753  0.3710  0.2226  0.1587
 4936SOL    HW126444   1.309   3.500  17.670  0.7650 -1.9185  1.1737
 4936SOL    HW226445   1.372   3.469   0.042  2.3040  1.0263 -0.2656
 4937SOL     OW26446   0.006   1.109   5.852 -0.5405  1.0027  0.1729
 4937SOL    HW126447   4.723   1.031   5.801  0.0187 -0.1256  1.6604
 4937SOL    HW226448   0.023   1.061   5.933  1.2259 -0.9313 -1.3305
 4938SOL     OW26449   3.472   0.921   3.262 -1.2570  0.5131 -0.7431
 4938SOL    HW126450   3.566   0.938   3.259 -1.1703  0.4116  1.8855
 4938SOL    HW226451   3.470   0.851   3.327 -0.4310  2.0977  0.9761
 4939SOL     OW26452   2.924   0.218  12.388 -0.0240 -0.7316 -0.6768
 4939SOL    HW126453   2.865   0.291  12.371  0.9160 -0.4762 -2.8180
 4939SOL    HW226454   2.917   0.208  12.483  1.6355  1.2789 -0.3509
 4940SOL     OW26455   2.766   2.245   3.044 -0.1734 -0.3444 -0.0436
 4940SOL    HW126456   2.797   2.191   3.117  0.5708  2.2413  1.5428
 4940SOL    HW226457   2.748   2.177   2.980  3.7350 -0.0912 -1.4106
 4941SOL     OW26458   0.184   0.950   3.994  0.3208  0.4434 -0.0717
 4941SOL    HW126459   0.116   1.015   3.975  1.8399  2.0302 -0.0561
 4941SOL    HW226460   0.225   0.973   4.078  0.1620 -0.7700  0.3359
 4942SOL     OW26461   2.319   0.571   3.359 -0.1684  0.0010 -0.2013
 4942SOL    HW126462   2.252   0.623   3.314  0.4438  1.0007  0.0441
 4942SOL    HW226463   2.357   0.536   3.279  1.7396  0.4090  0.5164
 4943SOL     OW26464   1.056   3.766  11.621 -0.2426 -0.8547  0.1080
 4943SOL    HW126465   0.984   3.810  11.576 -0.4905 -0.8143  0.5349
 4943SOL    HW226466   1.133   3.815  11.591 -1.3927  0.3964 -0.7694
 4944SOL     OW26467   4.378   1.334  11.132 -0.0297 -0.2071 -0.3868
 4944SOL    HW126468   4.299   1.319  11.184 -0.9584  1.9050 -1.1779
 4944SOL    HW226469   4.432   1.384  11.192 -0.6218  1.1803 -0.9967
 4945SOL     OW26470   2.336   4.180   3.935 -0.1842  0.3753 -0.2221
 4945SOL    HW126471   2.379   4.104   3.897 -0.7450  0.4223 -0.9602
 4945SOL    HW226472   2.338   4.238   3.859  0.4623 -0.0389 -0.5205
 4946SOL     OW26473   3.877   3.746   4.281 -0.4937 -0.0471 -0.4923
 4946SOL    HW126474   3.918   3.673   4.327  0.1184 -0.6674 -2.0118
 4946SOL    HW226475   3.785   3.728   4.299 -0.0805 -0.5883  1.0653
 4947SOL     OW26476   0.878   3.345   4.169  0.7154  0.0756  0.1017
 4947SOL    HW126477   0.897   3.436   4.146 -1.7830  0.6874  0.5145
 4947SOL    HW226478   0.796   3.324   4.123 -0.2547 -1.1265  2.3986
 4948SOL     OW26479   0.858   0.254   6.456 -0.4661  0.1267  0.0337
 4948SOL    HW126480   0.934   0.277   6.509 -0.3680 -0.5387  0.1831
 4948SOL    HW226481   0.818   0.180   6.501  0.9249  0.4165  1.7271
 4949SOL     OW26482   1.402   0.725   2.372  0.1398 -0.2035  0.3454
 4949SOL    HW126483   1.465   0.796   2.381 -0.1330 -0.3060  3.2405
 4949SOL    HW226484   1.372   0.712   2.462  0.0521 -1.6308  0.1148
 4950SOL     OW26485   0.650   1.740   6.803  0.6495 -0.3040 -0.7387
 4950SOL    HW126486   0.581   1.680   6.832 -0.8114  2.2908  1.2105
 4950SOL    HW226487   0.661   1.721   6.710 -0.9614 -0.1126 -0.9745
 4951SOL     OW26488   2.641   1.694  16.020 -0.1145  0.1615  0.0615
 4951SOL    HW126489   2.721   1.691  16.072 -0.1562  0.6771  0.1578
 4951SOL    HW226490   2.574   1.673  16.085  0.6814 -0.7215  0.5901
 4952SOL     OW26491   3.579   2.799  17.591  0.3429  0.1698  0.0656
 4952SOL    HW126492   3.514   2.748  17.542  0.6264 -1.8422  1.8076
 4952SOL    HW226493   3.643   2.736  17.624  1.7855  1.1461 -0.8482
 4953SOL     OW26494   2.994   2.813   1.980  0.6129  0.0459  0.3488
 4953SOL    HW126495   2.958   2.892   2.020 -0.7529 -0.1805 -0.4265
 4953SOL    HW226496   3.034   2.770   2.055 -0.9205  1.5462  2.0179
 4954SOL     OW26497   2.604   0.153   8.237 -0.5387  0.4593  0.4265
 4954SOL    HW126498   2.564   0.112   8.314 -0.0810  1.7434  1.3552
 4954SOL    HW226499   2.682   0.198   8.269 -0.1703  0.7319 -0.8386
 4955SOL     OW26500   4.674   3.890   7.622  0.1348  0.0611  0.0579
 4955SOL    HW126501   4.712   3.825   7.680  1.2037 -0.6570 -1.4414
 4955SOL    HW226502   4.604   3.831   7.593 -0.8447  2.0453 -1.6268
 4956SOL     OW26503   4.254   2.085   7.403 -0.3680 -0.0884 -0.3370
 4956SOL    HW126504   4.252   2.042   7.317 -3.2584 -2.1204  0.7609
 4956SOL    HW226505   4.179   2.038   7.439 -1.0107  1.0608 -0.1707
 4957SOL     OW26506   3.728   3.702   8.455 -0.1885 -0.0484 -0.0226
 4957SOL    HW126507   3.807   3.753   8.436  0.4901 -1.2157 -0.3172
 4957SOL    HW226508   3.663   3.750   8.405 -1.3522 -0.1207  1.4164
 4958SOL     OW26509   3.393   4.642   5.144 -0.4571  0.4945  0.0495
 4958SOL    HW126510   3.384   4.736   5.155  0.1226  0.5322  0.1747
 4958SOL    HW226511   3.310   4.620   5.101 -0.0670 -1.9217  0.5202
 4959SOL     OW26512   0.590   2.267   6.989 -0.1059 -0.6366 -0.2767
 4959SOL    HW126513   0.560   2.176   6.992  0.8039 -0.9174  0.2063
 4959SOL    HW226514   0.654   2.238   6.925  1.3949 -1.1788  1.4758
 4960SOL     OW26515   2.709   1.315   3.853  0.3856  0.3260  0.0710
 4960SOL    HW126516   2.804   1.322   3.858  0.7413 -3.3195 -1.4003
 4960SOL    HW226517   2.687   1.249   3.919 -0.0862  1.6010  1.1774
 4961SOL     OW26518   1.093   2.248  15.199  0.2957 -0.0564 -0.7446
 4961SOL    HW126519   1.091   2.214  15.289 -1.0100  0.3467 -0.6242
 4961SOL    HW226520   1.152   2.323  15.208  3.9598 -3.2393  1.7454
 4962SOL     OW26521   1.643   2.742   4.721 -0.0373  0.2411 -0.2068
 4962SOL    HW126522   1.643   2.707   4.632 -0.0888 -1.1939  0.3496
 4962SOL    HW226523   1.584   2.818   4.719 -0.4831 -0.1269 -1.1235
 4963SOL     OW26524   4.412   3.491   3.753 -0.4904  0.0986 -0.6571
 4963SOL    HW126525   4.433   3.584   3.753 -1.5219  0.3424 -1.4259
 4963SOL    HW226526   4.498   3.463   3.721 -0.2079  1.9604 -1.5003
 4964SOL     OW26527   2.570   1.623   4.735 -0.5165 -0.3165  0.4877
 4964SOL    HW126528   2.587   1.710   4.697  0.6876 -0.7488  0.0066
 4964SOL    HW226529   2.485   1.638   4.775 -0.6642 -0.1394  0.1033
 4965SOL     OW26530   2.992   3.776   6.374 -0.0934  0.3670 -0.3688
 4965SOL    HW126531   2.985   3.689   6.336 -3.2872  0.2885  0.4454
 4965SOL    HW226532   2.993   3.755   6.468 -0.3135 -2.0458 -0.9230
 4966SOL     OW26533   1.355   3.136   1.603 -0.0952 -0.4268 -0.8391
 4966SOL    HW126534   1.271   3.097   1.626 -1.8275  3.0752 -1.1643
 4966SOL    HW226535   1.366   3.091   1.519 -1.3930 -0.5656 -0.9237
 4967SOL     OW26536   3.415   4.215   9.680  0.2938  0.3012 -1.0291
 4967SOL    HW126537   3.499   4.169   9.686  0.3292  0.5001  0.0904
 4967SOL    HW226538   3.411   4.265   9.762  1.2596 -1.1605 -0.0930
 4968SOL     OW26539   2.239   2.817   5.218 -0.1625  0.0779  0.3668
 4968SOL    HW126540   2.175   2.854   5.157 -0.0683 -0.5383 -0.1038
 4968SOL    HW226541   2.310   2.793   5.159 -1.8333 -0.8218 -1.2844
 4969SOL     OW26542   3.935   0.473  10.236  0.2370 -0.1454 -0.1853
 4969SOL    HW126543   3.855   0.523  10.248  0.5183 -0.0321  1.2185
 4969SOL    HW226544   4.000   0.539  10.210 -0.5994  1.3685  1.5717
 4970SOL     OW26545   1.693   3.657   2.472 -0.1937  0.0778  0.6704
 4970SOL    HW126546   1.634   3.608   2.416 -1.4610  0.3488  1.7534
 4970SOL    HW226547   1.630   3.721   2.506 -0.0743  1.5614 -1.8856
 4971SOL     OW26548   1.438   1.444   1.770 -0.0333  0.3529  0.1715
 4971SOL    HW126549   1.447   1.462   1.676 -0.8893  1.2945  0.2757
 4971SOL    HW226550   1.364   1.383   1.776 -0.5176  0.5644 -3.3254
 4972SOL     OW26551   4.607   0.850   0.255  0.3620 -0.2024 -0.1237
 4972SOL    HW126552   4.656   0.793   0.315  1.2719 -0.6496 -1.2737
 4972SOL    HW226553   4.636   0.801   0.177  1.0284 -1.0982  0.6768
 4973SOL     OW26554   1.593   2.100   5.285 -0.1607  0.2588  0.1075
 4973SOL    HW126555   1.544   2.182   5.285 -1.2462 -0.3938  0.3298
 4973SOL    HW226556   1.615   2.084   5.377  1.5881 -2.4918 -0.7703
 4974SOL     OW26557   1.247   0.450  10.727 -0.1062 -0.3661 -0.1481
 4974SOL    HW126558   1.242   0.370  10.780  1.1021  0.5119  1.2766
 4974SOL    HW226559   1.158   0.482  10.735  0.7406  1.2423  2.8322
 4975SOL     OW26560   0.920   4.614   6.679  0.6651 -0.5907 -0.0426
 4975SOL    HW126561   0.846   4.556   6.665 -1.0144  1.0324  2.2181
 4975SOL    HW226562   0.875   4.698   6.665  0.7749 -0.5797 -0.3461
 4976SOL     OW26563   3.413   0.180   8.936  0.1026  0.2654  0.5434
 4976SOL    HW126564   3.360   0.235   8.879 -1.6193 -0.6860  1.2294
 4976SOL    HW226565   3.497   0.223   8.920  0.4439 -0.3091  0.7801
 4977SOL     OW26566   3.849   0.834  16.600  0.6944  0.0979 -0.5651
 4977SOL    HW126567   3.885   0.905  16.547  0.5774  0.6111  0.0354
 4977SOL    HW226568   3.861   0.756  16.547 -0.7527 -0.8911  0.5680
 4978SOL     OW26569   0.200   3.971   4.915 -0.5822 -0.0231 -0.1926
 4978SOL    HW126570   0.225   3.945   4.827  1.1163 -1.9919  0.8716
 4978SOL    HW226571   0.253   3.920   4.976  0.4573  0.8112 -0.3985
 4979SOL     OW26572   2.811   1.215  13.468 -0.5479 -0.0225 -0.1673
 4979SOL    HW126573   2.808   1.230  13.562  0.7571  0.8869 -0.2563
 4979SOL    HW226574   2.901   1.181  13.464 -1.2854 -1.9868  0.0688
 4980SOL     OW26575   1.859   0.744   2.836  0.5480  0.2148 -0.2912
 4980SOL    HW126576   1.784   0.802   2.844  0.3009 -0.2342  0.6713
 4980SOL    HW226577   1.820   0.658   2.851  0.8158  0.5151  2.0993
 4981SOL     OW26578   2.946   4.494   1.683 -0.2553  0.6439 -0.0075
 4981SOL    HW126579   2.958   4.452   1.768  2.1426  1.8428  0.2584
 4981SOL    HW226580   2.964   4.413   1.634 -1.8232 -0.3247  1.0070
 4982SOL     OW26581   0.161   0.367   8.344  0.0448  0.4337 -0.2186
 4982SOL    HW126582   0.231   0.301   8.346  0.9302  1.3936  0.4806
 4982SOL    HW226583   0.200   0.442   8.300 -0.7941  2.4798  2.5072
 4983SOL     OW26584   1.413   2.964  13.448  0.2603 -0.7708  0.1924
 4983SOL    HW126585   1.339   2.978  13.506 -0.5216  0.5691 -1.1271
 4983SOL    HW226586   1.377   2.989  13.363 -2.3019 -1.9722  0.9430
 4984SOL     OW26587   4.611   1.383   1.686 -0.7408  0.4310  0.3123
 4984SOL    HW126588   4.531   1.358   1.732 -0.0409 -0.5120  1.0194
 4984SOL    HW226589   4.594   1.365   1.593  0.3658 -0.8342  0.3483
 4985SOL     OW26590   2.566   1.845   0.278 -0.5481  0.4015  0.1681
 4985SOL    HW126591   2.544   1.754   0.299  1.3368  0.3139  1.6529
 4985SOL    HW226592   2.660   1.831   0.287 -0.9453 -1.7934  0.9819
 4986SOL     OW26593   0.189   0.405   5.868 -0.3237  0.0941  0.0809
 4986SOL    HW126594   0.241   0.484   5.855  0.9016 -0.4683  1.6299
 4986SOL    HW226595   0.131   0.442   5.934  0.6963 -0.6299  1.3771
 4987SOL     OW26596   4.480   3.801   7.899  0.1254 -0.6652 -0.3198
 4987SOL    HW126597   4.482   3.787   7.994 -1.5394 -1.1222 -0.3337
 4987SOL    HW226598   4.562   3.848   7.895  0.5325 -1.3353  0.0779
 4988SOL     OW26599   3.348   4.731   4.226  0.1908  0.0363 -1.0087
 4988SOL    HW126600   3.305   4.735   4.311  1.0455  1.9253 -0.6771
 4988SOL    HW226601   3.427   4.681   4.244  0.1586  0.2495 -0.2820
 4989SOL     OW26602   1.266   4.381   9.251 -0.7654 -0.2668  0.4336
 4989SOL    HW126603   1.291   4.451   9.190 -1.7987 -0.3425 -0.0851
 4989SOL    HW226604   1.347   4.362   9.298  0.4028 -1.1520 -1.9292
 4990SOL     OW26605   4.370   1.440  11.851 -0.1049 -0.9513 -0.0059
 4990SOL    HW126606   4.451   1.390  11.841  0.1266 -0.4357 -0.6631
 4990SOL    HW226607   4.323   1.371  11.897 -1.6163 -0.5909 -1.0235
 4991SOL     OW26608   3.773   4.310   0.641  0.6983  0.0394  0.0923
 4991SOL    HW126609   3.796   4.235   0.585  0.6250 -0.9274  1.3600
 4991SOL    HW226610   3.851   4.365   0.648  0.8956 -0.2932  0.4650
 4992SOL     OW26611   3.774   2.615  11.036  0.0495  0.2155  0.1670
 4992SOL    HW126612   3.828   2.694  11.040  0.5385 -0.2305  2.3821
 4992SOL    HW226613   3.747   2.611  10.944 -2.5808 -2.6261  1.0687
 4993SOL     OW26614   0.619   2.171  14.553  0.3762 -0.1904 -0.2907
 4993SOL    HW126615   0.591   2.080  14.544 -1.8701  0.4022  0.4534
 4993SOL    HW226616   0.653   2.164  14.642 -1.0728  0.2571  0.3119
 4994SOL     OW26617   3.835   2.508   9.578 -0.0017 -0.6764  0.6604
 4994SOL    HW126618   3.845   2.416   9.554 -0.8150 -1.0306  1.6448
 4994SOL    HW226619   3.924   2.525   9.608  0.0587 -0.6937  0.4865
 4995SOL     OW26620   1.155   1.853   1.924  0.5885  0.2516 -0.0058
 4995SOL    HW126621   1.139   1.798   1.848 -1.1770  4.0183 -2.3857
 4995SOL    HW226622   1.251   1.851   1.917  0.4843  3.4021 -2.2993
 4996SOL     OW26623   3.843   4.268   8.817 -0.1924  0.4389 -0.0275
 4996SOL    HW126624   3.846   4.227   8.904 -0.3753 -1.6382 -1.0090
 4996SOL    HW226625   3.750   4.261   8.799 -0.4265  1.9095  0.6537
 4997SOL     OW26626   2.334   1.462   6.565 -0.2387 -0.0744  0.3224
 4997SOL    HW126627   2.344   1.368   6.581 -0.0389  0.1562  1.5554
 4997SOL    HW226628   2.267   1.491   6.627 -2.3141 -2.6206 -0.7174
 4998SOL     OW26629   4.068   0.346   5.004 -0.7469 -0.1932 -1.0076
 4998SOL    HW126630   4.068   0.252   4.985  1.5034 -0.6174  0.9634
 4998SOL    HW226631   4.067   0.349   5.100 -0.0191  0.3476 -1.0152
 4999SOL     OW26632   1.890   2.680  16.767  0.1313 -0.0251  0.2101
 4999SOL    HW126633   1.964   2.666  16.708 -0.7168  1.0064 -1.1141
 4999SOL    HW226634   1.839   2.602  16.748 -1.3386  1.0925 -0.3983
 5000SOL     OW26635   1.440   4.029  12.217 -0.2129 -0.1256 -0.5293
 5000SOL    HW126636   1.387   3.951  12.201 -2.0075  0.3462  2.9063
 5000SOL    HW226637   1.518   3.976  12.233  1.5072  2.8509  0.9714
 5001SOL     OW26638   1.340   1.525  10.678 -0.2417  0.2762 -0.2030
 5001SOL    HW126639   1.320   1.449  10.733  1.4750 -1.0312 -1.3583
 5001SOL    HW226640   1.397   1.583  10.729  0.6150  0.1680 -1.0277
 5002SOL     OW26641   4.323   4.070  14.153 -0.6141 -0.3082  0.7380
 5002SOL    HW126642   4.230   4.072  14.177 -0.0136  0.9986  2.8771
 5002SOL    HW226643   4.359   4.119  14.226 -1.6700 -0.0567  1.0980
 5003SOL     OW26644   1.099   0.630   8.595  0.1840  0.1066 -0.2797
 5003SOL    HW126645   1.132   0.562   8.654 -0.9025  1.1864  1.5850
 5003SOL    HW226646   1.040   0.675   8.657  1.5018 -0.1525  1.1621
 5004SOL     OW26647   0.450   1.849   4.123  0.1323 -0.1366 -0.3089
 5004SOL    HW126648   0.396   1.805   4.058  0.9299 -0.1126 -0.9803
 5004SOL    HW226649   0.386   1.862   4.193 -0.1270 -0.4478 -0.4914
 5005SOL     OW26650   3.735   1.429   6.984 -0.1781  0.3949  0.0107
 5005SOL    HW126651   3.826   1.438   7.013  0.0861 -0.5061 -0.5512
 5005SOL    HW226652   3.692   1.430   7.069  1.2932  1.8782  0.7379
 5006SOL     OW26653   4.232   3.031   4.840 -0.0872 -0.0566 -0.1733
 5006SOL    HW126654   4.211   2.938   4.827  1.7593 -0.6053  0.7709
 5006SOL    HW226655   4.178   3.080   4.778 -0.1501  0.7385  0.5154
 5007SOL     OW26656   2.438   1.201   6.650  0.2141  0.1285  0.7321
 5007SOL    HW126657   2.464   1.155   6.730 -0.1093  1.2531  1.4966
 5007SOL    HW226658   2.514   1.182   6.596 -0.5713  0.7558 -0.5865
 5008SOL     OW26659   0.120   4.507   3.807  0.0319 -0.5663 -0.5842
 5008SOL    HW126660   0.038   4.527   3.853  1.4657 -0.7498  2.0522
 5008SOL    HW226661   0.140   4.596   3.779  1.4358 -1.0747 -1.1613
 5009SOL     OW26662   1.289   1.035   0.356  0.7900 -0.3350 -0.0500
 5009SOL    HW126663   1.257   1.015   0.268  0.6841  0.5869 -0.2184
 5009SOL    HW226664   1.245   1.118   0.376  1.6769  0.3904 -1.1359
 5010SOL     OW26665   4.220   2.253   3.867  0.8228 -0.3455  0.5259
 5010SOL    HW126666   4.310   2.276   3.841  0.3168  1.6329  0.5175
 5010SOL    HW226667   4.209   2.304   3.947  2.5494  0.3292  0.3362
 5011SOL     OW26668   1.569   4.615   3.186 -0.1673  0.0980 -0.4179
 5011SOL    HW126669   1.574   4.591   3.279 -0.1206 -0.1946 -0.4957
 5011SOL    HW226670   1.597   4.706   3.192  1.2860 -0.3598 -0.2695
 5012SOL     OW26671   3.922   4.537   1.640 -0.5973 -0.1021 -0.5653
 5012SOL    HW126672   3.898   4.545   1.732 -1.2033 -0.7349 -0.6648
 5012SOL    HW226673   3.983   4.463   1.632 -0.8388 -0.4413  0.8198
 5013SOL     OW26674   0.760   1.599  13.315  0.2794 -0.4320  0.0117
 5013SOL    HW126675   0.829   1.651  13.356  0.2474  1.7396 -2.7209
 5013SOL    HW226676   0.816   1.574  13.241 -1.5489 -1.0748 -1.1512
 5014SOL     OW26677   3.578   4.202   6.708 -0.6427  0.1932 -0.4679
 5014SOL    HW126678   3.608   4.165   6.791 -0.2399  0.0904 -0.6604
 5014SOL    HW226679   3.580   4.123   6.654 -0.8635 -0.3847  0.3672
 5015SOL     OW26680   1.791   1.403   7.600 -0.5051 -0.2155 -0.1592
 5015SOL    HW126681   1.756   1.452   7.674  0.7266 -1.2511  1.0979
 5015SOL    HW226682   1.849   1.471   7.564 -0.4892 -0.2952 -0.2853
 5016SOL     OW26683   2.702   2.752   8.965  0.3310 -0.4236  0.2101
 5016SOL    HW126684   2.783   2.728   9.009 -1.2175 -3.4162  1.3932
 5016SOL    HW226685   2.678   2.830   9.016 -3.2352  0.9844 -3.6020
 5017SOL     OW26686   3.652   1.770   2.768  0.5526  1.0851  0.4419
 5017SOL    HW126687   3.575   1.752   2.714  0.8223  0.6026  0.2220
 5017SOL    HW226688   3.702   1.693   2.742 -1.2624  0.4292 -1.0930
 5018SOL     OW26689   2.254   4.137   2.262  0.1090  0.6336  0.2649
 5018SOL    HW126690   2.165   4.114   2.238  0.6897 -0.0496 -1.2279
 5018SOL    HW226691   2.285   4.051   2.293  3.2587  1.5103 -0.4755
 5019SOL     OW26692   0.565   4.034   7.713  0.2922 -0.2764  0.3155
 5019SOL    HW126693   0.500   4.019   7.644  0.1999  1.0687  0.1058
 5019SOL    HW226694   0.588   3.941   7.704  1.0971 -0.1551  1.1640
 5020SOL     OW26695   0.892   1.971   9.760 -0.6378 -0.0688 -0.2942
 5020SOL    HW126696   0.950   1.990   9.834 -0.2594  0.4275 -0.7137
 5020SOL    HW226697   0.956   1.980   9.689  0.4977  0.4511  0.8030
 5021SOL     OW26698   3.116   4.501  13.646  0.1107  0.1409 -0.6555
 5021SOL    HW126699   3.049   4.448  13.689 -0.4670  1.9574  0.6708
 5021SOL    HW226700   3.079   4.523  13.561 -0.3743 -0.8313 -0.7017
 5022SOL     OW26701   4.063   3.572   4.442 -1.1979 -0.7228  0.4260
 5022SOL    HW126702   4.076   3.649   4.498  0.4215 -1.6591  1.3551
 5022SOL    HW226703   4.154   3.541   4.446 -1.5321 -2.2448 -3.6990
 5023SOL     OW26704   0.286   3.026   3.693  0.0174  0.0415 -0.0672
 5023SOL    HW126705   0.195   2.995   3.685 -0.2208  0.8754 -0.5860
 5023SOL    HW226706   0.329   2.941   3.702  0.5074  0.1891 -1.0500
 5024SOL     OW26707   4.084   1.004  14.915  0.1293  0.0888  0.4867
 5024SOL    HW126708   4.091   1.009  15.010  3.0688 -2.2757  0.3801
 5024SOL    HW226709   4.118   1.089  14.885 -1.6466 -0.4316 -2.8925
 5025SOL     OW26710   0.652   0.889   5.783  0.0812 -0.6949  0.1060
 5025SOL    HW126711   0.675   0.803   5.819 -0.9484 -1.0496 -0.0907
 5025SOL    HW226712   0.651   0.867   5.690 -2.7925  1.3046 -0.3313
 5026SOL     OW26713   0.569   4.726   2.738 -0.9757 -0.0374 -0.8816
 5026SOL    HW126714   0.575   0.016   2.829 -3.3229  0.6470 -0.9486
 5026SOL    HW226715   0.574   4.631   2.751  0.1356  0.1759  0.2420
 5027SOL     OW26716   0.420   2.722   3.855  0.1663  0.5985 -0.4471
 5027SOL    HW126717   0.447   2.753   3.768 -1.2899  2.2202 -0.3278
 5027SOL    HW226718   0.398   2.631   3.838 -0.0725  0.7418 -0.9333
 5028SOL     OW26719   1.945   1.538   7.858 -0.1400 -0.4554  0.0081
 5028SOL    HW126720   1.960   1.529   7.952 -1.7064 -0.0318  0.2984
 5028SOL    HW226721   2.014   1.479   7.829  1.6947  0.8883  1.6464
 5029SOL     OW26722   1.739   4.560   3.728 -0.4585 -0.1407 -0.0608
 5029SOL    HW126723   1.811   4.623   3.721 -1.3258  0.7094 -1.3834
 5029SOL    HW226724   1.778   4.486   3.683  1.1972  0.3886  0.5153
 5030SOL     OW26725   3.855   0.550   5.876 -0.2983 -0.2348  0.6554
 5030SOL    HW126726   3.893   0.468   5.843  1.4894 -0.4114  3.0909
 5030SOL    HW226727   3.917   0.568   5.947 -0.8323 -2.0608  1.5953
 5031SOL     OW26728   2.603   1.256   4.299 -0.1422  0.5907 -0.6545
 5031SOL    HW126729   2.551   1.318   4.247 -2.3802  0.8086  1.8075
 5031SOL    HW226730   2.692   1.289   4.284  0.2782 -0.2447  0.0355
 5032SOL     OW26731   0.323   2.275   7.101  0.7546 -0.2652 -0.1440
 5032SOL    HW126732   0.409   2.280   7.060  1.1437 -0.5631  0.6499
 5032SOL    HW226733   0.325   2.360   7.146 -0.8169 -0.7407  0.8315
 5033SOL     OW26734   4.200   4.209   4.627 -0.1754  0.5138 -0.4598
 5033SOL    HW126735   4.141   4.166   4.690 -1.7700 -1.3671 -3.2066
 5033SOL    HW226736   4.280   4.157   4.625 -0.4737 -0.0288  1.6669
 5034SOL     OW26737   4.427   4.326  12.765  0.2682 -0.1650 -0.0542
 5034SOL    HW126738   4.404   4.325  12.858 -0.3925  0.1566 -0.2153
 5034SOL    HW226739   4.522   4.329  12.764  0.3064 -1.7103  0.1453
 5035SOL     OW26740   3.829   1.152   7.948 -0.5436 -0.2364  1.0320
 5035SOL    HW126741   3.828   1.138   8.043 -0.5595  0.3702  1.1165
 5035SOL    HW226742   3.754   1.212   7.950 -0.5413 -0.1177 -2.4758
 5036SOL     OW26743   0.092   0.089   4.423  0.0834 -0.3328 -0.4251
 5036SOL    HW126744   0.140   0.149   4.365 -3.3272  2.0177 -0.8525
 5036SOL    HW226745   0.019   0.060   4.368  0.8324 -2.3270 -0.3631
 5037SOL     OW26746   3.254   2.102  15.664  0.4612 -0.6437 -0.2541
 5037SOL    HW126747   3.194   2.145  15.725  0.4871 -0.7895 -0.1253
 5037SOL    HW226748   3.324   2.167  15.655 -0.5358  0.6222  1.1987
 5038SOL     OW26749   2.674   2.515   2.941  0.3479  0.3138  0.1006
 5038SOL    HW126750   2.737   2.459   2.986  0.9988  1.0998  0.1647
 5038SOL    HW226751   2.659   2.577   3.012 -0.8131  1.1437 -0.8750
 5039SOL     OW26752   1.853   3.830   8.109 -0.0853  0.7846 -0.0941
 5039SOL    HW126753   1.922   3.815   8.173 -0.5547  0.5891  0.3695
 5039SOL    HW226754   1.884   3.916   8.079  0.7036  0.5325  0.0032
 5040SOL     OW26755   0.765   3.900   4.002 -0.9717  0.7046  0.3630
 5040SOL    HW126756   0.759   3.928   3.911  1.1861 -1.3200 -0.4094
 5040SOL    HW226757   0.833   3.958   4.038  0.4384  0.2711 -1.5943
 5041SOL     OW26758   2.157   2.361   6.178 -0.7161  0.1518 -0.3265
 5041SOL    HW126759   2.223   2.417   6.136 -1.9540  1.6102 -0.3231
 5041SOL    HW226760   2.211   2.323   6.248 -0.5395 -4.6201 -3.1217
 5042SOL     OW26761   4.448   4.214   5.296 -0.3746  0.0867 -1.2826
 5042SOL    HW126762   4.502   4.137   5.278  0.4097  0.3099  0.1661
 5042SOL    HW226763   4.518   4.278   5.306 -0.4305  0.1201 -1.1055
 5043SOL     OW26764   2.738   0.859   2.342 -0.2608 -0.0244 -0.1792
 5043SOL    HW126765   2.739   0.765   2.325 -1.3104  0.0525 -0.6371
 5043SOL    HW226766   2.810   0.860   2.405  0.8766  2.0539 -1.5226
 5044SOL     OW26767   2.008   2.066  13.601 -0.4393  0.3853 -0.4114
 5044SOL    HW126768   2.082   2.010  13.578 -0.4658 -0.0982  0.7010
 5044SOL    HW226769   1.979   2.020  13.679 -0.4626  0.9586 -0.0851
 5045SOL     OW26770   4.634   4.693   7.991  0.0197  0.5662 -0.5886
 5045SOL    HW126771   4.543   4.671   7.973 -0.0099  1.8882 -1.9791
 5045SOL    HW226772   4.670   4.646   7.916  1.6734  0.2475  0.4002
 5046SOL     OW26773   2.128   1.738   7.769  0.2476 -0.0532  0.5253
 5046SOL    HW126774   2.069   1.803   7.730  0.7943  0.2464  0.1841
 5046SOL    HW226775   2.072   1.661   7.766 -0.7043  0.6580 -0.2973
 5047SOL     OW26776   2.082   2.838   6.647 -0.1390  0.4186  0.0273
 5047SOL    HW126777   2.177   2.845   6.641  0.0880 -3.4362 -1.0082
 5047SOL    HW226778   2.074   2.858   6.741 -0.4552 -0.4062  0.1792
 5048SOL     OW26779   1.672   1.571   6.067 -0.2260 -0.0912  0.2874
 5048SOL    HW126780   1.763   1.601   6.061  0.1635 -1.4072 -0.4456
 5048SOL    HW226781   1.661   1.552   5.974 -1.0467 -1.0576  0.5882
 5049SOL     OW26782   3.617   2.153   8.040 -0.2546 -0.4870 -0.3233
 5049SOL    HW126783   3.622   2.139   7.945 -1.7622  0.6470 -0.5622
 5049SOL    HW226784   3.527   2.128   8.058  0.2012 -1.0351  1.1447
 5050SOL     OW26785   0.140   3.261   6.175 -0.3224  0.0181 -0.0970
 5050SOL    HW126786   0.064   3.268   6.117 -1.0888 -1.3334  0.7366
 5050SOL    HW226787   0.161   3.354   6.169  1.8598 -0.5915 -1.8167
 5051SOL     OW26788   1.555   2.378   2.473  0.4716 -0.8551 -0.1382
 5051SOL    HW126789   1.477   2.385   2.419  0.6906 -0.9278 -0.4602
 5051SOL    HW226790   1.568   2.284   2.488 -0.1491 -0.9798 -0.3666
 5052SOL     OW26791   0.300   2.408   4.134 -0.4756  0.6405  0.2289
 5052SOL    HW126792   0.318   2.395   4.227  0.3285  2.3926  0.3091
 5052SOL    HW226793   0.288   2.503   4.136 -0.3946  0.6858 -1.4824
 5053SOL     OW26794   0.177   2.539   1.791  0.8694  0.3419  0.8416
 5053SOL    HW126795   0.172   2.447   1.818  0.6890  0.1574  0.1758
 5053SOL    HW226796   0.182   2.587   1.874  1.0057 -0.0635  1.0704
 5054SOL     OW26797   2.294   0.871  12.720  0.4462  0.1090  0.0686
 5054SOL    HW126798   2.233   0.942  12.702  0.6577  0.2994  0.1036
 5054SOL    HW226799   2.259   0.838  12.803  0.0565  0.8755  0.2038
 5055SOL     OW26800   2.879   3.333   4.175 -0.5360 -0.3283  0.2678
 5055SOL    HW126801   2.790   3.339   4.211 -0.1797 -0.6781  1.2225
 5055SOL    HW226802   2.860   3.366   4.088  2.4768 -1.8390 -0.9506
 5056SOL     OW26803   0.861   1.756  13.902  0.0559  0.1318  0.4680
 5056SOL    HW126804   0.818   1.807  13.833  1.4274  0.4874 -0.1353
 5056SOL    HW226805   0.932   1.814  13.929 -0.2481 -0.6172  2.8168
 5057SOL     OW26806   0.819   3.769   0.749  0.7976 -0.1699  0.0767
 5057SOL    HW126807   0.761   3.811   0.686 -0.1967 -0.9220  0.4803
 5057SOL    HW226808   0.892   3.756   0.689 -0.2252 -1.4691 -0.8910
 5058SOL     OW26809   2.941   3.771  16.547  0.3353  0.0458  0.4036
 5058SOL    HW126810   2.987   3.750  16.466 -0.5595  1.1999 -0.4009
 5058SOL    HW226811   2.855   3.790  16.509  0.6807  0.6972 -0.0470
 5059SOL     OW26812   1.363   3.079   3.108 -0.5248 -0.0840 -0.1824
 5059SOL    HW126813   1.273   3.087   3.077 -1.4124  1.0485  2.6729
 5059SOL    HW226814   1.415   3.120   3.039 -0.0032  0.5490  0.5862
 5060SOL     OW26815   3.905   1.480   5.414  0.5161 -0.3243  0.3343
 5060SOL    HW126816   3.866   1.566   5.432  0.9485  0.5897 -3.1983
 5060SOL    HW226817   3.831   1.445   5.364  1.2940 -0.0322 -1.0244
 5061SOL     OW26818   1.703   2.365   1.082 -0.5905  0.3839  0.1227
 5061SOL    HW126819   1.610   2.379   1.100 -1.1125  0.7639 -2.8197
 5061SOL    HW226820   1.717   2.321   1.166 -0.8558 -0.1549 -0.1128
 5062SOL     OW26821   0.450   4.619   8.420  0.3501 -0.1534  0.1778
 5062SOL    HW126822   0.544   4.604   8.434 -0.1733 -1.3213  2.4894
 5062SOL    HW226823   0.437   4.541   8.366 -1.1812 -0.1195  0.4991
 5063SOL     OW26824   1.665   2.330   9.513  0.2923 -0.0488  0.9142
 5063SOL    HW126825   1.586   2.383   9.502  1.0906  1.0706  0.6657
 5063SOL    HW226826   1.705   2.358   9.596 -2.3269  0.0035  2.1779
 5064SOL     OW26827   1.918   1.944   6.552 -0.3498  0.5050 -0.3211
 5064SOL    HW126828   1.965   2.027   6.551 -0.3041  0.4831 -0.0220
 5064SOL    HW226829   1.832   1.980   6.575 -1.1794 -0.7137 -1.5081
 5065SOL     OW26830   3.059   4.286   0.519 -0.1441  0.9675 -0.3972
 5065SOL    HW126831   2.982   4.237   0.546  0.2454  0.2345 -0.6216
 5065SOL    HW226832   3.023   4.364   0.477  0.0771  1.6654  0.6909
 5066SOL     OW26833   3.164   0.585   7.926  0.0221 -0.2042 -0.3508
 5066SOL    HW126834   3.214   0.619   7.852 -0.7915 -1.3266 -1.4384
 5066SOL    HW226835   3.089   0.547   7.880  0.2674 -1.7318  0.5268
 5067SOL     OW26836   0.013   0.016  14.162 -0.2189 -0.3627  0.3310
 5067SOL    HW126837   4.709   4.707  14.232  2.6357  1.3008  3.2563
 5067SOL    HW226838   4.680   0.030  14.100  0.8334  1.2019 -0.5381
 5068SOL     OW26839   4.697   3.388   3.243  0.4068 -0.0464  0.6045
 5068SOL    HW126840   0.044   3.376   3.284  0.9791  1.6258 -0.1165
 5068SOL    HW226841   4.679   3.466   3.295  0.6131  0.5459 -0.2008
 5069SOL     OW26842   2.722   3.927  10.045  0.5118  0.4356 -0.7406
 5069SOL    HW126843   2.720   3.832  10.056 -0.0231  0.2725 -2.2676
 5069SOL    HW226844   2.796   3.950   9.989  0.0622 -0.6564 -1.7822
 5070SOL     OW26845   1.667   0.670   6.558 -0.2395 -0.2064 -0.0594
 5070SOL    HW126846   1.645   0.615   6.483 -1.4102  2.1371 -1.4302
 5070SOL    HW226847   1.581   0.686   6.597  0.7489  1.2739  1.4961
 5071SOL     OW26848   1.871   3.965   6.084  0.5373  0.2306 -0.2700
 5071SOL    HW126849   1.827   3.888   6.120  1.2988 -2.1098 -4.4141
 5071SOL    HW226850   1.960   3.943   6.113  0.3517  0.4091  0.4455
 5072SOL     OW26851   4.154   3.016   0.801 -0.2699  0.4665  0.3418
 5072SOL    HW126852   4.074   3.065   0.821  1.0378  2.0745  1.6866
 5072SOL    HW226853   4.162   2.963   0.881 -4.9883  0.5256  0.8432
 5073SOL     OW26854   4.326   4.705   3.963 -0.2148  0.5977  0.1655
 5073SOL    HW126855   4.309   0.009   3.879  1.3651 -0.6608 -0.8091
 5073SOL    HW226856   4.265   0.001   4.027 -0.0761  1.4697 -0.1934
 5074SOL     OW26857   2.937   2.261  10.286  0.0264 -0.1692 -0.5173
 5074SOL    HW126858   2.881   2.251  10.363  0.3901 -1.8613 -0.4885
 5074SOL    HW226859   2.911   2.182  10.238 -0.5419 -0.9587  1.0916
 5075SOL     OW26860   2.325   3.765   1.967 -0.1471  0.2761  0.4615
 5075SOL    HW126861   2.240   3.760   2.009  1.0585  1.1377  3.0222
 5075SOL    HW226862   2.319   3.688   1.911 -0.1071 -0.4781  1.5008
 5076SOL     OW26863   1.636   4.094  10.529  0.7231  0.3126 -0.4013
 5076SOL    HW126864   1.620   4.063  10.440 -0.3618 -0.1441 -0.0457
 5076SOL    HW226865   1.617   4.016  10.581  1.1466  0.4441 -0.0491
 5077SOL     OW26866   1.643   0.187  11.058 -0.3743 -0.4768  0.0201
 5077SOL    HW126867   1.697   0.151  10.987  1.3050  0.8215  0.6320
 5077SOL    HW226868   1.661   0.131  11.134 -1.1441 -2.1601 -1.0272
 5078SOL     OW26869   3.356   1.403   8.702  0.2399 -0.0559  0.2549
 5078SOL    HW126870   3.301   1.358   8.638 -2.4813  1.2716  1.6428
 5078SOL    HW226871   3.411   1.330   8.729  3.2688  2.1021  0.0335
 5079SOL     OW26872   3.040   3.261  12.563 -0.0318 -0.0461 -0.2622
 5079SOL    HW126873   2.979   3.191  12.544  1.4269 -0.7876 -2.1867
 5079SOL    HW226874   3.033   3.323  12.490 -1.0739  0.4382  0.2421
 5080SOL     OW26875   2.850   1.896  10.244 -0.2838  0.4096 -0.2947
 5080SOL    HW126876   2.827   1.817  10.294  1.2029  1.1923  1.6317
 5080SOL    HW226877   2.915   1.852  10.189 -2.2133 -2.5182 -0.2286
 5081SOL     OW26878   3.791   2.955  13.020  0.3567 -0.0087 -0.6517
 5081SOL    HW126879   3.882   2.983  13.028  0.0001  1.4026 -1.5644
 5081SOL    HW226880   3.785   2.911  13.104 -2.7309 -0.0305 -0.8770
 5082SOL     OW26881   1.445   0.358  15.842 -0.0282  0.3266 -0.1906
 5082SOL    HW126882   1.446   0.437  15.895 -2.0102  0.9265 -1.0378
 5082SOL    HW226883   1.363   0.360  15.792 -1.0581  1.5503  1.5500
 5083SOL     OW26884   4.397   1.413   7.837 -0.2253 -0.5097  0.4862
 5083SOL    HW126885   4.448   1.473   7.782 -0.0895 -0.7675  0.3352
 5083SOL    HW226886   4.452   1.409   7.915  0.4264  1.3333  0.1172
 5084SOL     OW26887   4.067   1.666   7.802  0.0414 -0.0011 -0.8331
 5084SOL    HW126888   4.134   1.720   7.843 -2.3904  1.0954  1.7843
 5084SOL    HW226889   4.000   1.735   7.796  0.0298  0.3044  2.7823
 5085SOL     OW26890   4.163   2.556   2.901  0.9420  0.6428  0.0041
 5085SOL    HW126891   4.120   2.616   2.963 -2.7399 -1.8069 -0.1532
 5085SOL    HW226892   4.215   2.503   2.962 -1.3553  0.7674  2.0748
 5086SOL     OW26893   2.772   1.699  11.169  0.2902 -0.1543  0.0077
 5086SOL    HW126894   2.786   1.716  11.262 -2.0846  0.6493  0.2146
 5086SOL    HW226895   2.786   1.786  11.133 -0.0580  0.1552  0.6125
 5087SOL     OW26896   1.325   1.048   3.662  0.3934 -0.2417  0.0662
 5087SOL    HW126897   1.305   1.050   3.755 -1.0096  1.0528 -0.2494
 5087SOL    HW226898   1.238   1.020   3.633  0.6238  0.6305 -1.4914
 5088SOL     OW26899   3.971   0.973   7.780  0.1675  0.1376 -0.1589
 5088SOL    HW126900   3.883   0.942   7.762  0.9516 -2.1703 -0.1112
 5088SOL    HW226901   3.948   1.043   7.841 -0.9399  0.0796 -0.5233
 5089SOL     OW26902   4.564   3.433   4.585 -0.6395 -0.5064  0.2214
 5089SOL    HW126903   4.483   3.385   4.568  1.2755 -3.5023 -0.5137
 5089SOL    HW226904   4.582   3.399   4.673 -0.7319  0.2452  0.5341
 5090SOL     OW26905   2.083   0.762   8.649  0.2704  0.1386  0.1414
 5090SOL    HW126906   1.997   0.723   8.635  0.1450  0.0341  1.1668
 5090SOL    HW226907   2.088   0.764   8.745 -1.1885  1.2684  0.1964
 5091SOL     OW26908   3.259   0.366   4.717  0.3105  0.4865  0.2076
 5091SOL    HW126909   3.217   0.445   4.684  0.0230  0.3701  0.2978
 5091SOL    HW226910   3.269   0.308   4.642 -2.3102  0.1040  0.1685
 5092SOL     OW26911   0.946   3.233   5.392 -0.1262  0.0052 -0.3075
 5092SOL    HW126912   0.918   3.248   5.302  2.0764 -0.4638 -1.0634
 5092SOL    HW226913   0.903   3.148   5.405  1.6481 -1.1733 -2.2250
 5093SOL     OW26914   4.181   0.530   7.128  0.3120  0.0226  0.3624
 5093SOL    HW126915   4.214   0.602   7.073  0.6500  0.1658  0.7567
 5093SOL    HW226916   4.262   0.493   7.162  0.8953  3.0917  2.2397
 5094SOL     OW26917   4.609   1.707   1.708 -0.3295  0.2291 -0.4136
 5094SOL    HW126918   4.654   1.644   1.652  1.2592 -0.1592  1.3143
 5094SOL    HW226919   4.553   1.762   1.652 -0.0781  1.5136  0.5907
 5095SOL     OW26920   1.172   3.177  10.945 -0.0500  0.2368  0.0813
 5095SOL    HW126921   1.129   3.093  10.964  0.1972  0.0953  0.0182
 5095SOL    HW226922   1.210   3.168  10.857 -1.8545 -2.0367 -0.4819
 5096SOL     OW26923   2.637   3.917   9.001  0.0561 -0.2541 -0.2422
 5096SOL    HW126924   2.563   3.861   9.023 -0.0378 -0.5512 -1.3070
 5096SOL    HW226925   2.711   3.870   9.038  0.0431  0.8473  1.1706
 5097SOL     OW26926   3.459   3.342  12.672 -0.2554  0.2209  0.1598
 5097SOL    HW126927   3.489   3.313  12.586  1.4641 -0.6413  1.0366
 5097SOL    HW226928   3.417   3.425  12.649  0.0900  0.2420 -0.4093
 5098SOL     OW26929   1.193   3.761  12.436  0.3944  0.8135  0.3801
 5098SOL    HW126930   1.232   3.673  12.435 -2.7442 -0.5850 -0.6689
 5098SOL    HW226931   1.261   3.817  12.473 -2.2770  2.0372  3.5171
 5099SOL     OW26932   0.408   0.197   8.783 -0.0020  0.3117 -0.6120
 5099SOL    HW126933   0.423   0.105   8.804 -0.6747  0.4000  0.2726
 5099SOL    HW226934   0.465   0.210   8.708  0.1859 -1.5486 -0.7908
 5100SOL     OW26935   4.184   0.908   9.488  0.0398  0.0881  0.9224
 5100SOL    HW126936   4.170   0.918   9.394  2.0206 -1.5695  0.4499
 5100SOL    HW226937   4.244   0.834   9.494  0.8464  0.6818  0.0475
 5101SOL     OW26938   3.365   2.956   1.402  0.5883  0.2474  0.4190
 5101SOL    HW126939   3.354   2.982   1.311 -1.6221  0.4230  0.7554
 5101SOL    HW226940   3.378   3.044   1.437  1.7446 -0.3486  1.5313
 5102SOL     OW26941   0.705   1.347   6.189 -0.0174  0.1384  0.5659
 5102SOL    HW126942   0.695   1.366   6.282 -0.2411 -0.7906  0.7329
 5102SOL    HW226943   0.643   1.277   6.171  0.3510  0.6120 -2.6187
 5103SOL     OW26944   3.770   1.186   3.314  0.0911  0.4052 -0.3688
 5103SOL    HW126945   3.794   1.094   3.305  1.5349  0.8488 -1.0037
 5103SOL    HW226946   3.678   1.180   3.340 -0.0559 -0.7950 -1.2069
 5104SOL     OW26947   3.805   2.783   4.903  0.3116  0.9283  0.2325
 5104SOL    HW126948   3.778   2.728   4.976  0.7574 -0.4047 -0.6128
 5104SOL    HW226949   3.862   2.844   4.950  1.7349 -0.4567  0.2878
 5105SOL     OW26950   0.254   4.707  10.839 -0.3878 -0.0493  0.1090
 5105SOL    HW126951   0.188   4.652  10.797  1.1130 -1.0565 -0.9505
 5105SOL    HW226952   0.337   4.668  10.810  0.4218  1.0109  1.0155
 5106SOL     OW26953   0.795   0.337   3.695  0.2044 -0.1734  0.1133
 5106SOL    HW126954   0.773   0.247   3.718  0.6392 -0.3011  0.0344
 5106SOL    HW226955   0.716   0.382   3.666 -1.0983 -1.0935  2.2227
 5107SOL     OW26956   0.383   3.034  12.113 -0.1639 -0.4702 -0.1325
 5107SOL    HW126957   0.404   2.954  12.160  2.1655  0.2751  0.0689
 5107SOL    HW226958   0.427   3.102  12.163  1.3500 -1.5212 -0.0189
 5108SOL     OW26959   3.315   0.993  11.039 -0.4595  0.0228 -0.3276
 5108SOL    HW126960   3.309   1.025  10.949 -0.4067 -0.6552 -0.5722
 5108SOL    HW226961   3.254   0.920  11.034 -0.2446 -0.1221 -0.7991
 5109SOL     OW26962   0.138   3.851   1.963 -0.1891  0.2333  0.1033
 5109SOL    HW126963   0.073   3.782   1.955  1.2982 -1.2902  1.1254
 5109SOL    HW226964   0.210   3.793   1.988 -0.1931 -0.3757 -1.2814
 5110SOL     OW26965   3.777   2.567   5.066 -0.1693 -0.6647 -0.7290
 5110SOL    HW126966   3.820   2.566   5.152  0.2722 -0.7284 -0.9470
 5110SOL    HW226967   3.687   2.575   5.095  0.1926 -0.8092  0.4272
 5111SOL     OW26968   2.831   0.888   6.584  0.1112 -0.1048  0.5207
 5111SOL    HW126969   2.780   0.917   6.659  0.6409 -0.1520  0.8986
 5111SOL    HW226970   2.909   0.942   6.585 -1.1544  1.7119  0.7518
 5112SOL     OW26971   1.801   4.271   7.573 -0.1423  0.3406 -0.1232
 5112SOL    HW126972   1.885   4.297   7.535 -0.4076  0.5455 -0.5796
 5112SOL    HW226973   1.743   4.321   7.516  2.8522  1.1405 -2.4295
 5113SOL     OW26974   0.806   0.163   8.366  0.2797 -0.7650 -0.0842
 5113SOL    HW126975   0.879   0.175   8.427 -0.8090 -0.9992  1.2619
 5113SOL    HW226976   0.805   0.247   8.319  2.2228 -0.6367  0.1347
 5114SOL     OW26977   0.692   3.469  13.276  0.5646  0.0720  0.6791
 5114SOL    HW126978   0.781   3.477  13.311  1.1448  1.3467 -1.0760
 5114SOL    HW226979   0.697   3.540  13.213  0.0955 -1.1360 -0.7319
 5115SOL     OW26980   1.757   3.536  14.565 -0.0937  0.7103 -0.2113
 5115SOL    HW126981   1.825   3.550  14.631 -1.2279 -0.7452  1.2594
 5115SOL    HW226982   1.732   3.445  14.584  2.1572  0.0776 -0.2722
 5116SOL     OW26983   3.212   0.433  12.501 -0.4945  0.1190 -0.1370
 5116SOL    HW126984   3.161   0.513  12.491  2.6891  2.1238 -0.1883
 5116SOL    HW226985   3.182   0.378  12.428  1.0399 -0.8556 -0.0188
 5117SOL     OW26986   2.291   3.898   3.639  0.2763 -0.3912 -0.7320
 5117SOL    HW126987   2.309   3.862   3.553 -1.8176 -1.8631 -0.5410
 5117SOL    HW226988   2.345   3.841   3.694  1.0647  2.1817  1.1913
 5118SOL     OW26989   0.931   1.366   2.770 -0.0386 -0.0294 -0.4555
 5118SOL    HW126990   0.952   1.274   2.790 -0.2917 -0.0027 -0.0741
 5118SOL    HW226991   0.934   1.360   2.675 -0.5807  2.6459 -0.6414
 5119SOL     OW26992   0.256   0.840  16.848  0.2523 -0.0332 -0.0543
 5119SOL    HW126993   0.265   0.851  16.753  1.4510  1.2909  0.2179
 5119SOL    HW226994   0.340   0.806  16.879 -0.8712 -0.3091  2.7254
 5120SOL     OW26995   0.717   1.886  13.562 -0.2904  0.5618  0.4317
 5120SOL    HW126996   0.672   1.807  13.589 -0.7011  0.0997 -1.6163
 5120SOL    HW226997   0.688   1.938  13.638 -0.5536 -2.1883  2.1993
 5121SOL     OW26998   4.638   1.452   1.063  0.1455 -0.1639 -0.3293
 5121SOL    HW126999   4.591   1.375   1.095  2.0476  0.0651  3.0271
 5121SOL    HW227000   4.726   1.415   1.061  0.4777  0.5781  0.3294
 5122SOL     OW27001   1.811   1.569   9.534 -0.4431 -0.2913  0.0468
 5122SOL    HW127002   1.904   1.548   9.527  0.1111  2.5343 -0.8481
 5122SOL    HW227003   1.809   1.661   9.508  0.8136  0.7417  3.6498
 5123SOL     OW27004   0.617   2.343   3.384 -0.4398 -0.2645  0.3247
 5123SOL    HW127005   0.587   2.432   3.402 -0.3515 -0.1085 -0.2956
 5123SOL    HW227006   0.712   2.349   3.388 -0.5574  1.4960  0.4064
 5124SOL     OW27007   1.613   2.614   6.226  0.2928  0.1194 -0.1946
 5124SOL    HW127008   1.618   2.526   6.189 -1.3574 -0.8965  1.9324
 5124SOL    HW227009   1.681   2.665   6.183 -0.4511  2.9087  1.9642
 5125SOL     OW27010   2.036   0.319   2.454 -0.0607  0.2421  0.0174
 5125SOL    HW127011   1.978   0.350   2.524  1.2388  1.3186  0.6094
 5125SOL    HW227012   2.120   0.360   2.475  0.9434 -0.9302 -1.7472
 5126SOL     OW27013   0.595   4.043   4.280  0.1737 -0.1493  0.4838
 5126SOL    HW127014   0.597   4.071   4.188  0.7400  0.6945  0.7494
 5126SOL    HW227015   0.685   4.016   4.297  0.2732 -0.1043  0.0209
 5127SOL     OW27016   1.910   2.328   6.076 -0.7614 -0.1045  0.1022
 5127SOL    HW127017   1.907   2.319   5.980  0.4716 -1.4935  0.1864
 5127SOL    HW227018   2.003   2.347   6.089 -0.8285  0.4405 -0.2429
 5128SOL     OW27019   1.797   2.459   4.661 -0.2793  0.2364 -0.1552
 5128SOL    HW127020   1.774   2.370   4.689  0.4723  0.9490  2.7291
 5128SOL    HW227021   1.871   2.474   4.720  0.2017  4.1177 -1.7558
 5129SOL     OW27022   2.400   4.005   7.918 -0.2940 -0.2295  0.2531
 5129SOL    HW127023   2.391   4.096   7.946  0.2032 -0.5209  1.3757
 5129SOL    HW227024   2.493   4.000   7.896 -0.0695 -2.9752  1.7567
 5130SOL     OW27025   3.523   0.409   2.534 -0.3300  0.5532 -0.0774
 5130SOL    HW127026   3.607   0.364   2.542 -1.2015 -1.0052  0.2727
 5130SOL    HW227027   3.545   0.500   2.552 -0.4694  1.0650 -2.4349
 5131SOL     OW27028   0.407   4.118   0.337 -0.6132  0.1721  0.2020
 5131SOL    HW127029   0.404   4.059   0.412  0.8147 -1.0009 -0.6580
 5131SOL    HW227030   0.312   4.124   0.325 -0.2853 -1.0918 -3.0285
 5132SOL     OW27031   2.094   2.033   6.127 -0.2625 -0.4447 -0.2778
 5132SOL    HW127032   2.137   1.973   6.188 -1.4156  0.4400  1.4062
 5132SOL    HW227033   2.146   2.113   6.119  0.4966 -0.9445 -0.3369
 5133SOL     OW27034   0.239   1.776   3.070  0.2836  0.2907  0.1708
 5133SOL    HW127035   0.162   1.744   3.023 -0.0358 -0.7899  1.4278
 5133SOL    HW227036   0.274   1.698   3.114  0.8215  0.7345  0.5293
 5134SOL     OW27037   0.909   0.326   1.645  0.1859  0.3972 -0.1123
 5134SOL    HW127038   0.831   0.382   1.645 -0.9686 -1.2104 -0.9429
 5134SOL    HW227039   0.978   0.387   1.618  2.5857 -0.5881  3.8377
 5135SOL     OW27040   4.368   1.395   1.832 -0.5330 -0.4629  0.0333
 5135SOL    HW127041   4.380   1.381   1.926  1.5544 -0.3982 -0.2253
 5135SOL    HW227042   4.282   1.355   1.824 -0.2415 -0.5188 -2.7782
 5136SOL     OW27043   4.161   4.223   8.788  0.4664 -0.7985 -0.4222
 5136SOL    HW127044   4.143   4.172   8.867  1.2840  1.2754  1.1053
 5136SOL    HW227045   4.242   4.271   8.809 -0.6651  0.8935  0.1209
 5137SOL     OW27046   4.056   1.254   1.350  0.4601  0.2494 -0.2831
 5137SOL    HW127047   4.110   1.301   1.286  1.0788  0.9629  0.7562
 5137SOL    HW227048   3.988   1.320   1.361 -0.7210 -1.3266  1.8509
 5138SOL     OW27049   2.963   3.315  16.086 -0.1825  0.2908 -0.1683
 5138SOL    HW127050   3.035   3.375  16.065 -1.5503  0.6925 -3.6558
 5138SOL    HW227051   2.891   3.350  16.033 -0.0425  0.4077 -0.2827
 5139SOL     OW27052   2.074   3.200   6.967 -0.8531 -0.0864  0.0993
 5139SOL    HW127053   2.033   3.116   6.944 -1.8176  1.0319 -2.2396
 5139SOL    HW227054   2.002   3.264   6.969  1.9819  2.9970  2.1452
 5140SOL     OW27055   4.610   3.200   9.316  0.6232  0.0754  0.1329
 5140SOL    HW127056   4.695   3.245   9.322  0.1685  0.5541  2.8495
 5140SOL    HW227057   4.599   3.189   9.410  0.2792 -0.1429  0.0645
 5141SOL     OW27058   1.762   4.500  15.167  0.2326 -0.1324 -0.7400
 5141SOL    HW127059   1.738   4.500  15.260  0.7085 -0.7291 -0.6157
 5141SOL    HW227060   1.841   4.553  15.173 -0.2709  0.7098 -1.5187
 5142SOL     OW27061   1.468   4.532   2.110  0.1882  0.4178 -0.6029
 5142SOL    HW127062   1.494   4.601   2.172 -0.0264  0.6489 -0.7684
 5142SOL    HW227063   1.476   4.576   2.025  1.0793  0.8440 -0.3006
 5143SOL     OW27064   1.148   0.159   9.024  0.0938  0.1381 -0.5510
 5143SOL    HW127065   1.180   0.134   9.111  0.2092  0.8533 -0.3890
 5143SOL    HW227066   1.064   0.114   9.032  0.5824 -0.9265 -1.4182
 5144SOL     OW27067   0.673   0.749   3.726  0.2169  0.4555  0.3647
 5144SOL    HW127068   0.672   0.739   3.631 -1.0172  3.5150  0.0297
 5144SOL    HW227069   0.578   0.749   3.732  0.2614 -0.4907  1.0404
 5145SOL     OW27070   3.600   3.420  14.956 -0.2033 -0.2029 -0.4455
 5145SOL    HW127071   3.547   3.440  15.034  0.2021 -2.3824  0.3836
 5145SOL    HW227072   3.577   3.494  14.900  0.5380  0.8978  0.7080
 5146SOL     OW27073   0.649   4.373   4.524  0.0499  0.4029  0.3644
 5146SOL    HW127074   0.571   4.321   4.503  0.0574 -0.0156  1.3648
 5146SOL    HW227075   0.703   4.297   4.545 -1.0629 -0.2146  0.9843
 5147SOL     OW27076   1.991   3.820   6.596  0.2176 -0.6443 -0.6248
 5147SOL    HW127077   2.073   3.806   6.645  0.3169 -1.1935 -0.9469
 5147SOL    HW227078   2.024   3.888   6.537  1.1765 -0.2779  0.3249
 5148SOL     OW27079   4.043   0.346   9.610 -0.0074  0.5178 -0.4103
 5148SOL    HW127080   4.030   0.253   9.627  0.3253  0.4581 -0.4822
 5148SOL    HW227081   3.957   0.376   9.640  0.4385  2.6525 -1.2523
 5149SOL     OW27082   2.594   3.788   6.363  0.5171 -0.0137 -0.2510
 5149SOL    HW127083   2.630   3.870   6.397 -0.1105 -0.9975  2.8322
 5149SOL    HW227084   2.650   3.758   6.292  0.8293  0.2373 -0.1095
 5150SOL     OW27085   2.217   1.803   9.730  0.3228 -0.9242 -0.7836
 5150SOL    HW127086   2.158   1.853   9.673 -1.6679 -0.7441  1.3975
 5150SOL    HW227087   2.285   1.770   9.671  1.2433 -0.8347  0.2244
 5151SOL     OW27088   4.083   3.166   9.024 -0.1156 -0.1745  0.0981
 5151SOL    HW127089   4.155   3.227   9.005 -1.0991  0.7548 -0.6562
 5151SOL    HW227090   4.019   3.236   9.037  1.4951  0.8084  2.7152
 5152SOL     OW27091   4.598   4.334   6.610 -0.1550 -0.1940  0.2076
 5152SOL    HW127092   4.532   4.265   6.621  1.3150 -1.7176 -0.4935
 5152SOL    HW227093   4.554   4.411   6.645  3.3574  2.3720 -1.0702
 5153SOL     OW27094   2.786   2.714  14.913  0.4238 -0.1785  0.0277
 5153SOL    HW127095   2.711   2.708  14.853  0.5057 -0.0948 -0.0843
 5153SOL    HW227096   2.756   2.655  14.982 -2.3223  2.0272  0.7273
 5154SOL     OW27097   4.618   0.132   3.352  0.0805 -0.0937 -0.5474
 5154SOL    HW127098   4.527   0.161   3.342  0.7159  2.4201  0.9183
 5154SOL    HW227099   4.663   0.183   3.285  1.7827 -2.0886 -0.9088
 5155SOL     OW27100   2.445   2.028  11.833  1.0074 -0.1107 -0.4598
 5155SOL    HW127101   2.459   2.029  11.928  0.3772 -1.3634 -0.3532
 5155SOL    HW227102   2.526   1.981  11.814  0.4581 -0.8102 -1.0692
 5156SOL     OW27103   3.667   1.022   2.177 -0.0549 -0.4356  0.0078
 5156SOL    HW127104   3.703   0.989   2.259 -1.2324  1.1056  1.1294
 5156SOL    HW227105   3.592   0.963   2.170 -1.9166  1.4528  4.0257
 5157SOL     OW27106   4.367   1.189   3.706 -0.4685  0.2581 -0.2233
 5157SOL    HW127107   4.281   1.147   3.712  0.3262 -1.1528  1.4271
 5157SOL    HW227108   4.358   1.281   3.733 -1.0917 -0.2664  1.3987
 5158SOL     OW27109   2.629   1.962   3.069  0.6190 -0.1263 -0.0018
 5158SOL    HW127110   2.594   1.875   3.088  1.0644  0.1437  1.9883
 5158SOL    HW227111   2.619   2.005   3.153 -2.7352 -1.7773  0.4424
 5159SOL     OW27112   3.742   2.353   1.305 -0.0213 -0.0834 -0.4933
 5159SOL    HW127113   3.796   2.425   1.273  2.7722 -1.8531  0.2733
 5159SOL    HW227114   3.686   2.400   1.368 -0.0301  1.3509 -1.5559
 5160SOL     OW27115   2.235   3.504   1.500  0.1938  0.0091 -0.1847
 5160SOL    HW127116   2.222   3.582   1.554  2.1557  1.1006 -1.2902
 5160SOL    HW227117   2.222   3.436   1.566  3.2197 -0.2319  0.1366
 5161SOL     OW27118   0.564   2.102   4.095 -0.3018 -0.0961 -0.6601
 5161SOL    HW127119   0.503   2.028   4.095 -1.6482  1.0108 -0.0173
 5161SOL    HW227120   0.614   2.082   4.016 -1.5449 -2.6603 -0.8213
 5162SOL     OW27121   0.896   2.941   4.770 -0.6638  0.4255 -0.1163
 5162SOL    HW127122   0.877   2.997   4.846 -2.2409  1.4901 -1.2996
 5162SOL    HW227123   0.831   2.871   4.780  1.0637 -1.3905 -1.8320
 5163SOL     OW27124   1.938   0.530   3.834  0.0681 -0.3033  0.5595
 5163SOL    HW127125   1.980   0.444   3.839 -1.0888 -1.0429 -2.1695
 5163SOL    HW227126   1.980   0.557   3.753 -0.2510 -2.5719 -0.3707
 5164SOL     OW27127   2.044   4.362  12.506 -0.4088 -0.0151 -0.7442
 5164SOL    HW127128   2.072   4.315  12.428  2.4851  1.8209 -0.8310
 5164SOL    HW227129   2.019   4.291  12.566  0.2008  1.1970  0.9483
 5165SOL     OW27130   3.618   4.334   0.263 -0.2633  0.1109 -0.1962
 5165SOL    HW127131   3.537   4.355   0.218 -0.9239  2.1612  1.9609
 5165SOL    HW227132   3.680   4.395   0.225 -1.1124 -0.3058 -2.2402
 5166SOL     OW27133   0.442   1.076  12.797  0.0589 -0.1342 -0.0901
 5166SOL    HW127134   0.412   1.112  12.714 -1.9492 -0.2268  0.5753
 5166SOL    HW227135   0.459   1.155  12.848 -1.5833  0.0074  0.2580
 5167SOL     OW27136   4.336   2.008   9.223  0.8442 -0.0759  0.0740
 5167SOL    HW127137   4.330   1.988   9.317 -1.9221  0.9218  0.0939
 5167SOL    HW227138   4.268   2.075   9.220  2.0895  1.2783  1.5687
 5168SOL     OW27139   2.346   1.329   7.519 -0.2552  0.0784 -0.2159
 5168SOL    HW127140   2.440   1.308   7.515 -0.5637 -1.3158 -0.2861
 5168SOL    HW227141   2.304   1.244   7.502 -0.9819  0.7086 -1.5520
 5169SOL     OW27142   1.235   3.226   6.286  0.1348  0.3349  0.2247
 5169SOL    HW127143   1.163   3.247   6.346 -0.3481 -0.0147 -0.2420
 5169SOL    HW227144   1.308   3.238   6.348  0.5542 -0.4230 -0.1278
 5170SOL     OW27145   3.694   0.918   0.470 -0.9280 -0.1727 -0.2919
 5170SOL    HW127146   3.724   0.944   0.557  2.7658  2.5458 -2.3331
 5170SOL    HW227147   3.717   0.996   0.419  2.1443  0.0724  1.4143
 5171SOL     OW27148   4.059   1.247   7.571 -0.1599  0.5681  0.6533
 5171SOL    HW127149   4.022   1.319   7.623 -0.6307  2.4376 -2.3163
 5171SOL    HW227150   4.000   1.237   7.496  0.0906  1.3348  0.3516
 5172SOL     OW27151   0.556   0.333   7.384 -0.3348 -0.1386 -0.1683
 5172SOL    HW127152   0.589   0.414   7.345  0.0760 -0.5690 -0.7172
 5172SOL    HW227153   0.475   0.330   7.333 -1.3481 -0.5526  1.4622
 5173SOL     OW27154   2.586   2.398   3.530  0.3022 -0.1124  0.4662
 5173SOL    HW127155   2.580   2.406   3.435  1.7051  0.0935  0.3890
 5173SOL    HW227156   2.572   2.488   3.560 -0.0220  0.3739 -1.1266
 5174SOL     OW27157   2.868   0.014  12.176  0.1264 -0.3714 -0.1329
 5174SOL    HW127158   2.917   0.062  12.243  2.9538 -1.2346 -1.5742
 5174SOL    HW227159   2.777   0.038  12.193  0.9818 -0.0130  4.0051
 5175SOL     OW27160   0.883   1.108   6.845 -0.0449 -0.6189 -0.4787
 5175SOL    HW127161   0.839   1.023   6.842  1.1351 -1.2006 -1.4624
 5175SOL    HW227162   0.855   1.147   6.762  0.9397 -0.4808 -0.7491
 5176SOL     OW27163   2.609   2.507   8.847 -0.2362 -0.2977  0.0869
 5176SOL    HW127164   2.530   2.481   8.895 -1.5511 -0.3830 -2.1594
 5176SOL    HW227165   2.633   2.584   8.898  0.8169 -0.4705 -0.1532
 5177SOL     OW27166   3.104   2.447   9.442 -0.3219  0.6645  0.2625
 5177SOL    HW127167   3.075   2.356   9.454  4.1772 -0.5058  2.0631
 5177SOL    HW227168   3.196   2.438   9.417 -0.5689  1.7180 -0.9659
 5178SOL     OW27169   0.324   3.473  16.716 -0.6280  0.1019  0.3447
 5178SOL    HW127170   0.288   3.560  16.701 -0.5278 -0.2252 -1.7851
 5178SOL    HW227171   0.241   3.426  16.726 -0.6141 -0.1863 -0.8960
 5179SOL     OW27172   4.442   0.605  11.469 -0.1184  0.2021  0.2230
 5179SOL    HW127173   4.347   0.602  11.456 -0.3745  0.0768  2.0229
 5179SOL    HW227174   4.475   0.527  11.425  1.8934  0.8531  0.5619
 5180SOL     OW27175   3.095   4.738  11.468  0.0663 -0.1213 -0.0798
 5180SOL    HW127176   3.045   0.078  11.489 -0.5330 -0.8992  1.4558
 5180SOL    HW227177   3.078   4.699  11.554 -3.4474 -1.2571 -1.2894
 5181SOL     OW27178   3.091   2.471   2.299  0.2339 -0.3969  0.1329
 5181SOL    HW127179   3.103   2.492   2.206  0.0817 -1.4161 -0.1191
 5181SOL    HW227180   3.107   2.376   2.299 -0.3825 -0.5051 -2.0574
 5182SOL     OW27181   1.994   1.820   8.666  0.2015 -0.4844  0.1006
 5182SOL    HW127182   2.000   1.758   8.593  1.5537 -0.5721  0.2808
 5182SOL    HW227183   1.905   1.820   8.699  0.4745 -1.3689  0.8391
 5183SOL     OW27184   1.672   3.995   2.736 -0.3099 -0.4332 -0.3161
 5183SOL    HW127185   1.759   4.034   2.746 -0.4050 -0.7329  1.6799
 5183SOL    HW227186   1.640   4.023   2.822  2.2672  1.1429  0.1343
 5184SOL     OW27187   3.198   4.026   9.140  0.3404  0.5132  0.1480
 5184SOL    HW127188   3.243   4.016   9.224  0.2783  0.5768  0.1889
 5184SOL    HW227189   3.272   4.060   9.090 -0.1473  0.3832 -0.6530
 5185SOL     OW27190   1.946   1.955   7.749 -0.4700 -0.1013  0.0168
 5185SOL    HW127191   1.904   2.010   7.683  0.2296  0.3744 -0.0400
 5185SOL    HW227192   1.897   1.989   7.824 -0.9293 -2.5666  0.8185
 5186SOL     OW27193   0.626   0.598   2.451 -0.6939  0.0468  0.2369
 5186SOL    HW127194   0.680   0.526   2.483  1.3097  0.9769 -1.0776
 5186SOL    HW227195   0.568   0.614   2.526 -2.4565 -1.2235 -0.8279
 5187SOL     OW27196   1.003   0.976   7.306  0.3034  0.5735  0.0229
 5187SOL    HW127197   0.937   1.006   7.369 -1.6638 -2.9047 -0.3660
 5187SOL    HW227198   0.987   1.038   7.235  0.4766  0.5510 -0.0354
 5188SOL     OW27199   1.649   3.197   2.598  0.7447  0.4020  0.7238
 5188SOL    HW127200   1.564   3.171   2.635 -0.6958  2.3415 -1.2578
 5188SOL    HW227201   1.704   3.139   2.651  1.7663 -0.3703 -1.1822
 5189SOL     OW27202   0.441   0.836  15.038 -0.1594  0.0262  1.3389
 5189SOL    HW127203   0.362   0.804  14.995 -1.2461  1.2887  2.4007
 5189SOL    HW227204   0.507   0.816  14.972 -0.7311  2.6182 -0.0155
 5190SOL     OW27205   3.264   0.252  11.916  0.5503  0.1014 -0.1913
 5190SOL    HW127206   3.295   0.165  11.942 -0.5566 -0.3801 -0.5009
 5190SOL    HW227207   3.311   0.257  11.832  0.1016  0.5499 -0.4093
 5191SOL     OW27208   0.159   0.690   4.087  0.2631  0.4207 -0.1881
 5191SOL    HW127209   0.251   0.668   4.094  0.2724 -0.3864 -2.5705
 5191SOL    HW227210   0.158   0.763   4.024  1.9841 -0.2817 -1.0360
 5192SOL     OW27211   4.649   0.071   4.913  0.1032 -0.3617  0.2173
 5192SOL    HW127212   4.629   4.719   4.933 -1.9647 -0.4196 -1.9341
 5192SOL    HW227213   4.670   0.051   4.821 -0.3121 -1.2040  0.2962
 5193SOL     OW27214   3.542   3.758   3.655 -0.4782  0.0836 -0.3585
 5193SOL    HW127215   3.561   3.695   3.587  0.2294  1.3989 -1.3705
 5193SOL    HW227216   3.497   3.704   3.721 -0.5676 -0.6974 -1.0685
 5194SOL     OW27217   0.340   2.478   3.769 -0.0332 -0.2841  0.6767
 5194SOL    HW127218   0.299   2.481   3.682  1.1732 -0.5080  0.0983
 5194SOL    HW227219   0.383   2.392   3.771  0.7093  0.0609 -0.3814
 5195SOL     OW27220   2.756   4.033   4.515 -0.8305  0.5810  0.0370
 5195SOL    HW127221   2.816   4.097   4.476 -1.9416  1.2173 -0.6364
 5195SOL    HW227222   2.710   4.085   4.580 -2.4558  0.2990 -0.8996
 5196SOL     OW27223   0.780   2.129  14.787  0.2083 -0.3522  0.4198
 5196SOL    HW127224   0.787   2.159  14.877  0.7645  2.2660 -0.5064
 5196SOL    HW227225   0.852   2.066  14.786 -0.3727 -1.0228  1.0733
 5197SOL     OW27226   2.353   1.187   8.984 -0.3235 -0.2917  0.2112
 5197SOL    HW127227   2.355   1.152   9.074 -0.3036  0.4701  0.5066
 5197SOL    HW227228   2.320   1.275   9.000  1.3624  0.1842  1.1130
 5198SOL     OW27229   4.177   1.691   7.471  0.2210  0.5244  0.2405
 5198SOL    HW127230   4.188   1.778   7.510 -2.2910  1.7243 -1.7509
 5198SOL    HW227231   4.261   1.650   7.495  1.0829  0.9644 -1.9756
 5199SOL     OW27232   2.227   2.543  17.227  0.1622  0.0482 -0.0301
 5199SOL    HW127233   2.213   2.564  17.135  2.0284  0.4917 -0.1994
 5199SOL    HW227234   2.220   2.633  17.257 -0.6387  0.2227 -0.7437
 5200SOL     OW27235   4.616   2.522   2.052  0.1491 -0.0352  0.3110
 5200SOL    HW127236   4.692   2.580   2.058 -0.6261  0.9782  0.3690
 5200SOL    HW227237   4.549   2.567   2.102  1.1916  1.0074  0.7850
 5201SOL     OW27238   2.311   1.420   4.467  0.5761  0.2487 -0.1437
 5201SOL    HW127239   2.403   1.445   4.462  0.3346  0.9103 -1.1384
 5201SOL    HW227240   2.306   1.392   4.559  0.2041  0.7100 -0.0259
 5202SOL     OW27241   1.059   3.907  17.283 -0.0007 -0.1089 -0.2159
 5202SOL    HW127242   1.079   3.925  17.192 -1.5104  0.7703 -0.3563
 5202SOL    HW227243   1.099   3.819  17.284  0.3602  0.0541 -0.3385
 5203SOL     OW27244   3.887   2.214   4.164 -0.5571 -0.0860 -0.5462
 5203SOL    HW127245   3.927   2.278   4.105 -0.0227  0.1370  0.0508
 5203SOL    HW227246   3.897   2.135   4.111  0.7819 -0.3900  0.1633
 5204SOL     OW27247   3.050   0.652  11.299  0.5943  0.4571  0.0685
 5204SOL    HW127248   3.093   0.737  11.304 -2.1730  1.7114  2.0489
 5204SOL    HW227249   3.045   0.645  11.394 -0.6867 -1.4475 -0.1368
 5205SOL     OW27250   4.328   3.374   5.590  0.6455  0.3384  0.4795
 5205SOL    HW127251   4.348   3.308   5.657 -0.9506 -0.4372  0.1801
 5205SOL    HW227252   4.273   3.326   5.529 -1.3814  0.5918  2.1263
 5206SOL     OW27253   2.417   3.309   8.202 -0.0543 -0.2333  0.2047
 5206SOL    HW127254   2.486   3.321   8.136 -0.2187  0.7288  0.2021
 5206SOL    HW227255   2.469   3.260   8.266  1.7157 -0.0504 -1.0690
 5207SOL     OW27256   2.780   3.402   3.908  0.1880  0.7650  0.4697
 5207SOL    HW127257   2.756   3.495   3.904  1.5033  1.0954  0.2310
 5207SOL    HW227258   2.872   3.403   3.883  0.3134  1.0277  0.9446
 5208SOL     OW27259   3.076   4.698   7.168 -0.3597 -0.3335  0.5325
 5208SOL    HW127260   3.034   4.733   7.090  0.5789 -0.0502  0.1538
 5208SOL    HW227261   3.033   4.613   7.174 -2.5177  0.6307 -1.6505
 5209SOL     OW27262   4.397   4.043   4.511  0.2818  0.3480  0.4897
 5209SOL    HW127263   4.481   4.028   4.468 -0.2303  0.1793 -0.4521
 5209SOL    HW227264   4.335   4.029   4.439  0.6519 -2.4253  0.7362
 5210SOL     OW27265   2.455   2.745   6.304  0.1033  0.1150  0.2562
 5210SOL    HW127266   2.446   2.717   6.395 -0.3788  0.3247  0.2748
 5210SOL    HW227267   2.543   2.708   6.298  0.4986  1.2188 -0.6192
 5211SOL     OW27268   2.885   1.142   3.575  0.1255  0.2379 -0.4354
 5211SOL    HW127269   2.820   1.085   3.615 -0.1734 -1.1928 -2.9617
 5211SOL    HW227270   2.962   1.085   3.574  0.0372  0.1290 -1.4102
 5212SOL     OW27271   4.162   1.075   9.689 -0.2548  0.0012 -0.0703
 5212SOL    HW127272   4.256   1.059   9.693  0.1837  2.3746 -0.8047
 5212SOL    HW227273   4.137   1.031   9.607  2.6856  0.6305 -1.2866
 5213SOL     OW27274   4.590   2.548  17.037 -0.3852  0.2876  0.2933
 5213SOL    HW127275   4.581   2.642  17.020 -0.2599  0.1760 -0.3947
 5213SOL    HW227276   4.608   2.520  16.948  0.0430  0.5493  0.2940
 5214SOL     OW27277   3.211   3.134   6.815  1.0525  0.4362 -1.1190
 5214SOL    HW127278   3.124   3.112   6.849  1.6450 -2.8626 -1.7617
 5214SOL    HW227279   3.225   3.216   6.862 -0.3311  0.9799 -1.6798
 5215SOL     OW27280   2.293   2.594   9.899  0.3048 -0.1960 -0.6190
 5215SOL    HW127281   2.232   2.603   9.972 -1.2558 -0.0551 -1.9347
 5215SOL    HW227282   2.237   2.562   9.828  1.7976 -0.8549 -1.5010
 5216SOL     OW27283   3.048   3.729   6.633  0.1566  0.2515 -0.1304
 5216SOL    HW127284   3.038   3.634   6.620 -0.5820 -0.0074  2.3073
 5216SOL    HW227285   2.989   3.744   6.707 -0.6553 -1.0742 -0.4866
 5217SOL     OW27286   1.302   3.652  10.751 -0.0986 -0.2364  0.4460
 5217SOL    HW127287   1.304   3.737  10.707 -1.7240 -0.4828 -0.0718
 5217SOL    HW227288   1.252   3.600  10.688 -0.5907 -0.5405  1.0936
 5218SOL     OW27289   0.167   0.279   5.600  0.2916 -0.2169  0.2890
 5218SOL    HW127290   0.165   0.349   5.535  0.2567  0.5675  1.1338
 5218SOL    HW227291   0.180   0.329   5.681 -2.4257 -2.5951  2.1858
 5219SOL     OW27292   1.054   2.315   2.602  0.0959  0.6908  0.1054
 5219SOL    HW127293   1.126   2.266   2.640 -0.1768  0.3169  0.1439
 5219SOL    HW227294   1.083   2.403   2.578 -0.5550  0.4827 -1.4542
 5220SOL     OW27295   4.236   0.471   4.113 -0.6412  0.1001  0.0481
 5220SOL    HW127296   4.177   0.419   4.058 -3.1206  1.6005  1.2552
 5220SOL    HW227297   4.170   0.481   4.181  1.7443  1.1203  2.2076
 5221SOL     OW27298   4.242   1.902   6.776  0.2367  0.0605  0.4016
 5221SOL    HW127299   4.177   1.882   6.843  0.1557 -1.3218 -0.0945
 5221SOL    HW227300   4.300   1.826   6.787  1.7953  1.2752  0.5914
 5222SOL     OW27301   1.490   1.566   0.285  0.0947  0.6919 -0.9430
 5222SOL    HW127302   1.406   1.564   0.239 -0.2509  1.3017 -0.3442
 5222SOL    HW227303   1.467   1.585   0.376  0.3929 -0.9188 -0.5346
 5223SOL     OW27304   3.245   1.064   4.475 -0.5925 -1.0000  0.8222
 5223SOL    HW127305   3.257   0.976   4.511 -1.6669 -1.9858 -1.2472
 5223SOL    HW227306   3.157   1.060   4.438  0.4356 -1.0149 -1.6283
 5224SOL     OW27307   3.922   1.902   7.791  0.2601 -0.3113 -0.1526
 5224SOL    HW127308   3.851   1.953   7.831  0.1823  0.6604 -1.5112
 5224SOL    HW227309   3.999   1.950   7.821 -0.3979  1.6907 -1.7184
 5225SOL     OW27310   2.555   3.888   5.284 -0.3364 -0.1727 -0.1078
 5225SOL    HW127311   2.535   3.976   5.315 -0.1441 -1.1936  2.8803
 5225SOL    HW227312   2.573   3.904   5.191  0.4565 -1.7694 -0.2271
 5226SOL     OW27313   4.135   0.341  17.325  0.0956 -0.2277 -0.3353
 5226SOL    HW127314   4.187   0.420  17.328  0.5283 -0.5605  0.7299
 5226SOL    HW227315   4.207   0.278  17.325  0.8803  0.6607 -2.6611
 5227SOL     OW27316   1.683   0.888   9.560 -0.0510  0.2750 -0.2064
 5227SOL    HW127317   1.734   0.966   9.584  0.3726 -0.1453  0.2680
 5227SOL    HW227318   1.596   0.890   9.599  0.0419 -0.2552  0.0254
 5228SOL     OW27319   0.404   2.574   8.585  0.1860 -0.0284  0.1935
 5228SOL    HW127320   0.412   2.606   8.675  0.1945 -0.3494  0.3046
 5228SOL    HW227321   0.451   2.645   8.540 -1.1100  1.6448  1.4779
 5229SOL     OW27322   1.626   4.063   6.766  0.6322 -0.0738  0.0491
 5229SOL    HW127323   1.581   4.073   6.850 -1.6938  1.8515 -1.4086
 5229SOL    HW227324   1.554   4.042   6.706  1.4662 -0.4728 -0.8032
 5230SOL     OW27325   1.288   0.745   4.711 -0.1964 -0.7448  0.0275
 5230SOL    HW127326   1.346   0.751   4.636  0.4007  1.0426  0.6290
 5230SOL    HW227327   1.236   0.822   4.686 -0.0033  0.0464  2.0462
 5231SOL     OW27328   3.221   4.059   6.795  0.5024 -0.5903 -0.0435
 5231SOL    HW127329   3.270   3.977   6.793 -0.7261 -1.2179 -3.8481
 5231SOL    HW227330   3.167   4.049   6.873  0.2496  1.5953  0.0748
 5232SOL     OW27331   0.665   0.817   1.976 -0.6739 -0.3589 -0.4123
 5232SOL    HW127332   0.684   0.782   2.063 -0.4914 -2.5107 -1.3263
 5232SOL    HW227333   0.671   0.910   1.997 -1.6445 -0.5734  0.8101
 5233SOL     OW27334   0.157   4.198   6.044  0.2393 -0.4850 -0.5581
 5233SOL    HW127335   0.161   4.142   5.967 -0.7186 -0.4995 -0.6053
 5233SOL    HW227336   0.235   4.167   6.090 -0.2372 -1.1859 -0.2174
 5234SOL     OW27337   3.616   2.059   9.601 -0.2409  0.9953 -0.0104
 5234SOL    HW127338   3.679   2.126   9.576  0.3046  0.2820 -0.5561
 5234SOL    HW227339   3.591   2.025   9.515  2.6703 -0.4400 -0.2909
 5235SOL     OW27340   0.575   1.352   7.534 -0.4552 -0.1247  1.1512
 5235SOL    HW127341   0.496   1.324   7.487 -0.4265 -0.0433  1.0549
 5235SOL    HW227342   0.593   1.276   7.590  1.4110 -0.7205 -0.2741
 5236SOL     OW27343   1.592   4.336   1.824  0.0072 -0.4265 -0.1282
 5236SOL    HW127344   1.670   4.381   1.856  0.5473 -1.1516 -0.4298
 5236SOL    HW227345   1.540   4.415   1.809  0.6810 -0.4500 -2.5947
 5237SOL     OW27346   0.082   2.483  14.701  0.4621 -0.1934  0.0428
 5237SOL    HW127347   0.005   2.428  14.688  0.7683 -0.4959 -0.4524
 5237SOL    HW227348   0.074   2.541  14.625  0.0225 -0.9597 -0.4996
 5238SOL     OW27349   3.687   3.115   3.115  0.0985 -0.0143  0.1550
 5238SOL    HW127350   3.719   3.185   3.058  0.2720  1.3528  1.9568
 5238SOL    HW227351   3.735   3.042   3.076  0.4684  0.5097 -0.3725
 5239SOL     OW27352   0.600   1.498   2.285 -0.2349 -0.1444  0.9477
 5239SOL    HW127353   0.529   1.496   2.222  1.2902  0.8423 -0.8074
 5239SOL    HW227354   0.642   1.574   2.245 -0.3239 -1.3564 -1.4331
 5240SOL     OW27355   0.037   2.967   1.461  0.3743 -0.8597 -0.9697
 5240SOL    HW127356   4.685   2.987   1.481  0.7130  1.5817 -1.8015
 5240SOL    HW227357   0.057   3.054   1.427  0.5665  0.1821  1.7962
 5241SOL     OW27358   4.046   1.771   3.708  0.6480  0.0503 -0.5938
 5241SOL    HW127359   3.957   1.738   3.701  0.4491  0.7285 -1.2618
 5241SOL    HW227360   4.065   1.760   3.801  0.5143 -3.1425 -0.9591
 5242SOL     OW27361   3.288   0.182   3.893 -0.5977 -0.1040  0.1599
 5242SOL    HW127362   3.371   0.225   3.874 -0.3276 -0.0285  1.4942
 5242SOL    HW227363   3.301   0.180   3.988 -0.3120  0.0151  0.1236
 5243SOL     OW27364   1.188   1.832   7.114 -0.5059  0.7813  0.0260
 5243SOL    HW127365   1.186   1.746   7.157  2.0846  0.3292 -0.8042
 5243SOL    HW227366   1.178   1.796   7.026  1.6959  3.2169 -1.1987
 5244SOL     OW27367   1.478   1.744   3.695  0.3647  0.4605 -0.2202
 5244SOL    HW127368   1.439   1.790   3.620  0.9716 -1.2819 -1.6207
 5244SOL    HW227369   1.401   1.716   3.745  1.9828 -0.6770  1.6000
 5245SOL     OW27370   3.293   3.801   8.216 -0.0130 -0.2052 -0.4685
 5245SOL    HW127371   3.237   3.780   8.291  1.0311  1.5472  0.8007
 5245SOL    HW227372   3.233   3.790   8.143 -0.0724 -0.0517 -0.4424
 5246SOL     OW27373   1.298   2.345   1.609 -1.0874 -1.1037 -0.8189
 5246SOL    HW127374   1.357   2.307   1.543 -1.1670 -0.6225 -1.1673
 5246SOL    HW227375   1.208   2.334   1.578 -1.6401  0.9721  0.0392
 5247SOL     OW27376   1.055   4.575  15.730  0.8476  0.0062 -0.9382
 5247SOL    HW127377   0.962   4.594  15.743  0.5735 -0.6453 -1.9144
 5247SOL    HW227378   1.081   4.636  15.799  0.2044  0.3534 -1.0041
 5248SOL     OW27379   0.569   3.337   4.414 -0.1341  0.2001 -0.5428
 5248SOL    HW127380   0.580   3.410   4.354 -0.8882  1.1835  0.5073
 5248SOL    HW227381   0.473   3.340   4.417 -0.1525  0.1941 -1.0638
 5249SOL     OW27382   0.982   0.751   3.397  0.2602  0.1210 -0.7704
 5249SOL    HW127383   0.888   0.747   3.414  0.4307  0.2410  0.2133
 5249SOL    HW227384   0.981   0.771   3.304 -1.2775  2.8733 -0.1812
 5250SOL     OW27385   1.621   4.021   4.052 -0.0190 -0.4764  0.0748
 5250SOL    HW127386   1.603   3.957   4.120  3.1633 -1.0075  0.3935
 5250SOL    HW227387   1.701   3.977   4.025  1.1886  1.9313 -0.2885
 5251SOL     OW27388   4.130   0.926  16.978  0.2209 -0.5230  0.3175
 5251SOL    HW127389   4.043   0.887  16.974 -0.5489  1.1069  1.2667
 5251SOL    HW227390   4.181   0.847  16.997  0.4636 -0.3950  0.2033
 5252SOL     OW27391   2.651   3.336   6.829 -0.1129  0.2605  0.4528
 5252SOL    HW127392   2.573   3.388   6.808 -0.8270 -1.3806 -0.9147
 5252SOL    HW227393   2.618   3.268   6.887 -2.2422  1.8171  1.0969
 5253SOL     OW27394   2.039   1.451   1.865 -0.0914 -0.0315  0.1711
 5253SOL    HW127395   1.997   1.366   1.877  1.3081 -0.6206  0.8811
 5253SOL    HW227396   1.967   1.514   1.864 -1.0526 -1.1475 -0.8731
 5254SOL     OW27397   3.335   0.247   6.622 -0.5954  0.4508  0.0975
 5254SOL    HW127398   3.242   0.246   6.643 -1.2325  2.2361 -2.6766
 5254SOL    HW227399   3.373   0.225   6.707  0.9535  2.4298 -0.0901
 5255SOL     OW27400   3.523   4.138  10.646  0.1567  0.2864 -0.6476
 5255SOL    HW127401   3.449   4.088  10.612  0.4536  0.0397 -0.9244
 5255SOL    HW227402   3.480   4.177  10.722 -0.7662 -5.0433  1.5196
 5256SOL     OW27403   1.226   1.536   2.311  0.1807  0.2035  0.2499
 5256SOL    HW127404   1.190   1.476   2.377 -0.2132 -0.6775 -0.7815
 5256SOL    HW227405   1.180   1.618   2.333  4.2547  2.1147  1.5605
 5257SOL     OW27406   4.260   3.266   3.142 -0.2993  0.1084  0.7208
 5257SOL    HW127407   4.234   3.179   3.113 -0.0313 -0.1711  1.3172
 5257SOL    HW227408   4.186   3.291   3.197 -0.4447 -0.4211  0.7628
 5258SOL     OW27409   2.369   2.491   3.956 -0.0175 -0.1515  0.3845
 5258SOL    HW127410   2.381   2.402   3.922 -0.5075 -0.5970  1.3891
 5258SOL    HW227411   2.438   2.535   3.907 -1.9148  2.6517  0.1861
 5259SOL     OW27412   2.788   2.426   4.500  0.7429  0.7373  0.2107
 5259SOL    HW127413   2.705   2.378   4.489  0.6570  0.1217  3.3427
 5259SOL    HW227414   2.849   2.352   4.499 -1.2480 -0.9275  1.3548
 5260SOL     OW27415   1.883   0.767  16.382 -0.0848  0.7810 -0.5256
 5260SOL    HW127416   1.892   0.711  16.459  0.5341  2.4724  0.6096
 5260SOL    HW227417   1.914   0.849  16.419 -0.6500  0.5573  0.4236
 5261SOL     OW27418   4.194   0.917   6.664  0.3009 -0.1626  0.2034
 5261SOL    HW127419   4.207   1.000   6.710  1.8980  0.7625 -1.9106
 5261SOL    HW227420   4.223   0.929   6.573 -0.2319 -0.4222  0.0042
 5262SOL     OW27421   4.538   2.974   8.837  0.0861  0.1780 -0.1930
 5262SOL    HW127422   4.576   3.004   8.919 -2.4332  1.2789  0.5382
 5262SOL    HW227423   4.465   2.922   8.871  2.3582 -2.6103  0.4204
 5263SOL     OW27424   2.073   0.539   9.334  0.0687  0.2495 -0.1010
 5263SOL    HW127425   2.087   0.586   9.416 -2.8070  2.2204 -0.7469
 5263SOL    HW227426   2.156   0.524   9.291  0.5857  1.2437  0.5468
 5264SOL     OW27427   0.409   0.835   7.614 -0.1787  0.5234  0.6057
 5264SOL    HW127428   0.383   0.888   7.539 -0.2587 -2.3058 -1.3346
 5264SOL    HW227429   0.331   0.825   7.669 -1.3636 -1.3440 -1.4258
 5265SOL     OW27430   3.820   1.654   7.295  0.1344 -0.1694 -0.2881
 5265SOL    HW127431   3.789   1.614   7.376 -1.6626 -1.6428 -1.7073
 5265SOL    HW227432   3.743   1.646   7.239 -0.0114 -2.5229  0.2462
 5266SOL     OW27433   4.099   0.499   6.392  0.2567 -0.2296  0.2325
 5266SOL    HW127434   4.056   0.554   6.327 -1.5186 -2.1744 -0.2185
 5266SOL    HW227435   4.063   0.517   6.478 -4.0694 -1.3793 -1.3490
 5267SOL     OW27436   0.851   0.448   2.003 -0.1810 -0.1723 -0.0967
 5267SOL    HW127437   0.816   0.417   2.086 -0.5673  2.0351  0.5415
 5267SOL    HW227438   0.908   0.516   2.039  0.6723 -0.0247 -1.7183
 5268SOL     OW27439   2.861   0.213   2.431  0.2663  0.2042 -0.0884
 5268SOL    HW127440   2.954   0.214   2.411 -0.0010 -3.0332 -1.4187
 5268SOL    HW227441   2.869   0.283   2.497  4.4143  0.3184 -0.7218
 5269SOL     OW27442   3.839   2.615  12.876 -0.2089  0.1407 -0.1130
 5269SOL    HW127443   3.918   2.636  12.924  1.0467 -1.8721 -1.2892
 5269SOL    HW227444   3.850   2.679  12.805  2.7982 -1.2965 -0.9179
 5270SOL     OW27445   1.615   3.277   9.072 -0.2707 -0.2369  0.2563
 5270SOL    HW127446   1.599   3.262   8.978 -1.8355 -1.2204  0.6928
 5270SOL    HW227447   1.692   3.334   9.073 -0.8498  0.4002  4.7921
 5271SOL     OW27448   4.612   1.358   2.310 -0.3469  0.6932  0.4382
 5271SOL    HW127449   4.532   1.405   2.332  0.7509  2.3318  0.9615
 5271SOL    HW227450   4.654   1.429   2.262 -1.3057 -0.0253 -1.4572
 5272SOL     OW27451   2.549   0.254   3.532 -0.1883 -0.2405  0.4767
 5272SOL    HW127452   2.552   0.235   3.439  1.0278 -0.5251  0.5680
 5272SOL    HW227453   2.639   0.231   3.556  0.9025  1.8014 -1.6410
 5273SOL     OW27454   4.666   0.776   3.453  0.1462  0.0191  0.1380
 5273SOL    HW127455   0.004   0.755   3.505  1.4924 -2.1608 -2.7299
 5273SOL    HW227456   4.671   0.870   3.441  3.2785 -0.2010 -0.2620
 5274SOL     OW27457   0.095   1.338   9.761  0.1482  0.2667 -0.2563
 5274SOL    HW127458   0.105   1.376   9.848  2.2233 -0.5326 -0.1403
 5274SOL    HW227459   0.145   1.397   9.705 -0.1362 -0.0432 -0.8307
 5275SOL     OW27460   0.468   0.511   9.967 -0.2021 -0.9163  0.3486
 5275SOL    HW127461   0.479   0.602   9.992 -0.7148 -0.5774 -0.6552
 5275SOL    HW227462   0.397   0.490  10.028 -2.4483  0.8772 -1.6533
 5276SOL     OW27463   0.266   2.529   7.967 -0.2999  0.4023 -0.5598
 5276SOL    HW127464   0.203   2.570   7.909  0.1507  1.1980 -0.4912
 5276SOL    HW227465   0.345   2.503   7.918 -0.1013  0.6985 -0.4006
 5277SOL     OW27466   2.517   1.045   7.744 -0.2909 -0.5614  0.9643
 5277SOL    HW127467   2.575   1.038   7.668 -2.0471  2.9612 -0.7203
 5277SOL    HW227468   2.432   1.057   7.701  0.6064  0.1092 -0.6127
 5278SOL     OW27469   3.582   1.172  17.556 -0.1630 -0.2719 -0.0123
 5278SOL    HW127470   3.574   1.146  17.648  1.3949 -1.2790 -0.1765
 5278SOL    HW227471   3.646   1.243  17.565  0.0815 -0.5336  0.3254
 5279SOL     OW27472   4.576   0.299  12.412  0.1625 -0.0531  0.3909
 5279SOL    HW127473   4.517   0.301  12.336  1.2738  1.9246 -0.4177
 5279SOL    HW227474   4.516   0.319  12.483 -0.2572  1.5216 -0.4092
 5280SOL     OW27475   0.484   1.171  11.515 -0.1106  0.3617  0.3190
 5280SOL    HW127476   0.525   1.258  11.511  3.1265 -1.1736  0.3618
 5280SOL    HW227477   0.540   1.124  11.576  0.5215  2.4926  1.4008
 5281SOL     OW27478   3.868   3.682   2.323  0.2289  0.1102  0.0434
 5281SOL    HW127479   3.957   3.656   2.348  0.2345  1.3728  1.3073
 5281SOL    HW227480   3.843   3.742   2.394  0.9315  2.0964 -1.3938
 5282SOL     OW27481   0.317   4.408   2.490 -0.1112  0.0626 -0.4425
 5282SOL    HW127482   0.249   4.445   2.547 -0.0059 -0.1822 -0.1568
 5282SOL    HW227483   0.349   4.329   2.534 -1.2094 -1.3928 -2.2213
 5283SOL     OW27484   2.004   1.911   4.402  0.1250 -0.5667 -0.3333
 5283SOL    HW127485   2.096   1.894   4.385  0.2120 -1.2889  0.9107
 5283SOL    HW227486   2.007   1.987   4.343 -0.5836 -0.5530 -0.3521
 5284SOL     OW27487   1.576   3.640   3.922  0.2119  0.3906 -0.0511
 5284SOL    HW127488   1.539   3.728   3.926 -1.6047 -0.3964  0.3660
 5284SOL    HW227489   1.491   3.597   3.930  1.1057 -1.2880  0.3712
 5285SOL     OW27490   1.212   0.960  14.722  0.0638  0.2298 -0.0023
 5285SOL    HW127491   1.171   0.972  14.808  0.1637  2.4676 -0.2704
 5285SOL    HW227492   1.149   0.903  14.679 -0.9043  0.6394  0.8741
 5286SOL     OW27493   2.252   3.487   8.317  0.1882  0.4457 -0.2382
 5286SOL    HW127494   2.312   3.419   8.286 -1.0988 -1.9025  2.3942
 5286SOL    HW227495   2.230   3.456   8.405 -0.1805  0.7519 -0.2233
 5287SOL     OW27496   0.278   3.334   4.774  1.4995 -0.0688  0.4923
 5287SOL    HW127497   0.278   3.318   4.679  3.4735  1.6156  0.2151
 5287SOL    HW227498   0.268   3.248   4.815 -2.6021 -0.4979 -1.3306
 5288SOL     OW27499   4.455   2.990   3.259 -0.6050 -0.0277  0.4695
 5288SOL    HW127500   4.421   2.901   3.263 -3.5260  1.0628  0.0308
 5288SOL    HW227501   4.548   2.971   3.244 -0.6816  0.1003 -0.1511
 5289SOL     OW27502   2.811   0.966   5.822  0.6291 -0.2033 -0.0476
 5289SOL    HW127503   2.781   0.885   5.864 -2.4028 -0.3896 -2.5513
 5289SOL    HW227504   2.829   1.015   5.902  1.6096 -1.6487  0.6232
 5290SOL     OW27505   3.609   2.577   7.206 -0.4066  0.1407  0.1113
 5290SOL    HW127506   3.696   2.572   7.245 -0.0361  0.8314 -0.6167
 5290SOL    HW227507   3.625   2.561   7.113 -2.0742 -1.3166  0.0714
 5291SOL     OW27508   4.137   2.098   7.825  0.1218 -0.1282 -0.2070
 5291SOL    HW127509   4.107   2.170   7.880 -0.6491  0.9096 -1.9720
 5291SOL    HW227510   4.232   2.091   7.834  0.2256  0.4745 -0.8752
 5292SOL     OW27511   2.581   2.660  12.834 -0.5964 -0.0347  0.0791
 5292SOL    HW127512   2.525   2.738  12.829 -1.5851 -0.6516  1.2727
 5292SOL    HW227513   2.668   2.699  12.840 -0.2244 -0.9589  0.7389
 5293SOL     OW27514   4.588   4.668   5.211 -0.0576 -0.5297  0.6100
 5293SOL    HW127515   4.498   4.694   5.229  0.1783  0.7340  0.0199
 5293SOL    HW227516   4.632   0.011   5.191 -3.7624  1.0423 -1.0995
 5294SOL     OW27517   3.251   2.021   5.007  0.2823 -0.3623  0.0313
 5294SOL    HW127518   3.310   2.022   5.082 -0.5617  0.2624  0.6901
 5294SOL    HW227519   3.315   1.988   4.944 -0.2797 -3.4149  1.0459
 5295SOL     OW27520   1.400   0.831  15.003  0.1023 -0.3022 -0.2823
 5295SOL    HW127521   1.427   0.842  14.912  0.4224  2.4314  0.1501
 5295SOL    HW227522   1.343   0.754  14.999 -1.2092  0.6089  0.8673
 5296SOL     OW27523   2.030   3.526   4.174 -0.0218 -1.0153 -0.6994
 5296SOL    HW127524   2.113   3.572   4.189  1.4493 -3.7635 -0.3467
 5296SOL    HW227525   2.028   3.513   4.079 -1.4995  2.0541 -1.0954
 5297SOL     OW27526   1.007   2.155   0.401  0.1462  0.1764 -0.1246
 5297SOL    HW127527   1.018   2.079   0.457 -2.5491 -1.4186 -1.7286
 5297SOL    HW227528   1.078   2.139   0.339 -0.6020 -2.0628 -0.3992
 5298SOL     OW27529   2.211   3.997   1.858  0.0736 -0.1351 -0.1208
 5298SOL    HW127530   2.283   3.950   1.901 -0.6927 -0.6626  0.5745
 5298SOL    HW227531   2.259   4.080   1.857  1.3199 -0.8829 -2.1546
 5299SOL     OW27532   0.976   4.351  17.246 -0.7308  0.5234  0.0021
 5299SOL    HW127533   0.909   4.283  17.247 -2.0819  1.8859  1.6998
 5299SOL    HW227534   1.006   4.349  17.155 -1.9151  1.8439 -0.4169
 5300SOL     OW27535   2.638   0.679   1.608  0.2660  0.8886  0.5475
 5300SOL    HW127536   2.690   0.749   1.568 -1.0144  1.0268 -0.8695
 5300SOL    HW227537   2.549   0.697   1.578 -0.6377 -0.9898  2.0833
 5301SOL     OW27538   4.280   2.968   8.987 -0.3983 -0.2057  0.0441
 5301SOL    HW127539   4.355   3.018   9.019 -1.0752  1.0817 -0.3433
 5301SOL    HW227540   4.210   3.033   8.992  0.1872  0.6005 -2.0260
 5302SOL     OW27541   1.604   1.025   2.059  0.0352  0.4668  0.0793
 5302SOL    HW127542   1.622   1.110   2.099  1.2896 -0.9395  2.4919
 5302SOL    HW227543   1.521   1.049   2.017  0.3883 -0.3499 -1.0923
 5303SOL     OW27544   3.600   3.225   3.605 -0.3913  0.1987 -0.1021
 5303SOL    HW127545   3.510   3.194   3.616 -0.2355 -0.2237 -0.0147
 5303SOL    HW227546   3.635   3.227   3.694 -1.0410  1.1661  0.1311
 5304SOL     OW27547   3.912   2.080   8.795 -0.3697 -0.0684 -0.3067
 5304SOL    HW127548   3.871   1.994   8.807  0.0752 -0.1568  0.5620
 5304SOL    HW227549   3.898   2.094   8.701  0.2155  0.2030 -0.3514
 5305SOL     OW27550   2.636   4.027  16.212  0.1363 -0.5822 -0.0722
 5305SOL    HW127551   2.644   4.075  16.130  3.1898  0.6330  0.9380
 5305SOL    HW227552   2.586   4.090  16.264 -0.3398 -0.5962 -0.5050
 5306SOL     OW27553   4.735   0.608  14.452 -0.4569 -0.6791 -0.0873
 5306SOL    HW127554   0.014   0.684  14.397 -0.7455 -0.3652  0.2488
 5306SOL    HW227555   4.702   0.554  14.380 -2.0973  3.1126 -2.1936
 5307SOL     OW27556   1.664   0.815   4.822  0.1171 -0.2830 -0.1115
 5307SOL    HW127557   1.653   0.727   4.787  1.4695 -0.3157 -0.4539
 5307SOL    HW227558   1.676   0.871   4.746 -0.2572  0.4612  0.3705
 5308SOL     OW27559   1.649   1.848   7.038  0.0829  0.3827 -0.2148
 5308SOL    HW127560   1.733   1.806   7.058 -0.4673 -0.9184 -0.6219
 5308SOL    HW227561   1.587   1.780   7.065  1.0494 -0.0509  0.9027
 5309SOL     OW27562   0.225   0.687   9.737  0.2104  0.2306  0.1515
 5309SOL    HW127563   0.269   0.652   9.815 -0.7842  0.7895  0.9530
 5309SOL    HW227564   0.184   0.769   9.765  0.2068  0.0888  0.5701
 5310SOL     OW27565   1.890   1.263   5.499 -0.1054 -0.0753 -0.4494
 5310SOL    HW127566   1.848   1.221   5.424 -1.8000  0.4775  0.1973
 5310SOL    HW227567   1.812   1.294   5.544  0.7878 -0.4015  1.3332
 5311SOL     OW27568   4.015   0.470   7.309 -0.7807 -0.5738 -0.9677
 5311SOL    HW127569   4.059   0.496   7.229 -0.0378  1.6860  0.1645
 5311SOL    HW227570   4.071   0.505   7.378 -3.7162 -0.0792  1.1829
 5312SOL     OW27571   4.088   1.229   1.861  0.1222  0.1120 -0.3912
 5312SOL    HW127572   4.143   1.183   1.925  0.9785  1.7891  0.0862
 5312SOL    HW227573   4.006   1.226   1.909  2.6393 -3.2185  3.6481
 5313SOL     OW27574   4.024   4.328   6.126  0.2908  0.3496 -0.1388
 5313SOL    HW127575   4.056   4.247   6.166  1.8025 -0.6368 -3.3087
 5313SOL    HW227576   4.044   4.386   6.199  0.9984  0.0472 -0.0881
 5314SOL     OW27577   3.242   0.361  10.638 -0.1276 -0.1785 -0.3778
 5314SOL    HW127578   3.323   0.322  10.605  0.1097  1.6795 -1.9894
 5314SOL    HW227579   3.225   0.430  10.574 -0.8832  1.1975  1.3456
 5315SOL     OW27580   4.236   1.358   2.221  0.1426  0.0601 -0.3704
 5315SOL    HW127581   4.279   1.424   2.166 -2.8745  1.2807 -1.3023
 5315SOL    HW227582   4.143   1.374   2.202  0.3318  1.0473 -0.4730
 5316SOL     OW27583   0.360   0.406   4.997 -0.4711  0.5050  0.6461
 5316SOL    HW127584   0.273   0.442   5.011 -0.1793  0.8326  1.6171
 5316SOL    HW227585   0.408   0.489   4.996  1.7310 -0.7585  1.1192
 5317SOL     OW27586   0.453   0.460   6.342  0.1950 -0.2703 -0.0047
 5317SOL    HW127587   0.426   0.547   6.371  1.7582 -0.3846  1.7956
 5317SOL    HW227588   0.401   0.456   6.262 -1.6709  0.4289  1.1504
 5318SOL     OW27589   0.604   2.482  16.704 -1.2644  0.4401  0.0783
 5318SOL    HW127590   0.532   2.512  16.760 -2.0244 -0.8967 -0.1718
 5318SOL    HW227591   0.610   2.392  16.735  2.8637  0.2236 -1.3125
 5319SOL     OW27592   1.901   2.848   5.594 -0.0509 -0.5093  1.1277
 5319SOL    HW127593   1.877   2.885   5.508 -2.8216  0.0641  2.1602
 5319SOL    HW227594   1.995   2.864   5.586 -0.2229 -0.3029 -0.4922
 5320SOL     OW27595   0.004   0.116   6.077  0.1303 -0.5620 -0.4674
 5320SOL    HW127596   0.044   0.126   5.991  0.0879 -0.0262 -0.4297
 5320SOL    HW227597   0.030   0.192   6.130 -3.2125  0.6852 -0.5622
 5321SOL     OW27598   4.607   4.161  14.328 -0.3926  0.1441 -0.1830
 5321SOL    HW127599   4.550   4.124  14.396  2.1737  0.3558  2.1077
 5321SOL    HW227600   4.694   4.169  14.367 -1.4891 -2.6112  2.8554
 5322SOL     OW27601   3.295   1.410   4.654 -0.1784  0.3758 -0.2981
 5322SOL    HW127602   3.265   1.485   4.705 -1.5436  0.1587 -0.7894
 5322SOL    HW227603   3.390   1.417   4.644  0.0969 -0.4013  1.7727
 5323SOL     OW27604   3.894   1.552   0.802 -0.2919 -0.4165 -0.5511
 5323SOL    HW127605   3.962   1.588   0.859  0.9090 -1.9809 -1.0038
 5323SOL    HW227606   3.860   1.635   0.769  0.5446  0.5142  0.8973
 5324SOL     OW27607   2.553   0.114   5.826 -0.1061  0.0221 -0.7495
 5324SOL    HW127608   2.563   0.072   5.912  1.3038 -0.0272 -0.9336
 5324SOL    HW227609   2.645   0.125   5.801 -0.4941  2.5981 -1.0104
 5325SOL     OW27610   1.096   4.447  10.301  0.3329  0.6999 -0.4828
 5325SOL    HW127611   1.087   4.379  10.368  0.2194  1.0450 -0.1520
 5325SOL    HW227612   1.137   4.400  10.228 -1.6448 -1.0246 -0.5078
 5326SOL     OW27613   2.261   2.824  13.616 -0.5416  0.2665  0.0362
 5326SOL    HW127614   2.332   2.761  13.605 -0.7555 -0.1369  0.9517
 5326SOL    HW227615   2.255   2.829  13.712  1.2563  1.1609  0.1099
 5327SOL     OW27616   4.048   2.687   4.094  0.0553 -0.3536  0.2645
 5327SOL    HW127617   3.959   2.693   4.128 -0.6864 -3.3800 -1.0560
 5327SOL    HW227618   4.072   2.596   4.074  1.6659  0.4541 -1.4314
 5328SOL     OW27619   2.983   1.960   8.195  0.3214  0.6095  0.3099
 5328SOL    HW127620   2.948   1.875   8.221  0.1951  0.3496 -0.6826
 5328SOL    HW227621   3.036   1.945   8.116 -1.4604  0.3540 -0.8529
 5329SOL     OW27622   4.447   2.406   4.757 -0.2523 -0.1692 -0.2256
 5329SOL    HW127623   4.491   2.376   4.836  0.9545 -0.7530 -1.1201
 5329SOL    HW227624   4.371   2.453   4.791  0.9524  0.5402  1.5252
 5330SOL     OW27625   2.940   2.232   7.438 -0.1544 -0.3169 -0.3974
 5330SOL    HW127626   2.992   2.305   7.470  0.4438 -1.7054  1.8291
 5330SOL    HW227627   3.010   2.167   7.434 -0.1800 -0.5363  2.4061
 5331SOL     OW27628   4.033   3.428   3.696  0.2836  0.0647  0.3764
 5331SOL    HW127629   3.990   3.343   3.692 -0.7216  0.6942 -2.2900
 5331SOL    HW227630   4.093   3.423   3.621  1.9505  0.9314  1.6444
 5332SOL     OW27631   0.845   2.720   6.004 -0.2363 -0.7157 -0.6611
 5332SOL    HW127632   0.771   2.754   6.056  0.1890  0.8430 -1.0692
 5332SOL    HW227633   0.824   2.743   5.914  1.4570 -0.2203 -0.9250
 5333SOL     OW27634   1.144   3.821   2.851 -0.5750  0.1741 -0.1087
 5333SOL    HW127635   1.127   3.807   2.944 -0.7237  0.1784 -0.1342
 5333SOL    HW227636   1.161   3.732   2.820 -2.2064 -0.6567  1.3593
 5334SOL     OW27637   2.180   0.355  13.497  0.2034  0.3944  0.2496
 5334SOL    HW127638   2.168   0.352  13.592 -1.6019  2.6380  0.1042
 5334SOL    HW227639   2.122   0.283  13.472  0.0464  0.0672  1.5822
 5335SOL     OW27640   1.858   4.367   2.746  0.0364  0.3701 -0.2574
 5335SOL    HW127641   1.835   4.286   2.793 -0.0632  1.1478  1.0278
 5335SOL    HW227642   1.814   4.424   2.809  0.0038  1.5668 -1.3768
 5336SOL     OW27643   3.581   1.680   5.844  0.0477  0.0206  0.1369
 5336SOL    HW127644   3.675   1.667   5.835  0.4423  1.0962  2.7610
 5336SOL    HW227645   3.549   1.664   5.755 -0.4937  1.0812  0.1350
 5337SOL     OW27646   4.091   2.225   8.221 -0.4628  0.1102 -0.7447
 5337SOL    HW127647   4.177   2.216   8.180  0.9125  0.8148  1.9719
 5337SOL    HW227648   4.078   2.137   8.255  1.6440 -0.4605 -1.4437
 5338SOL     OW27649   0.820   1.378  13.637  0.2984  0.0621  0.3530
 5338SOL    HW127650   0.916   1.373  13.627  0.4698  0.0430  2.1157
 5338SOL    HW227651   0.799   1.470  13.649  1.2583  0.2296  0.7277
 5339SOL     OW27652   1.037   3.369   8.996  0.3531 -0.6649  0.7831
 5339SOL    HW127653   1.054   3.307   9.067  1.6358 -0.7712  0.3872
 5339SOL    HW227654   1.123   3.399   8.968  0.2936 -0.0833  1.2220
 5340SOL     OW27655   3.179   1.299  14.420 -0.1407  0.1272 -0.3486
 5340SOL    HW127656   3.134   1.296  14.504 -0.2666 -1.0961 -0.4565
 5340SOL    HW227657   3.247   1.365  14.435 -1.3242  1.2022  0.2078
 5341SOL     OW27658   4.682   3.933  17.384  0.0739 -0.2859  0.1149
 5341SOL    HW127659   4.624   3.928  17.461 -2.6087  0.9641 -1.8128
 5341SOL    HW227660   4.609   3.931  17.322 -0.7168 -1.8400  1.1084
 5342SOL     OW27661   4.404   2.797   8.379 -0.4669 -0.6324  0.2256
 5342SOL    HW127662   4.494   2.766   8.377  0.1726  1.1826  0.3174
 5342SOL    HW227663   4.397   2.823   8.472  0.6166  1.3771 -0.2407
 5343SOL     OW27664   3.112   2.466  10.255  0.2107 -0.7078  0.0965
 5343SOL    HW127665   3.094   2.510  10.338 -1.3447  0.2809 -0.7569
 5343SOL    HW227666   3.050   2.393  10.255 -2.4882  1.6009  0.4486
 5344SOL     OW27667   4.497   3.446  15.063 -0.0190 -0.0596 -0.2362
 5344SOL    HW127668   4.460   3.359  15.053  0.8362 -0.4326 -0.2071
 5344SOL    HW227669   4.429   3.513  15.054 -1.0065 -0.8425  1.5435
 5345SOL     OW27670   4.367   1.558   5.937  0.0124  0.1570  0.1916
 5345SOL    HW127671   4.453   1.589   5.909 -1.5048  1.6680 -2.7859
 5345SOL    HW227672   4.370   1.467   5.908  3.0113 -0.7904  3.4468
 5346SOL     OW27673   0.881   3.693   3.673 -0.0062 -0.0516  0.3318
 5346SOL    HW127674   0.891   3.770   3.616  0.4680 -1.5399 -1.5851
 5346SOL    HW227675   0.949   3.711   3.738  0.8113  2.1765 -1.1172
 5347SOL     OW27676   2.904   1.310   8.913 -0.2161  0.1146  0.2661
 5347SOL    HW127677   2.815   1.274   8.916  0.2153 -0.8508  1.3222
 5347SOL    HW227678   2.882   1.384   8.856 -1.7141 -0.3688  0.2207
 5348SOL     OW27679   4.193   0.460   0.230  0.3090 -0.3565 -0.0732
 5348SOL    HW127680   4.204   0.399   0.303  1.0790 -1.1214 -0.8310
 5348SOL    HW227681   4.148   0.530   0.278  0.8756 -0.9626  1.3444
 5349SOL     OW27682   1.265   3.588  11.689  0.7681 -0.5222  0.4153
 5349SOL    HW127683   1.187   3.641  11.672  1.0178 -0.4258 -0.4584
 5349SOL    HW227684   1.234   3.524  11.753 -1.7511 -0.2495 -0.5635
 5350SOL     OW27685   2.182   0.311   6.302  0.1687  0.1567  0.6699
 5350SOL    HW127686   2.159   0.330   6.393  1.2996  0.1287  0.9635
 5350SOL    HW227687   2.265   0.266   6.313  0.8623  0.6573 -2.5489
 5351SOL     OW27688   3.954   0.049   6.780  0.3779  0.3923  0.3108
 5351SOL    HW127689   4.024   0.083   6.724 -0.9613 -0.9264 -2.1872
 5351SOL    HW227690   3.895   0.032   6.706  1.3544  0.9911 -0.6102
 5352SOL     OW27691   3.611   0.829  16.734 -0.6066  0.3117  0.0990
 5352SOL    HW127692   3.592   0.911  16.780 -1.8260 -0.2996  0.6771
 5352SOL    HW227693   3.663   0.847  16.656 -0.7583  0.1492 -0.0379
 5353SOL     OW27694   0.252   4.621  14.230  0.6542  0.7658  0.3873
 5353SOL    HW127695   0.169   4.667  14.245  1.5337  2.8669 -1.2055
 5353SOL    HW227696   0.313   4.690  14.204  0.5573  0.6394 -0.1847
 5354SOL     OW27697   2.753   1.742  16.786 -0.3113  0.2424  0.1492
 5354SOL    HW127698   2.799   1.659  16.795  1.3568  1.1509 -0.0972
 5354SOL    HW227699   2.697   1.728  16.709 -0.7691  2.2093  0.1338
 5355SOL     OW27700   0.740   3.737   8.198  0.3591 -0.2685 -0.1511
 5355SOL    HW127701   0.706   3.742   8.108  1.8766 -0.7308 -0.7539
 5355SOL    HW227702   0.736   3.642   8.212 -0.8145 -0.1496  0.3094
 5356SOL     OW27703   3.766   3.051   9.284  0.1047 -0.2127  0.0648
 5356SOL    HW127704   3.819   3.001   9.222  1.1516 -0.0089  0.8066
 5356SOL    HW227705   3.819   3.126   9.309 -0.6703  0.9317 -1.7021
 5357SOL     OW27706   4.485   2.507   9.045  0.7273 -0.5264 -0.2953
 5357SOL    HW127707   4.478   2.419   9.083  2.1283 -0.3439  0.3787
 5357SOL    HW227708   4.578   2.519   9.059  0.3257  2.2976 -0.0892
 5358SOL     OW27709   4.503   0.567   4.238 -0.2482  0.1889 -0.1517
 5358SOL    HW127710   4.568   0.497   4.226 -0.6764 -0.1307 -0.5926
 5358SOL    HW227711   4.546   0.642   4.196 -0.7853  0.1428 -0.7748
 5359SOL     OW27712   2.949   2.469   7.165 -0.5427 -0.1046  0.3087
 5359SOL    HW127713   3.012   2.409   7.205 -0.2136 -0.9856 -1.5360
 5359SOL    HW227714   2.865   2.425   7.173  1.2843 -3.6597  0.0135
 5360SOL     OW27715   1.401   3.431  11.498 -0.0423  0.1435 -0.6315
 5360SOL    HW127716   1.388   3.336  11.502 -0.3300  0.1744 -0.7916
 5360SOL    HW227717   1.355   3.470  11.572  0.7208  0.7850 -0.4975
 5361SOL     OW27718   4.158   0.748  17.318  0.3218 -0.0609 -0.0174
 5361SOL    HW127719   4.224   0.681  17.333  0.1415 -0.4995 -1.1940
 5361SOL    HW227720   4.193   0.769  17.231 -1.5900  4.4288  0.2695
 5362SOL     OW27721   2.160   3.874  17.547  0.1381 -0.2801 -0.2662
 5362SOL    HW127722   2.243   3.878  17.595 -1.3815 -0.5647  2.3920
 5362SOL    HW227723   2.159   3.955  17.496 -1.1463 -0.5061 -0.5828
 5363SOL     OW27724   1.610   2.482   4.071 -0.3325  0.0316 -0.0330
 5363SOL    HW127725   1.597   2.393   4.037 -0.7383  1.2066 -2.9732
 5363SOL    HW227726   1.691   2.502   4.023 -0.4151  0.3865 -0.0213
 5364SOL     OW27727   3.407   1.995   7.012  0.1857  0.1612 -0.5442
 5364SOL    HW127728   3.420   1.913   6.964 -0.7325 -0.1424 -0.2692
 5364SOL    HW227729   3.384   2.056   6.942 -1.2354  1.2866  0.8971
 5365SOL     OW27730   2.056   3.433   8.609 -0.8202  0.0571  0.0049
 5365SOL    HW127731   1.989   3.426   8.677 -1.9642 -2.8818 -1.4084
 5365SOL    HW227732   2.059   3.528   8.609 -2.4028  0.1026  1.2307
 5366SOL     OW27733   3.121   2.189   8.147  0.0238  0.6905  0.1678
 5366SOL    HW127734   3.051   2.255   8.147  0.0023  0.6857  2.1812
 5366SOL    HW227735   3.066   2.116   8.176 -0.2325  0.4099 -1.0072
 5367SOL     OW27736   3.432   3.316   8.600  0.1577 -0.6508  0.3688
 5367SOL    HW127737   3.410   3.224   8.610 -0.6580 -0.4381  0.4735
 5367SOL    HW227738   3.528   3.312   8.610  0.4515  3.1114 -1.0610
 5368SOL     OW27739   1.896   0.807  10.340  0.0050 -0.7038 -0.3145
 5368SOL    HW127740   1.990   0.787  10.336  0.4180  1.3579 -0.7621
 5368SOL    HW227741   1.896   0.887  10.288  0.8118 -1.0176 -0.8141
 5369SOL     OW27742   0.655   4.273  15.893 -0.0949 -0.1883  0.2788
 5369SOL    HW127743   0.741   4.290  15.931  0.8444 -0.9574 -1.5463
 5369SOL    HW227744   0.660   4.328  15.815  0.8992 -0.0507  0.4402
 5370SOL     OW27745   0.845   3.470   2.399  0.0711 -0.3399 -0.1366
 5370SOL    HW127746   0.895   3.426   2.330  3.5258 -1.9068  3.4010
 5370SOL    HW227747   0.770   3.501   2.347 -0.3089  0.6341  0.9914
 5371SOL     OW27748   1.323   4.685   0.385  0.0478  0.1244  0.7990
 5371SOL    HW127749   1.407   4.721   0.354  0.8021 -0.9285  1.6095
 5371SOL    HW227750   1.296   0.006   0.454 -0.4531  0.4777  0.2864
 5372SOL     OW27751   1.914   1.445   6.620 -0.5284  0.1570 -0.1665
 5372SOL    HW127752   1.940   1.505   6.690  5.0215 -2.6537  0.1628
 5372SOL    HW227753   1.835   1.492   6.594 -0.1725  1.0310  0.3134
 5373SOL     OW27754   4.489   4.153   7.051 -0.3349  0.2094  0.6418
 5373SOL    HW127755   4.442   4.113   6.979  0.6971  0.2847 -0.0734
 5373SOL    HW227756   4.465   4.098   7.126 -3.0315  0.7893  0.1797
 5374SOL     OW27757   3.756   2.330   1.964  0.0635 -0.2377 -0.0900
 5374SOL    HW127758   3.693   2.288   1.905  1.5328 -0.8970 -1.1971
 5374SOL    HW227759   3.802   2.255   2.003 -1.9511 -1.5002 -0.1367
 5375SOL     OW27760   0.895   3.602   6.110  0.7053 -0.3976  0.7146
 5375SOL    HW127761   0.836   3.669   6.145  0.3396 -0.7288  0.7319
 5375SOL    HW227762   0.984   3.634   6.123 -0.5587  5.0073 -3.6548
 5376SOL     OW27763   2.582   4.030  12.045 -0.2430 -0.1562 -0.2673
 5376SOL    HW127764   2.649   4.037  12.113 -3.1883 -1.4017  2.7729
 5376SOL    HW227765   2.507   4.064  12.093 -1.0628 -0.2572 -1.4526
 5377SOL     OW27766   2.088   2.609   5.753  0.2008  0.0318  0.1995
 5377SOL    HW127767   2.177   2.572   5.752 -0.4583 -1.6826  2.9151
 5377SOL    HW227768   2.088   2.650   5.667  0.5520  2.3914  1.3334
 5378SOL     OW27769   1.356   0.565   8.274  0.5839  0.2351 -0.2485
 5378SOL    HW127770   1.403   0.642   8.243  0.6747  0.2101 -0.1745
 5378SOL    HW227771   1.286   0.614   8.316  1.2866  1.7358 -0.8556
 5379SOL     OW27772   2.212   4.262   2.773 -0.0730  0.0542 -0.5267
 5379SOL    HW127773   2.175   4.262   2.685 -1.9548  3.3115  0.2295
 5379SOL    HW227774   2.264   4.341   2.760 -0.5577  0.3327 -0.7697
 5380SOL     OW27775   3.559   3.337   5.682 -0.3411 -0.3453  0.1645
 5380SOL    HW127776   3.478   3.296   5.651 -0.5038  0.5661 -0.6095
 5380SOL    HW227777   3.549   3.417   5.631 -0.9390 -0.1647  0.5604
 5381SOL     OW27778   1.120   2.510  17.299  0.5420 -0.4692 -0.4453
 5381SOL    HW127779   1.090   2.419  17.295 -3.5093  0.8041  0.3216
 5381SOL    HW227780   1.086   2.544  17.383 -0.4766 -2.2872 -0.1222
 5382SOL     OW27781   1.463   2.571  16.771 -0.3465  0.5201 -0.3456
 5382SOL    HW127782   1.438   2.483  16.742 -1.9701  1.7343 -2.5920
 5382SOL    HW227783   1.551   2.552  16.803  0.1064  1.5803 -0.9485
 5383SOL     OW27784   1.816   3.149  16.513  0.5473  0.2200 -0.1198
 5383SOL    HW127785   1.812   3.215  16.582  2.1756 -0.5618  0.7177
 5383SOL    HW227786   1.724   3.124  16.511  0.0327  2.2039 -0.9126
 5384SOL     OW27787   3.062   0.205   2.989 -0.3708 -0.1822  0.5640
 5384SOL    HW127788   3.073   0.122   2.944  0.2480  0.8243 -1.1202
 5384SOL    HW227789   3.035   0.253   2.911  1.8708  0.5785  0.2545
 5385SOL     OW27790   2.594   3.666   3.593 -0.0389 -0.3609  0.0133
 5385SOL    HW127791   2.600   3.762   3.588  0.5034 -0.4408 -0.8446
 5385SOL    HW227792   2.617   3.655   3.685  0.0868  0.7582  0.1225
 5386SOL     OW27793   2.352   0.448   2.023 -0.4436 -0.3180 -0.1191
 5386SOL    HW127794   2.337   0.355   2.040 -0.0490 -0.5575 -1.0781
 5386SOL    HW227795   2.437   0.460   2.066 -0.9241  2.3724  0.1118
 5387SOL     OW27796   4.256   2.294   5.065  0.3833  0.4444 -0.2788
 5387SOL    HW127797   4.233   2.227   5.000  0.1412  1.4134 -1.2051
 5387SOL    HW227798   4.208   2.374   5.042 -3.8199 -1.7118  0.9901
 5388SOL     OW27799   1.658   0.797   7.795  0.2120 -0.0392  0.3641
 5388SOL    HW127800   1.689   0.888   7.805  1.8318 -0.7288  1.6744
 5388SOL    HW227801   1.564   0.801   7.813 -0.1211 -2.4388 -0.9185
 5389SOL     OW27802   1.249   2.508   6.932 -0.1875 -0.4621 -0.2393
 5389SOL    HW127803   1.319   2.547   6.879 -0.5599 -2.2891 -2.0411
 5389SOL    HW227804   1.282   2.419   6.940  1.6232  0.2622  0.3249
 5390SOL     OW27805   4.691   4.555  17.665 -0.0587  0.1860 -0.0734
 5390SOL    HW127806   4.660   4.465  17.678  1.8315 -0.7182 -2.0035
 5390SOL    HW227807   4.731   4.541  17.580 -0.3656  1.8143 -0.4933
 5391SOL     OW27808   4.005   0.171   4.639  0.4259 -0.6981 -0.0065
 5391SOL    HW127809   4.096   0.182   4.668  0.6535 -0.3785 -0.8678
 5391SOL    HW227810   3.985   0.264   4.649  2.9448 -0.3791  2.2962
 5392SOL     OW27811   0.109   0.375   3.312 -0.3473 -0.2870  0.7431
 5392SOL    HW127812   0.138   0.285   3.298  2.1752  0.4051  1.6232
 5392SOL    HW227813   0.144   0.423   3.237 -1.7213 -0.2750  0.0988
 5393SOL     OW27814   1.471   0.032   6.786  0.1418  0.0758 -0.0164
 5393SOL    HW127815   1.453   4.678   6.798  1.2687 -0.2335 -0.7443
 5393SOL    HW227816   1.423   0.059   6.865 -0.7155 -0.5691 -0.3251
 5394SOL     OW27817   0.461   2.955   3.994 -0.1879 -0.2863  0.3738
 5394SOL    HW127818   0.481   2.867   3.962 -1.9781 -0.2773 -0.7702
 5394SOL    HW227819   0.368   2.947   4.016 -0.6075 -1.0237 -1.7148
 5395SOL     OW27820   2.983   2.277   3.963  0.8312  0.6183 -0.4256
 5395SOL    HW127821   2.919   2.315   4.022  0.3024  0.8073 -1.1260
 5395SOL    HW227822   3.053   2.247   4.021  0.6201  2.0786  0.5831
 5396SOL     OW27823   3.928   1.314   7.339  0.2385  0.2754 -0.5915
 5396SOL    HW127824   3.920   1.242   7.277 -0.7127 -0.7148  0.6809
 5396SOL    HW227825   3.995   1.368   7.298  0.0036  1.9932  1.2551
 5397SOL     OW27826   3.422   1.009   7.899 -0.9549  0.2853  0.6310
 5397SOL    HW127827   3.412   0.951   7.823  1.7719 -2.5709  2.4825
 5397SOL    HW227828   3.405   0.945   7.968 -3.0139  0.3159  0.1561
 5398SOL     OW27829   4.091   0.548   9.887  0.0238 -0.0805  0.3796
 5398SOL    HW127830   4.116   0.639   9.872 -1.5238  0.7716  2.8771
 5398SOL    HW227831   4.114   0.510   9.802  2.0046 -0.0170  0.8877
 5399SOL     OW27832   2.890   1.718  16.149  0.1755 -0.5688 -0.1986
 5399SOL    HW127833   2.958   1.760  16.096  0.5699  0.8319  1.4253
 5399SOL    HW227834   2.871   1.796  16.201  1.9630 -1.0922  1.2391
 5400SOL     OW27835   1.107   2.161   1.473  0.1485  0.9333  0.2825
 5400SOL    HW127836   1.070   2.133   1.557  2.5396  0.2660  1.1041
 5400SOL    HW227837   1.037   2.206   1.426 -0.8768  2.0781  2.8815
 5401SOL     OW27838   1.873   2.363  16.714  0.5498  0.2323 -0.0956
 5401SOL    HW127839   1.941   2.384  16.778  0.4159 -1.9598  0.7568
 5401SOL    HW227840   1.834   2.288  16.758  1.5910  0.6896  1.5777
 5402SOL     OW27841   4.299   1.464   3.342  0.4736 -0.4900 -0.3729
 5402SOL    HW127842   4.217   1.434   3.381  0.1128  0.4197 -0.4356
 5402SOL    HW227843   4.288   1.559   3.350  0.2448 -0.5060 -0.5123
 5403SOL     OW27844   3.398   0.828   8.118  0.5648 -0.0330 -0.6031
 5403SOL    HW127845   3.477   0.856   8.164 -0.2834  1.2160  0.0639
 5403SOL    HW227846   3.422   0.736   8.103  0.0184 -0.1762 -0.5752
 5404SOL     OW27847   1.068   3.253   3.517  0.2694 -0.5609  0.4572
 5404SOL    HW127848   1.155   3.262   3.480  0.4871  0.0972  1.1329
 5404SOL    HW227849   1.060   3.347   3.532  1.5402 -0.6492  1.6482
 5405SOL     OW27850   2.383   4.450   3.435  0.3230 -0.0054 -0.4003
 5405SOL    HW127851   2.332   4.414   3.363  0.0509  0.4554 -0.4351
 5405SOL    HW227852   2.339   4.535   3.440 -1.4495 -1.0303  1.3958
 5406SOL     OW27853   4.691   0.429   0.215  0.3783  0.0268 -0.5105
 5406SOL    HW127854   4.646   0.464   0.293  1.3233  2.2896 -0.9789
 5406SOL    HW227855   4.698   0.515   0.174  1.6335  0.0497 -0.2300
 5407SOL     OW27856   2.040   2.504   4.823  0.3052 -0.1967 -0.1649
 5407SOL    HW127857   2.030   2.422   4.870  2.4780 -1.2640 -1.5843
 5407SOL    HW227858   2.101   2.559   4.872 -0.2955 -0.0009  0.3644
 5408SOL     OW27859   3.075   1.064   1.267 -0.0120 -0.0886  0.2487
 5408SOL    HW127860   3.042   1.099   1.350  0.4976 -0.1065  0.4615
 5408SOL    HW227861   3.167   1.090   1.268  1.2140 -4.3414 -1.1133
 5409SOL     OW27862   3.946   1.792   6.350 -0.3109  0.2166  0.0927
 5409SOL    HW127863   3.926   1.869   6.403 -1.8608  0.1688 -0.4211
 5409SOL    HW227864   3.938   1.820   6.259 -3.0294 -0.0444  0.2455
 5410SOL     OW27865   3.266   3.420  14.433 -0.2353  0.6419 -0.2672
 5410SOL    HW127866   3.246   3.353  14.368 -0.1154 -0.5984  0.9491
 5410SOL    HW227867   3.225   3.496  14.393 -0.9672  0.0162 -0.7049
 5411SOL     OW27868   1.377   3.134  15.823  0.0862 -0.0485  0.0142
 5411SOL    HW127869   1.369   3.213  15.875  0.0921 -2.2542  3.3932
 5411SOL    HW227870   1.349   3.176  15.742  3.6060  1.0799 -0.6230
 5412SOL     OW27871   3.473   2.818   9.809  0.4275 -0.0433  0.5581
 5412SOL    HW127872   3.537   2.768   9.760  1.8163  1.3671  0.9371
 5412SOL    HW227873   3.498   2.793   9.898  0.6675  1.0702  0.8030
 5413SOL     OW27874   0.310   2.648  13.229 -0.7225 -0.2103 -0.2504
 5413SOL    HW127875   0.241   2.586  13.205 -1.0036 -0.7942  2.0522
 5413SOL    HW227876   0.388   2.612  13.187 -0.2736  0.4187  0.0588
 5414SOL     OW27877   2.386   4.396   3.749 -0.4229 -0.0244 -0.0851
 5414SOL    HW127878   2.376   4.405   3.654  0.1685 -1.5781 -0.2893
 5414SOL    HW227879   2.361   4.483   3.778  0.2250  0.1207  0.0135
 5415SOL     OW27880   1.118   2.238   7.595 -0.1259 -0.0275  1.0314
 5415SOL    HW127881   1.052   2.300   7.563 -0.2648 -1.2466 -1.0186
 5415SOL    HW227882   1.093   2.157   7.551 -0.3706  0.8264 -0.4176
 5416SOL     OW27883   3.119   2.702  10.079 -0.2680  0.1270 -0.0574
 5416SOL    HW127884   3.168   2.673  10.002 -2.2069 -0.9035 -0.8979
 5416SOL    HW227885   3.114   2.620  10.128 -2.0293  0.3058  0.0690
 5417SOL     OW27886   2.614   1.167   5.640 -0.3476  0.4365  0.4747
 5417SOL    HW127887   2.699   1.137   5.608 -0.4413 -0.7202  1.3280
 5417SOL    HW227888   2.611   1.257   5.608 -0.6893  0.4150  0.4514
 5418SOL     OW27889   4.106   1.203  16.922  0.7518  0.3083 -0.4504
 5418SOL    HW127890   4.036   1.165  16.975 -0.1919 -0.1525 -2.0369
 5418SOL    HW227891   4.165   1.130  16.902 -0.8645 -1.1015 -0.0997
 5419SOL     OW27892   1.366   4.398   3.425 -0.3968  0.3232 -0.5722
 5419SOL    HW127893   1.438   4.458   3.442  0.5670 -0.8843 -0.3926
 5419SOL    HW227894   1.378   4.376   3.333  1.7531 -2.8323  0.4788
 5420SOL     OW27895   4.165   3.293   8.091 -0.0716  0.0516  0.8552
 5420SOL    HW127896   4.140   3.228   8.025 -0.5834  1.8542 -0.7406
 5420SOL    HW227897   4.123   3.367   8.048  0.5404  0.0194  0.1991
 5421SOL     OW27898   3.359   2.370   4.483  0.2490 -0.0428  0.0892
 5421SOL    HW127899   3.392   2.400   4.567 -0.9432 -0.5446  0.7355
 5421SOL    HW227900   3.383   2.443   4.426  0.5583 -0.5056 -0.3881
 5422SOL     OW27901   1.004   0.888   3.132 -0.1108 -0.6265 -0.0267
 5422SOL    HW127902   0.952   0.835   3.070 -0.5521  2.5542 -2.3833
 5422SOL    HW227903   0.938   0.939   3.178 -0.4909 -1.8374  0.7765
 5423SOL     OW27904   0.949   4.687   7.330 -0.1531 -0.0930  0.5505
 5423SOL    HW127905   0.961   4.638   7.249  0.2647 -0.2202  0.6877
 5423SOL    HW227906   1.035   4.730   7.322 -0.7720  1.1296  0.4627
 5424SOL     OW27907   2.022   1.520   3.010 -0.0964  0.0545  0.0658
 5424SOL    HW127908   2.112   1.544   2.988 -1.5088  0.6354 -5.0460
 5424SOL    HW227909   1.979   1.604   2.996 -1.4222 -0.9914 -2.0989
 5425SOL     OW27910   2.049   2.670   6.901  0.2895 -0.3235 -0.2936
 5425SOL    HW127911   1.955   2.665   6.883  0.2207  0.4122 -0.1252
 5425SOL    HW227912   2.049   2.653   6.995 -4.1611 -0.9452 -0.4084
 5426SOL     OW27913   3.705   2.304   5.445 -0.1499 -0.1481 -0.4112
 5426SOL    HW127914   3.704   2.308   5.541 -0.3961  1.0180 -0.4545
 5426SOL    HW227915   3.797   2.284   5.427  0.0382  0.3700 -0.0483
 5427SOL     OW27916   1.296   2.807  10.814 -0.2296  0.2036  0.4937
 5427SOL    HW127917   1.252   2.752  10.878  0.5477 -1.6859 -0.5927
 5427SOL    HW227918   1.364   2.842  10.872 -0.0704  0.1007  0.3714
 5428SOL     OW27919   3.498   2.121   8.368 -0.3781  0.2050  0.1616
 5428SOL    HW127920   3.442   2.111   8.291  1.5509  1.0263 -1.3783
 5428SOL    HW227921   3.448   2.103   8.447 -0.5557  1.7689  0.4059
 5429SOL     OW27922   2.690   1.016   7.542  0.8014  0.8107  0.1188
 5429SOL    HW127923   2.652   1.003   7.455  0.5248  1.4641  0.1357
 5429SOL    HW227924   2.730   0.930   7.551 -0.1325  0.3346 -0.3521
 5430SOL     OW27925   4.505   3.919   6.018 -0.6168  0.1804  0.9223
 5430SOL    HW127926   4.528   4.011   6.004  1.1049 -0.6065 -1.4572
 5430SOL    HW227927   4.437   3.910   5.951  1.7001 -2.6999 -1.0391
 5431SOL     OW27928   2.896   1.401   7.485  0.1715  0.3694 -0.2869
 5431SOL    HW127929   2.883   1.423   7.578 -0.5899 -0.8256 -0.1150
 5431SOL    HW227930   2.877   1.484   7.441  0.4971 -0.7842 -2.5735
 5432SOL     OW27931   3.491   2.316   2.199  0.1331  0.1494 -0.7873
 5432SOL    HW127932   3.481   2.242   2.138  3.0722  0.6391 -1.8921
 5432SOL    HW227933   3.421   2.374   2.170  0.7796  1.9660  1.3346
 5433SOL     OW27934   1.446   1.663   5.146 -0.1758  0.3231  0.0930
 5433SOL    HW127935   1.425   1.570   5.133 -0.6295  0.4994 -0.4579
 5433SOL    HW227936   1.360   1.704   5.145 -0.0815  0.5242  0.5540
 5434SOL     OW27937   2.605   1.207   2.882 -0.6012  0.5739 -0.2549
 5434SOL    HW127938   2.579   1.244   2.966  0.9290 -0.2816  0.6039
 5434SOL    HW227939   2.526   1.160   2.855 -0.0799 -0.1629 -0.4956
 5435SOL     OW27940   2.183   2.218   2.241 -0.5754 -0.2975  0.1061
 5435SOL    HW127941   2.226   2.218   2.327  1.4672  1.6559 -0.9236
 5435SOL    HW227942   2.251   2.163   2.202  1.2932  0.4521  2.2591
 5436SOL     OW27943   2.295   0.891   9.264 -0.5044 -0.4297 -0.4857
 5436SOL    HW127944   2.215   0.941   9.250  1.3449  2.7984  0.3886
 5436SOL    HW227945   2.292   0.866   9.357 -1.2814 -1.1801 -0.7177
 5437SOL     OW27946   4.558   2.742   7.987 -0.3561  0.3983 -0.2009
 5437SOL    HW127947   4.517   2.821   8.023  2.4576  2.0878 -0.7001
 5437SOL    HW227948   4.644   2.781   7.971  0.3290 -0.9262  0.2363
 5438SOL     OW27949   0.818   3.845   9.526 -0.4210  0.0322 -0.4044
 5438SOL    HW127950   0.848   3.755   9.520  0.7386  0.6175 -3.4106
 5438SOL    HW227951   0.841   3.888   9.443 -2.5404 -0.3695 -1.2003
 5439SOL     OW27952   1.573   2.990   7.019 -0.0770 -0.0131 -0.1977
 5439SOL    HW127953   1.623   2.913   7.046 -0.3631 -0.1848 -0.1542
 5439SOL    HW227954   1.618   3.008   6.936  1.9079 -1.9331  0.4676
 5440SOL     OW27955   1.821   1.432  17.610 -0.1494  0.9649 -0.2646
 5440SOL    HW127956   1.870   1.425  17.528  2.2244  1.3429  1.1171
 5440SOL    HW227957   1.887   1.479  17.661 -0.8263  0.8602  0.6985
 5441SOL     OW27958   1.932   0.118   5.438  0.5179 -0.3975 -0.1776
 5441SOL    HW127959   1.915   0.075   5.354  0.8042 -0.6330 -0.1132
 5441SOL    HW227960   1.864   0.185   5.439  1.5413  0.6725 -1.0629
 5442SOL     OW27961   0.335   0.370   3.511  0.2327 -0.1042 -0.1507
 5442SOL    HW127962   0.271   0.386   3.442  1.0883  0.4639 -0.8245
 5442SOL    HW227963   0.275   0.374   3.586 -0.1551  1.3834 -0.5403
 5443SOL     OW27964   1.449   2.607   6.791 -0.1926  0.4662  0.4991
 5443SOL    HW127965   1.510   2.562   6.733  1.9727  1.9537  1.6514
 5443SOL    HW227966   1.438   2.687   6.739 -0.6365 -1.0389 -1.7049
 5444SOL     OW27967   0.804   2.066   8.143 -0.2080 -0.4079  0.1028
 5444SOL    HW127968   0.851   2.124   8.204  2.6053 -1.6969 -0.8419
 5444SOL    HW227969   0.753   2.130   8.092 -0.7136 -0.2690  0.7870
 5445SOL     OW27970   1.159   1.671   5.828 -0.2797 -0.3944 -0.1900
 5445SOL    HW127971   1.211   1.752   5.828 -0.5341 -0.2283 -2.5721
 5445SOL    HW227972   1.096   1.686   5.900  0.5665  0.7006  0.3322
 5446SOL     OW27973   2.873   4.571   5.825 -0.0210  0.3572 -0.0627
 5446SOL    HW127974   2.941   4.569   5.757 -0.0030  1.5016 -0.0760
 5446SOL    HW227975   2.896   4.647   5.878  0.4710  1.2067 -1.4702
 5447SOL     OW27976   4.014   3.971  12.194  0.2217 -0.0170 -0.0411
 5447SOL    HW127977   3.945   3.998  12.254 -2.7477 -3.0765 -2.0645
 5447SOL    HW227978   4.079   3.938  12.256 -0.0722  0.4574  0.5155
 5448SOL     OW27979   3.676   3.371   4.441 -0.3002  0.2075 -0.0546
 5448SOL    HW127980   3.701   3.286   4.479  0.1199  1.1355  1.7989
 5448SOL    HW227981   3.634   3.418   4.513 -0.3086 -0.6808  0.5263
 5449SOL     OW27982   1.222   1.702   3.894  0.4450 -0.1925 -0.7671
 5449SOL    HW127983   1.187   1.621   3.931  0.8842 -0.4056 -0.8154
 5449SOL    HW227984   1.190   1.699   3.804 -1.1306  0.4936 -0.2209
 5450SOL     OW27985   4.223   0.585   8.750 -0.2017  0.0315 -0.8201
 5450SOL    HW127986   4.309   0.609   8.715  0.4803  1.3395  1.7197
 5450SOL    HW227987   4.257   0.566   8.838 -1.9408 -0.5452 -0.2741
 5451SOL     OW27988   0.002   1.980   6.741 -0.2958 -0.1482  0.1476
 5451SOL    HW127989   0.022   1.968   6.648 -1.2531  1.0365 -0.2158
 5451SOL    HW227990   0.025   1.896   6.782 -0.2347  1.0456  2.5625
 5452SOL     OW27991   2.969   4.305   1.480 -0.3167 -0.7845 -0.0749
 5452SOL    HW127992   2.971   4.215   1.512 -3.0670 -1.2027 -1.0650
 5452SOL    HW227993   3.001   4.311   1.390 -2.5776 -0.3195 -0.8637
 5453SOL     OW27994   1.311   1.130  11.855 -0.1224  0.4251 -0.4309
 5453SOL    HW127995   1.241   1.088  11.905  0.4008 -0.5645 -0.5391
 5453SOL    HW227996   1.374   1.122  11.926  0.4104  0.3563 -0.9114
 5454SOL     OW27997   4.409   4.546   7.958 -0.4724 -0.4565 -0.0558
 5454SOL    HW127998   4.347   4.556   8.030 -2.0871 -0.6620 -1.4286
 5454SOL    HW227999   4.461   4.473   7.991 -0.6159  0.0575  1.2832
 5455SOL     OW28000   1.559   4.535   9.056  0.7135  0.2749 -0.7440
 5455SOL    HW128001   1.626   4.549   8.989  0.5506  1.2402 -0.7044
 5455SOL    HW228002   1.617   4.514   9.130 -0.3695 -1.4811 -0.4001
 5456SOL     OW28003   2.139   1.929   2.779 -0.3852  0.3211 -0.4089
 5456SOL    HW128004   2.166   1.846   2.817  0.9786  1.2502  0.6545
 5456SOL    HW228005   2.138   1.904   2.686 -3.4482  0.9096 -0.5423
 5457SOL     OW28006   0.347   1.251   5.034  0.2255  0.2763 -0.3389
 5457SOL    HW128007   0.336   1.335   5.079  1.2810  0.4656 -0.4306
 5457SOL    HW228008   0.294   1.257   4.954 -1.2548 -0.7104  0.5694
 5458SOL     OW28009   3.293   3.863   0.796  0.1988  0.0817  0.5863
 5458SOL    HW128010   3.357   3.883   0.727  0.7449 -0.2963  0.9740
 5458SOL    HW228011   3.253   3.949   0.810  2.5352  1.3221 -0.3603
 5459SOL     OW28012   0.636   0.765   6.588 -0.0465 -0.5050  0.3025
 5459SOL    HW128013   0.552   0.726   6.565  1.2570 -2.7555 -0.5572
 5459SOL    HW228014   0.687   0.685   6.595  0.7823  0.0535  0.6167
 5460SOL     OW28015   4.434   0.664   6.594  0.4895 -0.0819  0.7844
 5460SOL    HW128016   4.341   0.684   6.608  0.3022 -1.2756  1.2630
 5460SOL    HW228017   4.450   0.708   6.510 -1.0069  0.7096  0.9005
 5461SOL     OW28018   2.029   3.688   8.562  0.5277 -0.3434 -0.0048
 5461SOL    HW128019   2.045   3.767   8.511 -2.0054  2.7849  4.0073
 5461SOL    HW228020   2.022   3.725   8.651 -0.2036 -1.3319  0.3474
 5462SOL     OW28021   1.398   4.137   1.342  0.2101  0.2344 -0.7361
 5462SOL    HW128022   1.462   4.124   1.412  0.1608 -1.5426 -1.0324
 5462SOL    HW228023   1.431   4.221   1.308 -0.2260  0.4164 -0.7060
 5463SOL     OW28024   4.723   2.251   5.451  0.4316 -0.7779 -0.2305
 5463SOL    HW128025   0.063   2.210   5.483  2.0059  1.5155 -1.2096
 5463SOL    HW228026   4.725   2.333   5.500  0.4086 -2.0190  1.8273
 5464SOL     OW28027   1.301   2.841  16.346  0.4458  0.1603  0.0637
 5464SOL    HW128028   1.380   2.818  16.298 -0.2376 -0.9285 -0.5352
 5464SOL    HW228029   1.250   2.849  16.265  0.3602 -0.3038  0.0720
 5465SOL     OW28030   4.612   4.638  12.083 -0.3373 -0.2494  0.2105
 5465SOL    HW128031   4.676   4.668  12.018 -0.7227  1.4656  0.6227
 5465SOL    HW228032   4.666   4.595  12.149 -0.1101  1.7145  1.2990
 5466SOL     OW28033   1.432   4.032  15.182  0.0854 -0.3942  0.6022
 5466SOL    HW128034   1.468   4.120  15.175 -1.3583  0.1413 -0.0217
 5466SOL    HW228035   1.382   4.043  15.263 -0.1820 -1.3158  0.5629
 5467SOL     OW28036   0.435   0.111   7.685 -0.1402 -0.1044 -0.5200
 5467SOL    HW128037   0.383   0.173   7.736 -0.0201 -0.3670 -0.0777
 5467SOL    HW228038   0.506   0.165   7.650 -0.1781  0.8504  0.8650
 5468SOL     OW28039   0.712   1.064  15.320  0.1813 -0.1266 -0.2988
 5468SOL    HW128040   0.618   1.048  15.317 -0.0567  1.3311 -1.0445
 5468SOL    HW228041   0.714   1.133  15.386 -2.0239  0.6204 -1.0019
 5469SOL     OW28042   3.842   1.781   0.650  0.1706  0.4366 -0.0193
 5469SOL    HW128043   3.875   1.861   0.691 -0.4604  1.1177 -0.8368
 5469SOL    HW228044   3.876   1.791   0.561  1.3381 -2.1058  0.1267
 5470SOL     OW28045   4.577   3.247   1.016  0.2934 -0.1088 -0.0729
 5470SOL    HW128046   4.612   3.242   1.104  0.2195  1.6490  0.0603
 5470SOL    HW228047   4.527   3.328   1.013 -0.4412 -0.6174 -1.6376
 5471SOL     OW28048   4.487   1.393   8.096  0.4756  0.3064 -0.0838
 5471SOL    HW128049   4.580   1.392   8.120 -0.1161  0.7495  2.2359
 5471SOL    HW228050   4.452   1.315   8.138  1.3601  1.4152  2.7378
 5472SOL     OW28051   1.166   2.402  13.900  0.5022 -0.2034  0.0525
 5472SOL    HW128052   1.240   2.413  13.960  0.8533  0.4689 -0.4988
 5472SOL    HW228053   1.103   2.381  13.968  0.4249 -1.8306 -0.5173
 5473SOL     OW28054   3.070   2.957   6.081 -0.3039  0.1331  0.3341
 5473SOL    HW128055   3.125   2.891   6.040 -0.9686 -1.2267  1.6317
 5473SOL    HW228056   2.981   2.939   6.050  0.5020 -1.6942 -0.8826
 5474SOL     OW28057   1.745   2.937  12.260  0.5261  0.1453  0.6869
 5474SOL    HW128058   1.817   2.982  12.303  0.0536  0.1081  1.5300
 5474SOL    HW228059   1.770   2.929  12.168 -0.1293 -0.1022  0.5242
 5475SOL     OW28060   3.448   1.959  11.971  0.3707 -0.1753 -0.7681
 5475SOL    HW128061   3.534   1.952  11.930 -0.3413 -0.6201 -2.1833
 5475SOL    HW228062   3.463   1.907  12.050  1.5221  2.1080  0.5116
 5476SOL     OW28063   1.122   1.584   9.293  0.0291 -0.2017  0.2744
 5476SOL    HW128064   1.205   1.582   9.341 -0.7195  1.0821  1.5943
 5476SOL    HW228065   1.111   1.676   9.269 -0.5067 -0.1476  0.7298
 5477SOL     OW28066   4.622   1.004  12.566 -0.6540 -0.0116  0.0962
 5477SOL    HW128067   4.706   0.959  12.559 -0.5455  0.0470  0.9309
 5477SOL    HW228068   4.650   1.083  12.518  1.2200  0.5519  2.0916
 5478SOL     OW28069   2.986   0.116  15.893  0.2152 -0.8587  0.2619
 5478SOL    HW128070   3.073   0.142  15.926 -0.8173  0.1688  2.2155
 5478SOL    HW228071   2.999   0.151  15.805  0.3610  0.0106  0.6189
 5479SOL     OW28072   0.349   3.060   3.101  0.5704  0.3555 -0.7492
 5479SOL    HW128073   0.334   3.014   3.018  0.1958 -1.6710  0.4467
 5479SOL    HW228074   0.437   3.096   3.093  0.6653  0.4567  0.6876
 5480SOL     OW28075   2.766   2.353   1.815 -0.1095 -0.3141  0.3868
 5480SOL    HW128076   2.852   2.384   1.845 -0.2905  0.5563  0.0188
 5480SOL    HW228077   2.740   2.417   1.749  0.5667 -0.0539  0.3749
 5481SOL     OW28078   2.532   0.722  16.650 -0.4471 -0.0577  0.3333
 5481SOL    HW128079   2.531   0.630  16.622  0.5682 -0.4493  1.6004
 5481SOL    HW228080   2.479   0.766  16.583  0.7595 -1.2244 -1.4111
 5482SOL     OW28081   3.406   2.480   8.652 -0.4641 -0.2352  0.0990
 5482SOL    HW128082   3.360   2.440   8.578  0.6319  0.2045 -0.8148
 5482SOL    HW228083   3.478   2.418   8.660  0.1671  0.3438 -1.2269
 5483SOL     OW28084   1.588   3.237   4.789 -0.0081 -0.1470  0.1793
 5483SOL    HW128085   1.521   3.205   4.850  1.0649 -2.7714 -0.0155
 5483SOL    HW228086   1.539   3.251   4.708 -0.1184 -0.2839  0.2221
 5484SOL     OW28087   2.886   1.460  16.041 -0.2435 -0.7461  0.3412
 5484SOL    HW128088   2.805   1.433  16.085 -1.2350  1.1162 -0.3382
 5484SOL    HW228089   2.905   1.542  16.086 -0.1621 -0.8181  0.4382
 5485SOL     OW28090   4.214   0.499   4.800  0.3216 -0.5607 -0.0889
 5485SOL    HW128091   4.273   0.539   4.864 -0.4170  1.0929 -0.4538
 5485SOL    HW228092   4.170   0.445   4.866 -2.0287  2.2743  0.6656
 5486SOL     OW28093   3.513   2.242   4.025  0.0867 -0.0443 -0.2843
 5486SOL    HW128094   3.581   2.178   4.049  0.1874 -0.6816 -2.2833
 5486SOL    HW228095   3.487   2.268   4.114 -3.1245 -0.9081 -0.9821
 5487SOL     OW28096   3.238   1.402  12.481  0.2660 -0.4663 -0.1308
 5487SOL    HW128097   3.174   1.381  12.549 -1.0906  1.7641 -0.7017
 5487SOL    HW228098   3.285   1.474  12.522 -1.2819  0.3852  0.1663
 5488SOL     OW28099   1.552   3.804   8.137  0.6589 -0.4051 -0.7926
 5488SOL    HW128100   1.557   3.846   8.051  0.6555 -0.8710 -1.0156
 5488SOL    HW228101   1.642   3.817   8.167  0.1954  0.7096  0.1474
 5489SOL     OW28102   1.953   4.094   5.125 -0.8436 -0.8126 -0.0533
 5489SOL    HW128103   1.884   4.075   5.188  0.3738  0.4987  1.6662
 5489SOL    HW228104   1.913   4.070   5.041 -0.3472  0.9681 -0.8087
 5490SOL     OW28105   3.494   2.763  10.792 -0.5812  0.0612  0.4613
 5490SOL    HW128106   3.501   2.856  10.815 -0.3226 -0.1407  1.2052
 5490SOL    HW228107   3.584   2.739  10.768 -0.3668 -1.3590  2.6712
 5491SOL     OW28108   0.955   1.016   1.081 -0.4740 -0.0651  0.1839
 5491SOL    HW128109   0.884   1.068   1.044  1.1633  1.4161 -0.9087
 5491SOL    HW228110   0.922   0.927   1.090  0.5773 -0.4666  0.1044
 5492SOL     OW28111   0.097   4.247   7.116 -0.1907  0.7165 -0.5099
 5492SOL    HW128112   0.152   4.262   7.193 -0.4163  0.5219 -0.3100
 5492SOL    HW228113   0.016   4.284   7.152  0.8114  2.6413 -0.2376
 5493SOL     OW28114   4.128   3.839   3.799  0.0664  0.4134 -0.1510
 5493SOL    HW128115   4.126   3.753   3.841 -1.0094  0.1580 -0.7072
 5493SOL    HW228116   4.041   3.867   3.827  0.3880  1.0730  0.1876
 5494SOL     OW28117   3.212   1.246   5.435  0.3338 -0.2114  0.9941
 5494SOL    HW128118   3.153   1.174   5.411  1.0817  0.0242 -1.5134
 5494SOL    HW228119   3.157   1.318   5.467  0.4715 -0.3222  1.4814
 5495SOL     OW28120   2.613   4.227   6.646  0.6199  0.5829 -0.3510
 5495SOL    HW128121   2.676   4.275   6.591 -1.0857  3.7845  0.4975
 5495SOL    HW228122   2.580   4.297   6.702 -0.9316  0.1364 -0.7024
 5496SOL     OW28123   3.894   2.728   7.497  0.3236 -0.0125  0.2801
 5496SOL    HW128124   3.962   2.668   7.530 -1.3614 -1.8059  0.4917
 5496SOL    HW228125   3.904   2.805   7.554 -2.2426  1.5413 -1.4078
 5497SOL     OW28126   1.606   4.051   8.709 -0.0032 -0.3114  0.4607
 5497SOL    HW128127   1.528   4.057   8.765 -0.0291 -0.2704  0.4206
 5497SOL    HW228128   1.672   4.104   8.755  0.8361 -0.8194 -0.1714
 5498SOL     OW28129   0.847   1.894   2.318  0.1206 -0.3572 -0.2815
 5498SOL    HW128130   0.856   1.978   2.364  0.8775 -1.0115  0.7524
 5498SOL    HW228131   0.869   1.918   2.228  0.2896 -0.2076 -0.2022
 5499SOL     OW28132   2.651   3.330   3.206  0.1201 -0.1811 -0.0183
 5499SOL    HW128133   2.699   3.402   3.163 -0.4114 -1.2941 -2.5002
 5499SOL    HW228134   2.697   3.329   3.290  1.2204  0.9138 -0.6022
 5500SOL     OW28135   4.242   0.314   0.451  0.4091  0.2843 -0.2482
 5500SOL    HW128136   4.191   0.243   0.490 -0.5925  1.8677  1.3184
 5500SOL    HW228137   4.273   0.366   0.525  2.2600  0.2450 -1.0048
 5501SOL     OW28138   0.382   3.629   8.270  0.2085 -0.3907 -0.0947
 5501SOL    HW128139   0.303   3.651   8.220  0.3914  0.8190  0.1555
 5501SOL    HW228140   0.333   3.617   8.352 -1.0904  1.5120 -0.5940
 5502SOL     OW28141   0.326   1.635   4.451 -0.4882  0.3884  0.5164
 5502SOL    HW128142   0.418   1.639   4.427 -0.6963 -2.5318 -0.7376
 5502SOL    HW228143   0.299   1.725   4.470 -0.5525  0.8825 -1.9473
 5503SOL     OW28144   1.009   2.202   3.951 -0.0632  0.2351  0.3907
 5503SOL    HW128145   1.002   2.108   3.930  1.4078  0.1416  0.3056
 5503SOL    HW228146   1.046   2.198   4.039 -0.6348  0.9373  0.6547
 5504SOL     OW28147   0.548   1.634   0.107 -0.0509 -0.2461  0.0372
 5504SOL    HW128148   0.536   1.550   0.152 -0.9976  0.8242  1.7769
 5504SOL    HW228149   0.630   1.668   0.142  1.1484 -0.5152 -2.4760
 5505SOL     OW28150   2.664   4.491   7.088 -0.3983 -0.3799  0.3598
 5505SOL    HW128151   2.592   4.433   7.065  0.9727 -3.1352  2.8687
 5505SOL    HW228152   2.621   4.573   7.064  0.1083  0.1016  1.0919
 5506SOL     OW28153   1.729   2.572   2.426 -0.0079 -0.5025  0.7374
 5506SOL    HW128154   1.677   2.619   2.361 -1.5306 -1.2261  1.4337
 5506SOL    HW228155   1.667   2.505   2.455 -0.4598 -0.1790  0.5237
 5507SOL     OW28156   3.666   4.103   7.239  0.5640  0.4049 -0.2960
 5507SOL    HW128157   3.737   4.046   7.266  0.4433  0.4360  0.0909
 5507SOL    HW228158   3.684   4.174   7.301 -1.5014 -0.4912  1.3728
 5508SOL     OW28159   3.168   2.107   2.597 -0.5026  0.2416 -0.4952
 5508SOL    HW128160   3.080   2.145   2.592  0.6382  2.7159 -1.5755
 5508SOL    HW228161   3.168   2.064   2.683 -1.9507  0.1972 -0.5116
 5509SOL     OW28162   4.174   1.467   8.071 -0.0297 -0.0791 -0.2851
 5509SOL    HW128163   4.139   1.548   8.033 -1.8555 -1.7112 -2.0998
 5509SOL    HW228164   4.254   1.460   8.020 -0.1708  0.6917 -0.6036
 5510SOL     OW28165   1.929   3.379   7.266  0.7970  0.3291 -0.4658
 5510SOL    HW128166   1.897   3.342   7.349  0.3802  0.8955 -0.3713
 5510SOL    HW228167   1.849   3.367   7.214 -0.1332  0.0913  1.0172
 5511SOL     OW28168   1.265   3.556   0.366 -0.0039  0.0417 -0.3782
 5511SOL    HW128169   1.268   3.546   0.461 -1.0563  0.5484 -0.2978
 5511SOL    HW228170   1.350   3.600   0.353  1.6631 -2.4738  2.0081
 5512SOL     OW28171   4.361   4.058   7.542 -0.4194 -0.5458  0.3324
 5512SOL    HW128172   4.330   4.052   7.452  0.9370  0.3568 -0.1944
 5512SOL    HW228173   4.355   4.150   7.569  0.5254 -0.2348 -0.5412
 5513SOL     OW28174   1.812   3.044   7.297  0.0582  0.1853 -0.2414
 5513SOL    HW128175   1.745   2.986   7.333  0.5620 -0.6415 -0.6225
 5513SOL    HW228176   1.769   3.128   7.290  0.3548  0.1931 -1.8845
 5514SOL     OW28177   0.997   1.682  12.631 -0.3506  0.4658  0.0157
 5514SOL    HW128178   1.039   1.608  12.587  0.7583  1.6357 -0.8900
 5514SOL    HW228179   0.978   1.739  12.557 -1.9291 -1.6191 -1.1831
 5515SOL     OW28180   4.628   3.488  14.836  0.8382 -0.4279 -0.9984
 5515SOL    HW128181   4.595   3.470  14.924 -0.2013 -0.1733 -1.3454
 5515SOL    HW228182   4.723   3.496  14.846  0.5023 -0.2782  2.0464
 5516SOL     OW28183   0.423   0.635   4.104 -0.4644 -0.5170  0.2288
 5516SOL    HW128184   0.449   0.578   4.031 -0.8000  0.3613 -0.5744
 5516SOL    HW228185   0.490   0.703   4.100  0.8612 -1.7519  1.4907
 5517SOL     OW28186   0.792   0.965  10.756  0.1661  0.2651 -0.7217
 5517SOL    HW128187   0.856   0.972  10.685  1.2482 -0.5413  0.1557
 5517SOL    HW228188   0.767   0.874  10.768  0.1696  0.3289 -0.2018
 5518SOL     OW28189   3.963   3.156  16.865 -0.4419  0.2227 -0.3405
 5518SOL    HW128190   3.885   3.210  16.878 -1.3727 -1.1183 -0.2777
 5518SOL    HW228191   3.912   3.074  16.863 -0.1851  0.0650 -0.4937
 5519SOL     OW28192   2.384   0.228   8.097 -0.4676 -0.2272 -0.1875
 5519SOL    HW128193   2.466   0.197   8.133 -1.3698  1.2648  3.1204
 5519SOL    HW228194   2.334   0.231   8.178 -1.7438 -1.0304 -0.9408
 5520SOL     OW28195   3.551   3.833  17.321  0.6371  0.0423  0.5993
 5520SOL    HW128196   3.494   3.909  17.326  0.6587  0.1615 -1.0132
 5520SOL    HW228197   3.540   3.815  17.227 -1.2657 -0.4269  0.9220
 5521SOL     OW28198   0.097   2.849   7.964  0.1596 -0.1106  0.3948
 5521SOL    HW128199   0.180   2.891   7.943  0.1907 -0.2445  0.2503
 5521SOL    HW228200   0.076   2.815   7.877  0.4374  1.1332 -0.1549
 5522SOL     OW28201   0.917   2.929   9.720  0.0593 -0.2572 -0.0317
 5522SOL    HW128202   0.954   2.880   9.794  1.2756  0.2914 -0.2819
 5522SOL    HW228203   0.900   3.015   9.757  0.0784 -0.0082 -0.6058
 5523SOL     OW28204   0.233   0.745   3.226  0.7271  0.4874  0.8082
 5523SOL    HW128205   0.303   0.682   3.208 -0.0758 -0.5521  1.4091
 5523SOL    HW228206   0.274   0.789   3.301  1.2600 -0.7825  1.2558
 5524SOL     OW28207   4.634   2.849   7.658 -0.3631 -0.0789 -0.5005
 5524SOL    HW128208   4.680   2.766   7.647  1.3635  0.7711  0.3055
 5524SOL    HW228209   4.708   2.906   7.639 -1.3403  1.2233 -0.4144
 5525SOL     OW28210   0.745   4.613   8.894 -0.4108  0.4463 -0.0748
 5525SOL    HW128211   0.839   4.605   8.874 -0.4498  0.6512 -0.3413
 5525SOL    HW228212   0.711   4.543   8.840  0.7995  0.8346 -1.3429
 5526SOL     OW28213   4.418   2.943   8.151 -0.0858  0.1203  0.1106
 5526SOL    HW128214   4.324   2.952   8.137  0.0674  0.1487 -0.9346
 5526SOL    HW228215   4.414   2.900   8.236 -0.9301  0.5208  0.2713
 5527SOL     OW28216   4.423   0.273   2.378  0.2818  0.5511 -0.4292
 5527SOL    HW128217   4.510   0.276   2.418 -0.1129 -1.3564  0.5491
 5527SOL    HW228218   4.422   0.187   2.337 -2.1886  1.0603 -1.4036
 5528SOL     OW28219   3.369   3.770  11.381 -0.3178 -0.0226 -0.8283
 5528SOL    HW128220   3.337   3.828  11.312  0.2485 -1.2928 -2.1573
 5528SOL    HW228221   3.346   3.689  11.337 -0.5008  0.8494 -2.3365
 5529SOL     OW28222   4.644   0.020  10.918 -0.0392 -0.1561 -0.2870
 5529SOL    HW128223   4.553   4.734  10.934 -0.3292  1.1192  0.0938
 5529SOL    HW228224   4.642   0.032  10.823  1.7512  1.9636 -0.0289
 5530SOL     OW28225   4.382   4.178   6.624 -0.0074  0.1966  0.1922
 5530SOL    HW128226   4.380   4.090   6.663  1.3063 -0.1171 -0.4584
 5530SOL    HW228227   4.288   4.193   6.637 -0.3130 -3.0892  1.9201
 5531SOL     OW28228   1.837   3.326   0.586 -0.0990  0.4556  0.2435
 5531SOL    HW128229   1.847   3.353   0.677 -1.8477 -0.4095  0.6983
 5531SOL    HW228230   1.750   3.285   0.588  0.0662  0.0171 -1.7790
 5532SOL     OW28231   2.616   4.712   1.673 -0.2865 -0.0804  0.2616
 5532SOL    HW128232   2.547   0.037   1.686  1.1978  1.3468  1.1101
 5532SOL    HW228233   2.571   4.647   1.620  0.6843 -1.7318  1.4534
 5533SOL     OW28234   3.075   3.650   1.784 -0.1783 -0.2015  0.1216
 5533SOL    HW128235   3.001   3.691   1.829 -0.0690  1.7877 -1.4839
 5533SOL    HW228236   3.038   3.576   1.735 -1.1161 -0.2394  0.9007
 5534SOL     OW28237   0.076   0.897   7.675  0.3682 -0.0284 -0.3082
 5534SOL    HW128238   4.733   0.871   7.633  0.5193 -0.1865 -0.5042
 5534SOL    HW228239   0.105   0.815   7.717  1.9932  0.5431 -0.3491
 5535SOL     OW28240   0.626   0.723  15.235  0.9749 -0.2049 -0.3908
 5535SOL    HW128241   0.569   0.780  15.183  0.9975  1.2154  1.1312
 5535SOL    HW228242   0.565   0.721  15.309 -1.7009  1.3889 -2.5838
 5536SOL     OW28243   2.732   0.897  12.061  0.1802 -0.0728  0.0484
 5536SOL    HW128244   2.690   0.952  12.128  0.1120  0.1223 -0.1573
 5536SOL    HW228245   2.663   0.831  12.058 -1.4024  1.5054  1.2859
 5537SOL     OW28246   1.762   0.083   7.412 -0.4826  0.0382 -0.3324
 5537SOL    HW128247   1.778   0.040   7.328  1.2021 -0.1642  0.0960
 5537SOL    HW228248   1.845   0.067   7.457 -1.2281  2.2131  1.8533
 5538SOL     OW28249   2.651   3.899   0.928 -0.0765 -0.1790 -0.4905
 5538SOL    HW128250   2.644   3.807   0.955 -0.3775 -0.0691 -0.1958
 5538SOL    HW228251   2.626   3.949   1.005  1.3579  0.3825 -0.3921
 5539SOL     OW28252   3.167   0.640  14.383 -0.2988 -0.0884 -0.2577
 5539SOL    HW128253   3.257   0.666  14.364  0.1020 -2.6479 -1.8024
 5539SOL    HW228254   3.185   0.567  14.442  1.6973  1.7892  1.4579
 5540SOL     OW28255   0.115   4.100   5.164  0.2830 -0.4604  0.6046
 5540SOL    HW128256   0.193   4.136   5.205 -1.8867  3.3680  1.2886
 5540SOL    HW228257   0.144   4.038   5.096 -1.1481 -0.6937  0.2042
 5541SOL     OW28258   0.221   4.163   6.642 -0.3619  0.1027  0.0134
 5541SOL    HW128259   0.180   4.147   6.727 -2.3988 -1.9301 -1.3497
 5541SOL    HW228260   0.206   4.258   6.636 -0.5657  0.0594 -0.1568
 5542SOL     OW28261   2.983   4.478  17.603  0.9326  0.2402  0.1118
 5542SOL    HW128262   3.028   4.470  17.519  2.5453 -0.3152  1.0368
 5542SOL    HW228263   2.893   4.473  17.571  1.2107 -0.5768 -0.5238
 5543SOL     OW28264   4.559   2.811   6.816  0.2708  0.4876 -0.0283
 5543SOL    HW128265   4.517   2.754   6.751 -2.8472  1.5942  1.0210
 5543SOL    HW228266   4.505   2.806   6.895  2.3261 -0.1572  1.3396
 5544SOL     OW28267   1.107   2.824  13.279  0.4703 -0.4074  0.5397
 5544SOL    HW128268   1.023   2.869  13.275 -0.3166 -2.0449 -1.0673
 5544SOL    HW228269   1.116   2.811  13.374 -0.0685  3.3793  1.1078
 5545SOL     OW28270   4.632   0.671   5.148  0.8574  0.1112 -0.4030
 5545SOL    HW128271   4.651   0.676   5.242  1.6733 -1.8842 -0.4551
 5545SOL    HW228272   4.708   0.708   5.103 -0.7013  0.2711 -2.8966
 5546SOL     OW28273   2.797   0.091  16.445 -0.3099 -0.4919 -0.6317
 5546SOL    HW128274   2.872   0.101  16.504 -1.5512  0.8322  0.7352
 5546SOL    HW228275   2.761   0.002  16.456  1.8296 -0.9374  2.8772
 5547SOL     OW28276   3.434   3.327   6.468  0.0512  0.1062  0.1566
 5547SOL    HW128277   3.475   3.259   6.522  0.4422  1.1431  1.1704
 5547SOL    HW228278   3.502   3.344   6.402 -0.2651  0.2969 -0.1183
 5548SOL     OW28279   0.772   3.957   6.565  0.1783  0.9145 -0.3435
 5548SOL    HW128280   0.848   4.015   6.567  0.1013  0.9676  1.2125
 5548SOL    HW228281   0.708   4.023   6.591 -0.2748  0.4479 -0.2723
 5549SOL     OW28282   0.513   0.716   4.473  0.0916  0.7574 -0.0447
 5549SOL    HW128283   0.493   0.710   4.566 -0.7878  1.4388 -0.1891
 5549SOL    HW228284   0.602   0.682   4.467 -0.2540 -0.3672  1.3642
 5550SOL     OW28285   4.462   1.449  10.343  0.4272  0.3100 -0.1411
 5550SOL    HW128286   4.453   1.528  10.289  0.9439 -0.3866 -1.2327
 5550SOL    HW228287   4.530   1.479  10.403  0.2753  0.5885 -0.1069
 5551SOL     OW28288   0.819   1.500   3.900 -0.6271 -0.2578  0.2332
 5551SOL    HW128289   0.837   1.476   3.991  1.3041  0.6082  0.0753
 5551SOL    HW228290   0.778   1.424   3.859 -0.7107 -0.0429 -0.0869
 5552SOL     OW28291   0.079   0.910   8.192  0.1922 -0.0872 -0.1802
 5552SOL    HW128292   0.028   0.830   8.179  0.4001 -0.2386 -0.0457
 5552SOL    HW228293   0.128   0.930   8.112 -3.1597  0.3724 -2.1319
 5553SOL     OW28294   3.690   1.373   5.264  0.2573 -0.0079  0.9629
 5553SOL    HW128295   3.604   1.409   5.287 -0.0748 -1.2579  1.6331
 5553SOL    HW228296   3.664   1.282   5.252  0.5640  0.3069 -2.1620
 5554SOL     OW28297   4.430   3.618   5.510 -0.1583 -0.2632  0.4033
 5554SOL    HW128298   4.389   3.539   5.545 -3.3907  0.9932 -0.6329
 5554SOL    HW228299   4.462   3.593   5.423 -1.7051 -0.4232 -0.1092
 5555SOL     OW28300   2.349   3.359   8.959  0.1725  0.1681 -0.1062
 5555SOL    HW128301   2.274   3.409   8.926 -1.1076 -1.3269  0.5059
 5555SOL    HW228302   2.420   3.422   8.956 -0.7841  1.2346 -0.2280
 5556SOL     OW28303   1.973   2.102   2.107 -0.6085 -0.0322  0.2645
 5556SOL    HW128304   2.003   2.028   2.160 -1.7116 -0.0111  0.9389
 5556SOL    HW228305   2.052   2.154   2.119 -0.9552  1.0326 -2.0776
 5557SOL     OW28306   2.800   2.246  13.371  0.5506  0.3290 -0.0150
 5557SOL    HW128307   2.807   2.247  13.276  2.2361 -0.9461  0.1025
 5557SOL    HW228308   2.808   2.152  13.387  0.7466  0.5344  1.0970
 5558SOL     OW28309   3.797   1.399   0.994  0.0312 -0.3600 -0.2917
 5558SOL    HW128310   3.816   1.449   0.914  0.3456  0.4886  0.3059
 5558SOL    HW228311   3.788   1.473   1.055 -1.0735  0.1404 -1.0632
 5559SOL     OW28312   1.146   0.707   3.802  0.2695 -0.4052 -0.2522
 5559SOL    HW128313   1.214   0.659   3.754  1.4112  0.8679  0.0744
 5559SOL    HW228314   1.086   0.634   3.812 -0.4104  0.1941  0.0475
 5560SOL     OW28315   4.640   2.799  14.160  0.5572  0.0998 -0.4167
 5560SOL    HW128316   4.571   2.829  14.100 -1.2990  1.4778  2.3967
 5560SOL    HW228317   4.672   2.879  14.202 -0.5129  0.6474 -0.6512
 5561SOL     OW28318   3.319   2.693   6.359  0.0280  0.2908  0.1770
 5561SOL    HW128319   3.337   2.612   6.407 -0.1932  1.7235  2.6785
 5561SOL    HW228320   3.240   2.715   6.409 -0.1369  0.4843 -0.1725
 5562SOL     OW28321   1.779   1.385   3.382 -0.3695  0.0353  0.6199
 5562SOL    HW128322   1.745   1.458   3.434 -0.6230  0.5982 -0.3225
 5562SOL    HW228323   1.870   1.372   3.408  0.0264  2.6213  0.4992
 5563SOL     OW28324   1.051   3.836  17.700  1.2104  0.7830 -0.2255
 5563SOL    HW128325   0.956   3.834  17.706  1.2375  1.1483  0.3190
 5563SOL    HW228326   1.064   3.753  17.655  0.0638  0.2171  0.5050
 5564SOL     OW28327   0.596   0.517  13.255  0.4296  0.5950 -0.1002
 5564SOL    HW128328   0.633   0.524  13.167 -0.6825 -0.1018 -0.6287
 5564SOL    HW228329   0.665   0.469  13.300 -0.2081 -0.1307  0.1023
 5565SOL     OW28330   1.527   1.760   8.291  0.0249  0.1041 -0.2363
 5565SOL    HW128331   1.509   1.854   8.291 -0.2876  0.0350  1.7627
 5565SOL    HW228332   1.620   1.765   8.313 -0.0944  1.0883  0.0589
 5566SOL     OW28333   3.819   1.519   4.273 -0.4187 -0.1015  1.2140
 5566SOL    HW128334   3.801   1.516   4.367  0.7633 -1.4432  1.3981
 5566SOL    HW228335   3.903   1.474   4.278  0.2255  0.8640 -0.8649
 5567SOL     OW28336   0.233   0.424   4.578 -0.3863 -0.2082  0.3623
 5567SOL    HW128337   0.177   0.499   4.597 -0.7279 -0.0275 -1.3748
 5567SOL    HW228338   0.256   0.437   4.485  0.1815  0.6395  0.6123
 5568SOL     OW28339   1.904   2.405   3.565  0.2959 -0.2720 -0.7316
 5568SOL    HW128340   1.995   2.385   3.546  0.3322 -1.0527  0.2915
 5568SOL    HW228341   1.894   2.490   3.521  1.6884 -0.6242 -1.7532
 5569SOL     OW28342   3.383   0.967   8.449  0.0133  0.0230  0.3455
 5569SOL    HW128343   3.307   0.909   8.452  0.4411 -0.5968 -0.6574
 5569SOL    HW228344   3.459   0.909   8.454 -0.9194 -1.3034 -0.7122
 5570SOL     OW28345   1.646   3.130  14.887  0.3234  0.1275 -0.1180
 5570SOL    HW128346   1.685   3.046  14.863 -0.8680 -1.2556  2.6844
 5570SOL    HW228347   1.571   3.128  14.828  0.2809 -2.9466  0.0533
 5571SOL     OW28348   1.870   1.948   2.546  0.1712 -0.4139  0.1114
 5571SOL    HW128349   1.935   1.980   2.609 -0.0898 -2.5813  1.4945
 5571SOL    HW228350   1.842   1.869   2.592 -0.0178  0.0672  0.8267
 5572SOL     OW28351   2.714   4.466   1.175 -0.2856 -0.3196  0.4060
 5572SOL    HW128352   2.762   4.461   1.257  0.9764  3.7763 -0.0724
 5572SOL    HW228353   2.744   4.548   1.137  0.1526 -0.6366  0.0727
 5573SOL     OW28354   1.530   4.626   2.631 -0.4940 -0.2955  0.1502
 5573SOL    HW128355   1.539   4.544   2.582  0.3201  0.6251 -1.2474
 5573SOL    HW228356   1.451   4.620   2.684 -0.0792  2.3389  1.0326
 5574SOL     OW28357   4.004   3.602   8.602 -0.0139  0.2873 -0.6251
 5574SOL    HW128358   3.971   3.551   8.676 -1.5558 -2.1532 -2.9830
 5574SOL    HW228359   3.940   3.673   8.593 -0.5688  0.0023  1.2070
 5575SOL     OW28360   1.086   3.631   6.523 -0.0136 -0.6372  0.4833
 5575SOL    HW128361   1.039   3.590   6.595 -0.6365 -0.6749  0.0532
 5575SOL    HW228362   1.149   3.690   6.563 -0.5064  1.7061 -2.2155
 5576SOL     OW28363   3.701   4.240   3.109 -0.0206  0.0241  0.3511
 5576SOL    HW128364   3.766   4.297   3.149  0.8940  0.0176 -1.1241
 5576SOL    HW228365   3.759   4.202   3.043  1.0261  1.8666  0.2111
 5577SOL     OW28366   2.014   2.727   5.987 -0.6844 -0.1330  0.0780
 5577SOL    HW128367   2.104   2.755   6.006 -0.2201 -1.4747 -0.1754
 5577SOL    HW228368   2.026   2.674   5.909  0.0181 -1.9383  1.4327
 5578SOL     OW28369   4.524   1.434   3.520 -0.7257 -0.2136  0.2706
 5578SOL    HW128370   4.438   1.447   3.480  0.8512 -0.5689 -3.2468
 5578SOL    HW228371   4.531   1.527   3.542  0.0174 -0.3015  0.4189
 5579SOL     OW28372   0.839   0.972   1.409 -0.2273 -0.4086  0.1008
 5579SOL    HW128373   0.806   0.883   1.420 -1.8234  0.1299 -0.4858
 5579SOL    HW228374   0.769   1.008   1.355  1.5190  0.7631 -1.3752
 5580SOL     OW28375   2.699   2.949   5.706 -0.0738 -0.4107  0.1336
 5580SOL    HW128376   2.716   3.038   5.676  0.1134  0.0137  1.4784
 5580SOL    HW228377   2.677   2.965   5.798  0.6666  1.0114  0.0722
 5581SOL     OW28378   0.074   1.536  17.751  0.1267  0.2069  0.0435
 5581SOL    HW128379   0.094   1.443  17.750 -1.8771 -0.2144 -0.5256
 5581SOL    HW228380   0.000   1.542  17.691 -0.6358 -0.9379  0.8750
 5582SOL     OW28381   0.575   0.551   2.902  0.3388  0.5196 -0.1552
 5582SOL    HW128382   0.590   0.628   2.847  1.5127  0.0703 -0.4828
 5582SOL    HW228383   0.513   0.584   2.966 -0.1365  2.6565 -1.6951
 5583SOL     OW28384   0.721   1.468  15.342 -0.0674  0.0084  0.2454
 5583SOL    HW128385   0.650   1.447  15.281  0.9409  1.5815 -1.4563
 5583SOL    HW228386   0.749   1.385  15.380  2.0595 -0.5363 -2.5978
 5584SOL     OW28387   2.938   3.872   7.915  0.0613  0.5348  0.0315
 5584SOL    HW128388   2.998   3.799   7.931  0.2162 -0.0642 -3.1805
 5584SOL    HW228389   2.974   3.935   7.977  0.6603  0.3853 -0.1638
 5585SOL     OW28390   3.203   3.515   2.558 -0.4871 -0.1491  0.0270
 5585SOL    HW128391   3.248   3.431   2.566  1.8607  0.9142 -2.3316
 5585SOL    HW228392   3.247   3.549   2.481 -0.1950 -0.3172  0.1216
 5586SOL     OW28393   3.376   2.117   2.944 -0.4222  0.9615 -0.0092
 5586SOL    HW128394   3.283   2.114   2.967  0.2636 -0.6656  2.4458
 5586SOL    HW228395   3.405   2.029   2.966 -0.9774  0.3825 -1.5383
 5587SOL     OW28396   3.157   4.342   6.711 -0.1335  0.1740  0.3581
 5587SOL    HW128397   3.219   4.387   6.768  2.0664  1.1201 -2.7966
 5587SOL    HW228398   3.202   4.259   6.700 -1.4271 -0.5600  0.5710
 5588SOL     OW28399   4.644   3.079  14.124  0.2108 -0.3380 -0.3570
 5588SOL    HW128400   4.704   3.136  14.172 -1.7578 -0.6562  2.4726
 5588SOL    HW228401   4.659   3.103  14.032  1.0443 -0.7886 -0.3329
 5589SOL     OW28402   2.266   4.010   8.249  0.1898 -0.0912  0.1521
 5589SOL    HW128403   2.323   3.933   8.257  0.4985  0.2714  1.3907
 5589SOL    HW228404   2.322   4.057   8.187  1.9802 -3.1426 -0.5779
 5590SOL     OW28405   3.376   1.324   6.908  0.7731  0.2957  0.3419
 5590SOL    HW128406   3.379   1.346   7.001  1.0008  1.1933  0.1223
 5590SOL    HW228407   3.426   1.242   6.915  1.1412  0.5719  0.9105
 5591SOL     OW28408   0.266   1.804   4.938  0.2839  0.5079 -0.1919
 5591SOL    HW128409   0.179   1.770   4.919 -0.1516  0.4266  1.9545
 5591SOL    HW228410   0.250   1.894   4.909  1.9729  0.5950 -0.8643
 5592SOL     OW28411   0.427   0.551   4.726 -0.1106 -0.3835  0.4707
 5592SOL    HW128412   0.339   0.524   4.702  0.0286  0.4449 -0.9717
 5592SOL    HW228413   0.471   0.481   4.677  1.1561  0.3410  0.5642
 5593SOL     OW28414   4.129   4.693  10.841 -0.2992 -0.4541  0.3146
 5593SOL    HW128415   4.100   4.731  10.758  1.9575 -2.9886 -1.6208
 5593SOL    HW228416   4.041   4.683  10.879 -1.0751 -2.7353 -2.1213
 5594SOL     OW28417   2.718   0.382   7.956 -0.4154  0.2784 -0.0176
 5594SOL    HW128418   2.784   0.359   8.021  0.1813  3.2761  0.4045
 5594SOL    HW228419   2.682   0.293   7.953  0.7226 -0.1568 -1.1087
 5595SOL     OW28420   2.955   3.975   8.716 -0.1752  0.0187 -0.1601
 5595SOL    HW128421   2.964   3.952   8.809  0.7847  0.7933 -0.0592
 5595SOL    HW228422   2.861   3.966   8.699 -0.1542  3.0734 -1.9205
 5596SOL     OW28423   0.617   3.979   1.992 -0.0962  0.3247  0.1206
 5596SOL    HW128424   0.530   3.979   1.951 -0.6351  1.3565  1.2959
 5596SOL    HW228425   0.672   4.018   1.924 -1.3036 -0.7239 -1.4606
 5597SOL     OW28426   2.249   3.198   2.434  0.3796 -0.4625 -0.2051
 5597SOL    HW128427   2.193   3.129   2.471  3.1968 -1.1583  2.8757
 5597SOL    HW228428   2.332   3.172   2.476  1.3821  2.3767 -0.4188
 5598SOL     OW28429   1.324   1.213   7.570 -0.0571 -0.2154  0.3024
 5598SOL    HW128430   1.293   1.127   7.599 -1.4721 -0.3913 -1.7124
 5598SOL    HW228431   1.349   1.194   7.480 -0.9033  2.0065 -0.4110
 5599SOL     OW28432   4.214   3.651   4.725  0.3906  0.6277 -0.4827
 5599SOL    HW128433   4.153   3.702   4.672 -2.3527  0.5902  2.6534
 5599SOL    HW228434   4.277   3.719   4.747 -1.6934  2.2372  0.4684
 5600SOL     OW28435   0.358   4.410  11.232  0.1791 -0.0395 -0.4678
 5600SOL    HW128436   0.384   4.355  11.306 -1.9202  0.2492  0.4788
 5600SOL    HW228437   0.290   4.354  11.193 -0.3737  0.6161 -0.4525
 5601SOL     OW28438   3.718   3.331   7.513 -0.7061 -0.3849  0.2059
 5601SOL    HW128439   3.698   3.385   7.436 -0.8444 -1.5398 -0.5675
 5601SOL    HW228440   3.645   3.354   7.571 -1.8917 -3.2544 -0.1431
 5602SOL     OW28441   3.977   1.738  10.534  0.8253 -0.2265  0.2263
 5602SOL    HW128442   4.037   1.810  10.514 -0.2598  0.5554 -0.1813
 5602SOL    HW228443   4.027   1.657  10.545 -0.8044 -1.0553  1.4318
 5603SOL     OW28444   3.790   3.586   1.103  0.5082  0.4644  0.0094
 5603SOL    HW128445   3.763   3.502   1.140  0.4824 -0.5970 -2.4303
 5603SOL    HW228446   3.707   3.633   1.107  0.9599  1.1785  1.2167
 5604SOL     OW28447   2.178   0.999   5.311 -0.1314  0.5169 -0.3609
 5604SOL    HW128448   2.230   1.032   5.385  0.9025 -1.8107 -0.0344
 5604SOL    HW228449   2.093   0.970   5.345 -0.7793  3.3742  0.4513
 5605SOL     OW28450   2.449   0.152   5.557 -0.0173 -0.4445  0.0346
 5605SOL    HW128451   2.492   0.112   5.632 -0.8404 -0.5712  0.4404
 5605SOL    HW228452   2.470   0.243   5.578  5.5440 -2.0133  1.1048
 5606SOL     OW28453   1.183   3.548   1.658  1.0970  0.0697  0.3226
 5606SOL    HW128454   1.229   3.503   1.587  2.3538  2.0126 -0.0994
 5606SOL    HW228455   1.098   3.505   1.653 -0.3257  2.9615 -0.4232
 5607SOL     OW28456   1.236   0.236   2.402  0.0289 -0.4521  1.0292
 5607SOL    HW128457   1.313   0.289   2.386 -1.6253  1.5682 -0.2004
 5607SOL    HW228458   1.277   0.155   2.433  2.6898  0.4231 -0.2581
 5608SOL     OW28459   1.011   2.657  16.390 -0.0078 -0.4045  0.1790
 5608SOL    HW128460   0.993   2.637  16.482  0.1181  2.6866  0.9047
 5608SOL    HW228461   1.105   2.641  16.379 -0.1563 -1.5536  0.6496
 5609SOL     OW28462   4.708   0.211   2.407  0.2773  0.0764  0.0723
 5609SOL    HW128463   4.725   0.244   2.495 -0.2728  1.1027 -0.2110
 5609SOL    HW228464   4.729   0.118   2.413 -0.1854 -0.0715 -0.5905
 5610SOL     OW28465   4.456   2.384   8.321 -0.1358 -0.0573  0.1128
 5610SOL    HW128466   4.511   2.445   8.272 -0.3746 -0.0500 -0.1443
 5610SOL    HW228467   4.392   2.439   8.367  0.3594  0.0034  0.7310
 5611SOL     OW28468   0.732   1.316  17.515 -0.0228  0.1827  0.1353
 5611SOL    HW128469   0.696   1.304  17.427  0.0362  2.9012 -0.2587
 5611SOL    HW228470   0.812   1.369  17.513  0.0294  0.1576  1.4607
 5612SOL     OW28471   2.875   2.775   2.778  0.4905  0.2339 -0.0476
 5612SOL    HW128472   2.962   2.803   2.748 -0.0182  1.6109 -0.2192
 5612SOL    HW228473   2.891   2.762   2.871  1.2838 -1.3043 -0.4001
 5613SOL     OW28474   4.210   2.695   5.797 -0.0685 -0.3603 -0.3065
 5613SOL    HW128475   4.153   2.673   5.870 -0.8354 -0.3140 -0.8894
 5613SOL    HW228476   4.188   2.788   5.794 -0.6163 -0.4710  0.2272
 5614SOL     OW28477   3.085   4.468   2.990  0.3021 -0.5775  0.2180
 5614SOL    HW128478   3.031   4.393   3.016  1.2585 -1.5175 -0.5155
 5614SOL    HW228479   3.114   4.497   3.076  0.2450  1.6113 -0.5136
 5615SOL     OW28480   2.571   1.937   9.153  0.0302 -0.5331 -0.0722
 5615SOL    HW128481   2.633   1.867   9.134  0.4925  0.3153 -1.6126
 5615SOL    HW228482   2.576   1.993   9.076 -2.9362  1.6408  1.3326
 5616SOL     OW28483   2.813   1.588  16.437 -0.0331 -0.3784 -0.4714
 5616SOL    HW128484   2.773   1.547  16.361 -1.0080 -1.2024  0.4879
 5616SOL    HW228485   2.734   1.606  16.488  1.7868  0.6936  1.9494
 5617SOL     OW28486   0.927   4.322   5.707  0.0920 -0.3428 -0.3869
 5617SOL    HW128487   1.003   4.266   5.720 -0.1893 -0.1103  2.3572
 5617SOL    HW228488   0.905   4.351   5.796 -1.3913  2.5087 -1.6792
 5618SOL     OW28489   0.220   4.442   8.088 -0.8863  0.2773  0.2545
 5618SOL    HW128490   0.253   4.524   8.051 -1.3638  0.5220  0.3791
 5618SOL    HW228491   0.228   4.388   8.009 -0.8383  1.2669 -0.4105
 5619SOL     OW28492   0.238   3.015   6.268  0.7204 -0.0561  0.2151
 5619SOL    HW128493   0.193   3.098   6.257 -1.8731 -1.5058 -0.0862
 5619SOL    HW228494   0.171   2.966   6.315 -0.7391  1.7114 -0.0563
 5620SOL     OW28495   1.061   3.390  12.478 -0.6422 -0.2842  0.4812
 5620SOL    HW128496   1.055   3.418  12.387 -0.7895  0.1654  0.6285
 5620SOL    HW228497   1.156   3.402  12.489 -0.6697  0.3841  0.0388
 5621SOL     OW28498   3.623   3.527   5.051  0.3674  0.2417  0.1859
 5621SOL    HW128499   3.678   3.586   5.103 -1.8105  2.3445  0.0915
 5621SOL    HW228500   3.674   3.446   5.055  0.5040  0.3459  0.5296
 5622SOL     OW28501   0.244   4.422   8.924  0.1422  0.4673  0.5757
 5622SOL    HW128502   0.273   4.331   8.918  1.7076  0.9865  0.3230
 5622SOL    HW228503   0.187   4.428   8.847  0.7424 -1.1642  0.0153
 5623SOL     OW28504   2.560   0.983  13.659 -0.5514 -0.6380  0.0959
 5623SOL    HW128505   2.520   0.899  13.635  0.2395 -0.9189 -0.2059
 5623SOL    HW228506   2.507   0.998  13.738 -1.6285 -0.2237 -0.7104
 5624SOL     OW28507   0.153   0.980   8.594  0.2165 -0.5102  0.1314
 5624SOL    HW128508   0.125   0.891   8.614  1.3028 -1.1449 -1.1304
 5624SOL    HW228509   0.208   1.001   8.670  0.2723 -1.5107  0.3613
 5625SOL     OW28510   0.868   2.299   8.996  0.0974  0.0944 -0.0299
 5625SOL    HW128511   0.812   2.347   9.057  1.8944  1.4862  0.5248
 5625SOL    HW228512   0.852   2.345   8.914  1.7075 -0.1134 -0.4509
 5626SOL     OW28513   2.848   3.735   7.642 -0.2015 -0.5398 -0.3798
 5626SOL    HW128514   2.807   3.747   7.728  1.4502 -1.9080  0.6007
 5626SOL    HW228515   2.939   3.761   7.658 -0.5973 -0.9237  2.4512
 5627SOL     OW28516   4.072   1.265   0.150 -0.0567 -0.4415 -0.2027
 5627SOL    HW128517   4.066   1.180   0.105  2.2172 -2.1921  2.8300
 5627SOL    HW228518   4.126   1.242   0.226 -0.7730  2.4275  1.1742
 5628SOL     OW28519   1.586   0.765   4.208 -0.1639 -0.9050  0.4332
 5628SOL    HW128520   1.615   0.683   4.168  1.2651  1.2970 -2.9777
 5628SOL    HW228521   1.502   0.785   4.168 -0.9851  0.1473  2.6665
 5629SOL     OW28522   4.335   0.797  17.089  0.4089  0.6669 -0.0141
 5629SOL    HW128523   4.393   0.733  17.131  1.1851  1.5854  0.3253
 5629SOL    HW228524   4.403   0.842  17.038 -0.8087  1.9130 -0.5458
 5630SOL     OW28525   1.083   2.030   8.014  0.8275  0.3292  0.5303
 5630SOL    HW128526   1.018   1.963   8.036  1.9427 -0.4242  1.5549
 5630SOL    HW228527   1.151   2.009   8.079  2.0098 -1.2026 -1.2118
 5631SOL     OW28528   0.860   1.539  12.857 -0.1700 -0.0481  0.7023
 5631SOL    HW128529   0.794   1.477  12.825 -0.5393 -0.1075  1.5877
 5631SOL    HW228530   0.850   1.611  12.795  4.2811 -0.6532 -0.6967
 5632SOL     OW28531   4.716   2.537   0.484 -0.0991  0.6457 -0.3680
 5632SOL    HW128532   4.714   2.632   0.486 -0.4017  0.6617 -1.9434
 5632SOL    HW228533   0.069   2.517   0.504 -0.5351 -0.6923  0.3465
 5633SOL     OW28534   2.538   3.326   6.202  0.2725 -0.2921 -0.1558
 5633SOL    HW128535   2.465   3.295   6.148 -0.2095  0.5304  0.0228
 5633SOL    HW228536   2.586   3.247   6.227 -0.3298 -0.4472  0.5449
 5634SOL     OW28537   3.692   3.402   6.309 -0.0032 -0.0058  0.0216
 5634SOL    HW128538   3.694   3.479   6.366 -1.7861  1.8131 -2.3808
 5634SOL    HW228539   3.672   3.448   6.228 -0.5705 -0.5875 -0.1672
 5635SOL     OW28540   1.380   3.684   3.494 -0.0334  0.4081  0.8756
 5635SOL    HW128541   1.471   3.708   3.476  0.4323  0.4032  3.1902
 5635SOL    HW228542   1.347   3.769   3.522 -2.7991 -0.8787  1.5215
 5636SOL     OW28543   2.889   1.361  13.238 -0.2724 -0.0203 -0.2980
 5636SOL    HW128544   2.905   1.450  13.271 -1.5353 -0.3222  1.1297
 5636SOL    HW228545   2.851   1.315  13.313  0.1020  0.3235  0.1121
 5637SOL     OW28546   0.666   3.478  16.668 -0.3381  0.0738 -0.5991
 5637SOL    HW128547   0.684   3.384  16.671  3.7157  0.7397 -2.5769
 5637SOL    HW228548   0.729   3.502  16.600 -0.8059 -2.4246 -1.9370
 5638SOL     OW28549   1.309   3.971   0.403 -0.4114  0.0182  0.4172
 5638SOL    HW128550   1.277   3.941   0.318 -1.1969  1.0635  0.3483
 5638SOL    HW228551   1.254   4.047   0.424 -0.8200 -0.1320 -0.0862
 5639SOL     OW28552   1.187   4.218   8.993  0.6027 -0.2597  0.0862
 5639SOL    HW128553   1.105   4.186   9.030  0.3089  0.7078  0.2737
 5639SOL    HW228554   1.187   4.310   9.019  0.3671 -0.2343 -0.0056
 5640SOL     OW28555   0.219   0.376   1.609 -0.3769  0.3014 -0.2960
 5640SOL    HW128556   0.279   0.309   1.642 -0.1999  0.8393  0.4822
 5640SOL    HW228557   0.150   0.386   1.675 -0.2700 -2.4095  0.2083
 5641SOL     OW28558   3.498   4.071   2.993 -0.4023  0.0111 -0.3047
 5641SOL    HW128559   3.551   4.148   3.014  0.4253 -0.6309 -0.0350
 5641SOL    HW228560   3.526   4.026   3.073 -0.2609  1.9559  0.7624
 5642SOL     OW28561   0.287   2.149   7.512 -0.9028  0.6759  0.1247
 5642SOL    HW128562   0.378   2.139   7.542 -0.7011 -1.0816 -1.0214
 5642SOL    HW228563   0.250   2.063   7.531 -0.6417  0.9126  1.6491
 5643SOL     OW28564   2.240   1.655  11.626  0.2040  0.6766 -0.1244
 5643SOL    HW128565   2.243   1.640  11.721 -0.3867  1.7454  0.0750
 5643SOL    HW228566   2.186   1.582  11.597  1.4998  0.4526 -1.9449
 5644SOL     OW28567   3.312   2.143   6.738  0.0858 -0.1068  0.2011
 5644SOL    HW128568   3.323   2.074   6.673  0.5724 -1.2940  1.5406
 5644SOL    HW228569   3.219   2.136   6.762  1.1101 -2.3546  3.4799
 5645SOL     OW28570   2.052   2.535   8.370  0.4050  0.5104 -0.5639
 5645SOL    HW128571   2.128   2.497   8.414  0.0584  3.4191  2.5805
 5645SOL    HW228572   2.044   2.470   8.300  0.3758  0.4899 -0.5417
 5646SOL     OW28573   1.973   3.054   3.579 -0.0027  0.4044 -0.7436
 5646SOL    HW128574   1.997   3.000   3.654 -2.3129 -0.4161 -0.5758
 5646SOL    HW228575   2.061   3.065   3.543 -0.3466 -0.4140 -1.8234
 5647SOL     OW28576   3.866   1.120   6.106 -0.2591  0.0572  0.6674
 5647SOL    HW128577   3.912   1.146   6.186 -1.6911  2.8126  0.5891
 5647SOL    HW228578   3.914   1.038   6.095 -1.7460 -0.1829 -3.9223
 5648SOL     OW28579   2.642   4.662   8.067  0.0748  0.4657 -0.3818
 5648SOL    HW128580   2.554   4.648   8.032  0.2641  1.5328 -1.2752
 5648SOL    HW228581   2.638   0.002   8.120  2.0233  0.4025 -0.1591
 5649SOL     OW28582   0.717   0.257  16.280 -0.0572  0.4861  0.3696
 5649SOL    HW128583   0.626   0.238  16.304 -0.5107  1.4366 -0.6206
 5649SOL    HW228584   0.771   0.196  16.330 -2.6328  0.5136  3.2510
 5650SOL     OW28585   4.186   4.717  15.503  0.1911 -0.2554 -0.3522
 5650SOL    HW128586   4.268   4.706  15.454  1.3096 -1.8484  1.8717
 5650SOL    HW228587   4.177   0.073  15.511 -0.7385 -0.3473 -0.2708
 5651SOL     OW28588   0.828   4.220   6.746 -0.0894 -0.2826 -0.2459
 5651SOL    HW128589   0.862   4.191   6.661  1.0066 -0.9020  0.4117
 5651SOL    HW228590   0.780   4.298   6.718  0.3732  0.1303  0.1230
 5652SOL     OW28591   1.270   3.957   3.581 -0.4654 -1.0699 -0.1515
 5652SOL    HW128592   1.349   3.967   3.635 -2.4121  2.5112  2.0544
 5652SOL    HW228593   1.294   4.010   3.505 -3.1314 -1.9363 -1.5891
 5653SOL     OW28594   3.392   4.437   7.721  0.3412  0.0733 -0.1488
 5653SOL    HW128595   3.458   4.506   7.728 -0.7700  1.1769 -0.4774
 5653SOL    HW228596   3.374   4.437   7.626  2.4386  0.6229 -0.5453
 5654SOL     OW28597   0.889   3.843  10.663 -0.0421  0.3181 -0.1202
 5654SOL    HW128598   0.836   3.901  10.610  0.6998  2.1501  1.1428
 5654SOL    HW228599   0.907   3.768  10.606  0.4773  1.2761 -1.2064
 5655SOL     OW28600   3.114   3.338   4.828 -0.0568 -0.3826  0.1026
 5655SOL    HW128601   3.196   3.343   4.877 -1.0277 -1.5123  1.8785
 5655SOL    HW228602   3.053   3.370   4.894 -0.1106  2.3133 -1.2850
 5656SOL     OW28603   0.331   0.083   4.616  0.0062  0.5271 -0.4919
 5656SOL    HW128604   0.264   0.129   4.567 -1.6002  1.3127  2.4056
 5656SOL    HW228605   0.287   0.007   4.655 -0.5142  0.9809 -0.1873
 5657SOL     OW28606   4.212   2.435  16.835  0.0853 -0.8465 -0.1105
 5657SOL    HW128607   4.163   2.388  16.903  1.5282 -1.2195  0.6753
 5657SOL    HW228608   4.168   2.519  16.831  2.7712  0.5699  0.0755
 5658SOL     OW28609   0.381   2.542   5.675 -0.0639  0.1436  0.8151
 5658SOL    HW128610   0.453   2.599   5.703  0.7829 -0.3274 -0.4180
 5658SOL    HW228611   0.346   2.594   5.603  0.0982  3.3182  2.9917
 5659SOL     OW28612   3.751   4.320   8.216  0.2752  0.0648  0.5772
 5659SOL    HW128613   3.730   4.264   8.291  0.9182 -1.9803 -0.7593
 5659SOL    HW228614   3.664   4.342   8.180  0.2827 -2.9476 -1.2742
 5660SOL     OW28615   0.004   4.656   7.199  0.2037 -0.1780 -0.2044
 5660SOL    HW128616   0.026   4.563   7.207 -0.1812 -0.3106 -0.6920
 5660SOL    HW228617   4.667   4.661   7.141  0.1243 -0.2743 -0.1058
 5661SOL     OW28618   2.991   4.683  12.457 -0.3961 -0.6747 -0.1786
 5661SOL    HW128619   3.015   0.035  12.471 -4.1701  0.1756  0.7271
 5661SOL    HW228620   3.021   4.672  12.367 -0.5620 -2.1347 -0.0524
 5662SOL     OW28621   3.481   2.771   5.887  0.1247 -0.8693 -0.5737
 5662SOL    HW128622   3.512   2.801   5.972 -0.4512  0.4761 -0.8466
 5662SOL    HW228623   3.507   2.842   5.829  1.4503 -0.5862  0.3548
 5663SOL     OW28624   0.132   2.277   4.539 -0.7862 -0.0302 -0.6589
 5663SOL    HW128625   0.114   2.334   4.614  0.3418  0.1007 -0.4868
 5663SOL    HW228626   0.206   2.319   4.495  0.6793  1.1296  2.9667
 5664SOL     OW28627   2.876   1.045  10.784  0.0977  0.2550 -0.0356
 5664SOL    HW128628   2.860   1.135  10.813 -1.6373 -0.3096  0.7441
 5664SOL    HW228629   2.970   1.047  10.802 -0.0442 -0.2225  0.7466
 5665SOL     OW28630   3.365   4.367   5.343 -0.8222  0.2762  0.4814
 5665SOL    HW128631   3.312   4.294   5.376  0.2910  0.6502  3.1024
 5665SOL    HW228632   3.345   4.366   5.250  2.3018 -0.9237 -0.1831
 5666SOL     OW28633   1.589   4.408   6.145  0.2750 -0.6170  0.2176
 5666SOL    HW128634   1.550   4.376   6.064 -0.1899  2.9874 -0.9603
 5666SOL    HW228635   1.641   4.331   6.170 -0.3997 -0.6229  1.6032
 5667SOL     OW28636   4.041   1.182   6.323 -0.1561  0.2190  0.3655
 5667SOL    HW128637   4.046   1.270   6.284 -1.2687 -0.3755 -1.0999
 5667SOL    HW228638   4.048   1.203   6.416 -1.3963 -2.0922  0.9861
 5668SOL     OW28639   3.308   4.620   8.048 -0.0687  0.0970 -0.2983
 5668SOL    HW128640   3.286   4.686   7.982 -1.2267 -1.3036 -1.3047
 5668SOL    HW228641   3.250   4.640   8.121  2.1948 -2.2052  2.1555
 5669SOL     OW28642   3.138   2.046   3.133  0.0360 -0.2738  0.3893
 5669SOL    HW128643   3.126   1.952   3.122 -0.9734  0.0989 -1.8570
 5669SOL    HW228644   3.186   2.059   3.214 -0.0757  0.2067  0.3787
 5670SOL     OW28645   2.371   0.080   6.295  0.1208 -0.0305  0.4289
 5670SOL    HW128646   2.311   0.008   6.277 -0.0936 -0.4424  2.7287
 5670SOL    HW228647   2.402   0.052   6.382 -1.3393  2.8102  1.8648
 5671SOL     OW28648   0.844   2.727   5.733  0.5374  0.2677  0.1148
 5671SOL    HW128649   0.904   2.657   5.707 -1.0760 -0.4927 -1.5586
 5671SOL    HW228650   0.879   2.791   5.671 -0.3713  0.2377 -0.4166
 5672SOL     OW28651   2.087   2.180   6.558 -0.6268 -0.1566  0.3410
 5672SOL    HW128652   2.134   2.194   6.475 -2.1355 -2.0205 -0.8141
 5672SOL    HW228653   2.074   2.271   6.587  2.6988  0.3104  0.3382
 5673SOL     OW28654   2.127   2.429   1.842 -0.1567 -0.2955  0.0973
 5673SOL    HW128655   2.190   2.501   1.829  0.2873 -0.9227 -1.2356
 5673SOL    HW228656   2.169   2.356   1.795  1.6691 -1.1535  3.0799
 5674SOL     OW28657   3.856   4.038   3.913 -0.0480 -0.5986  0.0687
 5674SOL    HW128658   3.898   3.983   3.979  0.6045 -0.7772 -0.5046
 5674SOL    HW228659   3.919   4.110   3.909 -0.7922  0.0031 -0.8968
 5675SOL     OW28660   4.599   0.153   5.366  0.4816  0.6194  0.1528
 5675SOL    HW128661   4.694   0.155   5.351  0.5458 -1.9429  0.1959
 5675SOL    HW228662   4.593   0.100   5.445  1.5739  0.9356  0.4497
 5676SOL     OW28663   2.938   2.744   9.093 -0.1139  0.6678  0.5693
 5676SOL    HW128664   2.976   2.815   9.144  1.4469  0.8954 -0.9217
 5676SOL    HW228665   3.015   2.687   9.086 -1.5105 -1.0628 -0.9642
 5677SOL     OW28666   2.807   3.587   2.048 -0.4437  0.6105 -0.2280
 5677SOL    HW128667   2.858   3.508   2.063 -2.7502 -0.6108  1.0566
 5677SOL    HW228668   2.830   3.641   2.123  2.8442 -0.1968 -0.6414
 5678SOL     OW28669   0.968   0.566  10.930  0.5789 -0.7264  0.0583
 5678SOL    HW128670   1.021   0.630  10.977  0.0948 -1.0980  1.0983
 5678SOL    HW228671   0.882   0.607  10.916  0.4227 -0.6707  1.2228
 5679SOL     OW28672   1.083   0.878   5.546  0.0128 -0.4561  0.2481
 5679SOL    HW128673   1.042   0.965   5.549  1.2844  0.1861 -1.1260
 5679SOL    HW228674   1.009   0.824   5.519 -0.4449  0.2677  0.0475
 5680SOL     OW28675   3.933   0.035  17.316  0.0995  0.1079  0.0363
 5680SOL    HW128676   3.928   0.096  17.389  0.7938  0.2134 -0.0111
 5680SOL    HW228677   4.027   0.028  17.303  0.3002  2.6649  0.2163
 5681SOL     OW28678   3.365   3.277  10.759 -0.1481 -0.1324 -0.1118
 5681SOL    HW128679   3.339   3.309  10.845 -0.3387  0.6429 -0.4564
 5681SOL    HW228680   3.455   3.308  10.767  0.1191 -0.8366 -0.3490
 5682SOL     OW28681   1.979   1.540   9.226  0.2906  0.2578 -0.3049
 5682SOL    HW128682   1.905   1.595   9.254  1.2729  0.8365  1.1780
 5682SOL    HW228683   1.981   1.483   9.303  0.9501  1.7615  0.8056
 5683SOL     OW28684   0.433   0.108  11.022 -0.0466  0.3304  0.0586
 5683SOL    HW128685   0.381   0.065  10.954 -0.1344  1.0760 -0.3520
 5683SOL    HW228686   0.431   0.043  11.092 -0.1912 -1.0671 -1.2539
 5684SOL     OW28687   1.954   3.209  15.565 -0.1860 -0.1992 -0.0363
 5684SOL    HW128688   1.911   3.196  15.481 -1.1969 -0.2820  0.4957
 5684SOL    HW228689   1.889   3.274  15.592 -1.5880 -1.8358  0.5494
 5685SOL     OW28690   4.637   3.443   4.949 -0.6145 -0.5137 -0.1828
 5685SOL    HW128691   4.585   3.519   4.923 -0.0550 -0.3256 -0.7726
 5685SOL    HW228692   4.596   3.366   4.910 -0.5474 -1.3905  1.4932
 5686SOL     OW28693   0.297   1.739   3.918  0.6057  0.1065 -0.2786
 5686SOL    HW128694   0.236   1.764   3.848  0.9492  2.1935  0.1472
 5686SOL    HW228695   0.334   1.661   3.876  0.6563  0.1229 -0.2655
 5687SOL     OW28696   0.546   1.408  13.365 -0.6019 -0.6067 -0.0180
 5687SOL    HW128697   0.620   1.467  13.370 -0.4330 -0.8126 -0.0945
 5687SOL    HW228698   0.529   1.397  13.272 -0.6790 -1.4689  0.0969
 5688SOL     OW28699   0.903   1.251  15.427 -0.0398  0.5433 -0.3039
 5688SOL    HW128700   0.914   1.189  15.499  1.2444 -1.5635 -2.3050
 5688SOL    HW228701   0.986   1.299  15.435  0.1708 -0.3052  2.5231
 5689SOL     OW28702   3.815   2.916   2.305 -0.6988 -0.3698  0.0289
 5689SOL    HW128703   3.868   2.877   2.235 -1.0497 -0.7496 -0.0287
 5689SOL    HW228704   3.733   2.874   2.280 -1.3471  1.5064 -1.0030
 5690SOL     OW28705   2.469   4.723   2.125  0.0453 -0.0910  0.1089
 5690SOL    HW128706   2.509   4.640   2.097 -1.2622 -0.1852 -1.4358
 5690SOL    HW228707   2.453   4.700   2.217 -0.1579  1.1895  0.3974
 5691SOL     OW28708   0.584   3.782   7.628  0.3180  0.2418  0.1467
 5691SOL    HW128709   0.595   3.754   7.537 -2.4128 -1.2535  0.2819
 5691SOL    HW228710   0.529   3.713   7.666  1.2557 -0.2954  0.5513
 5692SOL     OW28711   2.837   1.075   4.595  0.5866 -0.0871 -0.5692
 5692SOL    HW128712   2.827   1.001   4.655  1.1703 -0.0069 -0.3759
 5692SOL    HW228713   2.875   1.136   4.657 -1.1127  1.1639 -0.7614
 5693SOL     OW28714   4.182   4.074   6.077  0.2163  0.2837  0.3319
 5693SOL    HW128715   4.251   4.093   6.142  0.2030 -0.7381  0.6449
 5693SOL    HW228716   4.223   4.110   5.998  3.0909  0.3914  1.8444
 5694SOL     OW28717   3.794   0.337  10.848 -0.0787 -0.7124  0.0344
 5694SOL    HW128718   3.851   0.284  10.903  1.7943  1.2636 -0.0192
 5694SOL    HW228719   3.856   0.365  10.780  2.1696 -0.7770  2.0762
 5695SOL     OW28720   4.413   0.371  12.212  0.3052 -0.0160 -1.3421
 5695SOL    HW128721   4.419   0.291  12.160 -1.8752 -0.9931 -0.0845
 5695SOL    HW228722   4.318   0.366  12.221  0.5427 -0.1450  1.0514
 5696SOL     OW28723   2.177   1.647  11.880  0.1066 -0.3202 -0.0860
 5696SOL    HW128724   2.085   1.673  11.877  0.9737  2.7709 -0.4851
 5696SOL    HW228725   2.202   1.692  11.961 -2.1797 -2.1434  1.6184
 5697SOL     OW28726   0.136   1.588   7.293  0.1858  0.1580 -0.1909
 5697SOL    HW128727   0.211   1.641   7.321  1.4082 -2.0672  0.7685
 5697SOL    HW228728   0.183   1.510   7.264 -0.0647 -0.4836  1.1506
 5698SOL     OW28729   0.898   1.444  13.114 -0.0366 -0.1435  0.2063
 5698SOL    HW128730   0.977   1.462  13.165  0.6860 -1.6731 -0.3763
 5698SOL    HW228731   0.912   1.490  13.032  0.1155  1.0212  0.8843
 5699SOL     OW28732   0.919   0.620   5.425  0.5754 -0.1656  0.6931
 5699SOL    HW128733   0.957   0.574   5.499  0.7526  1.2709  1.4816
 5699SOL    HW228734   0.993   0.616   5.364  0.2333  0.1283  0.2580
 5700SOL     OW28735   0.577   0.201   4.814 -0.2247 -0.1918 -0.3346
 5700SOL    HW128736   0.553   0.181   4.904 -0.4501  0.6483 -0.2162
 5700SOL    HW228737   0.568   0.114   4.775 -0.2386 -0.5573  0.4852
 5701SOL     OW28738   1.152   3.188   9.182 -0.6631 -0.2819  0.2068
 5701SOL    HW128739   1.206   3.163   9.257  3.7764  2.6638 -1.9774
 5701SOL    HW228740   1.211   3.169   9.108 -2.5017 -0.2083 -1.2839
 5702SOL     OW28741   1.593   0.764   2.619 -0.1157 -0.1735 -0.1821
 5702SOL    HW128742   1.617   0.731   2.706 -1.4218 -1.0120 -0.1329
 5702SOL    HW228743   1.663   0.726   2.565  1.1581  4.0246 -1.5054
 5703SOL     OW28744   2.827   3.185   2.896 -0.0155  0.0960 -0.1744
 5703SOL    HW128745   2.734   3.205   2.890  0.1166  0.9651  0.5144
 5703SOL    HW228746   2.838   3.195   2.991 -1.1697 -2.0706  0.1696
 5704SOL     OW28747   0.358   0.151   8.338 -0.1317 -0.1459  0.3528
 5704SOL    HW128748   0.373   0.057   8.347  0.5501  0.1568  2.5039
 5704SOL    HW228749   0.400   0.190   8.415  0.8002 -2.8134  1.2076
 5705SOL     OW28750   3.084   1.705   9.084  0.2496  0.3736 -0.2513
 5705SOL    HW128751   3.131   1.648   9.024  2.3992 -2.5400  4.1832
 5705SOL    HW228752   3.026   1.641   9.125  1.0363 -0.2780 -0.1661
 5706SOL     OW28753   3.327   3.254   2.666  0.0912 -0.0449  0.1975
 5706SOL    HW128754   3.366   3.319   2.724 -2.7724  1.3533  0.5580
 5706SOL    HW228755   3.241   3.259   2.708  0.6822 -2.4914  1.7128
 5707SOL     OW28756   4.036   1.715  15.660 -0.2065  0.2693 -0.5004
 5707SOL    HW128757   4.119   1.761  15.669 -0.2961  0.4028 -0.3618
 5707SOL    HW228758   4.050   1.637  15.714  0.8830  1.0560  0.3321
 5708SOL     OW28759   0.982   2.875   6.369  0.3021 -0.6877 -0.8246
 5708SOL    HW128760   0.908   2.815   6.366 -2.4442  2.4588  2.7832
 5708SOL    HW228761   0.963   2.927   6.292 -0.3365  1.5610  0.8388
 5709SOL     OW28762   1.895   4.070   6.759 -0.2765 -0.7072  0.4692
 5709SOL    HW128763   1.800   4.075   6.757 -0.2869 -1.1813 -0.3574
 5709SOL    HW228764   1.918   3.986   6.717 -0.9699 -0.7028  0.0934
 5710SOL     OW28765   3.180   1.273  13.902  0.2990 -0.7643 -0.4832
 5710SOL    HW128766   3.210   1.256  13.991 -0.9777  0.0039  0.1076
 5710SOL    HW228767   3.249   1.331  13.871  1.6273 -0.9985  2.0479
 5711SOL     OW28768   0.618   0.977   1.704  0.0767 -0.4212 -0.4474
 5711SOL    HW128769   0.612   1.028   1.623 -0.4492 -1.2660 -0.9368
 5711SOL    HW228770   0.712   0.961   1.702  0.0266 -0.3284 -2.9148
 5712SOL     OW28771   0.958   1.356   4.914 -0.3981  0.6358 -0.6235
 5712SOL    HW128772   0.883   1.396   4.869 -1.3358  0.7633  1.0325
 5712SOL    HW228773   1.020   1.359   4.842  0.4218  0.1128  0.0705
 5713SOL     OW28774   1.904   0.811  10.611  0.1260 -0.1612 -0.0081
 5713SOL    HW128775   1.992   0.777  10.626  0.2960  0.1133 -0.3957
 5713SOL    HW228776   1.894   0.803  10.516  2.8988 -0.2309 -0.2855
 5714SOL     OW28777   2.237   0.586   8.473  0.1744 -0.2268  0.2338
 5714SOL    HW128778   2.207   0.626   8.555  0.4871 -0.3934  0.4293
 5714SOL    HW228779   2.154   0.575   8.428  0.3171  2.8754 -0.8022
 5715SOL     OW28780   2.080   2.433   6.454  0.3137  0.8769  0.2555
 5715SOL    HW128781   2.015   2.485   6.406  0.3380 -1.0512 -1.8725
 5715SOL    HW228782   2.153   2.411   6.395  0.1644 -0.4303  0.5668
 5716SOL     OW28783   0.724   4.596   4.653  0.2737  0.1559  0.0535
 5716SOL    HW128784   0.811   4.579   4.687  0.7598  0.1713 -1.1653
 5716SOL    HW228785   0.693   4.512   4.619 -0.1697 -0.2455  1.4447
 5717SOL     OW28786   1.401   2.410  14.739 -0.1249 -0.0989  0.4799
 5717SOL    HW128787   1.350   2.349  14.792 -1.4737  1.2345  0.7155
 5717SOL    HW228788   1.367   2.394  14.650 -0.5882 -0.7203  0.7657
 5718SOL     OW28789   1.317   0.245  12.080 -0.4515  0.2358  0.1032
 5718SOL    HW128790   1.269   0.228  12.161 -0.2944 -0.9226 -0.0464
 5718SOL    HW228791   1.299   0.339  12.068  2.3977  0.6406 -1.0762
 5719SOL     OW28792   2.255   0.230  10.033 -0.1364 -0.1916  0.1023
 5719SOL    HW128793   2.324   0.292  10.057  0.7410 -1.1233 -0.0065
 5719SOL    HW228794   2.192   0.274   9.975 -0.3649 -1.3115 -0.4953
 5720SOL     OW28795   0.241   0.854   2.910  0.2273  0.3510  0.5340
 5720SOL    HW128796   0.208   0.800   2.981  0.4792 -0.1871  0.2408
 5720SOL    HW228797   0.206   0.813   2.832 -0.4953 -0.0726  1.0901
 5721SOL     OW28798   1.898   0.920   1.893 -0.0460 -0.2225 -0.2622
 5721SOL    HW128799   1.933   0.846   1.845  0.9432  0.5476 -0.7202
 5721SOL    HW228800   1.809   0.935   1.861  0.4288 -1.5188 -2.1752
 5722SOL     OW28801   4.493   0.974  11.198  0.1010 -0.0466  0.3429
 5722SOL    HW128802   4.512   0.888  11.236  1.2209  0.0738  0.0477
 5722SOL    HW228803   4.402   0.960  11.171  0.2508 -0.8655  0.2505
 5723SOL     OW28804   1.692   0.126   7.764 -0.4884  0.1375  0.2372
 5723SOL    HW128805   1.688   0.103   7.671  1.1454  2.5439 -0.4172
 5723SOL    HW228806   1.765   0.187   7.766 -0.0875 -0.3712  1.0450
 5724SOL     OW28807   1.395   1.873   5.475 -0.4000  0.0737 -0.1620
 5724SOL    HW128808   1.455   1.940   5.444 -0.1997  0.7087  1.6136
 5724SOL    HW228809   1.313   1.916   5.452 -0.8713 -1.6961 -1.7698
 5725SOL     OW28810   2.325   1.415  15.031 -0.6665  0.0585  0.5906
 5725SOL    HW128811   2.298   1.330  15.067 -1.9031  0.3440  0.3228
 5725SOL    HW228812   2.252   1.467  15.061 -0.0659  0.3995  1.4592
 5726SOL     OW28813   3.771   0.428   7.062 -0.4413  0.0846  0.1962
 5726SOL    HW128814   3.814   0.484   7.126  1.0074  0.5696 -1.2094
 5726SOL    HW228815   3.809   0.455   6.978  0.5965 -0.3010  0.5444
 5727SOL     OW28816   1.901   3.726   5.151 -0.7087 -0.0119  0.4352
 5727SOL    HW128817   1.904   3.786   5.225 -1.1599  0.4702  0.0637
 5727SOL    HW228818   1.947   3.768   5.078 -2.1263  0.9745  0.0991
 5728SOL     OW28819   1.082   3.262   3.909  0.2560  0.5667  0.4003
 5728SOL    HW128820   1.090   3.185   3.964  3.4951  0.9789  0.4967
 5728SOL    HW228821   1.162   3.254   3.856  1.4783  1.5379  2.1018
 5729SOL     OW28822   1.528   3.668   1.772 -0.3027 -0.4360  0.3751
 5729SOL    HW128823   1.497   3.641   1.686 -0.7759  0.3389  0.3008
 5729SOL    HW228824   1.449   3.680   1.826 -2.4682 -0.4255 -2.8037
 5730SOL     OW28825   2.312   2.472   2.236  0.0905  0.7753 -0.7672
 5730SOL    HW128826   2.259   2.395   2.215  1.8253 -0.6971  0.1319
 5730SOL    HW228827   2.335   2.459   2.328 -1.2474  0.3159 -0.4980
 5731SOL     OW28828   2.247   0.840   0.207 -0.0577 -0.1766 -0.1722
 5731SOL    HW128829   2.202   0.848   0.292  1.9671  2.1200  0.6553
 5731SOL    HW228830   2.334   0.816   0.238  0.3897  2.7859  0.7793
 5732SOL     OW28831   0.944   3.373   1.748  0.4606  0.2992  0.3655
 5732SOL    HW128832   0.854   3.399   1.732  1.1894  2.2061 -0.5978
 5732SOL    HW228833   0.933   3.278   1.759 -2.4677  0.6674  0.5127
 5733SOL     OW28834   0.322   0.760   6.033 -0.2127 -0.7260 -0.3716
 5733SOL    HW128835   0.251   0.755   5.969  0.6953  1.6982 -1.5228
 5733SOL    HW228836   0.397   0.711   6.001  0.4350  1.1818 -1.7570
 5734SOL     OW28837   1.063   4.407   2.540  0.2188  0.5949 -0.0874
 5734SOL    HW128838   0.968   4.394   2.541  0.5826 -1.8265  0.6649
 5734SOL    HW228839   1.060   4.461   2.460 -0.0348 -0.6934 -0.9433
 5735SOL     OW28840   2.857   3.841   2.737 -0.0514  0.4463 -0.2463
 5735SOL    HW128841   2.922   3.911   2.737 -0.7688  1.1191 -0.1400
 5735SOL    HW228842   2.784   3.880   2.690 -0.2525 -0.3078 -0.5655
 5736SOL     OW28843   1.406   4.150   1.739 -0.2196 -0.2676  0.1415
 5736SOL    HW128844   1.447   4.232   1.768 -1.5936  0.1912  0.7840
 5736SOL    HW228845   1.483   4.100   1.767  0.2278  0.5387  0.3870
 5737SOL     OW28846   0.303   4.648   7.912  0.1232  0.2681 -0.4904
 5737SOL    HW128847   0.250   4.690   7.845 -0.6758  1.1024  0.6803
 5737SOL    HW228848   0.341   4.728   7.947 -0.5415 -0.0680  0.9815
 5738SOL     OW28849   4.207   3.738   7.829  0.3043 -0.4849 -0.2951
 5738SOL    HW128850   4.230   3.681   7.902  0.2196  0.4720  0.4852
 5738SOL    HW228851   4.290   3.784   7.824  1.2953 -2.4172 -1.5258
 5739SOL     OW28852   3.823   3.844  13.556 -0.1891 -0.6404 -0.0567
 5739SOL    HW128853   3.886   3.809  13.493 -0.9782  0.8033 -1.6588
 5739SOL    HW228854   3.801   3.932  13.525  3.6964  0.3968  0.1923
 5740SOL     OW28855   4.143   4.724   1.044 -0.0051  0.3322 -0.3579
 5740SOL    HW128856   4.083   0.005   1.115  0.4711  1.1844 -0.2062
 5740SOL    HW228857   4.141   4.628   1.041 -1.5986  0.3444  0.6195
 5741SOL     OW28858   4.603   1.073   1.907  0.2347  0.1540 -0.0143
 5741SOL    HW128859   4.522   1.112   1.941  1.0210  1.2324  0.6404
 5741SOL    HW228860   4.574   0.991   1.868  1.7709  0.7540 -2.3804
 5742SOL     OW28861   2.194   4.270  17.382  0.1845 -0.3432  0.7140
 5742SOL    HW128862   2.225   4.327  17.312  2.1109  0.7546  2.4616
 5742SOL    HW228863   2.146   4.207  17.328  1.8312  0.6207 -1.8434
 5743SOL     OW28864   1.781   2.816   6.070 -0.3840  0.0085 -0.6582
 5743SOL    HW128865   1.866   2.784   6.040 -0.7203 -2.0322  0.5331
 5743SOL    HW228866   1.808   2.876   6.138 -0.1776 -1.9084  0.9611
 5744SOL     OW28867   3.944   3.109   3.008  0.2304 -0.2366  0.9890
 5744SOL    HW128868   3.887   3.100   2.931 -1.2561  1.4299  1.8958
 5744SOL    HW228869   3.996   3.030   2.999 -0.9616 -1.0412  1.1359
 5745SOL     OW28870   2.034   0.172   0.502 -0.4310 -0.0096  0.0034
 5745SOL    HW128871   2.066   0.085   0.478  0.2235  0.7289 -1.7963
 5745SOL    HW228872   2.008   0.161   0.594  0.9450 -1.1347  0.2598
 5746SOL     OW28873   0.353   4.485   0.887 -0.0494 -0.1656 -0.6805
 5746SOL    HW128874   0.444   4.476   0.917 -0.4210 -0.6323  0.3104
 5746SOL    HW228875   0.311   4.545   0.948 -0.8039 -1.6030  0.2196
 5747SOL     OW28876   2.785   1.870   9.543  0.4320  0.1990 -0.2576
 5747SOL    HW128877   2.844   1.895   9.614  0.7109 -1.3150  0.0495
 5747SOL    HW228878   2.703   1.910   9.571  0.3037 -0.6936  0.6587
 5748SOL     OW28879   2.197   4.647   3.394  0.1556  0.7006 -0.3055
 5748SOL    HW128880   2.107   4.660   3.362  1.3139 -0.1713 -3.9812
 5748SOL    HW228881   2.215   4.731   3.435  0.7656  0.7431 -0.6598
 5749SOL     OW28882   4.308   3.227   8.456  0.6825  0.0333 -0.0119
 5749SOL    HW128883   4.351   3.242   8.540  2.6645  0.4161 -1.0991
 5749SOL    HW228884   4.370   3.245   8.385 -0.3315 -0.0025 -0.9032
 5750SOL     OW28885   0.575   0.741   5.212  0.1069  0.1395  0.1566
 5750SOL    HW128886   0.526   0.683   5.153  1.8812  2.0694 -3.2030
 5750SOL    HW228887   0.618   0.800   5.150  2.5812 -1.0926  0.6988
 5751SOL     OW28888   1.991   0.935  16.087  0.0332  0.0088  0.1875
 5751SOL    HW128889   1.932   0.870  16.047  0.8185  0.2641 -1.3590
 5751SOL    HW228890   1.958   0.926  16.176  0.0707 -0.9294  0.1044
 5752SOL     OW28891   3.588   2.041   1.390  0.8046 -0.6418  0.1027
 5752SOL    HW128892   3.672   2.082   1.371  1.0371 -1.5035 -0.6988
 5752SOL    HW228893   3.609   1.948   1.387 -0.3294 -0.8731 -0.4136
 5753SOL     OW28894   2.539   4.726  10.900 -0.0425 -0.0788  0.0534
 5753SOL    HW128895   2.564   0.079  10.899 -1.0476  0.1665 -1.6087
 5753SOL    HW228896   2.609   4.694  10.844  0.4722 -0.3601  0.8660
 5754SOL     OW28897   1.068   4.090   2.550 -0.4984 -0.5021  0.0137
 5754SOL    HW128898   0.985   4.138   2.544 -0.5829 -0.5862  0.5137
 5754SOL    HW228899   1.088   4.114   2.641  0.6289  2.2106 -0.9426
 5755SOL     OW28900   1.769   4.441   5.709  0.5572  0.0221 -0.5334
 5755SOL    HW128901   1.861   4.417   5.719  0.7970  1.7130  1.3122
 5755SOL    HW228902   1.774   4.527   5.750  1.6135 -0.0351 -0.5531
 5756SOL     OW28903   1.493   4.469   5.082 -0.2975 -0.4484  0.2798
 5756SOL    HW128904   1.504   4.393   5.140 -0.6324 -0.1277  0.7622
 5756SOL    HW228905   1.458   4.420   5.007  2.3701 -2.3459  0.2467
 5757SOL     OW28906   3.853   4.035   1.474  0.9271 -0.3621  0.2326
 5757SOL    HW128907   3.912   3.960   1.478  0.2582 -0.6698  4.2307
 5757SOL    HW228908   3.879   4.098   1.407 -0.0061  0.4328  0.6194
 5758SOL     OW28909   3.304   3.674   9.299 -0.5305 -0.1572  0.3201
 5758SOL    HW128910   3.219   3.668   9.255 -0.3737  1.5660 -0.2166
 5758SOL    HW228911   3.286   3.676   9.393  2.2632 -1.5081  0.8807
 5759SOL     OW28912   3.284   3.250   5.652 -0.0452 -0.1649  0.3221
 5759SOL    HW128913   3.275   3.168   5.602  2.3385  0.3535 -0.9492
 5759SOL    HW228914   3.250   3.318   5.593  0.1225 -0.0322  0.3798
 5760SOL     OW28915   0.856   1.796   7.702  0.0635 -0.4385 -0.6760
 5760SOL    HW128916   0.884   1.773   7.613 -0.6369 -0.0316 -1.0015
 5760SOL    HW228917   0.943   1.822   7.732  0.5551 -3.0516  0.1695
 5761SOL     OW28918   0.337   2.976   7.957 -0.5670  0.5180  0.5343
 5761SOL    HW128919   0.330   3.066   7.987 -1.8807 -0.1173  2.0904
 5761SOL    HW228920   0.368   2.981   7.866  0.8710 -0.1654  0.9758
 5762SOL     OW28921   2.314   0.328   7.463  0.0936  0.4724 -0.0694
 5762SOL    HW128922   2.396   0.320   7.511  0.1433 -1.8413 -0.5291
 5762SOL    HW228923   2.331   0.402   7.405 -1.1628  0.3328 -0.6174
 5763SOL     OW28924   4.117   0.770   7.734 -0.1818 -0.5478  0.0165
 5763SOL    HW128925   4.106   0.723   7.817 -2.4943  0.3611  0.2453
 5763SOL    HW228926   4.059   0.845   7.748  1.1456  0.4786  0.0580
 5764SOL     OW28927   4.203   3.609   5.369 -0.1195  0.0730 -0.4362
 5764SOL    HW128928   4.281   3.642   5.415 -0.9283  0.7001  0.4693
 5764SOL    HW228929   4.232   3.620   5.278 -0.8682  1.3102 -0.5275
 5765SOL     OW28930   0.616   3.630  13.867 -0.0177  0.4832  0.2089
 5765SOL    HW128931   0.708   3.658  13.862  0.5870 -1.4360  0.6677
 5765SOL    HW228932   0.595   3.665  13.780 -0.4759  0.6654  0.3954
 5766SOL     OW28933   2.454   2.544  11.696  0.8604 -0.1235  0.1469
 5766SOL    HW128934   2.449   2.607  11.768  1.1586 -1.3444  1.2522
 5766SOL    HW228935   2.488   2.467  11.743 -0.2381 -1.8916 -1.9933
 5767SOL     OW28936   3.098   2.966   0.586 -0.3700  0.3478  0.6143
 5767SOL    HW128937   3.052   2.951   0.503  0.6210  2.0235 -0.2328
 5767SOL    HW228938   3.117   2.874   0.600 -1.3935 -0.2047 -1.6175
 5768SOL     OW28939   0.868   3.173   9.834  0.0164  0.5658 -0.5974
 5768SOL    HW128940   0.783   3.214   9.846 -0.3041 -0.1445 -0.4549
 5768SOL    HW228941   0.917   3.213   9.906  0.7273 -0.5640 -0.4485
 5769SOL     OW28942   3.571   4.615   7.868 -0.4256  0.0945  0.1041
 5769SOL    HW128943   3.561   4.526   7.902 -0.7676 -1.2464 -3.5738
 5769SOL    HW228944   3.505   4.663   7.919 -2.1539  2.0920 -4.0512
 5770SOL     OW28945   3.796   1.228   5.723 -0.3028 -0.5478  0.0982
 5770SOL    HW128946   3.891   1.229   5.719 -0.2820 -0.1744  0.6483
 5770SOL    HW228947   3.770   1.136   5.727  1.9105 -1.0750  2.2835
 5771SOL     OW28948   1.893   1.734   7.120 -0.3981 -0.1858  0.1203
 5771SOL    HW128949   1.969   1.792   7.123  0.5329 -1.3521 -1.1846
 5771SOL    HW228950   1.890   1.675   7.195 -0.4046  0.8221  0.9105
 5772SOL     OW28951   3.673   2.235  14.706 -0.5055  0.2774 -0.6172
 5772SOL    HW128952   3.735   2.231  14.634  0.4038  0.1344  0.1685
 5772SOL    HW228953   3.616   2.306  14.677  1.0635  2.2216  0.9975
 5773SOL     OW28954   0.115   2.797  16.781  1.1749  0.2575 -0.0408
 5773SOL    HW128955   0.168   2.742  16.839  0.5154  0.2028  0.5075
 5773SOL    HW228956   0.045   2.825  16.840  0.3571  1.4503 -1.5881
 5774SOL     OW28957   0.501   0.916   2.991 -0.0647 -0.1040  0.3591
 5774SOL    HW128958   0.523   0.966   2.912 -0.8520  0.1178  0.2747
 5774SOL    HW228959   0.410   0.895   2.969  0.1976 -2.1531  1.2442
 5775SOL     OW28960   0.180   0.418   3.026  0.1657  0.1686 -0.1945
 5775SOL    HW128961   0.150   0.329   3.005 -1.4382 -0.0389  3.1060
 5775SOL    HW228962   0.166   0.453   2.939 -0.0860 -0.3598 -0.3690
 5776SOL     OW28963   2.187   3.488   2.183  0.0122  0.2084 -0.9170
 5776SOL    HW128964   2.117   3.445   2.232 -0.2040  0.0876 -1.3314
 5776SOL    HW228965   2.133   3.541   2.124  0.1077  1.3259  0.0145
 5777SOL     OW28966   2.566   3.925   5.829  0.2612  0.4769  0.0505
 5777SOL    HW128967   2.497   3.987   5.806 -1.0591  0.0426  2.8502
 5777SOL    HW228968   2.615   3.977   5.893 -1.2423  0.1094  1.5121
 5778SOL     OW28969   0.094   4.267   9.294  0.3816 -0.2897  0.0945
 5778SOL    HW128970   0.044   4.248   9.215  1.6679  0.7484 -0.9630
 5778SOL    HW228971   0.093   4.185   9.343 -3.8577 -0.0540  0.4772
 5779SOL     OW28972   1.015   4.195   3.425 -0.3934  0.1594  0.1309
 5779SOL    HW128973   1.070   4.187   3.347 -2.5510  0.5405 -1.4302
 5779SOL    HW228974   1.058   4.272   3.462  0.0377 -0.4215  0.8129
 5780SOL     OW28975   1.361   2.227   2.812  0.2030 -0.0579  0.5070
 5780SOL    HW128976   1.398   2.146   2.847  1.0934 -0.1661 -0.6842
 5780SOL    HW228977   1.352   2.198   2.721 -0.9266 -1.3539  1.0269
 5781SOL     OW28978   0.402   3.591   5.064  0.5803  0.0748 -0.0489
 5781SOL    HW128979   0.450   3.585   4.981 -0.5828  0.0376 -0.7158
 5781SOL    HW228980   0.383   3.685   5.062 -1.2752 -0.2757  2.3491
 5782SOL     OW28981   3.140   2.386   6.545  0.3727  0.1245 -0.3994
 5782SOL    HW128982   3.149   2.317   6.479 -0.2859  0.6483 -1.0512
 5782SOL    HW228983   3.060   2.359   6.590  0.5277  0.3127 -0.0154
 5783SOL     OW28984   1.986   1.096   9.467  0.1924 -0.0221 -0.0935
 5783SOL    HW128985   1.993   1.080   9.373  1.2256  0.6965 -0.1357
 5783SOL    HW228986   2.037   1.028   9.510  0.6937  0.3153 -0.1507
 5784SOL     OW28987   0.609   1.762   4.544  0.1985 -0.0151 -0.6639
 5784SOL    HW128988   0.613   1.714   4.462 -1.4969 -1.7820  0.3006
 5784SOL    HW228989   0.691   1.812   4.537 -0.1559  0.5101 -1.1044
 5785SOL     OW28990   3.609   3.534   9.807 -0.5236 -0.0489 -0.1521
 5785SOL    HW128991   3.594   3.442   9.784 -1.7268  0.1062 -0.0198
 5785SOL    HW228992   3.647   3.566   9.725  0.8737  2.8558  1.6517
 5786SOL     OW28993   3.702   1.500   8.547 -0.0705 -0.3010  0.3722
 5786SOL    HW128994   3.641   1.565   8.582 -0.6564 -1.5894  1.7286
 5786SOL    HW228995   3.784   1.548   8.539 -0.4024  0.3494  0.8728
 5787SOL     OW28996   1.057   4.635  16.722 -0.4099 -0.1486  0.1743
 5787SOL    HW128997   1.041   4.541  16.713 -0.3181 -0.0685 -0.7889
 5787SOL    HW228998   1.089   4.641  16.812 -0.3170  0.3301  0.1100
 5788SOL     OW28999   3.149   4.320   5.137 -0.5346  0.9194 -0.2844
 5788SOL    HW129000   3.187   4.315   5.050  1.4166  1.2504  0.5303
 5788SOL    HW229001   3.138   4.227   5.155  2.0419  0.6972  0.2234
 5789SOL     OW29002   0.029   3.501   3.944  0.3022 -0.2577  0.0562
 5789SOL    HW129003   0.055   3.559   4.016 -0.3427  1.0885 -0.7724
 5789SOL    HW229004   0.015   3.570   3.878  4.0206  1.7021  1.3364
 5790SOL     OW29005   1.160   4.178   0.122  0.4388  0.5886  0.8228
 5790SOL    HW129006   1.183   4.173   0.029 -1.9150 -1.0338  0.3437
 5790SOL    HW229007   1.083   4.235   0.118 -0.6876 -0.8211  2.5694
 5791SOL     OW29008   0.123   1.066   2.743  0.1057 -0.2962  0.3387
 5791SOL    HW129009   0.173   1.031   2.816 -1.0285 -2.1621  0.2315
 5791SOL    HW229010   0.037   1.056   2.783 -0.1980  0.9014 -0.0204
 5792SOL     OW29011   1.959   1.170  13.122 -0.5325 -0.1661 -0.7717
 5792SOL    HW129012   2.042   1.219  13.123 -0.0181 -1.0350  1.0861
 5792SOL    HW229013   1.929   1.165  13.213  0.1261 -1.0196 -0.5939
 5793SOL     OW29014   0.867   1.996   3.640 -0.2914  0.4861 -0.1853
 5793SOL    HW129015   0.937   1.993   3.575  1.5243  1.2178  1.7472
 5793SOL    HW229016   0.878   1.902   3.653 -1.2330  0.2549 -1.0376
 5794SOL     OW29017   4.695   0.835  16.717  0.4669 -0.0152  0.6354
 5794SOL    HW129018   0.024   0.769  16.709  0.3926 -0.0590  0.3490
 5794SOL    HW229019   0.003   0.905  16.671 -1.2527  1.1385  0.6331
 5795SOL     OW29020   3.023   3.404  12.330  0.0048  0.6569  0.2965
 5795SOL    HW129021   2.988   3.490  12.306  2.3355  1.5257 -0.0337
 5795SOL    HW229022   3.115   3.424  12.308  0.0465 -0.1864 -0.3065
 5796SOL     OW29023   0.410   0.681   2.581  0.4394  0.0449  0.4172
 5796SOL    HW129024   0.379   0.771   2.583  0.9662  0.2350  0.0788
 5796SOL    HW229025   0.381   0.652   2.495  0.0257 -1.3527  1.0183
 5797SOL     OW29026   0.878   3.563  11.533  0.2103  0.2112 -0.2781
 5797SOL    HW129027   0.904   3.521  11.452 -1.0918  0.4314 -0.8170
 5797SOL    HW229028   0.950   3.619  11.564  0.3972 -0.5614  0.6814
 5798SOL     OW29029   0.874   4.183  15.602 -0.2168 -0.7394  0.2671
 5798SOL    HW129030   0.900   4.091  15.613 -1.8716 -1.3623 -0.8245
 5798SOL    HW229031   0.957   4.229  15.608 -1.3902  1.7536 -2.4051
 5799SOL     OW29032   2.742   3.724  14.388 -0.1623 -0.2073 -0.0750
 5799SOL    HW129033   2.696   3.715  14.304 -0.3986  1.3100 -0.1169
 5799SOL    HW229034   2.729   3.639  14.430 -0.7309  0.9059  1.9890
 5800SOL     OW29035   0.232   4.019  16.620 -0.3508  0.1926 -0.4033
 5800SOL    HW129036   0.144   3.983  16.612 -0.4583  0.8314 -1.9859
 5800SOL    HW229037   0.210   4.098  16.670 -0.6877  1.6718 -2.8726
 5801SOL     OW29038   3.480   3.602   1.735 -0.1652 -0.0700  0.3769
 5801SOL    HW129039   3.423   3.529   1.761 -0.2665  0.7582  2.4986
 5801SOL    HW229040   3.552   3.602   1.798  0.3075 -1.8460 -0.1627
 5802SOL     OW29041   0.892   0.993   1.682  0.7208  0.1246  0.8557
 5802SOL    HW129042   0.908   0.980   1.589  1.4848  0.2734  0.9679
 5802SOL    HW229043   0.899   0.906   1.721 -0.7142  0.4637  1.8866
 5803SOL     OW29044   4.706   4.011   1.778 -0.3605 -0.2045  0.0266
 5803SOL    HW129045   0.036   3.966   1.825  0.2316  4.5272  3.6149
 5803SOL    HW229046   4.691   4.082   1.839 -1.0887 -1.7052  1.5966
 5804SOL     OW29047   2.557   1.535   5.235 -0.6019 -1.2481 -0.0769
 5804SOL    HW129048   2.480   1.478   5.239 -2.6558  1.4382 -1.3822
 5804SOL    HW229049   2.602   1.512   5.153 -1.2758  2.1814 -1.4298
 5805SOL     OW29050   0.839   0.487   3.057  0.2019 -0.0497  0.5254
 5805SOL    HW129051   0.845   0.427   2.983 -1.6524  2.8937 -2.0198
 5805SOL    HW229052   0.766   0.441   3.097 -1.3727  0.1453 -2.0869
 5806SOL     OW29053   1.018   1.956   2.654 -0.2424 -0.3092 -0.0270
 5806SOL    HW129054   1.089   2.000   2.608 -0.3028  2.2310  2.3611
 5806SOL    HW229055   0.982   2.019   2.716  2.9152 -1.1185  2.6613
 5807SOL     OW29056   3.943   1.648   2.171 -0.4244  0.4399  0.7203
 5807SOL    HW129057   3.970   1.557   2.160  1.7911  1.1775  0.0655
 5807SOL    HW229058   3.848   1.645   2.175 -0.4135  0.2492  0.8285
 5808SOL     OW29059   3.602   0.379   3.005 -0.2422  0.4485  0.6277
 5808SOL    HW129060   3.508   0.371   2.992 -0.5767  2.0639  2.1956
 5808SOL    HW229061   3.633   0.288   3.007  1.2109  0.8754 -1.5414
 5809SOL     OW29062   1.543   4.417   0.612 -0.0602 -0.3805  0.7040
 5809SOL    HW129063   1.451   4.440   0.598 -0.2709 -1.6471 -0.0510
 5809SOL    HW229064   1.569   4.388   0.524 -0.7014 -0.6017  0.5848
 5810SOL     OW29065   1.108   2.669   5.875  0.0905 -0.4358 -0.1173
 5810SOL    HW129066   1.156   2.751   5.882 -0.5804 -0.0994  0.5244
 5810SOL    HW229067   1.022   2.703   5.900  0.4896 -1.6834  2.8884
 5811SOL     OW29068   3.558   4.698   5.650  0.3236 -0.1302  0.0156
 5811SOL    HW129069   3.515   0.041   5.631 -1.1294 -0.6739  0.9519
 5811SOL    HW229070   3.556   4.657   5.564 -1.3946 -1.9534  0.9014
 5812SOL     OW29071   4.270   0.141  16.397  0.7532  0.1138  0.2405
 5812SOL    HW129072   4.247   0.062  16.347 -0.5143 -0.2122  1.3341
 5812SOL    HW229073   4.350   0.161  16.349 -0.4715 -1.0733 -2.3062
 5813SOL     OW29074   0.452   4.717  17.364 -0.4313  0.3752 -0.0333
 5813SOL    HW129075   0.398   4.665  17.305 -2.1967  3.2419 -0.9476
 5813SOL    HW229076   0.495   4.651  17.418 -0.8047  1.0658  1.1209
 5814SOL     OW29077   1.157   3.879   9.533  0.0109  0.2235 -0.3552
 5814SOL    HW129078   1.189   3.802   9.485 -2.8200 -0.7294 -0.7487
 5814SOL    HW229079   1.103   3.922   9.467 -0.3163  0.6779  0.2111
 5815SOL     OW29080   3.927   2.548   2.318 -0.2313  0.2364 -0.4742
 5815SOL    HW129081   3.897   2.511   2.401 -0.6610 -1.7270 -1.5088
 5815SOL    HW229082   3.842   2.533   2.277  0.4467  1.3000 -2.2374
 5816SOL     OW29083   2.887   0.851  14.994  0.7245 -0.1202 -0.0471
 5816SOL    HW129084   2.926   0.921  15.046 -0.6612  0.1042  0.6947
 5816SOL    HW229085   2.906   0.873  14.902 -2.5736 -2.0828 -1.2099
 5817SOL     OW29086   2.883   0.961   8.507  0.0743 -0.3846 -0.2576
 5817SOL    HW129087   2.796   1.001   8.510 -0.1032 -0.9046  1.1175
 5817SOL    HW229088   2.929   1.045   8.514  1.3488 -1.1837  0.8766
 5818SOL     OW29089   1.898   0.451   7.299 -0.6860  0.0778  0.0200
 5818SOL    HW129090   1.806   0.422   7.294 -0.9733  1.0548 -0.3637
 5818SOL    HW229091   1.946   0.373   7.326 -1.4353 -0.9493 -1.6144
 5819SOL     OW29092   4.477   0.748   8.468  0.1921  0.2503 -0.4333
 5819SOL    HW129093   4.508   0.831   8.503  1.8756  0.3568 -2.1337
 5819SOL    HW229094   4.531   0.696   8.527  1.6248  1.9258 -0.2566
 5820SOL     OW29095   3.751   2.539   4.528  0.1891 -0.2281 -0.1845
 5820SOL    HW129096   3.745   2.487   4.448  0.4833 -0.4358 -0.0718
 5820SOL    HW229097   3.831   2.505   4.569  0.3557  0.9221  0.4441
 5821SOL     OW29098   0.425   3.158  16.640  0.4105 -0.0974  0.0209
 5821SOL    HW129099   0.510   3.200  16.645  1.7947 -2.7392 -1.3334
 5821SOL    HW229100   0.411   3.180  16.548  0.7528  0.5216  0.1175
 5822SOL     OW29101   1.539   2.366  16.185 -0.5403 -0.2282  0.1291
 5822SOL    HW129102   1.519   2.458  16.203 -1.0888 -0.6900  1.8913
 5822SOL    HW229103   1.460   2.323  16.219  0.1785  0.9397  3.2159
 5823SOL     OW29104   0.449   0.258   2.427 -0.6312  0.1277 -0.4936
 5823SOL    HW129105   0.498   0.177   2.412  0.2434  0.4632  0.5245
 5823SOL    HW229106   0.506   0.330   2.400  0.6603 -1.0653 -0.9803
 5824SOL     OW29107   3.869   4.185   9.075 -0.2907  0.1358  0.1940
 5824SOL    HW129108   3.900   4.120   9.139 -0.4846  1.2978  1.4773
 5824SOL    HW229109   3.831   4.254   9.129 -2.0760 -0.7895  0.1050
 5825SOL     OW29110   3.642   4.340   4.419  0.5299  0.4036  0.3492
 5825SOL    HW129111   3.712   4.349   4.484  1.5073  1.1883 -0.8451
 5825SOL    HW229112   3.672   4.256   4.382  1.3763  0.4191  0.9858
 5826SOL     OW29113   2.900   3.193   9.371 -0.0558  0.2181 -0.0102
 5826SOL    HW129114   2.944   3.212   9.454 -0.1304  0.6539 -0.0713
 5826SOL    HW229115   2.967   3.227   9.312  0.4624  4.1600  2.8413
 5827SOL     OW29116   1.342   2.179   7.417  0.5110 -0.0946  0.0195
 5827SOL    HW129117   1.285   2.137   7.480 -0.3696 -0.5143 -1.0682
 5827SOL    HW229118   1.329   2.120   7.343 -0.4573 -1.1018  1.0005
 5828SOL     OW29119   1.599   0.925   7.064 -0.0886  0.5709  0.1678
 5828SOL    HW129120   1.665   0.993   7.051  2.2556 -1.5542  0.9170
 5828SOL    HW229121   1.534   0.934   6.994 -0.4783  0.6357  0.5353
 5829SOL     OW29122   3.751   0.319  15.024 -0.5649  0.5707 -0.0969
 5829SOL    HW129123   3.795   0.268  15.091  0.7211 -0.1435 -1.4878
 5829SOL    HW229124   3.827   0.357  14.981 -0.6906  0.1772 -0.6656
 5830SOL     OW29125   1.778   0.389  12.176  0.3983  0.4094  0.6253
 5830SOL    HW129126   1.833   0.453  12.131  1.6265 -0.4586  0.8860
 5830SOL    HW229127   1.723   0.359  12.103  0.3212  0.0922  0.8127
 5831SOL     OW29128   2.957   2.598   1.553  0.0133 -0.1459  0.5175
 5831SOL    HW129129   3.047   2.571   1.572  0.1114 -0.2906 -0.1254
 5831SOL    HW229130   2.961   2.683   1.508  0.0636 -0.8777 -0.8657
 5832SOL     OW29131   2.553   3.818  17.544 -0.0043  0.2814  0.1585
 5832SOL    HW129132   2.518   3.731  17.564 -1.8354  1.0231  0.1549
 5832SOL    HW229133   2.633   3.806  17.596  0.1563 -1.0467 -0.3840
 5833SOL     OW29134   4.400   1.838  12.041 -0.5790  1.1492 -0.3854
 5833SOL    HW129135   4.347   1.796  11.974  2.3098 -2.6625 -0.3383
 5833SOL    HW229136   4.467   1.773  12.065  0.3188  2.9049  1.8596
 5834SOL     OW29137   3.327   0.765   4.362  0.3445  0.1131  0.2022
 5834SOL    HW129138   3.413   0.724   4.373 -0.6494 -1.6522  1.3216
 5834SOL    HW229139   3.308   0.799   4.449 -0.2495 -0.0400  0.1319
 5835SOL     OW29140   3.561   0.574  10.864 -0.3159  0.2245  0.8472
 5835SOL    HW129141   3.531   0.512  10.930  0.9300  0.0155  1.2141
 5835SOL    HW229142   3.561   0.529  10.780 -0.2679 -2.1827  2.1469
 5836SOL     OW29143   1.912   2.307   2.309 -0.0947  0.1787  0.0892
 5836SOL    HW129144   1.845   2.294   2.243 -1.4349  1.8260  1.1117
 5836SOL    HW229145   1.984   2.255   2.274  0.0043 -0.9885  2.0190
 5837SOL     OW29146   3.672   0.114   2.838 -0.0772 -0.0968  0.0131
 5837SOL    HW129147   3.712   0.051   2.777 -1.1331  1.0866 -1.8746
 5837SOL    HW229148   3.710   0.192   2.798  0.3885 -0.2058  0.2413
 5838SOL     OW29149   2.833   3.531  15.955 -0.9241  0.0822  0.0242
 5838SOL    HW129150   2.924   3.531  15.983 -1.3848 -3.2971  1.4639
 5838SOL    HW229151   2.793   3.602  16.005  3.2051  1.2013  1.7018
 5839SOL     OW29152   1.814   2.548   3.886  0.5154  0.1264 -0.2132
 5839SOL    HW129153   1.797   2.638   3.859  3.9609  0.9840  0.5021
 5839SOL    HW229154   1.906   2.554   3.914  1.1343 -0.6981 -2.0283
 5840SOL     OW29155   0.464   4.134   7.927  0.1835  0.4510 -0.3071
 5840SOL    HW129156   0.504   4.093   7.850  0.8953  1.1777 -0.3285
 5840SOL    HW229157   0.450   4.220   7.888 -3.0763 -0.6153 -1.4761
 5841SOL     OW29158   4.587   2.585   5.793 -0.0821 -0.6186  0.0602
 5841SOL    HW129159   4.640   2.557   5.868 -0.1813  0.8746  0.7100
 5841SOL    HW229160   4.560   2.676   5.812 -1.0609 -0.7693 -0.6024
 5842SOL     OW29161   0.782   3.488   5.852  0.4706  0.2040  0.2945
 5842SOL    HW129162   0.770   3.561   5.914 -4.4484  0.8243 -1.3313
 5842SOL    HW229163   0.872   3.461   5.869  0.4181 -0.9635 -1.2984
 5843SOL     OW29164   3.936   2.649  16.655  0.4174 -0.0737 -0.4781
 5843SOL    HW129165   3.950   2.732  16.609 -1.9861  1.8910  2.3351
 5843SOL    HW229166   3.884   2.677  16.730 -2.9235 -0.4961 -2.5915
 5844SOL     OW29167   3.787   1.177   4.253 -0.0180  0.0293  0.2911
 5844SOL    HW129168   3.779   1.170   4.348 -1.4283 -1.0122  0.0920
 5844SOL    HW229169   3.880   1.164   4.233  0.0068 -0.7172  0.9100
 5845SOL     OW29170   1.805   1.783   5.481 -0.1003  0.1768  0.1328
 5845SOL    HW129171   1.854   1.747   5.406  0.7571  1.9968 -0.1835
 5845SOL    HW229172   1.723   1.735   5.472  0.0602 -0.4926  2.2397
 5846SOL     OW29173   2.713   1.974  13.731  0.5560 -0.0904  0.4511
 5846SOL    HW129174   2.774   2.015  13.793  0.2179  0.7464  0.2196
 5846SOL    HW229175   2.636   2.028  13.746  1.4858  1.0209  1.1985
 5847SOL     OW29176   1.538   0.936   3.990  0.2420  0.6236 -1.2500
 5847SOL    HW129177   1.446   0.954   3.972  0.5519  0.3674 -3.0586
 5847SOL    HW229178   1.555   0.867   3.926 -1.7965 -0.1038 -0.9985
 5848SOL     OW29179   3.538   3.054  10.797 -0.0490 -0.4283 -0.5529
 5848SOL    HW129180   3.596   3.062  10.721  0.6550 -0.4834 -0.0172
 5848SOL    HW229181   3.476   3.122  10.772 -0.7898 -0.7300  0.4504
 5849SOL     OW29182   4.382   1.245   4.933 -0.3152 -0.1002  0.3088
 5849SOL    HW129183   4.425   1.214   5.012  0.4932  0.3472  0.0404
 5849SOL    HW229184   4.427   1.191   4.868  1.0409  0.2481  0.9737
 5850SOL     OW29185   3.192   1.492   5.594  0.6041 -0.4298  0.3461
 5850SOL    HW129186   3.119   1.508   5.654  1.7262 -0.7560  1.8184
 5850SOL    HW229187   3.261   1.509   5.658  0.5258  1.1531  0.0123
 5851SOL     OW29188   1.095   1.811   2.873  0.2706 -0.0297  0.0357
 5851SOL    HW129189   1.013   1.821   2.921  1.6121 -3.9033  3.1874
 5851SOL    HW229190   1.081   1.850   2.787 -2.6924  0.2352  0.6363
 5852SOL     OW29191   0.151   0.163   1.310 -1.0510  0.1854  0.1223
 5852SOL    HW129192   0.080   0.116   1.354 -0.1705 -1.2876 -0.0240
 5852SOL    HW229193   0.152   0.132   1.219 -0.6909  3.4810 -1.0082
 5853SOL     OW29194   3.105   4.515   4.854  0.3255 -0.3379 -0.0215
 5853SOL    HW129195   3.114   4.587   4.916 -1.7500 -0.0674 -0.0340
 5853SOL    HW229196   3.022   4.473   4.878 -0.5105  0.0821 -2.2183
 5854SOL     OW29197   0.690   2.043  14.290  0.5717  0.1591  0.4129
 5854SOL    HW129198   0.690   2.088  14.375  0.2113 -2.6003  1.8519
 5854SOL    HW229199   0.606   1.998  14.295  0.8769 -0.5113 -0.4471
 5855SOL     OW29200   2.594   0.580   1.853  0.4493 -0.0290 -0.0256
 5855SOL    HW129201   2.626   0.610   1.768 -3.3740 -0.2129 -1.5003
 5855SOL    HW229202   2.522   0.639   1.875 -0.3606 -1.3100  0.7885
 5856SOL     OW29203   3.442   3.639  16.668  0.1548 -0.0325  0.6870
 5856SOL    HW129204   3.469   3.656  16.577 -2.5130 -1.7401 -0.4412
 5856SOL    HW229205   3.440   3.730  16.700  1.9589 -0.7230  2.7332
 5857SOL     OW29206   1.457   3.381   1.664 -0.2371 -0.2270  0.1643
 5857SOL    HW129207   1.412   3.298   1.647  0.3700 -0.7635  1.1467
 5857SOL    HW229208   1.547   3.349   1.669 -0.4286 -0.6829  0.7351
 5858SOL     OW29209   1.235   1.399   5.462  0.0483  0.3240  0.1362
 5858SOL    HW129210   1.203   1.407   5.371 -2.9490 -0.0418  1.1521
 5858SOL    HW229211   1.148   1.384   5.498 -0.5309 -0.2011 -1.4568
 5859SOL     OW29212   3.302   0.513  15.779 -0.8023  0.6564  0.3047
 5859SOL    HW129213   3.278   0.428  15.743 -0.2366  0.3120  0.7212
 5859SOL    HW229214   3.385   0.494  15.825 -1.5030 -1.0466  0.8579
 5860SOL     OW29215   3.721   0.898  12.948 -0.1599 -0.8111 -0.0301
 5860SOL    HW129216   3.652   0.955  12.982  0.8817  1.1969 -1.2908
 5860SOL    HW229217   3.699   0.892  12.855  0.0336 -1.9398 -0.0024
 5861SOL     OW29218   0.553   0.089   6.479  0.4711  0.2336  0.4045
 5861SOL    HW129219   0.591   0.160   6.429  1.1286 -0.5043 -0.1414
 5861SOL    HW229220   0.526   0.022   6.417 -0.8977  2.2765 -1.1851
 5862SOL     OW29221   1.864   3.867   4.509  0.4059 -0.0250  0.4315
 5862SOL    HW129222   1.803   3.841   4.578  0.6972 -1.2041  0.2439
 5862SOL    HW229223   1.854   3.791   4.450 -1.4228 -1.2067  2.2541
 5863SOL     OW29224   2.330   1.240  13.591  0.3557  0.5004  0.4788
 5863SOL    HW129225   2.379   1.174  13.542 -0.5679 -1.4109  2.1289
 5863SOL    HW229226   2.358   1.239  13.682 -0.1848  0.9680  0.6510
 5864SOL     OW29227   2.857   2.622   7.351 -0.4197 -0.4294  0.0350
 5864SOL    HW129228   2.886   2.586   7.266 -0.2959  0.1036 -0.1461
 5864SOL    HW229229   2.813   2.702   7.322  1.1178  0.2461 -0.4091
 5865SOL     OW29230   1.347   4.356   2.964  0.1578 -0.1054  0.1016
 5865SOL    HW129231   1.280   4.351   2.896 -0.7976  1.4262  0.9292
 5865SOL    HW229232   1.383   4.442   2.946 -0.9619 -0.0875 -2.0016
 5866SOL     OW29233   2.369   4.394   6.516  0.0922 -0.4869 -0.0946
 5866SOL    HW129234   2.464   4.390   6.506  0.1752  0.4834  0.2617
 5866SOL    HW229235   2.347   4.363   6.604  0.0715 -0.1244  0.0298
 5867SOL     OW29236   2.988   2.797   7.520  0.3551  0.5698  1.3157
 5867SOL    HW129237   2.958   2.729   7.460  0.3167  0.2870  1.6558
 5867SOL    HW229238   3.054   2.753   7.574  1.4482 -0.2787 -0.6960
 5868SOL     OW29239   1.345   4.077  11.727 -0.1530 -0.4918  0.0488
 5868SOL    HW129240   1.322   4.046  11.815 -0.9931  0.6440  0.2234
 5868SOL    HW229241   1.297   4.012  11.676  1.4579  0.6417 -2.8876
 5869SOL     OW29242   2.996   3.288   3.122  0.6322  0.1065  0.2950
 5869SOL    HW129243   3.053   3.216   3.094  0.9865 -0.0355  1.3883
 5869SOL    HW229244   3.012   3.350   3.050 -2.7009 -0.4447 -0.9390
 5870SOL     OW29245   3.039   1.012  17.593 -0.3053 -0.1395  0.0410
 5870SOL    HW129246   3.032   1.048  17.681  0.3649 -2.3377  0.9842
 5870SOL    HW229247   3.129   0.982  17.586 -0.0257  0.1788  2.2947
 5871SOL     OW29248   4.182   1.902  10.554  0.6190  0.0191  0.1267
 5871SOL    HW129249   4.205   1.814  10.583 -0.9197 -0.0812  1.0691
 5871SOL    HW229250   4.236   1.915  10.477  0.9811 -1.3874  0.1490
 5872SOL     OW29251   1.094   4.091   2.841 -0.5363  0.1363  0.2786
 5872SOL    HW129252   1.002   4.078   2.862 -0.3976  0.0526  0.8390
 5872SOL    HW229253   1.118   3.998   2.836  0.2048  0.2488  1.6565
 5873SOL     OW29254   0.842   1.529   3.178  0.0302  0.0283 -0.0165
 5873SOL    HW129255   0.936   1.521   3.160 -0.4011 -1.7749 -1.4708
 5873SOL    HW229256   0.811   1.481   3.102  1.0417 -0.1066 -0.3497
 5874SOL     OW29257   3.349   3.033   2.826 -0.8711 -0.5665 -0.4176
 5874SOL    HW129258   3.354   3.097   2.755  1.4166  0.3780  0.5736
 5874SOL    HW229259   3.433   2.992   2.807  0.7147  1.7521  1.6478
 5875SOL     OW29260   2.165   4.221   7.379 -0.7287 -0.6793  0.2170
 5875SOL    HW129261   2.137   4.285   7.313  1.0943 -1.2912 -1.1333
 5875SOL    HW229262   2.183   4.143   7.326 -1.0521 -1.6906  1.5994
 5876SOL     OW29263   2.237   3.787   7.872 -0.3097  0.2673 -0.4747
 5876SOL    HW129264   2.287   3.862   7.904 -0.6350  1.3083 -2.4300
 5876SOL    HW229265   2.244   3.720   7.940  0.3437  0.4447 -0.3732
 5877SOL     OW29266   0.804   4.262   7.958 -0.0280  0.8411  0.0136
 5877SOL    HW129267   0.891   4.226   7.940 -1.4255 -2.1199 -0.8756
 5877SOL    HW229268   0.763   4.253   7.872  1.6854  3.1116 -1.0404
 5878SOL     OW29269   1.859   0.008  11.459 -0.2148 -0.0190  0.4172
 5878SOL    HW129270   1.920   4.674  11.466 -1.4436 -0.6852  4.2928
 5878SOL    HW229271   1.855   0.044  11.548 -0.1814 -1.2660  0.9221
 5879SOL     OW29272   4.717   1.974   3.277  0.0003  0.4615 -0.1298
 5879SOL    HW129273   0.050   1.993   3.337 -0.0241 -1.4004  0.4748
 5879SOL    HW229274   4.691   1.895   3.324 -0.4251  0.2825 -0.6622
 5880SOL     OW29275   2.192   3.581  15.092  0.1469  0.4863 -0.0390
 5880SOL    HW129276   2.199   3.522  15.168  2.6523  0.7484 -0.0832
 5880SOL    HW229277   2.275   3.554  15.054  1.4210  1.5277  2.0051
 5881SOL     OW29278   0.668   3.325   4.959 -0.4927 -0.1789 -0.6210
 5881SOL    HW129279   0.653   3.243   4.912 -0.4562 -0.4845 -0.1062
 5881SOL    HW229280   0.610   3.387   4.915 -0.4737  1.1250  1.2108
 5882SOL     OW29281   1.931   0.663   4.151  0.2418 -0.1168  0.7401
 5882SOL    HW129282   1.867   0.617   4.097  0.9734  1.6493 -1.6250
 5882SOL    HW229283   1.870   0.716   4.204 -0.7679  1.1490 -1.7015
 5883SOL     OW29284   4.249   1.407   9.635  0.3720 -0.5845  0.0059
 5883SOL    HW129285   4.341   1.421   9.612  0.1221  2.0402  0.5456
 5883SOL    HW229286   4.264   1.436   9.725 -0.7498  1.4798 -0.4542
 5884SOL     OW29287   1.233   2.328  10.065  0.0593  0.0458 -0.4902
 5884SOL    HW129288   1.236   2.312   9.971  0.0933 -0.5344 -0.3934
 5884SOL    HW229289   1.247   2.240  10.099 -2.2835 -0.5454 -1.0766
 5885SOL     OW29290   2.074   2.994   1.014  0.5395  0.3127  0.1702
 5885SOL    HW129291   2.019   3.038   0.950  0.0261 -1.0668 -0.3421
 5885SOL    HW229292   2.026   3.025   1.090  1.3075  1.0322  0.3678
 5886SOL     OW29293   2.369   0.025   7.424 -0.1481  0.8525  0.0295
 5886SOL    HW129294   2.321   0.103   7.453 -0.7432  0.7944 -0.8235
 5886SOL    HW229295   2.375   0.029   7.329  0.9641  0.4911  0.0873
 5887SOL     OW29296   0.591   3.820   3.274 -0.4418 -0.2324  0.6623
 5887SOL    HW129297   0.608   3.814   3.180 -1.4734  0.7543  0.4158
 5887SOL    HW229298   0.567   3.728   3.290 -0.2568 -0.1397  1.4973
 5888SOL     OW29299   4.224   0.445   3.359  0.3892 -0.0493  0.1427
 5888SOL    HW129300   4.198   0.537   3.355  0.0641 -0.2369 -1.7445
 5888SOL    HW229301   4.141   0.404   3.338  0.3756 -1.1159  2.2235
 5889SOL     OW29302   1.361   2.589  12.868 -0.0321 -0.1683 -0.3657
 5889SOL    HW129303   1.266   2.602  12.863 -0.1775 -1.3341 -0.7871
 5889SOL    HW229304   1.361   2.624  12.956 -0.3497  2.6829 -1.4999
 5890SOL     OW29305   4.182   0.209  14.473 -0.0785  0.2270 -0.3724
 5890SOL    HW129306   4.095   0.179  14.447 -0.2189 -0.2510  0.6460
 5890SOL    HW229307   4.159   0.277  14.536 -0.3190  0.1409 -0.3670
 5891SOL     OW29308   1.393   3.214   7.007  0.6653  0.8490  0.5782
 5891SOL    HW129309   1.439   3.132   7.024  0.9874  0.4479 -2.3116
 5891SOL    HW229310   1.312   3.167   6.991  1.1952 -0.2845  1.1722
 5892SOL     OW29311   2.307   3.292   1.744  0.0678  0.4616 -0.1622
 5892SOL    HW129312   2.276   3.205   1.718 -0.0126  0.3564  0.2909
 5892SOL    HW229313   2.369   3.262   1.811 -0.1054  0.5283  0.0294
 5893SOL     OW29314   0.999   0.582  14.888  0.4831 -0.2714 -0.5118
 5893SOL    HW129315   0.914   0.597  14.928  0.3357 -0.2599 -0.8309
 5893SOL    HW229316   0.969   0.619  14.805  0.6687  1.0632  0.0167
 5894SOL     OW29317   3.459   3.419   2.816  0.6137 -0.3411 -0.2056
 5894SOL    HW129318   3.544   3.393   2.853  1.2796 -0.7822 -2.0615
 5894SOL    HW229319   3.429   3.476   2.887  1.6621  1.1317 -0.9606
 5895SOL     OW29320   1.869   4.206   1.453  0.2352  0.5447  0.1818
 5895SOL    HW129321   1.845   4.119   1.422  2.0264  0.4709 -0.9642
 5895SOL    HW229322   1.921   4.191   1.531  2.0485 -0.5311 -1.2283
 5896SOL     OW29323   0.029   2.320   2.735  0.1440  0.0592  0.4919
 5896SOL    HW129324   4.729   2.254   2.792 -0.4911  0.1659  0.1792
 5896SOL    HW229325   4.732   2.297   2.649  0.7318 -0.5253  0.4034
 5897SOL     OW29326   4.531   1.335   2.650  0.1404  0.1659 -0.0358
 5897SOL    HW129327   4.620   1.323   2.620  0.0831  0.1730 -0.2065
 5897SOL    HW229328   4.540   1.416   2.700 -1.4595  0.7181 -0.6439
 5898SOL     OW29329   4.008   2.661   6.415  0.3392 -0.1611  0.2069
 5898SOL    HW129330   4.059   2.592   6.457 -1.1375 -0.8308  0.9213
 5898SOL    HW229331   3.964   2.703   6.490 -0.2726 -0.8691  0.2463
 5899SOL     OW29332   1.602   1.815   6.757  0.0395  0.6750  0.2590
 5899SOL    HW129333   1.611   1.844   6.847 -2.2652  0.5345  0.5285
 5899SOL    HW229334   1.576   1.892   6.706  3.2099  1.3902 -0.2750
 5900SOL     OW29335   1.638   1.279  11.622 -0.0554  0.4903 -0.0726
 5900SOL    HW129336   1.624   1.333  11.699  0.8336 -0.0679  0.4689
 5900SOL    HW229337   1.568   1.313  11.565  0.5719  1.5081 -0.2322
 5901SOL     OW29338   1.902   3.140   0.883 -0.4471 -0.5153  0.5176
 5901SOL    HW129339   1.878   3.232   0.872 -0.4082 -0.7388 -1.4709
 5901SOL    HW229340   1.828   3.088   0.854  0.7358 -0.2383 -3.0071
 5902SOL     OW29341   3.348   4.280  10.855  0.3767 -0.3161 -0.6076
 5902SOL    HW129342   3.261   4.314  10.831 -0.3396 -3.3456 -2.2809
 5902SOL    HW229343   3.398   4.354  10.822  0.0022 -0.6596 -1.9353
 5903SOL     OW29344   4.688   0.760   6.681  0.1107 -0.6173  0.0373
 5903SOL    HW129345   4.623   0.695   6.654 -1.0910  0.8374 -0.5735
 5903SOL    HW229346   4.654   0.832   6.628 -1.8344 -2.5763 -1.3914
 5904SOL     OW29347   4.320   0.111   8.628 -0.5044  0.3129 -0.1238
 5904SOL    HW129348   4.339   0.151   8.713 -1.4587  0.8064 -0.1379
 5904SOL    HW229349   4.242   0.157   8.596 -0.9862 -1.2135 -1.1443
 5905SOL     OW29350   1.245   2.632   2.773  0.5779 -0.7690  0.3219
 5905SOL    HW129351   1.228   2.560   2.834 -0.0574  0.4886  1.6191
 5905SOL    HW229352   1.338   2.632   2.795  0.9401  0.0365 -1.2526
 5906SOL     OW29353   2.738   1.732   9.078 -0.3874  1.1055  0.0321
 5906SOL    HW129354   2.825   1.694   9.093 -2.2582 -2.1636  2.6892
 5906SOL    HW229355   2.721   1.681   8.998 -0.4996 -1.1958  1.5287
 5907SOL     OW29356   0.550   0.487   8.319  0.1392 -0.3866  0.1468
 5907SOL    HW129357   0.527   0.445   8.236 -2.6202 -1.6528  1.5385
 5907SOL    HW229358   0.550   0.409   8.374 -1.2067 -1.4167 -1.3297
 5908SOL     OW29359   2.705   3.290   3.673  0.3402 -0.3203  0.6989
 5908SOL    HW129360   2.692   3.361   3.609  0.5262 -1.8771 -1.0614
 5908SOL    HW229361   2.713   3.338   3.755 -2.2747  1.1127  0.1248
 5909SOL     OW29362   3.974   3.176   8.764  0.7992  0.2912 -0.2339
 5909SOL    HW129363   4.021   3.159   8.846 -1.0156  0.5273  0.8499
 5909SOL    HW229364   4.054   3.203   8.718  0.4905  0.4215 -0.6973
 5910SOL     OW29365   1.485   0.426   3.708 -0.2244  0.5456 -0.5892
 5910SOL    HW129366   1.445   0.513   3.702 -0.7131  0.4440  1.1418
 5910SOL    HW229367   1.553   0.437   3.642 -0.2306 -0.2187 -0.7205
 5911SOL     OW29368   1.357   0.548   7.591 -0.0003 -0.0752  0.3511
 5911SOL    HW129369   1.356   0.529   7.685  0.4801 -1.9719 -0.0164
 5911SOL    HW229370   1.269   0.582   7.574 -0.6775 -0.6402  2.7906
 5912SOL     OW29371   0.599   3.450   8.898 -0.2355 -0.2637 -0.1230
 5912SOL    HW129372   0.640   3.368   8.925  1.5172  0.3904 -0.7910
 5912SOL    HW229373   0.611   3.449   8.803  0.4140 -1.7297 -0.0304
 5913SOL     OW29374   0.101   2.785   6.778 -0.1924 -0.3198 -0.0571
 5913SOL    HW129375   0.015   2.793   6.737 -0.7809  1.1562  1.4795
 5913SOL    HW229376   0.111   2.862   6.833 -0.5250 -0.1601 -0.2205
 5914SOL     OW29377   2.333   4.145  11.025 -0.2158 -0.1689  0.1970
 5914SOL    HW129378   2.251   4.146  10.977  1.2035  1.9203 -2.1638
 5914SOL    HW229379   2.296   4.128  11.112  0.2111  0.2714  0.4649
 5915SOL     OW29380   2.445   4.191   3.519  0.0807  0.3122  0.2545
 5915SOL    HW129381   2.405   4.254   3.459  2.0738  1.1011 -0.2363
 5915SOL    HW229382   2.379   4.176   3.587 -0.2297 -0.8778 -0.3083
 5916SOL     OW29383   4.626   1.949  14.562  0.0332  0.0990 -0.0844
 5916SOL    HW129384   4.703   1.956  14.619  0.4447  0.5208 -0.6858
 5916SOL    HW229385   4.633   2.026  14.505  0.8422 -1.7200 -2.4223
 5917SOL     OW29386   2.673   1.313   5.963  0.0119 -0.8529 -0.7771
 5917SOL    HW129387   2.672   1.408   5.976  1.6528 -0.7410 -1.4595
 5917SOL    HW229388   2.751   1.306   5.909 -1.1861 -1.0735 -2.4921
 5918SOL     OW29389   0.617   0.168   8.991 -0.4848  0.3968  0.1363
 5918SOL    HW129390   0.639   0.100   8.927  0.7330  1.9776 -1.1418
 5918SOL    HW229391   0.558   0.126   9.053 -1.1902  3.4774  1.5476
 5919SOL     OW29392   4.706   4.370  14.188  0.4448 -0.7428  0.2717
 5919SOL    HW129393   4.703   4.446  14.246  1.4824 -0.2853 -0.2713
 5919SOL    HW229394   4.689   4.296  14.246  1.6467 -1.7444 -0.6426
 5920SOL     OW29395   3.850   1.035  17.456  0.6617  0.2486 -0.0486
 5920SOL    HW129396   3.815   1.016  17.543 -0.8059 -0.5455 -0.8062
 5920SOL    HW229397   3.814   1.122  17.437  0.9146  0.4007  0.1746
 5921SOL     OW29398   2.393   4.523   0.736  0.2087  0.4204  0.1229
 5921SOL    HW129399   2.391   4.429   0.753 -0.0459 -0.0330 -2.3553
 5921SOL    HW229400   2.386   4.558   0.825 -0.0147 -1.1391  0.7254
 5922SOL     OW29401   1.544   2.065   8.254  0.0091 -0.5255  0.2515
 5922SOL    HW129402   1.581   2.076   8.166  0.4101 -2.0628  0.2262
 5922SOL    HW229403   1.540   2.155   8.286 -0.3481 -0.8670  1.1680
 5923SOL     OW29404   3.826   0.467  14.580  0.1467 -0.0627  0.2018
 5923SOL    HW129405   3.789   0.554  14.597  0.1270  0.0886 -0.6305
 5923SOL    HW229406   3.739   0.435  14.555 -0.2883  1.2608  0.0022
 5924SOL     OW29407   3.451   3.759   5.204  0.5127  0.3089 -0.0964
 5924SOL    HW129408   3.534   3.738   5.247  1.2881 -1.1140 -2.2983
 5924SOL    HW229409   3.473   3.754   5.111  2.2371  0.9877  0.2776
 5925SOL     OW29410   4.530   0.173   4.561  0.3797 -0.2667  0.5171
 5925SOL    HW129411   4.580   0.254   4.571  0.7144 -0.3625 -0.4208
 5925SOL    HW229412   4.444   0.203   4.593 -0.7082 -2.7430 -0.1387
 5926SOL     OW29413   0.335   1.315   2.422  0.0737  0.0063  0.8611
 5926SOL    HW129414   0.287   1.390   2.387 -1.1989 -0.1617  2.2739
 5926SOL    HW229415   0.384   1.355   2.493 -1.0159  2.1564  0.4017
 5927SOL     OW29416   2.962   3.512   6.154  0.3055  0.1560 -0.1839
 5927SOL    HW129417   3.041   3.458   6.153 -0.2496 -0.6729  0.3038
 5927SOL    HW229418   2.935   3.489   6.065  0.1675  1.9580 -0.5920
 5928SOL     OW29419   3.017   3.273   8.277  0.3720  0.7064 -0.4349
 5928SOL    HW129420   2.938   3.297   8.323  0.2725 -1.0968  0.3326
 5928SOL    HW229421   2.992   3.301   8.189  1.5963  1.0739 -0.6779
 5929SOL     OW29422   1.521   3.280   1.984 -0.0095 -0.3170  0.4689
 5929SOL    HW129423   1.529   3.234   2.068  1.5344  1.0455  1.0966
 5929SOL    HW229424   1.548   3.212   1.923 -0.2636 -1.4611  1.6382
 5930SOL     OW29425   3.352   2.108   8.065 -0.1668  1.0606 -0.4399
 5930SOL    HW129426   3.290   2.038   8.047 -0.8925  1.0812  2.0023
 5930SOL    HW229427   3.292   2.171   8.105 -0.2415 -0.9520  2.5728
 5931SOL     OW29428   0.689   1.516   7.080  0.4130 -0.4491  0.5744
 5931SOL    HW129429   0.720   1.482   7.164  0.8447 -2.2652 -0.3112
 5931SOL    HW229430   0.765   1.567   7.051 -1.3895  0.1688 -3.0522
 5932SOL     OW29431   2.491   0.048   5.055 -0.2284 -0.5487 -0.0936
 5932SOL    HW129432   2.483   0.118   5.119  1.0771  0.0780 -0.6199
 5932SOL    HW229433   2.581   0.053   5.024 -0.0908  2.1182  0.7472
 5933SOL     OW29434   4.340   0.378   2.149  0.0310  0.2995  0.1591
 5933SOL    HW129435   4.267   0.439   2.148 -2.0120 -2.1561 -0.4376
 5933SOL    HW229436   4.374   0.376   2.239 -1.4868 -1.5907  0.6822
 5934SOL     OW29437   1.157   1.325   5.090 -0.4743 -0.4998  0.4134
 5934SOL    HW129438   1.118   1.327   5.178  0.4036 -4.8849  0.8963
 5934SOL    HW229439   1.077   1.339   5.040 -2.1358  0.8860  3.4281
 5935SOL     OW29440   3.147   1.239  14.164  0.1718 -0.0638 -0.1647
 5935SOL    HW129441   3.197   1.238  14.246  1.3025  0.9186 -0.8447
 5935SOL    HW229442   3.081   1.307  14.176 -0.2790 -0.7152  1.1272
 5936SOL     OW29443   1.928   3.012   2.314 -0.0732 -0.9963 -0.4866
 5936SOL    HW129444   1.950   2.938   2.258 -0.1365  0.3493 -2.2647
 5936SOL    HW229445   1.965   2.996   2.401  0.5365  1.0944 -0.3733
 5937SOL     OW29446   2.949   4.509   0.399  0.0946 -0.2387  0.1108
 5937SOL    HW129447   2.959   4.578   0.465  0.5304  1.1927 -1.4390
 5937SOL    HW229448   2.873   4.535   0.347 -1.3316  0.3685  2.4978
 5938SOL     OW29449   4.513   1.249  14.520 -0.1997  0.0454  0.3039
 5938SOL    HW129450   4.567   1.285  14.449 -0.5207 -0.6852 -0.3080
 5938SOL    HW229451   4.450   1.199  14.468 -0.7071  1.0445 -0.0523
 5939SOL     OW29452   1.043   0.572   2.309  0.2097 -0.1331  0.5671
 5939SOL    HW129453   0.990   0.647   2.335 -2.1685 -0.2538 -3.9209
 5939SOL    HW229454   0.978   0.511   2.274 -0.8251 -0.2786  2.7055
 5940SOL     OW29455   1.942   4.697  13.638  0.1990  0.3519 -0.2901
 5940SOL    HW129456   1.870   4.738  13.686 -1.4445  0.0610 -2.5054
 5940SOL    HW229457   1.987   4.654  13.710  2.9641  0.8268 -1.7464
 5941SOL     OW29458   2.285   3.612   3.178 -0.1436 -0.1722 -0.3929
 5941SOL    HW129459   2.322   3.691   3.139 -1.9806  1.6558  1.5192
 5941SOL    HW229460   2.337   3.536   3.153 -0.3670 -0.4980  0.1256
 5942SOL     OW29461   0.051   0.893   2.504  0.1713  0.2853  0.1893
 5942SOL    HW129462   0.073   0.972   2.455 -2.3592 -0.0288 -1.4473
 5942SOL    HW229463   0.034   0.830   2.434  0.3514  2.0912 -1.4797
 5943SOL     OW29464   2.256   2.182  11.620  0.1940 -0.0317 -0.0222
 5943SOL    HW129465   2.245   2.088  11.602  0.6219  0.1628 -1.2952
 5943SOL    HW229466   2.349   2.191  11.640  0.1676 -0.1626  0.1697
 5944SOL     OW29467   3.533   0.462   5.159  0.1353 -0.1450  0.2431
 5944SOL    HW129468   3.586   0.540   5.175  1.5618 -1.2849  1.0583
 5944SOL    HW229469   3.449   0.508   5.167  0.6289  0.9460 -0.9650
 5945SOL     OW29470   2.323   3.398  10.095 -0.2853 -0.5007 -0.0316
 5945SOL    HW129471   2.258   3.378  10.027 -0.1034 -1.3290  0.0341
 5945SOL    HW229472   2.305   3.487  10.125 -0.9722 -0.1930 -1.3662
 5946SOL     OW29473   0.923   0.821   2.422 -0.0137  0.0692 -0.0617
 5946SOL    HW129474   0.995   0.884   2.414 -1.0385  1.0676 -1.4154
 5946SOL    HW229475   0.950   0.788   2.508  1.5195  2.3798  0.3703
 5947SOL     OW29476   3.593   4.350   9.128 -0.2897 -1.2703  1.1771
 5947SOL    HW129477   3.506   4.349   9.088  0.5127  0.0010 -0.6294
 5947SOL    HW229478   3.591   4.441   9.158 -1.1734 -1.1365  0.6978
 5948SOL     OW29479   0.346   1.749   8.944 -0.0100 -0.5796  0.4170
 5948SOL    HW129480   0.425   1.750   8.998 -0.6084  0.3865  1.2760
 5948SOL    HW229481   0.330   1.843   8.947  0.3144 -0.4876 -1.0409
 5949SOL     OW29482   3.620   3.028   7.543  0.3959  0.2721 -0.7902
 5949SOL    HW129483   3.604   3.034   7.637 -0.1175 -0.4099 -0.8344
 5949SOL    HW229484   3.715   3.035   7.546  0.3973  0.7521 -1.7681
 5950SOL     OW29485   3.511   1.674   8.583 -0.9183  0.8804  0.5909
 5950SOL    HW129486   3.435   1.729   8.563 -1.0108  0.7105  0.4818
 5950SOL    HW229487   3.457   1.598   8.606 -0.9317  0.8702  0.5270
 5951SOL     OW29488   0.359   3.365   2.949  0.0586 -0.4936 -0.3153
 5951SOL    HW129489   0.302   3.291   2.970  1.2024 -1.9086 -2.0771
 5951SOL    HW229490   0.311   3.386   2.869 -0.8454  2.5664  1.0575
 5952SOL     OW29491   0.038   2.889   6.420 -0.0543 -0.1351  0.2396
 5952SOL    HW129492   0.004   2.941   6.494  0.3371 -0.5684  0.7229
 5952SOL    HW229493   4.700   2.858   6.374 -0.6225 -1.4027  2.0517
 5953SOL     OW29494   2.985   0.752   5.179 -0.3547  0.8176  0.0503
 5953SOL    HW129495   2.911   0.778   5.124 -1.3354  0.6955  1.3180
 5953SOL    HW229496   3.009   0.665   5.147 -3.1425 -0.4201  1.3340
 5954SOL     OW29497   0.911   3.080  14.776 -0.3344  0.0231 -0.7165
 5954SOL    HW129498   0.993   3.064  14.730  0.9599 -0.7022  1.8554
 5954SOL    HW229499   0.845   3.043  14.718 -1.1531 -0.0693  0.2788
 5955SOL     OW29500   0.149   3.032   5.592  0.1418  0.0396 -0.3068
 5955SOL    HW129501   0.104   3.112   5.565  0.6366 -0.2339 -1.9198
 5955SOL    HW229502   0.097   3.004   5.668  0.4815 -1.6360 -0.7014
 5956SOL     OW29503   0.757   0.361   7.890 -0.4219  0.0910  0.6867
 5956SOL    HW129504   0.727   0.304   7.960  0.0080 -0.8955  0.0683
 5956SOL    HW229505   0.746   0.302   7.815 -1.5041  1.1789 -0.0167
 5957SOL     OW29506   4.052   2.912   3.745  0.1703  0.0922 -0.1654
 5957SOL    HW129507   4.147   2.901   3.733 -0.1311 -2.2938 -0.3524
 5957SOL    HW229508   4.043   2.939   3.837  1.8824 -0.8019  0.2716
 5958SOL     OW29509   3.425   3.097  13.387 -0.3720  0.0678  0.1208
 5958SOL    HW129510   3.389   3.125  13.303 -1.3162 -0.4766  0.3490
 5958SOL    HW229511   3.426   3.001  13.377  0.8694  0.2323 -1.3922
 5959SOL     OW29512   3.128   0.236  13.740  0.3962  0.2269 -0.6215
 5959SOL    HW129513   3.122   0.142  13.756 -2.4371  0.4591 -0.2973
 5959SOL    HW229514   3.183   0.271  13.810  2.0047 -0.3459 -1.6013
 5960SOL     OW29515   4.069   1.017   2.946 -0.1239 -0.1831 -0.3623
 5960SOL    HW129516   4.150   1.067   2.944 -0.9782  1.1736 -0.9547
 5960SOL    HW229517   4.081   0.950   2.879  3.5852 -0.5764  0.6863
 5961SOL     OW29518   2.306   1.670   4.035  0.9054  0.4163 -0.3496
 5961SOL    HW129519   2.255   1.627   3.966  1.1610 -1.8650  0.9002
 5961SOL    HW229520   2.280   1.608   4.103  1.5921 -1.0453 -1.4335
 5962SOL     OW29521   3.504   3.941   4.696  0.4153  0.2641 -0.2911
 5962SOL    HW129522   3.521   3.858   4.651 -1.1159 -0.1021 -0.2029
 5962SOL    HW229523   3.437   3.977   4.637  0.8522 -1.2705 -1.7307
 5963SOL     OW29524   4.653   1.403   7.435  0.0610  0.4369 -0.2346
 5963SOL    HW129525   4.619   1.488   7.405  0.8923  0.6962 -0.4340
 5963SOL    HW229526   4.671   1.376   7.345 -0.8647 -0.1153 -0.2522
 5964SOL     OW29527   1.192   3.298   7.657  0.3456 -0.2836  0.0717
 5964SOL    HW129528   1.121   3.357   7.684  1.4286  0.2933  1.6774
 5964SOL    HW229529   1.143   3.248   7.592 -0.6357 -1.6346  1.8529
 5965SOL     OW29530   1.957   1.501  13.368 -0.0570 -0.5126 -0.0574
 5965SOL    HW129531   2.014   1.425  13.374 -0.3425 -0.7490 -0.3447
 5965SOL    HW229532   1.874   1.455  13.359 -1.2088  1.3596  0.9856
 5966SOL     OW29533   1.328   3.526  15.229  0.0286 -0.0139  0.0893
 5966SOL    HW129534   1.327   3.488  15.141  1.1695 -0.2913  0.1950
 5966SOL    HW229535   1.351   3.616  15.207  1.4474 -0.6609 -1.0816
 5967SOL     OW29536   3.593   1.968   7.235  0.2367 -0.6168 -0.4551
 5967SOL    HW129537   3.568   1.876   7.234 -1.0790 -0.2788  2.5271
 5967SOL    HW229538   3.525   2.000   7.176 -0.2908 -0.6290  0.1489
 5968SOL     OW29539   1.414   2.876   4.785  0.6123 -0.3300 -0.2470
 5968SOL    HW129540   1.435   2.958   4.830 -1.1722  0.5274 -0.9817
 5968SOL    HW229541   1.343   2.849   4.844  0.2623 -1.2318 -1.0813
 5969SOL     OW29542   1.704   0.462   8.013  0.4277  0.0990  0.6414
 5969SOL    HW129543   1.758   0.540   8.005  2.6276 -1.4834  0.2952
 5969SOL    HW229544   1.689   0.435   7.922  1.3188 -1.7784  1.0615
 5970SOL     OW29545   1.941   4.366   5.112 -0.1246  0.4139  0.1642
 5970SOL    HW129546   1.888   4.386   5.035  0.5137  0.1768 -0.3361
 5970SOL    HW229547   1.939   4.271   5.116  0.0747  0.3834 -0.5371
 5971SOL     OW29548   4.099   0.721   3.064  0.6585 -0.0049 -0.2968
 5971SOL    HW129549   4.066   0.774   2.991 -2.3948  0.6567  1.6080
 5971SOL    HW229550   4.174   0.684   3.017  0.8150 -0.2937  0.1816
 5972SOL     OW29551   3.195   3.159   7.854 -0.5652  0.3079 -1.3152
 5972SOL    HW129552   3.256   3.087   7.872 -0.0586  0.5389 -2.1467
 5972SOL    HW229553   3.114   3.109   7.850  0.4005 -1.3131 -0.8255
 5973SOL     OW29554   1.450   2.853   2.609  0.3271  0.2439  0.5344
 5973SOL    HW129555   1.517   2.839   2.675 -0.9473 -2.0143  1.3560
 5973SOL    HW229556   1.505   2.860   2.531  0.1915  0.1320  0.4296
 5974SOL     OW29557   3.546   4.060   7.993  0.0113  0.2805 -0.2633
 5974SOL    HW129558   3.604   4.046   8.068  0.2816  0.4563 -0.4349
 5974SOL    HW229559   3.460   4.058   8.035 -1.5993 -2.4711 -3.7356
 5975SOL     OW29560   4.160   4.267  14.387 -0.2910 -0.4473  0.3625
 5975SOL    HW129561   4.151   4.362  14.384 -1.7303 -0.6466 -1.4800
 5975SOL    HW229562   4.105   4.238  14.315 -0.1886  0.3626 -0.0408
 5976SOL     OW29563   0.230   2.499  13.543 -0.2298  0.5913  0.5078
 5976SOL    HW129564   0.215   2.405  13.555 -1.4184  0.9674  1.8490
 5976SOL    HW229565   0.306   2.500  13.484  0.3158 -0.3822  1.1992
 5977SOL     OW29566   4.365   3.972  12.690 -0.0663 -0.1871  0.5020
 5977SOL    HW129567   4.361   3.919  12.770  0.9571 -1.7629 -0.4818
 5977SOL    HW229568   4.457   3.996  12.684  0.2730 -2.0689 -1.9187
 5978SOL     OW29569   3.630   1.648   5.544  0.1946  0.3217  0.3613
 5978SOL    HW129570   3.552   1.599   5.517  0.2922  0.2330  0.2385
 5978SOL    HW229571   3.660   1.688   5.462 -0.2623  0.0415  0.0545
 5979SOL     OW29572   0.973   2.743  17.181  0.2797  0.1154 -0.0359
 5979SOL    HW129573   0.956   2.738  17.275 -1.4190  0.3530 -0.3348
 5979SOL    HW229574   0.986   2.649  17.167  2.5860  0.5933 -0.9475
 5980SOL     OW29575   1.718   4.672   6.393 -0.1676  0.0564 -0.2512
 5980SOL    HW129576   1.681   4.703   6.310  2.0751 -0.9235 -1.5956
 5980SOL    HW229577   1.698   0.006   6.452  0.5540 -1.3727  1.7469
 5981SOL     OW29578   4.304   1.256   2.529 -0.1872 -0.6571  0.0260
 5981SOL    HW129579   4.386   1.285   2.569 -0.4554  1.1228 -0.7207
 5981SOL    HW229580   4.301   1.311   2.451 -0.0296  2.1684  2.0125
 5982SOL     OW29581   3.295   4.589  17.086  0.1409  0.3885  0.4403
 5982SOL    HW129582   3.262   4.500  17.080  1.2009  0.0078  0.1392
 5982SOL    HW229583   3.308   4.600  17.180 -2.5433 -1.9274  1.0657
 5983SOL     OW29584   1.429   4.363   5.892 -0.1315 -0.0992  0.4594
 5983SOL    HW129585   1.460   4.430   5.832  1.7505  0.0915  1.6343
 5983SOL    HW229586   1.345   4.403   5.915 -0.8858 -2.1790  1.3766
 5984SOL     OW29587   4.368   4.031   8.626  0.3078  0.3549 -0.3280
 5984SOL    HW129588   4.442   4.087   8.645 -0.4274  0.8203  1.1876
 5984SOL    HW229589   4.288   4.080   8.645  0.4149 -0.1844  1.5295
 5985SOL     OW29590   3.251   3.935   5.409  0.4051 -0.4361 -0.5945
 5985SOL    HW129591   3.230   3.998   5.340 -0.6802 -0.0914  0.0609
 5985SOL    HW229592   3.186   3.946   5.478  1.4072 -0.8872  0.4281
 5986SOL     OW29593   1.041   3.019   3.659  0.3799 -0.8512  0.3387
 5986SOL    HW129594   1.038   3.055   3.747  3.0071  0.0011  0.0704
 5986SOL    HW229595   1.056   3.095   3.604  0.1133 -0.4466  0.8236
 5987SOL     OW29596   1.657   1.416  16.513 -0.2315  0.2340 -0.4905
 5987SOL    HW129597   1.714   1.419  16.436 -2.8747  0.8949 -2.4180
 5987SOL    HW229598   1.589   1.477  16.485 -0.6192 -0.4023 -0.9307
 5988SOL     OW29599   1.853   1.257  12.599 -0.5813  0.0066  0.5904
 5988SOL    HW129600   1.845   1.287  12.690 -2.5111  0.3842  0.2862
 5988SOL    HW229601   1.859   1.164  12.621 -1.5996  0.4165  2.6306
 5989SOL     OW29602   2.503   3.430  12.940  0.1608  0.0904  0.2397
 5989SOL    HW129603   2.539   3.363  12.998 -2.8758 -1.0386  0.8188
 5989SOL    HW229604   2.586   3.471  12.916  0.0989  1.1026  1.7163
 5990SOL     OW29605   3.832   1.235  13.608 -0.7577  0.5254 -0.6949
 5990SOL    HW129606   3.819   1.142  13.621  1.1574  0.1512 -1.4111
 5990SOL    HW229607   3.926   1.239  13.590 -0.3952  0.4917  1.2489
 5991SOL     OW29608   1.870   1.300   7.135  0.5285  0.0229  0.3526
 5991SOL    HW129609   1.933   1.322   7.067 -0.8858 -0.1317 -1.0187
 5991SOL    HW229610   1.876   1.204   7.133  0.6914  0.0734 -1.1136
 5992SOL     OW29611   4.193   2.189   8.716 -0.3528 -0.1185  0.0518
 5992SOL    HW129612   4.206   2.109   8.766 -0.0123  0.0479  0.2319
 5992SOL    HW229613   4.099   2.191   8.699 -0.4232  2.5129  0.7466
 5993SOL     OW29614   0.469   4.099  10.707 -0.4106 -0.7272  0.5781
 5993SOL    HW129615   0.550   4.148  10.698 -0.9089 -0.4974 -2.8164
 5993SOL    HW229616   0.462   4.089  10.802  1.2700  2.1028  0.9864
 5994SOL     OW29617   4.112   1.642   3.099  0.0584 -0.2319 -0.1362
 5994SOL    HW129618   4.120   1.548   3.115  0.1322 -0.3216 -0.7125
 5994SOL    HW229619   4.021   1.653   3.075  0.9229  1.3037 -2.6803
 5995SOL     OW29620   4.645   1.333   7.154  0.8856  0.5581 -0.2956
 5995SOL    HW129621   4.652   1.238   7.139  0.7554  0.1782  2.0754
 5995SOL    HW229622   4.707   1.367   7.089  1.3362 -0.1522 -0.2380
 5996SOL     OW29623   0.150   3.127   3.283  0.1018  0.7664  0.1742
 5996SOL    HW129624   0.090   3.063   3.244 -0.0499  1.0930 -0.1327
 5996SOL    HW229625   0.218   3.120   3.216  1.9214  1.5330  1.9368
 5997SOL     OW29626   4.460   3.502   3.094 -0.1246 -0.1971 -0.4839
 5997SOL    HW129627   4.405   3.447   3.038  0.0811 -1.3434  0.4261
 5997SOL    HW229628   4.535   3.445   3.112 -0.8929 -1.3202 -0.8658
 5998SOL     OW29629   2.906   0.754   5.472 -0.3230 -0.2584  0.1510
 5998SOL    HW129630   2.824   0.711   5.496 -1.9040  2.0711 -1.0702
 5998SOL    HW229631   2.898   0.718   5.383 -1.0830 -0.3565  0.2597
 5999SOL     OW29632   2.528   1.068   1.733  0.2072  0.0207 -0.0782
 5999SOL    HW129633   2.488   0.981   1.734 -2.1252  1.1382  3.1646
 5999SOL    HW229634   2.457   1.131   1.749 -0.2482 -0.3720 -0.5745
 6000SOL     OW29635   1.895   1.183   2.446  0.3456  0.0032 -0.6454
 6000SOL    HW129636   1.888   1.275   2.469 -2.1264 -0.4645  0.4854
 6000SOL    HW229637   1.830   1.144   2.504 -0.3786  1.4310 -0.4992
 6001SOL     OW29638   3.223   1.676   2.882 -0.7627  0.1837 -0.1140
 6001SOL    HW129639   3.219   1.763   2.843 -0.9198 -0.1481 -0.8569
 6001SOL    HW229640   3.182   1.689   2.968  1.2847  1.2477  0.6844
 6002SOL     OW29641   0.964   4.527  16.356  0.0271  0.4565  0.3848
 6002SOL    HW129642   0.923   4.501  16.438  0.6957 -1.9219 -0.0607
 6002SOL    HW229643   1.035   4.582  16.391  0.9166 -0.7535  0.4638
 6003SOL     OW29644   1.385   2.342   3.237  0.2268  0.0433  0.2419
 6003SOL    HW129645   1.346   2.347   3.324 -0.0966  1.7205 -0.0038
 6003SOL    HW229646   1.422   2.255   3.252 -0.0927 -0.0497  0.4968
 6004SOL     OW29647   1.900   4.377   9.041 -0.4243 -0.5722  0.0738
 6004SOL    HW129648   1.846   4.381   9.120 -0.1818 -3.5044  0.3604
 6004SOL    HW229649   1.932   4.467   9.042  0.5945 -0.9146 -1.1301
 6005SOL     OW29650   0.942   0.316  14.915 -0.3274 -0.6870  0.3014
 6005SOL    HW129651   0.980   0.402  14.898  0.0540 -1.0936 -0.9180
 6005SOL    HW229652   1.022   0.264  14.923  0.8235  0.8560 -1.1557
 6006SOL     OW29653   2.101   0.726   2.677 -0.4081 -0.1637 -0.1804
 6006SOL    HW129654   2.106   0.769   2.591  1.7889  1.7392  0.9159
 6006SOL    HW229655   2.014   0.749   2.709  0.6051  2.4871  0.6202
 6007SOL     OW29656   0.169   4.548   9.417  0.1828 -0.2076 -0.1852
 6007SOL    HW129657   0.203   4.583   9.335 -1.1201  0.5906 -0.3872
 6007SOL    HW229658   0.161   4.456   9.392 -1.3368 -0.2315  0.3884
 6008SOL     OW29659   3.662   4.497   2.153  0.1313  0.2125 -0.1365
 6008SOL    HW129660   3.682   4.403   2.160  0.4739  0.4112  1.5424
 6008SOL    HW229661   3.568   4.492   2.173 -0.7153  0.7867 -4.0580
 6009SOL     OW29662   2.294   2.503   9.198 -0.4358 -0.6499 -0.0953
 6009SOL    HW129663   2.344   2.421   9.201 -1.2491 -1.1602 -0.2645
 6009SOL    HW229664   2.205   2.482   9.170 -0.5500 -0.0057 -0.1989
 6010SOL     OW29665   0.362   1.523   7.659  0.9384 -0.1383 -0.2477
 6010SOL    HW129666   0.327   1.602   7.699  1.6024  0.6078 -1.1111
 6010SOL    HW229667   0.425   1.483   7.718 -0.2736  0.3321  1.3505
 6011SOL     OW29668   3.589   2.570   1.001  0.0752  0.3264 -0.0930
 6011SOL    HW129669   3.524   2.524   0.949  1.5045 -2.0335  0.2204
 6011SOL    HW229670   3.548   2.557   1.086 -1.1908  1.9003 -0.4745
 6012SOL     OW29671   1.894   2.004  14.848  0.3407 -0.2607 -0.3793
 6012SOL    HW129672   1.954   2.064  14.891  0.1721  0.3316 -0.9724
 6012SOL    HW229673   1.895   1.934  14.914  1.3759 -0.6356 -0.7882
 6013SOL     OW29674   3.441   1.289   8.016  0.2855  0.7093  0.2638
 6013SOL    HW129675   3.399   1.248   8.092 -1.9544 -0.8098 -1.7721
 6013SOL    HW229676   3.418   1.216   7.958 -1.2014  0.4356  1.2093
 6014SOL     OW29677   3.275   0.961   6.894  0.3822  0.4996 -0.2710
 6014SOL    HW129678   3.329   0.881   6.896 -0.0483  0.1919 -0.9837
 6014SOL    HW229679   3.350   1.018   6.910  1.3586 -0.7769 -0.2195
 6015SOL     OW29680   3.971   2.286   5.322 -0.2161 -0.6122 -0.2221
 6015SOL    HW129681   3.977   2.364   5.377  1.2335 -0.8712 -0.0372
 6015SOL    HW229682   4.046   2.309   5.268 -1.0451  0.9325 -0.7299
 6016SOL     OW29683   0.424   1.995   6.130 -0.6125  0.4600 -0.2383
 6016SOL    HW129684   0.517   2.015   6.125  0.0789 -2.2751  1.7164
 6016SOL    HW229685   0.415   1.900   6.128  0.7340  0.2837  1.6952
 6017SOL     OW29686   0.879   3.808   3.019  0.3434  0.8149  0.8014
 6017SOL    HW129687   0.792   3.812   2.979  0.2312 -2.1936  0.7880
 6017SOL    HW229688   0.892   3.893   3.062  0.3175  1.0665  0.3038
 6018SOL     OW29689   0.859   1.838  14.626  0.5344  0.0953 -0.7819
 6018SOL    HW129690   0.914   1.879  14.692  0.9714 -3.0768  0.8322
 6018SOL    HW229691   0.775   1.883  14.636  0.4633 -0.8807  2.9375
 6019SOL     OW29692   3.888   4.607  15.068 -0.7507 -0.2183  0.3802
 6019SOL    HW129693   3.916   4.597  15.159  0.0736  1.1502  0.2808
 6019SOL    HW229694   3.874   4.515  15.045 -1.9249  0.1126 -0.1996
 6020SOL     OW29695   0.551   0.634  17.576 -0.0711 -0.4885  0.1717
 6020SOL    HW129696   0.574   0.684  17.654 -2.2108 -0.0833  0.5505
 6020SOL    HW229697   0.609   0.558  17.586  0.9528  0.4454  1.2608
 6021SOL     OW29698   0.925   4.035   9.348 -0.1904  0.5428 -0.0080
 6021SOL    HW129699   1.011   4.070   9.325  0.6134 -0.7860  0.9587
 6021SOL    HW229700   0.895   3.995   9.267 -0.0688  0.4099  0.0122
 6022SOL     OW29701   4.326   0.593   3.903  0.4111  0.2746  0.0987
 6022SOL    HW129702   4.319   0.548   3.987  0.3121  0.8126  0.3805
 6022SOL    HW229703   4.235   0.620   3.892  1.1613  2.4571 -0.8988
 6023SOL     OW29704   1.612   1.694   3.031  0.0982 -0.3162 -0.0168
 6023SOL    HW129705   1.598   1.607   2.993 -3.0301  0.1418  0.0534
 6023SOL    HW229706   1.522   1.713   3.059  0.0909 -1.3437  0.6356
 6024SOL     OW29707   2.603   1.555  15.753 -0.8633  0.1664 -0.4033
 6024SOL    HW129708   2.687   1.554  15.707 -1.0768  0.2218 -0.7987
 6024SOL    HW229709   2.629   1.599  15.833 -0.1520  0.4608 -0.7975
 6025SOL     OW29710   3.825   3.625   3.704 -0.3503  0.0319 -0.4671
 6025SOL    HW129711   3.865   3.617   3.617 -0.4868 -1.6299 -0.3737
 6025SOL    HW229712   3.814   3.720   3.706  1.7389  0.1928  2.4622
 6026SOL     OW29713   1.041   0.671   6.924 -0.4368 -0.9309 -0.3466
 6026SOL    HW129714   0.975   0.703   6.986  2.7580  0.6696  2.1506
 6026SOL    HW229715   1.097   0.624   6.987 -1.7181 -0.6608  1.0160
 6027SOL     OW29716   3.416   4.158   5.607 -0.0193  0.2881  0.4559
 6027SOL    HW129717   3.357   4.198   5.544 -1.2863 -1.0379  0.8008
 6027SOL    HW229718   3.346   4.119   5.659 -1.0520 -1.8762 -2.5554
 6028SOL     OW29719   2.807   3.909   1.816 -0.2764  0.1075  0.1443
 6028SOL    HW129720   2.808   3.963   1.895 -1.0967 -1.7031  1.4312
 6028SOL    HW229721   2.725   3.862   1.835 -2.3269  2.9334 -1.7356
 6029SOL     OW29722   1.973   4.512   4.719 -0.5651 -0.6612  0.0751
 6029SOL    HW129723   2.064   4.482   4.710 -0.9230 -1.8076  0.4149
 6029SOL    HW229724   1.995   4.605   4.720  1.6172 -1.1221 -2.1924
 6030SOL     OW29725   2.576   0.280   9.037 -0.1201  0.0975 -0.2220
 6030SOL    HW129726   2.506   0.216   9.025 -0.5070  0.4987 -0.1239
 6030SOL    HW229727   2.539   0.355   8.990  1.6266  0.9092 -0.3092
 6031SOL     OW29728   1.665   2.555  12.988 -1.1133 -0.1216  0.0500
 6031SOL    HW129729   1.715   2.520  13.062  0.4703  0.6032 -0.6769
 6031SOL    HW229730   1.669   2.488  12.920  1.9087 -2.6250  2.6492
 6032SOL     OW29731   3.948   1.760   8.920 -0.0496  0.2036 -0.0863
 6032SOL    HW129732   4.021   1.755   8.982 -2.0594 -0.9853  2.1771
 6032SOL    HW229733   3.962   1.686   8.862 -0.0157  0.3467 -0.2598
 6033SOL     OW29734   1.345   4.337  11.783 -0.2124  0.4338  0.0452
 6033SOL    HW129735   1.352   4.258  11.729  0.3491  1.7887 -1.8316
 6033SOL    HW229736   1.380   4.293  11.860  0.8901  0.6745 -0.3206
 6034SOL     OW29737   0.213   1.270   3.165  0.4568  0.3610  0.2111
 6034SOL    HW129738   0.248   1.223   3.090 -0.3846  1.1032 -0.6494
 6034SOL    HW229739   0.122   1.242   3.153  0.3216  0.7228  0.3532
 6035SOL     OW29740   0.911   2.501   8.537 -0.5607 -0.1494  0.2868
 6035SOL    HW129741   0.862   2.581   8.520 -1.3782 -0.3951  1.5212
 6035SOL    HW229742   0.905   2.488   8.631  1.9974 -1.3569  0.2820
 6036SOL     OW29743   1.287   3.058   8.951 -0.4267 -0.2694 -0.5228
 6036SOL    HW129744   1.330   3.086   8.870  0.3971  1.2693  0.4367
 6036SOL    HW229745   1.349   2.989   8.973  0.3015  0.0326 -1.5939
 6037SOL     OW29746   2.091   1.054  11.095 -0.3064  0.3408 -0.3826
 6037SOL    HW129747   2.101   0.974  11.146  2.9399  0.5086 -0.7804
 6037SOL    HW229748   2.025   1.096  11.151  0.5459 -0.4491  1.2282
 6038SOL     OW29749   1.033   3.843   5.601 -0.0424 -0.2465 -0.7882
 6038SOL    HW129750   1.034   3.748   5.600  1.2008 -0.2273 -1.0085
 6038SOL    HW229751   1.058   3.847   5.509 -1.0351  0.0147 -1.0532
 6039SOL     OW29752   0.190   4.687   4.906  0.6605  0.0588  0.1533
 6039SOL    HW129753   0.143   0.031   4.908  1.1519  0.3338  0.1072
 6039SOL    HW229754   0.130   4.633   4.854 -0.6530  1.0105  0.6576
 6040SOL     OW29755   3.934   1.169   1.068 -0.1451 -0.1897  0.0007
 6040SOL    HW129756   3.858   1.134   1.114  0.7400 -0.9150  0.9207
 6040SOL    HW229757   3.891   1.233   1.011 -1.4336  1.4924  2.8462
 6041SOL     OW29758   0.849   2.505   8.809  0.3327 -0.0606  0.5109
 6041SOL    HW129759   0.896   2.557   8.874 -0.1430  1.5214 -0.4143
 6041SOL    HW229760   0.776   2.561   8.783  0.1950 -0.9280 -1.0008
 6042SOL     OW29761   2.073   4.114  10.966  0.5329 -0.2798  1.0155
 6042SOL    HW129762   2.007   4.130  10.899 -0.1427 -1.9655  1.2884
 6042SOL    HW229763   2.030   4.125  11.051 -0.6377  1.1504  0.2304
 6043SOL     OW29764   4.098   1.551   1.873  0.5122 -0.0743 -0.1617
 6043SOL    HW129765   4.080   1.460   1.895 -1.4720  0.3871  0.0993
 6043SOL    HW229766   4.015   1.588   1.842  0.9401  0.4348 -0.6944
 6044SOL     OW29767   2.959   2.751   4.516  0.1184  0.5069 -0.0650
 6044SOL    HW129768   2.873   2.781   4.486 -0.0991  0.6446  0.6887
 6044SOL    HW229769   2.932   2.724   4.604 -0.1795 -0.1395 -0.3552
 6045SOL     OW29770   3.768   1.930  14.494  0.0222  0.0092 -0.1960
 6045SOL    HW129771   3.834   1.863  14.508 -0.4059 -0.0152  1.6523
 6045SOL    HW229772   3.750   1.905  14.403  1.5914 -1.3583 -0.1231
 6046SOL     OW29773   4.620   2.940  12.430 -0.5990 -0.1378 -0.2156
 6046SOL    HW129774   4.574   2.857  12.434  1.2351 -1.1948 -0.9848
 6046SOL    HW229775   4.657   2.940  12.519  2.6843  1.4526 -1.5924
 6047SOL     OW29776   0.739   1.197   7.838  0.0660  0.4014 -0.1029
 6047SOL    HW129777   0.828   1.223   7.815  0.6238 -1.2964  0.1318
 6047SOL    HW229778   0.723   1.118   7.786  0.6006 -0.6741  1.3747
 6048SOL     OW29779   0.519   3.472   8.088 -0.2968  0.1336  0.0634
 6048SOL    HW129780   0.473   3.534   8.144 -1.1362 -1.2904  0.9261
 6048SOL    HW229781   0.594   3.456   8.146 -0.0144  2.0955  0.2486
 6049SOL     OW29782   0.945   1.353   6.601 -0.2240 -0.2841 -0.3160
 6049SOL    HW129783   1.009   1.288   6.632 -1.1465 -1.1198 -0.1520
 6049SOL    HW229784   0.871   1.296   6.582 -0.6723  0.6806 -1.4845
 6050SOL     OW29785   4.614   1.528  10.554  0.2894  0.2887 -0.5150
 6050SOL    HW129786   4.673   1.462  10.592  4.2798  4.1081 -0.0665
 6050SOL    HW229787   4.543   1.532  10.617  1.1452  4.1101  0.1815
 6051SOL     OW29788   2.129   4.563   2.967  0.0038  0.2119 -0.0887
 6051SOL    HW129789   2.198   4.595   3.025 -2.0561  2.3921  1.1662
 6051SOL    HW229790   2.104   4.476   2.999  1.0588  0.5069  1.5179
 6052SOL     OW29791   0.676   4.707  17.595 -0.5952 -0.1927  0.1268
 6052SOL    HW129792   0.603   4.659  17.635  0.7976 -1.4908  1.1158
 6052SOL    HW229793   0.747   4.644  17.582 -1.1935 -0.9979  0.7198
 6053SOL     OW29794   3.828   2.114   8.526 -0.1153  0.2024 -0.1965
 6053SOL    HW129795   3.847   2.098   8.433 -0.3804 -2.0244  0.1492
 6053SOL    HW229796   3.746   2.068   8.541  0.0589 -0.0966 -0.1727
 6054SOL     OW29797   1.192   4.281   4.647 -0.3146 -0.5250  0.0794
 6054SOL    HW129798   1.189   4.192   4.611  1.4585 -0.8695  0.7892
 6054SOL    HW229799   1.226   4.319   4.566 -2.5758  1.2287 -0.0482
 6055SOL     OW29800   0.576   2.935   5.832  0.0266 -0.3130  0.1087
 6055SOL    HW129801   0.610   2.997   5.896  0.0086  0.4685 -0.6467
 6055SOL    HW229802   0.506   2.894   5.883 -1.7664  2.0770 -0.4202
 6056SOL     OW29803   0.393   1.156  13.823 -0.0466  0.4438 -0.2675
 6056SOL    HW129804   0.397   1.157  13.919 -2.7745  1.3045 -0.1797
 6056SOL    HW229805   0.483   1.169  13.790  0.5471 -2.7300  0.1161
 6057SOL     OW29806   2.804   3.150   8.047 -0.4248 -0.5450 -0.3926
 6057SOL    HW129807   2.874   3.126   7.987 -0.0482 -0.8766  0.1808
 6057SOL    HW229808   2.758   3.067   8.063  3.7482 -2.5983  0.8262
 6058SOL     OW29809   2.306   4.083  14.537 -0.9373 -0.0453 -0.0600
 6058SOL    HW129810   2.244   4.141  14.582 -2.5459 -3.1738  1.7130
 6058SOL    HW229811   2.272   3.996  14.556 -1.5295 -0.0028 -0.9281
 6059SOL     OW29812   1.680   2.011  17.680  0.4099  0.3791  0.4521
 6059SOL    HW129813   1.624   2.028  17.755  1.9504  2.3408  1.1579
 6059SOL    HW229814   1.655   2.078  17.617 -0.3512  0.0175  0.3755
 6060SOL     OW29815   3.242   0.395   8.825 -0.0340  0.5974 -0.3913
 6060SOL    HW129816   3.289   0.414   8.744 -0.8645  0.9727 -0.7799
 6060SOL    HW229817   3.235   0.487   8.848  1.2942  1.3692 -3.0352
 6061SOL     OW29818   3.024   3.641  14.538  0.2014  0.3478 -0.1744
 6061SOL    HW129819   3.002   3.569  14.598 -0.2648  0.4190 -0.2635
 6061SOL    HW229820   3.049   3.602  14.454 -0.1577  1.5607 -0.8462
 6062SOL     OW29821   4.425   2.922   4.173 -0.7176  0.3229  0.3433
 6062SOL    HW129822   4.390   2.895   4.088 -1.3345  2.8032 -0.1949
 6062SOL    HW229823   4.375   2.865   4.231  0.8419 -0.3303  1.0450
 6063SOL     OW29824   4.440   2.662   2.412  0.3451 -0.5744 -0.5875
 6063SOL    HW129825   4.363   2.719   2.416  2.0891  1.7750 -0.5527
 6063SOL    HW229826   4.428   2.633   2.321 -1.8679 -0.0121 -0.4650
 6064SOL     OW29827   4.592   2.457  13.444  0.1049  0.1118 -0.6065
 6064SOL    HW129828   4.658   2.522  13.419  1.5218 -1.4350 -0.9101
 6064SOL    HW229829   4.632   2.378  13.407 -1.7231 -1.1031 -0.0106
 6065SOL     OW29830   3.274   2.826  14.101  0.3971  0.9943 -0.1370
 6065SOL    HW129831   3.368   2.838  14.110  0.5594  1.8719 -3.0143
 6065SOL    HW229832   3.250   2.872  14.182 -4.4318  1.6797 -1.9695
 6066SOL     OW29833   0.831   3.319   3.860 -0.0447 -0.8481  0.3325
 6066SOL    HW129834   0.921   3.295   3.884  1.0546 -0.5657 -3.4559
 6066SOL    HW229835   0.783   3.237   3.869  1.9286 -1.9503  0.8653
 6067SOL     OW29836   2.051   2.804   8.024  0.5231 -0.8289 -0.1256
 6067SOL    HW129837   2.114   2.733   8.011  0.6980 -0.7154  0.1023
 6067SOL    HW229838   2.112   2.877   8.016 -1.9105  0.8775 -2.7826
 6068SOL     OW29839   1.347   1.574   8.215  0.1828  0.3316 -0.0628
 6068SOL    HW129840   1.432   1.614   8.232  1.3339 -1.8200 -0.7943
 6068SOL    HW229841   1.288   1.636   8.258 -0.4843  0.2278 -0.8146
 6069SOL     OW29842   0.748   0.618  10.587 -0.1495 -0.4810  0.3249
 6069SOL    HW129843   0.722   0.682  10.520 -1.0113 -0.8369  0.3189
 6069SOL    HW229844   0.663   0.586  10.617 -0.5908  0.8933  0.5227
 6070SOL     OW29845   2.404   4.698   6.761  0.3893 -0.4643 -0.4270
 6070SOL    HW129846   2.384   4.691   6.668 -0.4272 -2.1554 -0.1271
 6070SOL    HW229847   2.317   4.725   6.791 -0.1966 -2.7309 -0.1218
 6071SOL     OW29848   3.084   3.989   0.275 -0.9859  0.4432 -0.0396
 6071SOL    HW129849   3.148   4.059   0.291 -1.4794  1.4131 -2.3066
 6071SOL    HW229850   3.047   3.990   0.364 -0.7048 -0.4045  0.0904
 6072SOL     OW29851   2.142   0.727   3.222  0.0719 -0.2215 -0.5122
 6072SOL    HW129852   2.129   0.773   3.305 -0.9038 -0.4452 -0.5396
 6072SOL    HW229853   2.079   0.770   3.164  0.3150 -1.4485 -1.6836
 6073SOL     OW29854   3.981   3.747  12.549 -0.5606  0.1533  0.4876
 6073SOL    HW129855   4.047   3.710  12.607 -0.6694 -1.0323 -0.1496
 6073SOL    HW229856   4.032   3.810  12.497  0.5347  0.3216  1.7649
 6074SOL     OW29857   4.160   0.325   1.768  0.4218 -0.3388  0.2657
 6074SOL    HW129858   4.072   0.305   1.801  0.5050 -0.1988  0.5711
 6074SOL    HW229859   4.147   0.419   1.751 -0.1409 -0.6730 -1.1669
 6075SOL     OW29860   1.271   1.776   9.948 -0.2381 -0.2886 -0.3202
 6075SOL    HW129861   1.252   1.683   9.961 -0.2476 -0.1278  0.8158
 6075SOL    HW229862   1.356   1.775   9.904  0.5652  2.5480  1.1704
 6076SOL     OW29863   3.691   4.079   6.186 -0.2498  0.0501 -0.2230
 6076SOL    HW129864   3.654   3.991   6.191  0.3972 -0.0934  2.0536
 6076SOL    HW229865   3.781   4.065   6.156 -0.2998  1.2672 -0.9291
 6077SOL     OW29866   3.264   2.916  16.078 -0.0981  0.0042  0.3813
 6077SOL    HW129867   3.191   2.977  16.092 -1.1338 -0.9232 -1.0897
 6077SOL    HW229868   3.306   2.921  16.164  1.9305 -0.8548 -0.5416
 6078SOL     OW29869   2.878   4.451   2.330  0.0093  0.1291 -0.3581
 6078SOL    HW129870   2.787   4.421   2.325  0.7080 -2.1930  0.9740
 6078SOL    HW229871   2.879   4.528   2.274 -1.3705  0.0436 -0.4959
 6079SOL     OW29872   4.033   2.028  17.642 -0.8063 -0.1297 -0.5070
 6079SOL    HW129873   4.084   1.987  17.712 -0.4830 -0.4092 -0.9106
 6079SOL    HW229874   3.978   2.082  17.700 -0.7805  0.5084 -1.0787
 6080SOL     OW29875   4.733   2.221  13.358 -0.1330 -0.2532 -0.3152
 6080SOL    HW129876   0.060   2.236  13.425  1.6551 -3.0031 -1.4912
 6080SOL    HW229877   0.040   2.238  13.277 -1.9052  0.1607 -1.2523
 6081SOL     OW29878   3.183   0.889  11.314  0.6697 -0.1191  0.4312
 6081SOL    HW129879   3.210   0.971  11.355  1.1922  0.1953 -0.5503
 6081SOL    HW229880   3.246   0.829  11.355  0.7781 -0.5580 -0.3820
 6082SOL     OW29881   3.180   4.216   5.459  0.0307  0.1963  0.3853
 6082SOL    HW129882   3.125   4.292   5.480  0.4093  0.7002 -0.4338
 6082SOL    HW229883   3.112   4.150   5.470  0.0323  0.1719  0.2473
 6083SOL     OW29884   1.741   2.821  16.355 -0.1413  0.5443 -0.5894
 6083SOL    HW129885   1.812   2.879  16.384  0.2667 -0.1125 -0.2763
 6083SOL    HW229886   1.659   2.859  16.385 -0.9677 -0.0765 -2.0515
 6084SOL     OW29887   1.842   3.432   2.798 -0.1712 -0.3043  0.0544
 6084SOL    HW129888   1.797   3.516   2.804 -0.2608 -0.3353 -0.1713
 6084SOL    HW229889   1.809   3.407   2.711  3.1514 -2.3815 -0.6302
 6085SOL     OW29890   1.949   1.215   1.911 -0.1754  0.2873  0.7420
 6085SOL    HW129891   1.935   1.126   1.877  2.0217  0.4211 -0.5081
 6085SOL    HW229892   1.948   1.212   2.006  1.8517  1.3995  0.7912
 6086SOL     OW29893   0.125   1.079   6.580 -0.4190  0.8219 -0.0442
 6086SOL    HW129894   0.036   1.046   6.567 -0.5257  1.6898 -1.4810
 6086SOL    HW229895   0.121   1.143   6.509  0.5356  1.4339  0.4609
 6087SOL     OW29896   2.931   2.646   3.041 -0.4646  0.3227 -0.5629
 6087SOL    HW129897   3.008   2.656   3.097 -0.7442  0.0609 -0.1339
 6087SOL    HW229898   2.857   2.639   3.101  0.7567  3.6854  1.3193
 6088SOL     OW29899   2.020   1.007   2.710  0.2060  0.1025 -0.4629
 6088SOL    HW129900   2.017   0.920   2.749  1.8399 -0.5136 -1.7355
 6088SOL    HW229901   1.926   1.025   2.710  0.4821  1.5220 -0.2407
 6089SOL     OW29902   4.463   3.108  16.112  0.2546 -0.0754 -0.3858
 6089SOL    HW129903   4.416   3.182  16.149 -1.5609 -0.7736 -1.3003
 6089SOL    HW229904   4.540   3.091  16.166  1.2739  0.1169 -1.7520
 6090SOL     OW29905   1.860   3.372   9.091 -0.1006  0.1826  0.0720
 6090SOL    HW129906   1.927   3.318   9.133 -0.1290  0.2270  0.1737
 6090SOL    HW229907   1.887   3.367   8.999  1.0061  0.5517  0.3804
 6091SOL     OW29908   3.060   0.808   8.798 -0.4782  0.3882 -0.0112
 6091SOL    HW129909   3.051   0.797   8.892 -1.8143 -2.2000 -0.4480
 6091SOL    HW229910   3.114   0.887   8.791  0.6843 -0.1710  2.5631
 6092SOL     OW29911   3.905   0.062   4.220  0.4203 -0.3880 -0.2155
 6092SOL    HW129912   3.820   0.019   4.221 -0.2172  0.9574  1.8516
 6092SOL    HW229913   3.925   0.038   4.310  0.7509  1.3092  0.1696
 6093SOL     OW29914   0.979   2.359   4.300 -0.1149 -0.2053  0.0328
 6093SOL    HW129915   1.032   2.309   4.237  0.2824 -0.3402  0.4748
 6093SOL    HW229916   0.908   2.383   4.241 -1.0254  1.2168  1.7245
 6094SOL     OW29917   2.664   0.677   4.305 -0.0376  0.2733  0.6587
 6094SOL    HW129918   2.680   0.700   4.397  2.6177  3.2120 -0.5169
 6094SOL    HW229919   2.569   0.674   4.301 -0.0211 -1.7275  1.4649
 6095SOL     OW29920   0.234   1.321  11.560  0.7749 -0.0019  0.0002
 6095SOL    HW129921   0.306   1.327  11.497  1.8308  3.0503  1.5038
 6095SOL    HW229922   0.212   1.414  11.559  1.3069  0.1328  0.4867
 6096SOL     OW29923   3.465   3.475  15.238 -0.3292 -0.3704 -0.3489
 6096SOL    HW129924   3.501   3.428  15.313 -1.1794 -0.1365  0.2147
 6096SOL    HW229925   3.502   3.562  15.251 -2.0240  1.0549 -5.0130
 6097SOL     OW29926   0.672   2.481   7.630  0.4331  0.5756 -0.7063
 6097SOL    HW129927   0.763   2.490   7.657  0.4012 -0.5471 -0.2085
 6097SOL    HW229928   0.682   2.443   7.543 -0.3545 -0.2692 -0.4245
 6098SOL     OW29929   4.572   0.809   7.229  0.0743 -0.8601 -0.0634
 6098SOL    HW129930   4.618   0.852   7.301 -0.7891 -0.4968  0.2641
 6098SOL    HW229931   4.496   0.772   7.274 -1.5716  0.2682 -1.9294
 6099SOL     OW29932   1.507   0.067   8.913 -0.1400  0.4063  0.4642
 6099SOL    HW129933   1.491   0.040   9.003 -0.2708 -0.5026  0.1695
 6099SOL    HW229934   1.565   0.002   8.873 -0.8740 -0.5278  0.9165
 6100SOL     OW29935   2.723   0.534  12.641  0.0493 -0.0909  0.1831
 6100SOL    HW129936   2.813   0.522  12.671 -0.9546 -1.9461  2.4754
 6100SOL    HW229937   2.708   0.610  12.698  0.9155  1.3509 -1.5277
 6101SOL     OW29938   1.541   4.594   3.471 -0.4631  0.1395  0.3101
 6101SOL    HW129939   1.618   4.603   3.527 -2.4798 -3.5048  3.6603
 6101SOL    HW229940   1.483   4.652   3.521 -0.3525  0.8914 -0.4227
 6102SOL     OW29941   2.857   2.319  17.478  0.3250  0.4952  0.3273
 6102SOL    HW129942   2.784   2.370  17.513  0.0646  1.1227 -1.1227
 6102SOL    HW229943   2.821   2.237  17.446  2.1103 -0.7892  1.6503
 6103SOL     OW29944   3.158   3.253  14.258  0.4306 -0.3378 -0.5792
 6103SOL    HW129945   3.183   3.274  14.168  0.0851  0.6604 -0.4423
 6103SOL    HW229946   3.063   3.244  14.255  0.4952 -1.0290 -0.6773
 6104SOL     OW29947   1.301   0.473   5.969  0.6962 -0.3408  0.2760
 6104SOL    HW129948   1.276   0.381   5.980  0.0441  0.2263  3.5107
 6104SOL    HW229949   1.331   0.492   6.058  4.6782 -1.5186 -0.8217
 6105SOL     OW29950   1.642   4.598   4.889  0.0185  0.4687  0.0555
 6105SOL    HW129951   1.583   4.655   4.839 -0.5685 -1.3580 -1.3035
 6105SOL    HW229952   1.589   4.579   4.966  0.8095  0.3802  0.5857
 6106SOL     OW29953   1.616   4.229  14.397  0.3944  0.2275  0.0191
 6106SOL    HW129954   1.584   4.180  14.472 -1.8419  3.3234  1.1390
 6106SOL    HW229955   1.605   4.314  14.441  0.4456  0.6609 -0.8045
 6107SOL     OW29956   1.506   0.034   5.469  0.5663 -0.2731  0.3435
 6107SOL    HW129957   1.574   4.722   5.514 -0.7621 -1.1882  1.2874
 6107SOL    HW229958   1.547   0.118   5.492  0.3667 -0.1290  0.1689
 6108SOL     OW29959   0.522   0.052   5.383 -0.0173 -0.4043 -0.2030
 6108SOL    HW129960   0.525   4.705   5.425 -0.1429  0.5830  1.8792
 6108SOL    HW229961   0.492   0.029   5.295  0.9101  1.3938 -0.9940
 6109SOL     OW29962   3.711   1.370   6.715 -0.2904  0.8635  1.0062
 6109SOL    HW129963   3.741   1.445   6.767  1.0656  0.2656  1.0879
 6109SOL    HW229964   3.650   1.331   6.778  0.9541 -1.5727  0.6871
 6110SOL     OW29965   3.920   4.126   8.587  0.3820  0.4176 -0.4575
 6110SOL    HW129966   3.937   4.213   8.551  0.4004  0.5599 -0.1031
 6110SOL    HW229967   3.899   4.159   8.674 -0.4653  1.6798 -1.1335
 6111SOL     OW29968   0.180   2.878   1.251 -0.3226  0.1300 -0.3095
 6111SOL    HW129969   0.232   2.803   1.282 -0.6621  0.8315  1.8869
 6111SOL    HW229970   0.133   2.908   1.328  0.1497 -1.4326  0.5918
 6112SOL     OW29971   0.616   0.560   7.776 -0.3919  0.0533 -0.5270
 6112SOL    HW129972   0.637   0.472   7.805  2.3335  0.9311  0.1719
 6112SOL    HW229973   0.686   0.586   7.717  0.1196 -1.1060 -0.4239
 6113SOL     OW29974   0.439   4.680  11.238 -0.1114 -0.3539 -0.2250
 6113SOL    HW129975   0.524   4.681  11.282  0.2730  1.7831 -1.0098
 6113SOL    HW229976   0.413   4.588  11.236 -1.0394 -0.1222  1.5078
 6114SOL     OW29977   1.600   3.761   6.933  0.4593 -0.6396  0.4745
 6114SOL    HW129978   1.593   3.715   7.017 -0.0547 -2.4941 -0.5857
 6114SOL    HW229979   1.673   3.717   6.890 -0.5412 -0.5180 -1.3423
 6115SOL     OW29980   1.637   4.368   9.729 -0.1898  0.2561 -0.9296
 6115SOL    HW129981   1.582   4.291   9.715 -1.0511  0.7407 -0.1741
 6115SOL    HW229982   1.573   4.439   9.727 -0.6322 -0.0674  1.3135
 6116SOL     OW29983   3.932   3.121   4.483  0.2809  0.2811  0.3604
 6116SOL    HW129984   3.837   3.119   4.493  0.1954 -0.7791 -0.7389
 6116SOL    HW229985   3.950   3.068   4.406 -3.2755 -1.4817  0.7159
 6117SOL     OW29986   3.014   0.683   0.118  0.0089 -0.1412 -0.6083
 6117SOL    HW129987   3.053   0.737   0.187  1.1962 -1.5572 -0.1629
 6117SOL    HW229988   3.007   0.737   0.040 -3.5871  0.5779  0.2297
 6118SOL     OW29989   1.337   0.044   9.237  0.6585 -0.6927  0.5592
 6118SOL    HW129990   1.427   0.060   9.266  0.9955  0.0925 -0.9378
 6118SOL    HW229991   1.306   0.019   9.324  1.4059 -1.7385  0.5338
 6119SOL     OW29992   3.382   1.754   6.210 -0.1479 -0.2966  0.0125
 6119SOL    HW129993   3.434   1.830   6.183 -0.0570 -0.4777 -0.3170
 6119SOL    HW229994   3.435   1.713   6.279 -0.1139  0.5618  0.4993
 6120SOL     OW29995   2.282   0.144   3.552  0.1011  0.4364  0.4748
 6120SOL    HW129996   2.366   0.189   3.543  0.9253 -1.3963 -0.8293
 6120SOL    HW229997   2.220   0.209   3.588  0.8449  1.3691  0.0820
 6121SOL     OW29998   1.591   2.032   1.575 -0.0658  0.4359 -0.2379
 6121SOL    HW129999   1.622   2.113   1.615  0.1448  0.0856  0.3052
 6121SOL    HW230000   1.572   2.073   1.490 -0.5336 -0.1302 -0.4061
 6122SOL     OW30001   1.734   3.563   7.394 -0.2031 -0.0989 -0.2214
 6122SOL    HW130002   1.780   3.622   7.454 -0.1888 -1.2381  0.8747
 6122SOL    HW230003   1.790   3.486   7.398  1.4500  1.1878  1.1069
 6123SOL     OW30004   0.819   0.904   8.669  0.0255  0.3806 -0.4304
 6123SOL    HW130005   0.889   0.962   8.698  0.7497 -0.2779 -0.8583
 6123SOL    HW230006   0.835   0.833   8.732 -0.1113 -0.1672 -1.0097
 6124SOL     OW30007   2.137   0.551  17.011 -0.0839  0.2239  0.3000
 6124SOL    HW130008   2.125   0.561  17.106 -4.2724  1.2963 -0.3483
 6124SOL    HW230009   2.166   0.460  17.000 -2.6987 -0.2976 -2.1679
 6125SOL     OW30010   3.348   3.055   5.026  0.3206 -0.9228  0.0835
 6125SOL    HW130011   3.296   3.111   5.083 -0.7339  0.5097 -2.2843
 6125SOL    HW230012   3.279   3.011   4.976 -0.0083 -1.8213  1.3171
 6126SOL     OW30013   3.276   0.198   2.068  0.3990  0.8635  0.4569
 6126SOL    HW130014   3.261   0.293   2.067  0.4696  0.8501 -2.8652
 6126SOL    HW230015   3.189   0.165   2.045  1.4896 -1.3964 -0.4301
 6127SOL     OW30016   3.506   0.130   7.231 -0.1881  0.1108 -0.0366
 6127SOL    HW130017   3.551   0.110   7.148 -0.7485 -0.5015 -0.1983
 6127SOL    HW230018   3.480   0.039   7.245  0.3311  0.3537  2.5037
 6128SOL     OW30019   2.126   2.283   3.291 -0.1438  0.0714  0.1925
 6128SOL    HW130020   2.149   2.367   3.251  0.3468  0.3976  1.1464
 6128SOL    HW230021   2.121   2.231   3.211 -0.6372 -2.3321  1.7662
 6129SOL     OW30022   2.983   1.029   4.383 -0.1907  0.4478 -0.4286
 6129SOL    HW130023   2.937   1.085   4.319 -2.9165  1.8008  2.7212
 6129SOL    HW230024   2.930   1.040   4.462 -0.0996  0.4709 -0.3709
 6130SOL     OW30025   3.145   0.791   1.023  0.5960 -0.6369 -0.1611
 6130SOL    HW130026   3.108   0.766   1.107  0.1546  2.0512  0.4399
 6130SOL    HW230027   3.237   0.805   1.045  0.9773 -0.2376 -1.9429
 6131SOL     OW30028   3.795   1.866   4.372 -0.2972  0.4210  0.3772
 6131SOL    HW130029   3.864   1.850   4.437 -0.3554  2.0557  0.8372
 6131SOL    HW230030   3.845   1.864   4.290 -1.3783  3.6216 -0.3316
 6132SOL     OW30031   0.475   2.251   5.918 -0.3611  0.9214 -0.5035
 6132SOL    HW130032   0.537   2.287   5.981 -0.5745 -1.3149  1.0037
 6132SOL    HW230033   0.541   2.185   5.895 -0.5657 -0.8144  3.7596
 6133SOL     OW30034   2.487   0.767   5.410 -0.2593 -0.2674  0.0701
 6133SOL    HW130035   2.413   0.723   5.369 -2.0527  1.4297  1.4431
 6133SOL    HW230036   2.483   0.718   5.492  1.6339 -1.9997 -0.8819
 6134SOL     OW30037   2.536   1.083   5.901 -0.4075  0.7284  0.2627
 6134SOL    HW130038   2.585   1.099   5.820  2.2533 -1.0024  1.5288
 6134SOL    HW230039   2.562   1.166   5.941 -3.8644  2.1056 -0.3164
 6135SOL     OW30040   1.908   0.452   2.660  0.0697  0.1873 -0.2760
 6135SOL    HW130041   1.886   0.536   2.620 -1.1843  0.1978  0.4209
 6135SOL    HW230042   1.844   0.437   2.729 -1.2038 -2.8041 -2.0897
 6136SOL     OW30043   0.843   2.405   9.326 -0.2918 -0.6595 -0.0517
 6136SOL    HW130044   0.768   2.419   9.269 -0.5399 -0.9335  0.2027
 6136SOL    HW230045   0.810   2.345   9.394  1.5577 -2.7871 -1.0301
 6137SOL     OW30046   0.809   1.841   5.399 -0.5318 -0.1391  0.2461
 6137SOL    HW130047   0.800   1.934   5.418  0.4826 -0.4767  2.3463
 6137SOL    HW230048   0.747   1.828   5.327 -1.5109 -2.4615  1.5030
 6138SOL     OW30049   2.220   2.036  16.503  0.2601  0.3904  0.5971
 6138SOL    HW130050   2.146   2.095  16.517  0.0939 -0.0181  1.4768
 6138SOL    HW230051   2.262   2.076  16.427 -0.9706  1.7656  0.6368
 6139SOL     OW30052   4.438   4.456   5.553  0.3317  0.2127  0.1691
 6139SOL    HW130053   4.531   4.437   5.543  0.3666  1.4463 -1.7481
 6139SOL    HW230054   4.403   4.392   5.491 -1.7898  0.4050  1.1467
 6140SOL     OW30055   2.061   0.044   4.731 -0.0130  0.1060  0.0842
 6140SOL    HW130056   2.056   0.127   4.778 -0.4080 -0.0230  0.2649
 6140SOL    HW230057   2.149   0.015   4.757 -0.6828  1.0982  3.4030
 6141SOL     OW30058   4.345   4.146   3.252 -0.1130 -0.3182  0.7081
 6141SOL    HW130059   4.317   4.062   3.288 -1.5498 -0.5196 -0.8767
 6141SOL    HW230060   4.420   4.170   3.305  0.7084  2.6895 -1.8263
 6142SOL     OW30061   1.722   2.565   5.367 -0.1390  0.3335  0.5437
 6142SOL    HW130062   1.763   2.649   5.348  1.5928 -0.6564 -0.1615
 6142SOL    HW230063   1.633   2.588   5.339  1.6843  3.3186 -2.8628
 6143SOL     OW30064   4.021   2.562   5.969  0.1007 -0.2164 -0.1834
 6143SOL    HW130065   3.984   2.495   5.912  1.5504  0.9580 -2.5272
 6143SOL    HW230066   3.943   2.560   6.024 -0.8914 -1.3591 -1.6523
 6144SOL     OW30067   3.587   4.261   2.582  0.0663  0.0869 -0.0310
 6144SOL    HW130068   3.575   4.234   2.673 -0.6628 -0.4092 -0.2715
 6144SOL    HW230069   3.560   4.353   2.586 -2.4348 -0.5674 -1.5452
 6145SOL     OW30070   2.920   3.347   5.279  0.5923  0.5859  0.8329
 6145SOL    HW130071   2.962   3.263   5.260  1.1076  0.9875  0.2049
 6145SOL    HW230072   2.986   3.387   5.335  1.2675  1.8852 -0.9025
 6146SOL     OW30073   1.681   3.793   4.713 -0.3220  0.4070 -0.5181
 6146SOL    HW130074   1.640   3.710   4.688 -0.6551  0.8432 -1.4322
 6146SOL    HW230075   1.646   3.812   4.799  0.4378  1.6390 -0.4931
 6147SOL     OW30076   1.874   1.842  15.666  0.4314 -0.0274 -0.0082
 6147SOL    HW130077   1.809   1.796  15.717  0.6618  0.0692  0.3743
 6147SOL    HW230078   1.952   1.797  15.699  0.3988  1.1926  1.7276
 6148SOL     OW30079   0.601   4.660  14.347 -0.2411  0.0139 -0.3635
 6148SOL    HW130080   0.531   4.672  14.410  0.9627  3.2143  0.3812
 6148SOL    HW230081   0.544   4.696  14.279 -2.0462  0.4285  1.3869
 6149SOL     OW30082   2.253   0.972  15.964 -0.6426 -0.2176 -0.6139
 6149SOL    HW130083   2.282   1.054  15.924  3.0396 -0.3941  1.6945
 6149SOL    HW230084   2.160   0.986  15.979 -1.0089 -0.9953 -2.0922
 6150SOL     OW30085   3.532   3.831   8.326 -1.2194  0.0384  0.3138
 6150SOL    HW130086   3.448   3.815   8.284 -0.3318 -1.0240 -1.0597
 6150SOL    HW230087   3.520   3.902   8.389 -1.2662  0.7677 -0.5207
 6151SOL     OW30088   3.958   2.369   3.918 -0.1683 -0.3505 -0.1507
 6151SOL    HW130089   3.879   2.423   3.921 -1.1441 -1.9229  1.6017
 6151SOL    HW230090   4.005   2.416   3.849  1.2343 -1.5284  0.0067
 6152SOL     OW30091   4.444   1.658   6.834  0.1506 -0.3419 -0.2139
 6152SOL    HW130092   4.522   1.609   6.811 -0.0110 -1.0280  0.6825
 6152SOL    HW230093   4.436   1.617   6.920 -1.9235 -0.4118 -0.4376
 6153SOL     OW30094   3.449   2.451  10.381  0.4480  0.3723 -0.4221
 6153SOL    HW130095   3.434   2.487  10.468 -1.0891 -1.8753  0.2477
 6153SOL    HW230096   3.407   2.366  10.396 -0.9702  1.4116  1.5126
 6154SOL     OW30097   4.109   4.541   7.289 -0.2494 -0.6488  0.2033
 6154SOL    HW130098   4.176   4.596   7.249 -0.1772 -0.0494  1.1432
 6154SOL    HW230099   4.046   4.601   7.330 -1.1956 -0.1208 -2.0400
 6155SOL     OW30100   1.346   0.216   8.754  0.6621  0.3377 -0.1339
 6155SOL    HW130101   1.398   0.154   8.805  1.1477  0.9313  0.0882
 6155SOL    HW230102   1.331   0.160   8.677 -1.3720  0.0249  0.4817
 6156SOL     OW30103   0.863   0.124  16.446 -0.1627 -0.2269  0.0102
 6156SOL    HW130104   0.946   0.077  16.435 -0.7886 -1.5119  0.7774
 6156SOL    HW230105   0.881   0.164  16.531  0.3809  2.1417 -1.2042
 6157SOL     OW30106   4.453   0.844   6.375 -0.2214  0.6662  0.1609
 6157SOL    HW130107   4.450   0.760   6.328 -1.9157  1.0637 -0.4656
 6157SOL    HW230108   4.397   0.896   6.317  1.6696  1.5386 -0.8713
 6158SOL     OW30109   0.158   0.648   9.018 -0.0757 -0.0205 -0.8516
 6158SOL    HW130110   0.093   0.638   9.088 -0.3452  0.7505 -0.9935
 6158SOL    HW230111   0.196   0.561   9.009 -0.0091  0.0340 -1.0898
 6159SOL     OW30112   4.199   3.602   7.316 -0.6428 -0.2867 -0.3739
 6159SOL    HW130113   4.191   3.675   7.377  2.0946  0.6158 -1.1098
 6159SOL    HW230114   4.227   3.529   7.371  1.5901 -0.6413 -1.9984
 6160SOL     OW30115   3.213   3.371  13.275  0.1263 -0.1747  0.7147
 6160SOL    HW130116   3.245   3.282  13.263  1.5383  0.4529 -0.2801
 6160SOL    HW230117   3.204   3.396  13.183  0.8014 -0.1160  0.6616
 6161SOL     OW30118   0.430   1.913  10.677  0.1413  0.0295 -0.0234
 6161SOL    HW130119   0.418   1.861  10.757 -1.6733 -2.3714 -1.8587
 6161SOL    HW230120   0.381   1.990  10.707 -1.0814  0.0581 -2.0570
 6162SOL     OW30121   1.157   1.922   7.747  0.1934 -0.5457  0.1544
 6162SOL    HW130122   1.102   1.945   7.822  0.2082  0.3679 -0.1117
 6162SOL    HW230123   1.228   1.874   7.790  1.9106  3.8409  2.3128
 6163SOL     OW30124   4.054   1.627   2.663  0.2219  0.5418 -0.3440
 6163SOL    HW130125   4.092   1.629   2.575 -3.0588  0.5218 -1.7586
 6163SOL    HW230126   4.043   1.720   2.683 -1.8197 -0.4370  2.9810
 6164SOL     OW30127   2.922   2.005   3.918  0.5264 -0.0543  0.1522
 6164SOL    HW130128   2.954   2.095   3.928  1.9494 -0.2330 -2.7183
 6164SOL    HW230129   2.901   1.981   4.009  0.8086 -1.7381 -0.2219
 6165SOL     OW30130   3.953   2.933   1.350  0.2087 -0.2059  0.2893
 6165SOL    HW130131   3.966   2.954   1.443 -1.2680  2.2899 -0.0882
 6165SOL    HW230132   4.028   2.972   1.305  0.0398 -0.7478 -0.4661
 6166SOL     OW30133   0.665   3.527   1.458  0.8342  0.0475  0.0732
 6166SOL    HW130134   0.756   3.551   1.474  0.5161  1.5159 -0.3244
 6166SOL    HW230135   0.622   3.608   1.485  1.3801  0.3368  0.0724
 6167SOL     OW30136   3.993   4.739   7.964 -0.5777  0.3202  0.8107
 6167SOL    HW130137   3.939   4.738   8.043  0.3087  4.4034  1.4728
 6167SOL    HW230138   3.929   4.700   7.903 -1.0867  1.9685  0.2796
 6168SOL     OW30139   1.561   2.509   5.871  0.6046  0.4389 -0.3402
 6168SOL    HW130140   1.623   2.525   5.799 -0.9061 -2.7346 -2.3327
 6168SOL    HW230141   1.522   2.595   5.885 -1.4260 -0.2528 -1.7428
 6169SOL     OW30142   2.950   1.398   5.466  0.4607  0.1261 -0.0168
 6169SOL    HW130143   2.909   1.413   5.381 -0.2677  1.3909  0.5561
 6169SOL    HW230144   2.910   1.464   5.522 -1.4562 -0.0384 -1.2008
 6170SOL     OW30145   1.479   2.088   3.267 -0.4235 -0.0761  0.1113
 6170SOL    HW130146   1.397   2.044   3.247  0.1502 -1.4451  0.7995
 6170SOL    HW230147   1.540   2.018   3.288 -1.6426 -1.2375 -0.2233
 6171SOL     OW30148   0.968   1.033  13.353  0.5102 -0.2478 -0.0560
 6171SOL    HW130149   1.003   1.115  13.318 -0.8122  0.3129 -0.0460
 6171SOL    HW230150   0.886   1.072  13.381  0.8294 -0.6594  1.4680
 6172SOL     OW30151   0.485   1.183   4.615  0.1345  0.0788 -0.5973
 6172SOL    HW130152   0.429   1.219   4.546  2.4610  1.7350 -1.6169
 6172SOL    HW230153   0.559   1.142   4.570  0.7018 -3.6088  3.6734
 6173SOL     OW30154   2.241   3.048   3.491 -0.3954  0.2527  0.3749
 6173SOL    HW130155   2.287   3.112   3.545 -0.3881  3.2282 -3.1366
 6173SOL    HW230156   2.305   3.031   3.422  1.4345  0.9479  1.9038
 6174SOL     OW30157   2.214   0.536   1.777 -0.1162  0.0027 -0.0643
 6174SOL    HW130158   2.170   0.453   1.792  1.8083 -1.2016 -1.0649
 6174SOL    HW230159   2.293   0.527   1.831  1.3207 -1.1679 -2.3362
 6175SOL     OW30160   1.298   0.479   6.252 -0.2037  0.4687 -0.2704
 6175SOL    HW130161   1.349   0.464   6.332 -0.6910 -0.2294 -0.0914
 6175SOL    HW230162   1.224   0.422   6.268 -0.2930  0.5281 -0.4679
 6176SOL     OW30163   0.007   1.759  16.719 -0.2833  0.5704 -0.3280
 6176SOL    HW130164   4.713   1.707  16.645  1.2600 -1.1436  0.1867
 6176SOL    HW230165   0.098   1.758  16.691 -0.0396 -2.7845  0.6086
 6177SOL     OW30166   1.511   4.265   4.354  0.5706  0.3040  0.0805
 6177SOL    HW130167   1.540   4.236   4.440 -0.3710  1.4480  0.7785
 6177SOL    HW230168   1.429   4.309   4.377 -0.7945 -3.3499  2.2143
 6178SOL     OW30169   3.843   2.098   1.342 -0.4760  0.0087 -0.6931
 6178SOL    HW130170   3.847   2.074   1.249  1.2892  1.2383 -0.9502
 6178SOL    HW230171   3.863   2.192   1.342 -0.2210 -0.0507  0.9255
 6179SOL     OW30172   2.862   2.967  11.183  0.7446 -0.1661  0.0852
 6179SOL    HW130173   2.788   2.912  11.209  0.1176  0.7360  0.1866
 6179SOL    HW230174   2.923   2.894  11.168  2.1951  1.0614  0.0153
 6180SOL     OW30175   4.679   3.481  17.607  0.5587  0.2246 -0.4244
 6180SOL    HW130176   4.595   3.526  17.620  1.6936  0.9288  4.5954
 6180SOL    HW230177   4.717   3.546  17.548  1.8196  0.3270  0.5039
 6181SOL     OW30178   2.907   0.675   1.667  0.3544 -0.2010  0.0201
 6181SOL    HW130179   2.814   0.667   1.647  0.8184 -1.8075 -1.5168
 6181SOL    HW230180   2.926   0.765   1.640  1.4817 -0.3307  0.3678
 6182SOL     OW30181   1.794   4.333   3.930  0.1938  0.2603 -0.0577
 6182SOL    HW130182   1.767   4.353   4.020 -0.0989  0.0042 -0.0888
 6182SOL    HW230183   1.807   4.424   3.901  0.0495  0.5092  0.6565
 6183SOL     OW30184   1.473   3.257   9.323  0.7208 -0.1716  0.3483
 6183SOL    HW130185   1.521   3.244   9.241 -0.0106 -2.5551  0.2743
 6183SOL    HW230186   1.426   3.175   9.337 -0.3272  0.3733  0.0363
 6184SOL     OW30187   0.989   4.074   4.022  0.3759 -0.2518 -0.6947
 6184SOL    HW130188   1.023   4.109   3.940 -0.0552 -0.9783 -1.1812
 6184SOL    HW230189   0.936   4.151   4.044 -1.8023 -1.7873 -0.5212
 6185SOL     OW30190   1.283   1.361   8.404  0.4127 -0.3996 -0.0895
 6185SOL    HW130191   1.253   1.280   8.364 -2.4454  0.1294  0.9587
 6185SOL    HW230192   1.285   1.426   8.333 -2.1515 -1.4018 -1.0777
 6186SOL     OW30193   1.216   4.517   8.791  0.0561 -0.1299  0.2035
 6186SOL    HW130194   1.230   4.547   8.881  0.7141  0.1693  0.0011
 6186SOL    HW230195   1.306   4.500   8.763 -0.0019 -1.2494  0.6948
 6187SOL     OW30196   0.452   0.138   3.813 -0.6184 -0.4320  0.2002
 6187SOL    HW130197   0.468   0.147   3.719  1.3085  0.7598  0.6416
 6187SOL    HW230198   0.374   0.083   3.805 -0.8465 -0.0919  0.1036
 6188SOL     OW30199   3.229   4.195   4.156 -0.2713  0.4354  0.1597
 6188SOL    HW130200   3.157   4.257   4.161  0.5149  1.3148  0.4614
 6188SOL    HW230201   3.292   4.234   4.215 -1.1536 -2.2199  2.8505
 6189SOL     OW30202   2.055   2.946  14.143  0.1494  0.1363 -0.1289
 6189SOL    HW130203   2.023   2.865  14.183 -0.4571  0.6495  0.4244
 6189SOL    HW230204   2.047   3.000  14.222  2.6161  1.7005 -0.9373
 6190SOL     OW30205   2.026   3.931   7.155 -0.5958  0.1341 -0.2257
 6190SOL    HW130206   1.955   3.979   7.113  0.7653 -0.0339 -2.7456
 6190SOL    HW230207   1.986   3.844   7.166 -0.1267  0.0962  1.1615
 6191SOL     OW30208   1.391   2.756   3.421  0.2332  0.6923 -0.2857
 6191SOL    HW130209   1.434   2.826   3.371 -0.1790  2.5381  1.9012
 6191SOL    HW230210   1.318   2.801   3.463 -0.9262 -0.2746 -1.2771
 6192SOL     OW30211   1.042   2.158  13.283 -0.3611  0.4204  0.1367
 6192SOL    HW130212   1.035   2.244  13.324  0.7052  0.5522  0.0341
 6192SOL    HW230213   1.130   2.144  13.317  0.1972  0.0146 -1.4829
 6193SOL     OW30214   1.142   1.148   7.865 -0.3591 -0.7587  0.2208
 6193SOL    HW130215   1.189   1.172   7.944  1.4558 -1.1726 -0.7275
 6193SOL    HW230216   1.194   1.078   7.826  1.0747  0.1913  0.4148
 6194SOL     OW30217   3.162   1.932   9.480 -0.3276  0.5598 -0.1168
 6194SOL    HW130218   3.223   1.942   9.407 -2.5359 -0.4552 -2.1223
 6194SOL    HW230219   3.084   1.897   9.437  0.2011  0.9887 -1.4330
 6195SOL     OW30220   0.580   1.605   5.677  0.1200 -0.1889 -0.1911
 6195SOL    HW130221   0.520   1.680   5.682  1.8749  1.1559  0.7149
 6195SOL    HW230222   0.664   1.647   5.695  0.2400 -0.0128 -1.1745
 6196SOL     OW30223   1.990   1.330   3.722 -0.1562  0.1690  0.2826
 6196SOL    HW130224   2.006   1.338   3.628  0.3499 -0.4420  0.3144
 6196SOL    HW230225   1.933   1.252   3.722  0.8062 -0.5348  0.8351
 6197SOL     OW30226   4.326   4.297  13.040 -0.3834  0.0999  0.1710
 6197SOL    HW130227   4.372   4.278  13.122  0.3898  1.3812  0.0287
 6197SOL    HW230228   4.240   4.264  13.067 -0.2180 -0.4738 -0.0098
 6198SOL     OW30229   1.229   2.017   8.218  0.5669  0.2012 -0.0946
 6198SOL    HW130230   1.195   1.972   8.295 -0.8326 -0.5567 -1.1685
 6198SOL    HW230231   1.324   2.023   8.231  0.6187 -0.7972 -0.0149
 6199SOL     OW30232   4.046   0.065   5.026  0.4207  0.0398 -0.3775
 6199SOL    HW130233   4.099   0.002   5.075  1.7407  0.3401 -1.4148
 6199SOL    HW230234   4.015   0.019   4.949 -0.8421  0.8145 -0.3293
 6200SOL     OW30235   2.486   4.539  17.352 -0.7651 -0.0792  0.3818
 6200SOL    HW130236   2.393   4.547  17.331 -0.7821  2.3472  1.4879
 6200SOL    HW230237   2.477   4.475  17.423  0.3120  0.0176  0.5983
 6201SOL     OW30238   4.276   1.899  16.153 -0.2540  0.2526  0.1190
 6201SOL    HW130239   4.210   1.968  16.161  1.4658  2.2779 -3.0280
 6201SOL    HW230240   4.234   1.845  16.086 -0.8870  0.5807  0.2508
 6202SOL     OW30241   1.208   0.507   7.068 -0.1804  0.2613  0.1279
 6202SOL    HW130242   1.129   0.452   7.061 -0.0482  0.1998 -0.9257
 6202SOL    HW230243   1.266   0.451   7.017 -2.6926 -0.2412 -2.1838
 6203SOL     OW30244   2.637   3.859   2.568  0.2689  0.2242  0.1175
 6203SOL    HW130245   2.699   3.914   2.520 -1.2416  0.9544 -1.0049
 6203SOL    HW230246   2.615   3.798   2.497  1.1252 -1.0694  0.9745
 6204SOL     OW30247   2.724   4.663  12.490  0.3540  0.0431  0.7728
 6204SOL    HW130248   2.818   4.669  12.509  0.1935  0.6594  1.3488
 6204SOL    HW230249   2.723   4.593  12.424 -0.3823  2.1907 -1.4993
 6205SOL     OW30250   3.843   1.961   3.271 -0.4615  0.2031 -0.0945
 6205SOL    HW130251   3.829   1.939   3.363 -1.3495 -0.8956 -0.4966
 6205SOL    HW230252   3.785   2.037   3.266  1.6157  1.7133 -1.2351
 6206SOL     OW30253   2.092   0.656   8.919 -0.4667  0.1279  0.3293
 6206SOL    HW130254   2.172   0.682   8.964  1.4433 -1.7115 -2.0006
 6206SOL    HW230255   2.030   0.626   8.985 -0.9753  1.7581  0.6057
 6207SOL     OW30256   2.551   1.011  12.229  0.3555 -0.5227  0.4040
 6207SOL    HW130257   2.476   0.957  12.253 -1.1037  0.5081 -1.8645
 6207SOL    HW230258   2.549   1.084  12.291  0.0935 -0.6406  0.5336
 6208SOL     OW30259   3.521   1.100   4.445 -0.3384  0.2756 -0.0686
 6208SOL    HW130260   3.426   1.105   4.451 -0.2366  0.9841  0.8355
 6208SOL    HW230261   3.531   1.156   4.522  0.5913  2.3316 -1.7113
 6209SOL     OW30262   0.668   3.779  11.920  0.3202  0.0966  0.7788
 6209SOL    HW130263   0.718   3.714  11.968 -0.8810 -1.8379 -0.5527
 6209SOL    HW230264   0.634   3.821  11.999  1.0785 -1.7012  2.0437
 6210SOL     OW30265   1.189   3.759  17.055  0.2036  0.5337  0.5392
 6210SOL    HW130266   1.123   3.694  17.029  0.2542 -0.4384  2.7934
 6210SOL    HW230267   1.168   3.832  16.997 -0.0743 -1.0280 -1.3142
 6211SOL     OW30268   0.844   4.298   7.288  0.4798 -0.4373 -0.4685
 6211SOL    HW130269   0.832   4.289   7.193  0.4866 -2.0356 -0.3135
 6211SOL    HW230270   0.757   4.328   7.314  0.0400 -1.5933 -0.5951
 6212SOL     OW30271   4.289   0.312   3.640  0.5056 -0.1968  0.3638
 6212SOL    HW130272   4.318   0.388   3.590  0.3046 -0.1273  0.3491
 6212SOL    HW230273   4.193   0.319   3.632  0.6936 -0.2913 -1.9338
 6213SOL     OW30274   0.946   1.065   5.887 -0.0086 -0.0780 -0.0148
 6213SOL    HW130275   1.004   1.113   5.828  0.4167  1.4209  1.6490
 6213SOL    HW230276   1.013   1.041   5.950 -0.4565 -1.0998  0.0840
 6214SOL     OW30277   1.447   1.252   5.477  0.2244 -0.0730 -0.2175
 6214SOL    HW130278   1.369   1.307   5.479  0.1978 -0.1220  0.0453
 6214SOL    HW230279   1.447   1.212   5.390 -2.4761  2.2658 -1.2905
 6215SOL     OW30280   0.500   1.071   2.738 -0.1779 -0.2721 -0.3422
 6215SOL    HW130281   0.578   1.080   2.683 -0.0667  1.9636  0.1831
 6215SOL    HW230282   0.433   1.038   2.678 -0.8187  2.2310 -1.0078
 6216SOL     OW30283   0.187   0.452   2.659 -0.4553  0.5717 -0.1190
 6216SOL    HW130284   0.175   0.542   2.689 -0.4948 -0.7394  3.7757
 6216SOL    HW230285   0.260   0.476   2.603 -1.1545  2.0367 -0.4070
 6217SOL     OW30286   1.585   0.216  17.583  0.1943 -0.1770  0.0136
 6217SOL    HW130287   1.510   0.197  17.638  0.6491 -1.6329  0.1252
 6217SOL    HW230288   1.579   0.311  17.597  0.4088  0.1901 -2.4588
 6218SOL     OW30289   0.453   4.110  11.878  0.3842 -0.2341  0.4740
 6218SOL    HW130290   0.490   4.058  11.949 -4.3424 -0.8971  2.4533
 6218SOL    HW230291   0.511   4.186  11.886  1.8756 -1.2056 -1.0111
 6219SOL     OW30292   3.026   3.564  13.302  0.6212  0.1458 -0.4236
 6219SOL    HW130293   3.108   3.521  13.325  0.5207  0.3016  0.2322
 6219SOL    HW230294   3.058   3.606  13.222  0.2526  0.8008 -0.2267
 6220SOL     OW30295   3.461   0.821   9.903 -0.3966  0.6098  0.0206
 6220SOL    HW130296   3.462   0.833   9.998 -0.1223 -3.2650  0.5212
 6220SOL    HW230297   3.532   0.763   9.876  1.0811  0.9350  3.1930
 6221SOL     OW30298   0.829   3.010   0.832 -0.2978 -0.3414 -0.6173
 6221SOL    HW130299   0.836   3.003   0.737 -1.8100  0.1431 -0.7658
 6221SOL    HW230300   0.848   3.102   0.850  2.4459 -1.2317  1.0383
 6222SOL     OW30301   2.208   3.843   1.521 -0.8031  0.3208  0.4734
 6222SOL    HW130302   2.193   3.933   1.550 -0.8118  0.5635 -0.2764
 6222SOL    HW230303   2.148   3.800   1.582  0.2220 -2.2824 -0.3560
 6223SOL     OW30304   1.774   3.625   9.194 -0.1683  0.3791 -0.1187
 6223SOL    HW130305   1.853   3.672   9.220  1.0232 -0.1501 -2.7534
 6223SOL    HW230306   1.821   3.554   9.149 -0.4488  0.1375 -0.0316
 6224SOL     OW30307   1.225   1.440   7.654  0.1498  0.7268  0.5020
 6224SOL    HW130308   1.291   1.501   7.619 -0.2634  0.3641 -0.9178
 6224SOL    HW230309   1.255   1.353   7.630 -0.2668  0.4532  0.9792
 6225SOL     OW30310   4.143   0.451  14.640 -0.1834  0.5935  0.2839
 6225SOL    HW130311   4.053   0.484  14.635 -1.0244 -1.7368  0.0779
 6225SOL    HW230312   4.162   0.470  14.732  2.4369  3.9410 -0.9309
 6226SOL     OW30313   3.957   0.963   7.459  0.4072  0.2637 -0.1163
 6226SOL    HW130314   3.884   0.984   7.517  1.4374 -1.5884  1.8238
 6226SOL    HW230315   4.031   0.950   7.518  1.7817  1.1144 -1.6399
 6227SOL     OW30316   2.314   1.852   6.770  0.0860  0.0697  0.0188
 6227SOL    HW130317   2.320   1.820   6.680  1.4855 -0.8974  0.4560
 6227SOL    HW230318   2.225   1.848   6.805  0.3242 -0.3194  0.5824
 6228SOL     OW30319   4.713   3.107   4.733  0.0727 -0.5242 -0.6100
 6228SOL    HW130320   0.042   3.144   4.790  0.1548  1.3459 -1.9037
 6228SOL    HW230321   4.640   3.159   4.768  0.3065 -0.3852 -0.3221
 6229SOL     OW30322   4.179   2.475   6.494 -0.1798  0.0164 -0.1890
 6229SOL    HW130323   4.251   2.497   6.436 -0.6082  1.0251 -0.3400
 6229SOL    HW230324   4.217   2.478   6.582 -0.5931 -0.2017 -0.0006
 6230SOL     OW30325   0.639   0.093  10.669 -0.1102  0.8104  0.0297
 6230SOL    HW130326   0.585   0.030  10.716  0.4284  0.3098 -0.0178
 6230SOL    HW230327   0.619   0.079  10.577  0.3497 -1.2281  0.2460
 6231SOL     OW30328   1.801   2.938   3.154  0.6281  0.6085 -0.4937
 6231SOL    HW130329   1.798   2.929   3.249 -0.5376  1.6297 -0.4333
 6231SOL    HW230330   1.882   2.986   3.135  1.3894 -0.4295  0.1461
 6232SOL     OW30331   3.973   2.038   6.454 -0.0696  0.0871 -0.0880
 6232SOL    HW130332   4.059   2.034   6.495 -1.2377  1.5193  2.5571
 6232SOL    HW230333   3.992   2.126   6.422 -0.0786  0.0368 -0.2296
 6233SOL     OW30334   3.262   2.791   4.900  0.0457 -0.1986 -0.3476
 6233SOL    HW130335   3.352   2.759   4.905 -0.4967 -1.5154  0.8497
 6233SOL    HW230336   3.242   2.778   4.807 -0.4950 -0.5035 -0.1894
 6234SOL     OW30337   3.013   2.930   3.190 -0.2766  0.1870  0.3950
 6234SOL    HW130338   3.073   2.985   3.141  1.0063 -1.1446  0.4674
 6234SOL    HW230339   3.073   2.857   3.203  3.1252  3.3877  2.5345
 6235SOL     OW30340   1.793   1.824   8.359  0.1328 -0.0288 -0.3961
 6235SOL    HW130341   1.844   1.752   8.397 -0.0974 -0.1810 -0.3717
 6235SOL    HW230342   1.859   1.888   8.332 -1.2212  1.6818  0.3505
 6236SOL     OW30343   2.615   3.319   4.277  0.0308 -0.5657  0.4036
 6236SOL    HW130344   2.548   3.349   4.216  0.4745  0.7520  0.5770
 6236SOL    HW230345   2.581   3.352   4.360  2.0603  0.2814  0.9148
 6237SOL     OW30346   2.596   3.287  16.987 -0.0794  0.1677 -0.4446
 6237SOL    HW130347   2.530   3.355  16.971  1.6844  2.2657  1.1692
 6237SOL    HW230348   2.666   3.351  17.004 -0.9762  1.5843 -2.0275
 6238SOL     OW30349   2.092   1.842   0.689  0.3252 -0.0647 -0.9675
 6238SOL    HW130350   2.036   1.921   0.688  1.9177  1.0869  0.8831
 6238SOL    HW230351   2.127   1.838   0.601 -1.2499 -1.9123 -1.5085
 6239SOL     OW30352   4.696   2.496   7.077  0.3368  0.3005  0.0817
 6239SOL    HW130353   4.662   2.567   7.131  1.8684  1.5200 -0.5836
 6239SOL    HW230354   4.701   2.419   7.133  3.1644 -1.5682 -2.7379
 6240SOL     OW30355   3.629   1.562   5.059 -0.1695  0.3490  0.5738
 6240SOL    HW130356   3.640   1.489   5.120  0.8981  0.9009  1.0383
 6240SOL    HW230357   3.715   1.602   5.051  0.4718 -0.4653  3.1298
 6241SOL     OW30358   4.138   4.555  14.873  0.3905  0.1448 -0.1303
 6241SOL    HW130359   4.125   4.565  14.968  0.9812  0.6339 -0.1010
 6241SOL    HW230360   4.071   4.611  14.834  0.5774 -0.8638 -1.9091
 6242SOL     OW30361   0.392   2.519   9.274 -0.0728  0.4256 -0.4613
 6242SOL    HW130362   0.387   2.614   9.283  1.7795  0.4755  0.1020
 6242SOL    HW230363   0.485   2.502   9.257  0.6675  0.0763  3.9017
 6243SOL     OW30364   2.426   1.951   3.493  0.2060  0.3421 -0.3728
 6243SOL    HW130365   2.376   1.998   3.560  1.8847 -0.4577  1.4775
 6243SOL    HW230366   2.456   1.876   3.545  1.2006  1.5228  0.7759
 6244SOL     OW30367   4.475   0.382   0.622 -0.0457  0.2389 -0.2021
 6244SOL    HW130368   4.488   0.420   0.709  1.8119 -1.0475  0.0667
 6244SOL    HW230369   4.549   0.322   0.616 -0.7537 -0.5570 -1.0735
 6245SOL     OW30370   2.841   2.999  16.312  0.3949 -0.0897 -0.5242
 6245SOL    HW130371   2.811   3.017  16.401 -2.4141  2.7925 -2.0382
 6245SOL    HW230372   2.796   2.915  16.303  0.8501 -0.2261 -1.5104
 6246SOL     OW30373   1.073   0.717   2.653 -0.2757 -0.3322  0.0340
 6246SOL    HW130374   1.154   0.686   2.613 -0.0203  1.9879 -1.2292
 6246SOL    HW230375   1.092   0.724   2.747  1.5222 -1.3034 -0.2555
 6247SOL     OW30376   2.343   3.063   3.115 -0.7406  0.2999  0.0637
 6247SOL    HW130377   2.400   2.990   3.091 -0.6204  0.4297 -0.0537
 6247SOL    HW230378   2.318   3.088   3.025 -0.3537  1.8196  0.3688
 6248SOL     OW30379   3.874   3.428  14.948  0.1557 -0.2334  0.5447
 6248SOL    HW130380   3.872   3.465  15.036  1.5940  2.7157 -0.6646
 6248SOL    HW230381   3.780   3.442  14.938  0.2530 -1.8057 -2.7579
 6249SOL     OW30382   3.704   3.299  15.720  0.3180 -0.9327 -0.1107
 6249SOL    HW130383   3.741   3.381  15.754 -2.3958 -0.3479  1.4106
 6249SOL    HW230384   3.618   3.307  15.761 -0.1504 -1.0027 -1.0807
 6250SOL     OW30385   3.752   0.708   5.641 -0.1245 -0.4306 -0.5483
 6250SOL    HW130386   3.761   0.646   5.713 -1.2619 -1.4090 -1.2412
 6250SOL    HW230387   3.816   0.679   5.576 -0.7447 -0.9894 -0.9035
 6251SOL     OW30388   2.028   0.079   3.085  0.0145  0.1738  0.2478
 6251SOL    HW130389   2.043   4.737   3.036  3.0916  1.1558 -0.4484
 6251SOL    HW230390   2.023   0.141   3.013 -4.4191 -0.7468 -0.2293
 6252SOL     OW30391   4.439   0.104   7.761 -0.5484  0.5073 -0.4256
 6252SOL    HW130392   4.379   0.138   7.827 -0.2460  0.8383 -0.3258
 6252SOL    HW230393   4.456   0.019   7.802  1.3477  1.6346  1.0752
 6253SOL     OW30394   1.768   4.269   7.094  0.7166 -0.7024 -0.2722
 6253SOL    HW130395   1.733   4.180   7.095 -0.2971 -0.3170 -1.5150
 6253SOL    HW230396   1.766   4.282   6.999  1.9015  0.3849 -0.1516
 6254SOL     OW30397   2.388   0.610   4.328 -0.3024 -0.3942  0.1102
 6254SOL    HW130398   2.325   0.576   4.391  0.0134 -0.8375  0.1844
 6254SOL    HW230399   2.340   0.692   4.312  1.5413  0.3861 -1.4850
 6255SOL     OW30400   0.151   0.742   8.737 -0.3663 -0.0768 -0.2092
 6255SOL    HW130401   0.207   0.668   8.713 -3.2890 -1.7515 -1.7958
 6255SOL    HW230402   0.153   0.743   8.833 -0.2123 -1.4521 -0.1917
 6256SOL     OW30403   1.747   3.054   9.170 -0.0511  0.1347 -0.3083
 6256SOL    HW130404   1.707   2.984   9.118  0.7738 -1.0758  0.6708
 6256SOL    HW230405   1.701   3.131   9.139  0.2243  0.2437 -0.4436
 6257SOL     OW30406   2.826   4.140  14.163 -1.0834  1.0693  0.1169
 6257SOL    HW130407   2.814   4.060  14.214  1.0738 -0.0036 -1.0465
 6257SOL    HW230408   2.742   4.183  14.182 -2.4429 -1.2401 -0.7339
 6258SOL     OW30409   1.324   3.539   1.376 -0.7265 -0.4704  0.6610
 6258SOL    HW130410   1.296   3.523   1.286  4.0288 -1.1906 -0.7114
 6258SOL    HW230411   1.362   3.455   1.401  0.9012  0.3791  1.0282
 6259SOL     OW30412   1.411   2.764   9.220  0.2453 -0.2212 -0.1161
 6259SOL    HW130413   1.374   2.676   9.218  1.4499 -0.7543  0.8560
 6259SOL    HW230414   1.424   2.783   9.127 -0.0916 -3.5561 -0.8297
 6260SOL     OW30415   3.692   2.522   7.706 -0.1609 -0.1830 -0.4984
 6260SOL    HW130416   3.704   2.600   7.760  1.2172  0.8861 -2.3637
 6260SOL    HW230417   3.662   2.574   7.632 -1.2749 -0.4258 -0.2187
 6261SOL     OW30418   0.936   0.162   4.772 -0.6822 -0.8667 -0.4080
 6261SOL    HW130419   0.952   0.073   4.741  1.2254  0.2768 -2.6882
 6261SOL    HW230420   0.870   0.140   4.838 -0.9985 -1.0076 -0.7741
 6262SOL     OW30421   2.288   1.680   4.774  0.1013  0.1172 -0.6745
 6262SOL    HW130422   2.229   1.605   4.783  1.5646 -1.0372 -0.6664
 6262SOL    HW230423   2.232   1.744   4.732  0.4392  0.7004 -0.2333
 6263SOL     OW30424   1.253   4.104   5.235  0.4262  0.3593  0.2618
 6263SOL    HW130425   1.160   4.118   5.250  0.4155  0.9604 -0.3208
 6263SOL    HW230426   1.290   4.186   5.269  1.1459  0.4588 -0.7244
 6264SOL     OW30427   0.769   0.145  15.080  0.0487 -0.4426 -0.1775
 6264SOL    HW130428   0.819   0.198  15.018 -0.3129  0.8971  0.6791
 6264SOL    HW230429   0.715   0.208  15.128  0.1446 -0.1898 -0.4046
 6265SOL     OW30430   3.848   1.067   8.195  0.0962  0.2154 -0.1955
 6265SOL    HW130431   3.888   1.143   8.239  0.1547  0.2930 -0.3818
 6265SOL    HW230432   3.919   1.003   8.189 -1.3318 -1.3133 -0.5789
 6266SOL     OW30433   3.412   0.990   0.501 -0.7032 -0.6983  0.0873
 6266SOL    HW130434   3.503   1.012   0.482 -0.8661 -1.4359 -1.5888
 6266SOL    HW230435   3.362   1.025   0.427  3.1810  1.3127 -1.5428
 6267SOL     OW30436   2.463   1.123   9.480  0.3112  0.8244  0.0332
 6267SOL    HW130437   2.465   1.051   9.543  2.0098  1.6072  0.8678
 6267SOL    HW230438   2.506   1.196   9.524  0.5172  1.4083 -1.1243
 6268SOL     OW30439   0.932   0.796   4.782 -0.5539  0.0884  0.4270
 6268SOL    HW130440   0.888   0.875   4.750  0.2781  0.3597 -0.0446
 6268SOL    HW230441   0.935   0.745   4.701  0.1603  0.8813 -0.0376
 6269SOL     OW30442   0.751   0.379   9.104 -0.3072  0.2216  0.7917
 6269SOL    HW130443   0.686   0.329   9.054 -0.2896  0.9377  0.0693
 6269SOL    HW230444   0.695   0.450   9.134  0.4849  0.9530  0.5452
 6270SOL     OW30445   3.378   4.632   3.960 -0.2268 -0.1694  0.1450
 6270SOL    HW130446   3.289   4.654   3.934 -0.7713 -0.6764  1.6123
 6270SOL    HW230447   3.374   4.679   4.044  1.7660  0.6028 -0.1914
 6271SOL     OW30448   0.754   0.386   9.450 -0.4378 -0.7423  0.1758
 6271SOL    HW130449   0.816   0.435   9.396  0.7672 -0.6523  1.6507
 6271SOL    HW230450   0.805   0.355   9.525  0.3521 -0.0099 -0.0712
 6272SOL     OW30451   0.094   0.078  12.710  0.2337  0.0047 -0.4220
 6272SOL    HW130452   0.097   4.721  12.714 -0.0432  0.1080  2.2971
 6272SOL    HW230453   0.031   0.088  12.639  0.3337 -0.2686 -0.5511
 6273SOL     OW30454   3.793   2.462  12.107  0.5379 -0.0023  0.0923
 6273SOL    HW130455   3.829   2.489  12.191 -0.7724  1.3457  0.2253
 6273SOL    HW230456   3.865   2.405  12.079  0.9974  1.0047 -0.7988
 6274SOL     OW30457   3.843   2.928   5.286 -0.2811  0.0572  0.5955
 6274SOL    HW130458   3.855   2.833   5.288  1.1562  0.2553  1.3160
 6274SOL    HW230459   3.892   2.954   5.208 -1.8485  1.0259 -0.0500
 6275SOL     OW30460   0.670   4.357  15.627  0.0539  0.0409 -0.4252
 6275SOL    HW130461   0.729   4.284  15.609  3.3509  2.3202  1.0823
 6275SOL    HW230462   0.584   4.327  15.599 -0.5210  1.3552 -0.0434
 6276SOL     OW30463   1.280   0.576  14.949  0.0847  0.3094  0.9287
 6276SOL    HW130464   1.304   0.485  14.970  0.8358  0.1947 -0.4170
 6276SOL    HW230465   1.217   0.567  14.877  0.8236  1.5381  0.1397
 6277SOL     OW30466   1.528   2.757   7.616 -0.3847  0.2271 -0.5953
 6277SOL    HW130467   1.491   2.730   7.532  0.0162 -2.8435  0.2046
 6277SOL    HW230468   1.507   2.850   7.627  1.8604  0.3141  2.9201
 6278SOL     OW30469   0.038   0.838   4.991  0.6252  0.0671  0.0012
 6278SOL    HW130470   4.738   0.924   4.975  0.8670  0.2314  0.2723
 6278SOL    HW230471   0.130   0.863   4.989  1.4415 -3.0336 -1.2404
 6279SOL     OW30472   3.986   1.971   1.553  0.0493  0.5680  0.4269
 6279SOL    HW130473   3.930   2.015   1.617 -0.1618  1.5171 -0.4126
 6279SOL    HW230474   3.948   2.015   1.477  0.4559 -0.9380 -0.6365
 6280SOL     OW30475   1.358   0.105   9.562 -0.0399 -0.1475 -0.0392
 6280SOL    HW130476   1.435   0.108   9.506  0.3002 -0.5527  0.4056
 6280SOL    HW230477   1.398   0.158   9.631  1.1494  0.1256 -0.9318
 6281SOL     OW30478   1.133   4.385   3.558  0.5217  0.0564  0.5338
 6281SOL    HW130479   1.222   4.375   3.526  0.8429 -0.0738  1.4588
 6281SOL    HW230480   1.135   4.476   3.588  0.8062  1.3664 -3.4920
 6282SOL     OW30481   2.355   3.093   8.798 -0.0663 -0.0092 -0.3206
 6282SOL    HW130482   2.424   3.039   8.835 -0.2796  0.5831  0.9177
 6282SOL    HW230483   2.349   3.170   8.854  1.2119 -0.0064 -0.1786
 6283SOL     OW30484   3.028   3.614  13.603  0.3852 -0.3434  0.1137
 6283SOL    HW130485   3.009   3.596  13.511 -1.6095  0.4757  0.3845
 6283SOL    HW230486   3.077   3.538  13.635  0.8551 -0.1361 -0.1120
 6284SOL     OW30487   0.052   0.257  17.606  0.0859 -0.5155 -0.0994
 6284SOL    HW130488   0.131   0.205  17.593 -0.2416 -0.6601 -1.5029
 6284SOL    HW230489   0.056   0.252  17.701 -0.5156  1.3531  0.0318
 6285SOL     OW30490   0.530   2.097   3.402  0.2526 -0.0485  0.3016
 6285SOL    HW130491   0.560   2.065   3.317  2.1789 -0.6399  1.2135
 6285SOL    HW230492   0.568   2.185   3.397 -2.3281  1.0479 -0.0041
 6286SOL     OW30493   2.588   4.064   3.774 -0.1750  0.3260  0.3267
 6286SOL    HW130494   2.614   4.064   3.682 -1.2089  1.7217  0.0165
 6286SOL    HW230495   2.667   4.081   3.825  0.3430 -1.2079  0.0373
 6287SOL     OW30496   0.123   2.288   3.558 -0.5662 -0.1265  0.2710
 6287SOL    HW130497   0.170   2.219   3.511 -0.6091  1.4990 -2.1437
 6287SOL    HW230498   0.038   2.270   3.516 -1.2921  0.8640  1.3205
 6288SOL     OW30499   2.234   2.177   4.634 -0.2768  0.2867  0.5502
 6288SOL    HW130500   2.172   2.227   4.580  2.3987  1.7775 -1.1399
 6288SOL    HW230501   2.183   2.178   4.715  0.2601 -0.0116  0.8894
 6289SOL     OW30502   4.479   4.412  10.936 -0.3104  0.4895 -0.0037
 6289SOL    HW130503   4.439   4.416  10.849  0.1281 -2.0954 -0.3199
 6289SOL    HW230504   4.444   4.496  10.966 -0.4925  0.8976 -1.3491
 6290SOL     OW30505   4.160   4.429  10.862  0.0170 -0.2881 -0.5019
 6290SOL    HW130506   4.229   4.415  10.797 -1.8989  0.8565 -2.7866
 6290SOL    HW230507   4.125   4.514  10.836 -0.9790 -0.9711 -1.3732
 6291SOL     OW30508   2.239   2.738   3.498  0.6764 -0.0358  0.7255
 6291SOL    HW130509   2.239   2.827   3.532 -1.3313  0.7290 -1.2788
 6291SOL    HW230510   2.319   2.702   3.536  1.2162 -0.4644 -0.8066
 6292SOL     OW30511   0.269   4.710   8.596 -0.4506  0.2777 -0.2503
 6292SOL    HW130512   0.283   4.657   8.674 -0.2213  0.9905  0.1978
 6292SOL    HW230513   0.340   4.683   8.537  0.6148  1.1047  0.6385
 6293SOL     OW30514   3.654   1.423   6.242  0.3719  0.2226 -0.1731
 6293SOL    HW130515   3.581   1.446   6.184 -0.0674  0.3859  0.4366
 6293SOL    HW230516   3.720   1.400   6.177  0.0471  0.0890 -0.4539
 6294SOL     OW30517   1.802   4.165  15.072 -0.3618  0.4203  0.1719
 6294SOL    HW130518   1.758   4.080  15.067 -0.0964  0.3257 -0.5878
 6294SOL    HW230519   1.749   4.218  15.013 -2.2562 -2.4779 -0.7211
 6295SOL     OW30520   1.128   2.355   5.629 -0.1937 -0.0991 -0.1163
 6295SOL    HW130521   1.175   2.438   5.624 -2.0724  1.0195  0.5988
 6295SOL    HW230522   1.206   2.312   5.662 -0.3172  0.2615  0.6262
 6296SOL     OW30523   4.064   0.072   2.107 -0.4619  0.3635  0.1242
 6296SOL    HW130524   4.046   0.070   2.012  0.0064 -0.4203  0.0504
 6296SOL    HW230525   3.984   0.045   2.152  1.1822 -2.3791  1.3776
 6297SOL     OW30526   1.058   1.754  10.741  0.5475 -0.4613  0.2821
 6297SOL    HW130527   1.010   1.837  10.736 -0.8205 -1.1728  1.7930
 6297SOL    HW230528   1.025   1.714  10.821 -0.8075 -1.9230 -1.0058
 6298SOL     OW30529   2.375   2.672   2.959  0.4287  0.4178  0.0164
 6298SOL    HW130530   2.372   2.578   2.944 -2.0520  0.1960  1.7771
 6298SOL    HW230531   2.372   2.686   3.054 -1.5363  0.5910 -0.0726
 6299SOL     OW30532   0.761   2.735   6.670 -0.0511  0.0724 -0.3091
 6299SOL    HW130533   0.821   2.779   6.730 -0.0711 -0.1954 -0.0937
 6299SOL    HW230534   0.754   2.648   6.709 -3.2744 -0.1608 -1.4023
 6300SOL     OW30535   0.511   0.799  16.886  0.2916  0.2874 -0.1234
 6300SOL    HW130536   0.546   0.838  16.966 -1.6447  2.2351 -0.2477
 6300SOL    HW230537   0.591   0.762  16.848 -1.1412 -0.6095 -2.2782
 6301SOL     OW30538   0.551   3.094   2.910  0.2439 -0.1464  0.2323
 6301SOL    HW130539   0.485   3.055   2.853 -1.0796  1.8280  0.4065
 6301SOL    HW230540   0.613   3.022   2.900  1.1355  0.7735 -0.8467
 6302SOL     OW30541   3.663   3.147   6.225  0.1566 -0.1060 -0.1358
 6302SOL    HW130542   3.691   3.237   6.241 -0.7651  0.4771 -1.8373
 6302SOL    HW230543   3.713   3.101   6.292 -0.9048 -1.1700 -0.0668
 6303SOL     OW30544   0.623   2.707   2.187  0.2756 -0.2354  0.1014
 6303SOL    HW130545   0.677   2.636   2.224  1.0959 -0.0278 -0.6961
 6303SOL    HW230546   0.614   2.753   2.271 -1.8786 -0.4254 -0.0474
 6304SOL     OW30547   2.743   1.557   3.290  0.3053  0.1955  0.5123
 6304SOL    HW130548   2.749   1.519   3.378 -1.4017 -3.4843 -0.9148
 6304SOL    HW230549   2.779   1.479   3.248 -0.1826  0.9454 -1.3106
 6305SOL     OW30550   4.134   1.620   8.702  0.1981  0.0826 -0.0256
 6305SOL    HW130551   4.166   1.562   8.771 -1.6032 -0.0775  0.6835
 6305SOL    HW230552   4.210   1.677   8.691 -0.8020  1.4006  0.0414
 6306SOL     OW30553   0.679   3.069   3.922  0.9217  0.3471 -0.1211
 6306SOL    HW130554   0.734   2.991   3.911 -1.7600 -1.5040 -0.4753
 6306SOL    HW230555   0.597   3.029   3.949  0.6696  1.2942  0.5250
 6307SOL     OW30556   4.624   2.898   3.525 -0.1055  0.0049 -0.7392
 6307SOL    HW130557   4.645   2.945   3.605  2.9783  0.2258 -1.6646
 6307SOL    HW230558   4.570   2.957   3.472 -0.6567 -0.3211 -0.5400
 6308SOL     OW30559   0.492   0.169   0.908  0.5442  0.6112 -0.1182
 6308SOL    HW130560   0.563   0.135   0.962 -0.3086 -0.1321  0.5349
 6308SOL    HW230561   0.500   0.106   0.837  1.5036  0.2372  0.3248
 6309SOL     OW30562   2.134   3.603  13.727  0.2724 -0.2715 -0.0750
 6309SOL    HW130563   2.153   3.689  13.690  2.2849 -1.1437 -1.0335
 6309SOL    HW230564   2.046   3.602  13.764  0.1692  0.2650 -0.3012
 6310SOL     OW30565   1.296   3.453   8.991  0.0691 -0.5386  0.3448
 6310SOL    HW130566   1.242   3.532   8.992  0.9886  0.0874  0.6614
 6310SOL    HW230567   1.364   3.481   9.052 -0.0235  0.8329 -0.1721
 6311SOL     OW30568   0.698   0.777   5.535 -0.3042 -0.6677  0.0595
 6311SOL    HW130569   0.670   0.851   5.481 -1.2404  0.0307  1.4792
 6311SOL    HW230570   0.771   0.739   5.488  0.2695  1.4520 -0.7506
 6312SOL     OW30571   2.707   1.462   8.048  0.1395 -0.1615  0.1210
 6312SOL    HW130572   2.652   1.395   8.088  0.0670 -0.5061 -0.5706
 6312SOL    HW230573   2.775   1.459   8.116 -1.1512  0.9402  1.4649
 6313SOL     OW30574   4.446   0.424   3.201 -0.3153 -0.3424  0.0135
 6313SOL    HW130575   4.371   0.411   3.259 -1.2464 -0.2891 -1.1546
 6313SOL    HW230576   4.403   0.441   3.117 -0.3079 -0.0240  0.0749
 6314SOL     OW30577   4.509   0.864  12.778  0.1550  0.8014 -0.0062
 6314SOL    HW130578   4.498   0.794  12.713 -1.7829  1.1782 -0.0737
 6314SOL    HW230579   4.558   0.919  12.717  0.9985  1.2385  1.0699
 6315SOL     OW30580   3.854   2.329   6.880 -0.3084 -0.4654 -0.4546
 6315SOL    HW130581   3.767   2.318   6.842 -1.1000 -1.3676  1.6513
 6315SOL    HW230582   3.846   2.414   6.923 -3.4857 -1.8400  1.6586
 6316SOL     OW30583   0.821   3.709  13.540 -0.2503 -0.6114 -0.0304
 6316SOL    HW130584   0.726   3.717  13.552  0.1213 -0.5655  2.8220
 6316SOL    HW230585   0.858   3.740  13.623 -0.0473  0.7646 -0.6349
 6317SOL     OW30586   1.345   2.917   4.087 -0.8460 -0.7184  0.2581
 6317SOL    HW130587   1.416   2.947   4.143  0.1596 -2.2709 -0.1790
 6317SOL    HW230588   1.347   2.824   4.111  0.1856 -0.9409 -0.7007
 6318SOL     OW30589   4.259   2.965  12.312  0.3664  0.3961 -0.7130
 6318SOL    HW130590   4.202   2.997  12.382  1.4656  0.2362  0.2539
 6318SOL    HW230591   4.333   3.023  12.322  1.7456 -1.6799  1.0908
 6319SOL     OW30592   4.186   0.027   8.347  0.1175 -0.1776  0.0217
 6319SOL    HW130593   4.104   0.004   8.390  0.3469  1.2729  1.2524
 6319SOL    HW230594   4.181   0.122   8.359  2.0022 -0.1694  0.7243
 6320SOL     OW30595   2.793   3.072  15.875 -0.3584  0.0150  0.6517
 6320SOL    HW130596   2.766   3.061  15.784 -2.9970  0.6032  1.3798
 6320SOL    HW230597   2.867   3.131  15.858 -1.9506  1.3367 -1.7574
 6321SOL     OW30598   0.622   3.025   9.297 -0.4494 -0.1755 -0.1048
 6321SOL    HW130599   0.700   3.080   9.291  0.6817 -1.6304  1.3754
 6321SOL    HW230600   0.605   3.021   9.391  0.4186 -0.9883  0.0129
 6322SOL     OW30601   2.496   4.491   1.493 -0.1696 -0.0292 -0.0369
 6322SOL    HW130602   2.589   4.493   1.469 -0.7308 -3.6215 -2.4859
 6322SOL    HW230603   2.456   4.536   1.418  0.8705  1.3558  0.2453
 6323SOL     OW30604   0.447   2.831   2.008  0.2550  0.0190  0.0513
 6323SOL    HW130605   0.495   2.782   2.075  0.8910  0.2558 -0.2291
 6323SOL    HW230606   0.439   2.914   2.054  1.8663  0.7613 -1.0169
 6324SOL     OW30607   4.292   1.243   5.602 -0.0371 -0.5100 -0.3433
 6324SOL    HW130608   4.272   1.324   5.556  0.9613 -0.1680 -0.1688
 6324SOL    HW230609   4.207   1.232   5.645 -0.2489 -2.1941 -1.1980
 6325SOL     OW30610   4.656   0.544  12.964  0.0251 -0.2795 -0.0538
 6325SOL    HW130611   4.577   0.565  12.915  0.9170 -0.5430 -1.6038
 6325SOL    HW230612   4.697   0.473  12.914 -1.5207 -1.9780  1.0649
 6326SOL     OW30613   3.884   4.590   3.865  0.3810 -0.3149  1.1784
 6326SOL    HW130614   3.934   4.587   3.947  0.2817  2.4585  1.3349
 6326SOL    HW230615   3.822   4.520   3.883 -1.0485  0.4161 -0.9367
 6327SOL     OW30616   3.993   4.566   6.343  0.1532  0.1026  0.5043
 6327SOL    HW130617   3.950   4.481   6.355  0.8144 -0.3749 -0.5049
 6327SOL    HW230618   3.922   4.628   6.357 -1.0336 -1.6303  2.0983
 6328SOL     OW30619   2.939   1.078   7.669  0.0118 -0.0951 -0.0346
 6328SOL    HW130620   2.984   1.000   7.637  1.6146  1.1301 -0.7276
 6328SOL    HW230621   2.909   1.111   7.584  0.4390  1.8706  0.5740
 6329SOL     OW30622   3.398   2.076   5.973  0.0914 -0.4055  0.1398
 6329SOL    HW130623   3.465   2.008   5.983  0.4810  0.1991  1.6947
 6329SOL    HW230624   3.433   2.161   6.001  0.5965 -0.3785 -0.5868
 6330SOL     OW30625   3.029   3.259  12.945 -0.0254  0.0996  0.7298
 6330SOL    HW130626   3.108   3.228  12.900 -0.3281  1.2221 -0.5547
 6330SOL    HW230627   2.981   3.179  12.965 -1.1587  0.4683 -0.5129
 6331SOL     OW30628   1.882   0.650   9.156  0.0558 -0.3511 -0.1189
 6331SOL    HW130629   1.836   0.666   9.239 -0.2930 -0.5172 -0.2805
 6331SOL    HW230630   1.965   0.642   9.203  0.3887  2.4087 -0.2047
 6332SOL     OW30631   2.679   1.421  16.254  0.8944 -0.3078  0.2091
 6332SOL    HW130632   2.662   1.387  16.167  1.4969  0.9948 -0.4183
 6332SOL    HW230633   2.688   1.340  16.305 -0.2561 -0.9684 -0.6602
 6333SOL     OW30634   1.409   3.212   9.736 -0.5645 -0.3805 -0.6000
 6333SOL    HW130635   1.486   3.183   9.686  0.0153 -0.1161  0.1367
 6333SOL    HW230636   1.442   3.217   9.826 -2.0210 -0.7901 -0.0524
 6334SOL     OW30637   0.966   4.658   0.366  0.5242 -0.2631  0.1664
 6334SOL    HW130638   0.975   4.612   0.449  1.3905  0.6817  0.5951
 6334SOL    HW230639   0.874   4.686   0.370  1.1034  1.4111  1.8807
 6335SOL     OW30640   2.194   0.560   7.909 -0.2031 -1.1031 -0.5295
 6335SOL    HW130641   2.163   0.501   7.977 -1.2775 -1.4107 -1.2957
 6335SOL    HW230642   2.251   0.508   7.852  0.2753 -0.2752 -0.8194
 6336SOL     OW30643   2.678   0.581   4.886  0.0168 -0.4819 -0.4348
 6336SOL    HW130644   2.622   0.534   4.948  0.2471 -0.5963 -0.3162
 6336SOL    HW230645   2.625   0.641   4.833 -1.9539 -0.1957  1.8843
 6337SOL     OW30646   1.099   1.243  13.241  0.1618  0.7704  0.1945
 6337SOL    HW130647   1.082   1.292  13.160  0.2271 -2.9606 -2.0558
 6337SOL    HW230648   1.167   1.182  13.212  0.1001 -0.5423  2.8456
 6338SOL     OW30649   4.523   3.098   2.483  0.2704 -0.4090  0.1936
 6338SOL    HW130650   4.478   3.074   2.564  1.8882 -1.7358  0.7012
 6338SOL    HW230651   4.508   3.192   2.476 -0.8192 -0.7307 -1.7510
 6339SOL     OW30652   0.869   2.966  13.354 -0.0362  0.0231 -0.1764
 6339SOL    HW130653   0.796   3.028  13.344 -1.1862 -0.8744  2.7930
 6339SOL    HW230654   0.922   3.007  13.423 -0.1873 -1.3159  0.7415
 6340SOL     OW30655   2.508   0.263   8.654  0.1876 -0.3737  0.4980
 6340SOL    HW130656   2.549   0.350   8.657  0.4470 -0.4654 -0.5274
 6340SOL    HW230657   2.489   0.238   8.564  1.3623 -3.7996  1.2005
 6341SOL     OW30658   1.324   1.396   6.493  0.2560  0.2832  0.8237
 6341SOL    HW130659   1.270   1.320   6.471 -0.6181  0.7034  1.5138
 6341SOL    HW230660   1.413   1.363   6.482 -0.5669 -1.5137 -0.4358
 6342SOL     OW30661   1.825   4.474   8.330 -0.2788  0.1546 -0.1818
 6342SOL    HW130662   1.842   4.543   8.266  0.6208  0.0214 -0.0777
 6342SOL    HW230663   1.778   4.413   8.274  0.4128 -1.0796  0.5983
 6343SOL     OW30664   2.880   0.296   8.158 -0.1486 -0.5448  0.6761
 6343SOL    HW130665   2.965   0.254   8.146  0.8410  1.4869  0.6232
 6343SOL    HW230666   2.895   0.346   8.238 -0.8399 -0.6132  0.8430
 6344SOL     OW30667   4.005   3.241   2.555  0.4329 -0.3003  0.0757
 6344SOL    HW130668   4.030   3.235   2.463 -1.4942  0.1966 -0.4821
 6344SOL    HW230669   4.051   3.169   2.597  1.2287  0.1316 -0.0658
 6345SOL     OW30670   2.631   0.473  15.991  0.0850  0.6102 -0.5902
 6345SOL    HW130671   2.662   0.531  15.921 -2.1373 -0.1842 -2.2076
 6345SOL    HW230672   2.670   0.392  15.958 -1.1484  0.2562 -1.1932
 6346SOL     OW30673   2.562   3.539   8.897  0.4941  0.1818  0.6285
 6346SOL    HW130674   2.609   3.609   8.851  0.7772 -1.6791 -1.8626
 6346SOL    HW230675   2.638   3.486   8.917  0.4633  0.1075  0.5454
 6347SOL     OW30676   3.973   0.321   5.761 -0.3169  0.1087 -0.1454
 6347SOL    HW130677   3.998   0.235   5.793 -0.2341 -0.4873 -1.7950
 6347SOL    HW230678   3.889   0.309   5.717  0.0916 -0.4131 -0.7910
 6348SOL     OW30679   0.499   2.024   5.142  0.3314 -0.0897  0.0339
 6348SOL    HW130680   0.535   1.938   5.164  1.0484  0.8128  2.4647
 6348SOL    HW230681   0.503   2.026   5.047 -1.3483 -2.1145 -0.0763
 6349SOL     OW30682   4.192   1.535   4.650  0.8446  0.0970 -0.0716
 6349SOL    HW130683   4.194   1.609   4.711  0.5032 -1.0961  1.4025
 6349SOL    HW230684   4.281   1.509   4.674  0.7973  0.0006  0.0006
 6350SOL     OW30685   1.178   2.969  15.591  0.4646  0.0082 -1.0230
 6350SOL    HW130686   1.256   2.913  15.592 -0.3151 -1.0616  0.1742
 6350SOL    HW230687   1.148   2.955  15.501  1.5501  0.5225 -1.4722
 6351SOL     OW30688   4.466   0.344   8.352 -0.1891  0.0450  0.3112
 6351SOL    HW130689   4.489   0.315   8.440  1.4882 -0.2925 -0.2211
 6351SOL    HW230690   4.459   0.261   8.303 -1.5652 -0.3265  1.1444
 6352SOL     OW30691   0.752   1.110  11.258  0.2800 -0.0678  0.4661
 6352SOL    HW130692   0.753   1.047  11.330  0.7186  1.0309  1.4221
 6352SOL    HW230693   0.843   1.139  11.250 -0.0108 -0.1072 -3.0295
 6353SOL     OW30694   1.008   0.334   6.947  0.1647 -0.1884 -0.2080
 6353SOL    HW130695   1.010   0.242   6.923 -0.6262 -0.5083  0.9405
 6353SOL    HW230696   0.915   0.356   6.958 -0.1791 -0.4256 -2.6136
 6354SOL     OW30697   0.070   1.054   3.718  0.2587  0.1940 -0.5449
 6354SOL    HW130698   0.093   0.962   3.707 -0.0667 -0.3271  3.2242
 6354SOL    HW230699   4.739   1.066   3.654  0.6240  1.2342 -0.7586
 6355SOL     OW30700   3.103   2.252   5.003  0.2373 -0.1279  0.7164
 6355SOL    HW130701   3.142   2.164   5.001 -0.7519 -0.5105 -1.3599
 6355SOL    HW230702   3.030   2.235   5.063 -0.4123 -1.6113 -0.4820
 6356SOL     OW30703   0.312   2.432  16.609 -0.4488  0.0475 -0.0951
 6356SOL    HW130704   0.363   2.494  16.557 -0.1267  1.0884  1.4475
 6356SOL    HW230705   0.352   2.350  16.578 -0.7155 -0.4667  0.9218
 6357SOL     OW30706   0.796   1.038  15.809 -0.3028  0.2187  0.4682
 6357SOL    HW130707   0.809   0.977  15.882 -1.8777 -0.1222  0.4430
 6357SOL    HW230708   0.729   0.995  15.756 -0.9362  1.3419  0.3707
 6358SOL     OW30709   0.780   0.204  10.132  0.1130  0.1325 -0.0706
 6358SOL    HW130710   0.696   0.236  10.101  1.1027  1.4272 -1.4272
 6358SOL    HW230711   0.788   0.129  10.072 -0.9456 -1.1401  1.3976
 6359SOL     OW30712   1.023   1.678   4.110 -0.0763  0.3973 -0.1785
 6359SOL    HW130713   1.053   1.602   4.060  1.1016  0.7257  0.0141
 6359SOL    HW230714   0.929   1.682   4.096 -0.1215  2.3342  0.6593
 6360SOL     OW30715   2.537   0.347  14.129 -0.2356 -0.3480 -0.3551
 6360SOL    HW130716   2.631   0.366  14.132 -0.3381 -0.1544  1.7622
 6360SOL    HW230717   2.514   0.413  14.065  0.0824 -0.4728 -0.6018
 6361SOL     OW30718   0.745   0.902   6.792  0.3997 -0.0791  0.3014
 6361SOL    HW130719   0.698   0.884   6.711 -0.4924 -1.3094  1.0945
 6361SOL    HW230720   0.761   0.811   6.818  1.7901  0.1661  0.2983
 6362SOL     OW30721   3.847   2.097   1.072  0.1517  0.1610 -0.0628
 6362SOL    HW130722   3.778   2.152   1.035 -1.0169 -1.3798 -0.1771
 6362SOL    HW230723   3.857   2.029   1.005 -0.2768 -0.9129  0.9637
 6363SOL     OW30724   2.107   0.991   2.211  0.2136 -0.1775  0.1279
 6363SOL    HW130725   2.029   1.045   2.221  0.4756  0.0830  0.7833
 6363SOL    HW230726   2.142   1.010   2.123 -0.6559  1.6760  0.1755
 6364SOL     OW30727   1.852   1.928   1.874 -0.5736 -0.2445  0.2632
 6364SOL    HW130728   1.783   1.990   1.897 -0.7708 -1.5850  3.2447
 6364SOL    HW230729   1.869   1.961   1.785 -0.9376 -0.6968  0.0306
 6365SOL     OW30730   4.658   4.177   7.840  0.1645  0.1159  0.2483
 6365SOL    HW130731   4.694   4.089   7.848  0.5032  0.3502  1.2826
 6365SOL    HW230732   4.712   4.231   7.898 -0.9357 -0.0547  1.4254
 6366SOL     OW30733   3.049   3.842  11.673  0.3832 -0.2688 -0.7256
 6366SOL    HW130734   3.069   3.932  11.648 -0.2475  0.3218  0.8653
 6366SOL    HW230735   2.985   3.818  11.607 -1.2442 -0.3010  0.8579
 6367SOL     OW30736   3.040   1.616   8.767  0.2221  0.1577  0.7660
 6367SOL    HW130737   2.953   1.580   8.785  0.7439 -0.4637  2.0358
 6367SOL    HW230738   3.091   1.558   8.823 -0.5822 -1.6739 -0.3883
 6368SOL     OW30739   3.838   2.988  10.627 -0.1129  0.0229  0.3779
 6368SOL    HW130740   3.798   3.075  10.629 -0.6507 -0.2045 -0.4923
 6368SOL    HW230741   3.897   2.997  10.552  0.1334  2.8732  0.9109
 6369SOL     OW30742   1.736   0.868   3.333 -0.4681 -0.1062 -0.0444
 6369SOL    HW130743   1.657   0.838   3.288 -1.2412 -0.1537  1.3513
 6369SOL    HW230744   1.723   0.962   3.322  0.6140  0.1315  0.6721
 6370SOL     OW30745   0.732   3.963   7.948  0.3029  0.2931 -0.4609
 6370SOL    HW130746   0.692   3.970   7.862 -1.3067  0.9961  0.3565
 6370SOL    HW230747   0.702   4.046   7.984  1.1072  1.1763 -1.8394
 6371SOL     OW30748   2.677   3.638  16.177  0.5395 -0.2469  0.5578
 6371SOL    HW130749   2.589   3.673  16.159  0.0384 -1.8412 -0.0719
 6371SOL    HW230750   2.653   3.569  16.239 -2.0343  0.0300 -0.1266
 6372SOL     OW30751   1.979   2.595   2.341 -0.1926 -0.0644 -0.5513
 6372SOL    HW130752   1.887   2.610   2.363 -0.6881  0.0951 -2.7704
 6372SOL    HW230753   1.976   2.501   2.320 -0.4360 -0.0179 -0.7269
 6373SOL     OW30754   0.516   1.966   2.673 -0.0544 -0.0647  0.1213
 6373SOL    HW130755   0.457   1.895   2.697 -1.1962  1.3865  1.6561
 6373SOL    HW230756   0.599   1.923   2.652 -0.2213  0.5363 -1.7652
 6374SOL     OW30757   0.855   2.924  15.011  0.1006  0.3417 -0.2836
 6374SOL    HW130758   0.885   2.977  14.937 -2.0025  2.6335  0.5105
 6374SOL    HW230759   0.815   2.999  15.054 -0.2755  0.1768 -0.3515
 6375SOL     OW30760   2.135   4.168  12.319 -0.0104 -0.6073  0.3630
 6375SOL    HW130761   2.134   4.082  12.360 -0.1951 -0.0737  1.4903
 6375SOL    HW230762   2.081   4.157  12.241 -0.5361  3.5756  0.1111
 6376SOL     OW30763   0.914   0.287   2.913 -0.0393  0.4251  1.0188
 6376SOL    HW130764   0.877   0.200   2.923 -2.0489  0.8554 -2.6702
 6376SOL    HW230765   0.950   0.298   2.825 -2.1033 -0.9546  0.0203
 6377SOL     OW30766   1.298   1.680   6.458  0.4475  0.3076  0.0470
 6377SOL    HW130767   1.392   1.690   6.441  0.5582 -1.0870 -0.1865
 6377SOL    HW230768   1.285   1.586   6.471 -1.0073  0.7527  1.8719
 6378SOL     OW30769   0.278   4.312  16.446 -0.2756 -0.0647 -0.0778
 6378SOL    HW130770   0.349   4.311  16.382 -1.0949  1.2385 -1.0327
 6378SOL    HW230771   0.268   4.218  16.453  1.1309 -0.1455  0.7805
 6379SOL     OW30772   4.535   1.826   0.844  0.1420  0.1000 -0.7484
 6379SOL    HW130773   4.461   1.861   0.794 -0.0844 -1.3347 -1.4161
 6379SOL    HW230774   4.546   1.896   0.908  2.0642 -1.0449  0.1693
 6380SOL     OW30775   4.667   1.117  10.423 -0.2364 -0.4259  0.1334
 6380SOL    HW130776   4.722   1.065  10.482 -0.8690 -2.8400 -1.4263
 6380SOL    HW230777   4.712   1.200  10.437  0.4371 -0.8519  0.4873
 6381SOL     OW30778   0.596   2.186   9.164 -0.0891 -0.0988 -0.1178
 6381SOL    HW130779   0.569   2.175   9.255  0.1959 -1.2579 -0.1740
 6381SOL    HW230780   0.622   2.096   9.145 -3.0914 -1.1828  0.8853
 6382SOL     OW30781   2.410   0.665   8.091  0.0794 -0.0905  0.2221
 6382SOL    HW130782   2.452   0.745   8.058 -0.6684  1.0790  2.0891
 6382SOL    HW230783   2.367   0.637   8.010 -1.5963 -0.4249  1.2477
 6383SOL     OW30784   2.789   4.313   6.474  0.0697 -0.2521 -0.7094
 6383SOL    HW130785   2.788   4.346   6.384 -2.2934 -0.0089 -0.6002
 6383SOL    HW230786   2.884   4.302   6.483  0.2295  0.8891 -1.0589
 6384SOL     OW30787   0.613   4.288   5.347  0.0789 -0.2223 -0.1013
 6384SOL    HW130788   0.664   4.230   5.403  0.4560 -0.6899 -0.9267
 6384SOL    HW230789   0.683   4.333   5.301  0.5380 -2.0365 -1.1960
 6385SOL     OW30790   1.065   3.482   5.844  0.3270 -0.8259  0.0286
 6385SOL    HW130791   1.152   3.500   5.808  0.8826 -2.9528  0.2977
 6385SOL    HW230792   1.064   3.533   5.926 -0.0050 -1.8938  0.6921
 6386SOL     OW30793   3.993   0.686   6.627  0.0856  0.1585  0.0044
 6386SOL    HW130794   3.970   0.646   6.710  2.6791  1.9731  1.6246
 6386SOL    HW230795   4.039   0.765   6.657 -1.4407  0.6973  0.9371
 6387SOL     OW30796   2.429   0.499   0.412  0.2777  0.4637 -0.2174
 6387SOL    HW130797   2.371   0.461   0.346  1.7589 -0.1786 -1.1500
 6387SOL    HW230798   2.443   0.589   0.383  1.5485  0.4994  0.4622
 6388SOL     OW30799   2.498   1.949  12.750 -0.4591 -0.3062 -0.3080
 6388SOL    HW130800   2.545   1.873  12.783  2.7008  1.5270 -0.5427
 6388SOL    HW230801   2.540   2.018  12.802 -0.7911  0.2949 -0.8353
 6389SOL     OW30802   4.093   1.136  13.550 -0.1403 -0.4357 -0.5071
 6389SOL    HW130803   4.107   1.095  13.464 -0.6963  1.0651 -1.3157
 6389SOL    HW230804   4.100   1.053  13.597 -1.7293 -0.9105 -1.1113
 6390SOL     OW30805   3.647   0.776   6.796 -0.3112  0.1941  0.2766
 6390SOL    HW130806   3.727   0.779   6.849 -0.1733 -0.4594  0.0936
 6390SOL    HW230807   3.656   0.856   6.743  0.2084  1.4165  2.2020
 6391SOL     OW30808   3.740   3.862   7.486 -0.3987  0.5821 -0.7468
 6391SOL    HW130809   3.716   3.845   7.577  0.2261  0.2763 -0.6402
 6391SOL    HW230810   3.770   3.953   7.488  2.5279 -0.3720 -0.1594
 6392SOL     OW30811   2.296   0.324   8.390  0.6755  0.5989  0.0806
 6392SOL    HW130812   2.294   0.412   8.428 -0.7361  0.2990  0.7119
 6392SOL    HW230813   2.207   0.297   8.412  0.0466  2.3616 -0.3063
 6393SOL     OW30814   3.102   1.691   8.512  0.2711  0.0803 -0.0747
 6393SOL    HW130815   3.030   1.751   8.532 -0.3496 -0.8365  0.4376
 6393SOL    HW230816   3.093   1.640   8.593  1.0552 -0.0965 -0.0971
 6394SOL     OW30817   3.746   3.270   5.096  0.0468 -0.6466 -0.1085
 6394SOL    HW130818   3.834   3.235   5.111  0.9467  1.2538 -0.8092
 6394SOL    HW230819   3.723   3.270   5.189  0.3203  1.7594 -0.0240
 6395SOL     OW30820   1.011   4.710   8.052  0.1363 -0.2059  0.7732
 6395SOL    HW130821   0.970   4.681   7.971  1.0042  1.9135 -0.4127
 6395SOL    HW230822   0.937   4.710   8.112 -1.0809 -3.2811 -0.7780
 6396SOL     OW30823   1.494   2.687  13.337  0.4558  0.7380  0.0344
 6396SOL    HW130824   1.499   2.770  13.383  0.5287  0.9218 -0.3011
 6396SOL    HW230825   1.582   2.655  13.357  0.3325  0.1296 -0.3923
 6397SOL     OW30826   3.688   0.657   8.127 -0.1881  0.2081  0.2657
 6397SOL    HW130827   3.751   0.587   8.113 -0.1399 -0.0377  1.6529
 6397SOL    HW230828   3.715   0.687   8.214  0.5672  0.9654 -0.2334
 6398SOL     OW30829   0.532   2.145   7.671  0.8256  0.1075 -0.0023
 6398SOL    HW130830   0.538   2.049   7.677 -0.6965 -0.0189 -0.5657
 6398SOL    HW230831   0.583   2.178   7.745  2.2180 -0.0329 -0.8965
 6399SOL     OW30832   2.323   3.746   8.365 -0.0749 -0.5007 -0.1226
 6399SOL    HW130833   2.403   3.718   8.322 -0.7800 -0.3763 -1.5067
 6399SOL    HW230834   2.280   3.661   8.367 -1.1414  0.0511  0.8872
 6400SOL     OW30835   4.154   2.722   1.355 -0.1469  0.2549  0.1970
 6400SOL    HW130836   4.089   2.790   1.368 -1.7429 -1.5323  1.5322
 6400SOL    HW230837   4.116   2.665   1.288  0.0806  2.1546 -1.5297
 6401SOL     OW30838   1.794   4.345   0.078 -0.0108  0.6464 -0.0926
 6401SOL    HW130839   1.861   4.295   0.031  1.5383  1.1763  1.5551
 6401SOL    HW230840   1.718   4.318   0.026  0.1715  0.0884 -0.0627
 6402SOL     OW30841   3.804   4.562   1.902  0.0478 -0.4141 -0.3955
 6402SOL    HW130842   3.773   4.593   1.987  0.2608  1.3122 -0.9354
 6402SOL    HW230843   3.847   4.478   1.915 -0.1024 -0.2454  1.2278
 6403SOL     OW30844   4.299   0.516  14.092  0.6765  0.0433  0.0888
 6403SOL    HW130845   4.345   0.583  14.142 -0.7602  0.6177  0.6303
 6403SOL    HW230846   4.217   0.563  14.078  0.7737 -0.0572 -0.8252
 6404SOL     OW30847   1.197   2.446   8.969 -0.8195  0.7352  0.1926
 6404SOL    HW130848   1.132   2.516   8.971 -0.6643  0.8975 -0.4750
 6404SOL    HW230849   1.250   2.475   9.042 -1.5424  1.0067  0.6105
 6405SOL     OW30850   0.441   3.966   3.767 -0.2434  0.3182 -0.0226
 6405SOL    HW130851   0.349   3.956   3.741 -1.2621  3.4067  2.4266
 6405SOL    HW230852   0.476   3.878   3.782  1.1426  0.9844  0.5560
 6406SOL     OW30853   4.311   2.484   0.382  0.0367 -0.1338 -0.2841
 6406SOL    HW130854   4.218   2.478   0.362 -0.0620 -0.9320  0.4061
 6406SOL    HW230855   4.312   2.579   0.374 -0.9514 -0.1947 -1.0541
 6407SOL     OW30856   2.380   3.165   6.537  0.1434  0.5299  0.2195
 6407SOL    HW130857   2.383   3.125   6.450  1.3382  1.3720 -0.1276
 6407SOL    HW230858   2.355   3.097   6.599  0.8263  2.2795  2.3978
 6408SOL     OW30859   4.213   2.390   2.656  0.1491 -0.1106 -0.2451
 6408SOL    HW130860   4.136   2.429   2.615  0.3867 -0.0754 -0.6593
 6408SOL    HW230861   4.217   2.450   2.731 -0.0498  1.7204 -1.6904
 6409SOL     OW30862   3.003   1.239   9.157  0.2408 -0.7980 -0.8915
 6409SOL    HW130863   2.922   1.248   9.207  1.1336 -1.3514  0.6837
 6409SOL    HW230864   2.984   1.283   9.074 -1.0625  1.7716  0.7713
 6410SOL     OW30865   1.579   1.070   8.123 -0.2607  0.2397 -0.1326
 6410SOL    HW130866   1.623   1.135   8.179 -0.9777 -0.9230  1.7820
 6410SOL    HW230867   1.610   1.103   8.039 -1.1676 -0.6829 -0.8180
 6411SOL     OW30868   2.961   4.136   3.342 -0.4222  0.1057  0.2570
 6411SOL    HW130869   3.013   4.120   3.263  0.1825  0.4067  0.5955
 6411SOL    HW230870   2.891   4.186   3.298  0.4844 -0.3119 -1.6389
 6412SOL     OW30871   3.251   4.721  14.391  0.3714  0.0003  0.4331
 6412SOL    HW130872   3.247   4.651  14.456  0.4949  0.1287  0.5803
 6412SOL    HW230873   3.160   0.007  14.406 -0.2626 -2.6136  0.8614
 6413SOL     OW30874   3.023   1.483  12.279 -0.0856 -0.1057  0.9014
 6413SOL    HW130875   2.961   1.555  12.282  2.5973  2.2682 -0.2799
 6413SOL    HW230876   2.961   1.416  12.308  1.3618 -2.4158 -1.3372
 6414SOL     OW30877   0.094   0.220  10.690  0.1472 -0.3937  0.1907
 6414SOL    HW130878   0.184   0.186  10.693 -0.6660 -2.6530 -0.9428
 6414SOL    HW230879   0.047   0.138  10.679  0.2291 -0.3978 -0.1405
 6415SOL     OW30880   2.343   1.076   7.165 -0.0782  0.6407 -0.2560
 6415SOL    HW130881   2.287   1.077   7.087 -1.3706 -0.4451  0.6645
 6415SOL    HW230882   2.298   1.015   7.224  0.9268  1.6601  1.5595
 6416SOL     OW30883   4.130   1.076  17.491 -0.6881 -0.0318  0.1454
 6416SOL    HW130884   4.111   1.166  17.465 -3.5031 -0.2760  1.3728
 6416SOL    HW230885   4.039   1.048  17.479 -1.7825  2.0223  3.6796
 6417SOL     OW30886   3.584   2.242   7.407  0.3745  0.1580  0.2080
 6417SOL    HW130887   3.553   2.331   7.392 -2.5681 -0.6231  1.6873
 6417SOL    HW230888   3.541   2.214   7.327  3.5835 -0.1975 -1.4124
 6418SOL     OW30889   4.224   4.018   8.980  0.3008  0.3062 -0.0178
 6418SOL    HW130890   4.262   3.955   9.040 -0.8783  0.6492  1.1069
 6418SOL    HW230891   4.204   3.966   8.902  1.6176 -1.2978  0.7296
 6419SOL     OW30892   2.727   3.771   6.654  0.3755  0.7534  0.1575
 6419SOL    HW130893   2.691   3.807   6.573  2.7796  1.0035 -0.8048
 6419SOL    HW230894   2.657   3.710   6.675  1.6780 -1.0285 -0.6849
 6420SOL     OW30895   0.324   2.778   3.574  0.3119 -0.0660 -0.3607
 6420SOL    HW130896   0.257   2.718   3.541 -0.0362  0.7906 -1.1894
 6420SOL    HW230897   0.335   2.825   3.491 -2.8309  2.0084  0.4167
 6421SOL     OW30898   3.637   2.204   6.242 -0.5576 -0.1399 -0.0108
 6421SOL    HW130899   3.552   2.187   6.283 -0.6816  1.5210  0.4339
 6421SOL    HW230900   3.683   2.254   6.310 -0.7036 -1.1018  0.7976
 6422SOL     OW30901   1.155   3.401   5.109 -0.0733  0.3645  0.7085
 6422SOL    HW130902   1.115   3.438   5.188 -2.2285 -0.2606 -0.0666
 6422SOL    HW230903   1.156   3.307   5.128 -0.1036  0.6267  1.9896
 6423SOL     OW30904   2.195   0.241   5.159 -0.3337 -0.4171  0.1294
 6423SOL    HW130905   2.168   0.244   5.251 -2.0334  2.2699 -0.4519
 6423SOL    HW230906   2.114   0.258   5.110  1.1905  0.2099 -2.1859
 6424SOL     OW30907   4.480   2.439   0.605 -0.0674  0.1880  0.6143
 6424SOL    HW130908   4.557   2.493   0.588  1.0097 -1.1715  1.1624
 6424SOL    HW230909   4.422   2.459   0.531  1.2491  2.4441  0.1949
 6425SOL     OW30910   1.318   3.353   2.932 -0.2766 -0.0806  0.4698
 6425SOL    HW130911   1.235   3.372   2.975  0.0258  0.1370  0.9562
 6425SOL    HW230912   1.310   3.427   2.871  1.9140 -0.0239  0.2690
 6426SOL     OW30913   0.114   3.038   2.577  0.5476 -0.1764  0.3201
 6426SOL    HW130914   0.040   3.003   2.526  1.7627 -1.0893 -0.8430
 6426SOL    HW230915   0.089   3.009   2.664  0.7449  1.6669  0.9758
 6427SOL     OW30916   1.364   4.597  12.772  0.2278 -0.5301 -0.3763
 6427SOL    HW130917   1.423   4.651  12.719  1.7459 -1.5730  0.2476
 6427SOL    HW230918   1.385   4.644  12.852 -0.8077  0.2981 -0.6021
 6428SOL     OW30919   1.645   2.581   6.621  0.3042  0.1395  0.6261
 6428SOL    HW130920   1.686   2.514   6.567 -0.5511  0.0110  0.1395
 6428SOL    HW230921   1.651   2.663   6.571 -0.8883  0.4902  1.0527
 6429SOL     OW30922   4.226   0.566   5.212  0.1763 -0.5445  0.3615
 6429SOL    HW130923   4.155   0.509   5.240 -0.0180  0.6916  2.3466
 6429SOL    HW230924   4.276   0.508   5.154  0.2955 -1.5004  1.4083
 6430SOL     OW30925   3.215   2.091  11.936  0.3820 -0.0078  0.3991
 6430SOL    HW130926   3.186   2.038  11.862 -2.2691  0.7254  0.9418
 6430SOL    HW230927   3.307   2.065  11.938  0.5128  0.4168  0.0862
 6431SOL     OW30928   0.466   3.059   8.964 -0.5160 -0.4943 -0.4541
 6431SOL    HW130929   0.457   3.128   9.029  0.6602  0.9635 -1.8333
 6431SOL    HW230930   0.526   3.102   8.903  0.5809 -2.3835 -0.6944
 6432SOL     OW30931   0.624   3.990  15.377 -0.0378 -0.0405 -0.1354
 6432SOL    HW130932   0.685   4.048  15.331  0.1583 -0.2457 -0.1317
 6432SOL    HW230933   0.644   4.001  15.469  0.9348 -0.9395 -0.2508
 6433SOL     OW30934   1.841   3.116   4.767 -0.3655  0.2805  0.7577
 6433SOL    HW130935   1.749   3.138   4.782 -0.4958  1.0906 -1.2410
 6433SOL    HW230936   1.878   3.146   4.851 -0.4939  2.3051  0.0975
 6434SOL     OW30937   0.360   2.516   7.222 -0.2028  0.3679 -0.5933
 6434SOL    HW130938   0.439   2.504   7.275 -2.0452 -1.4164  1.7538
 6434SOL    HW230939   0.283   2.495   7.275 -0.6654 -0.4138 -1.5649
 6435SOL     OW30940   0.360   0.089   6.818  0.1669  0.2292 -0.2389
 6435SOL    HW130941   0.272   0.072   6.784 -0.2255 -2.1461  1.9443
 6435SOL    HW230942   0.334   0.172   6.857  1.1490  0.7882 -0.8047
 6436SOL     OW30943   3.593   2.686  13.307  0.9717 -0.0131 -0.6390
 6436SOL    HW130944   3.564   2.598  13.331 -0.6514  0.8669  0.6645
 6436SOL    HW230945   3.607   2.666  13.215  1.9282 -1.8482 -0.0865
 6437SOL     OW30946   4.640   3.445   3.614 -0.1446  0.5591 -0.5857
 6437SOL    HW130947   4.657   3.360   3.573 -0.8201 -0.5390  1.4002
 6437SOL    HW230948   4.721   3.496   3.616  1.6765 -2.3319 -0.2883
 6438SOL     OW30949   3.202   0.072  10.702 -0.1319 -0.0092  0.0900
 6438SOL    HW130950   3.248   0.147  10.663 -0.2511  0.1949  0.3424
 6438SOL    HW230951   3.220   0.005  10.636 -0.8291 -1.0303  0.9472
 6439SOL     OW30952   0.441   4.669  13.407 -0.1791 -0.1718 -0.5070
 6439SOL    HW130953   0.481   4.613  13.340  1.6560  1.6595 -0.9223
 6439SOL    HW230954   0.371   4.709  13.355  0.9341  0.1454 -1.7898
 6440SOL     OW30955   3.723   3.099   7.792  0.1275 -0.2704  0.6212
 6440SOL    HW130956   3.683   3.131   7.873  0.9558  1.1883  0.4512
 6440SOL    HW230957   3.769   3.175   7.757  1.6044 -1.0588  0.8372
 6441SOL     OW30958   1.155   1.032   9.132  0.2298  0.2293 -0.9572
 6441SOL    HW130959   1.070   1.061   9.101 -0.4705  1.2993  1.9037
 6441SOL    HW230960   1.156   1.078   9.216 -2.3222 -0.9162 -0.2817
 6442SOL     OW30961   4.455   4.738   2.478 -0.5595  0.8197  0.1306
 6442SOL    HW130962   4.504   4.656   2.480 -1.6459  0.1639  0.2168
 6442SOL    HW230963   4.432   0.002   2.385  3.8575  3.0217 -0.8977
 6443SOL     OW30964   1.148   2.232   5.945  0.0313  0.1306  0.1306
 6443SOL    HW130965   1.151   2.287   6.023 -0.2788  0.6271 -0.2109
 6443SOL    HW230966   1.227   2.259   5.898  0.2470 -2.0313 -0.7637
 6444SOL     OW30967   2.436   4.064  17.545  0.0683 -0.2419  0.2899
 6444SOL    HW130968   2.449   4.073  17.450  1.8915  1.1333  0.6835
 6444SOL    HW230969   2.473   3.978  17.564 -0.4411 -0.8769 -1.5085
 6445SOL     OW30970   3.217   2.509   5.508  0.2199 -0.4376 -1.1784
 6445SOL    HW130971   3.260   2.583   5.550 -1.5004 -1.6216  2.6529
 6445SOL    HW230972   3.281   2.443   5.538  0.0732  0.1286  0.3714
 6446SOL     OW30973   0.760   2.979   6.903  0.1350  0.4442 -0.1655
 6446SOL    HW130974   0.764   2.946   6.993 -0.1152  0.3051 -0.2052
 6446SOL    HW230975   0.847   2.949   6.879 -0.1335  0.4083 -1.0939
 6447SOL     OW30976   1.910   1.427   0.853 -0.4344 -0.7408  0.5462
 6447SOL    HW130977   1.833   1.381   0.818 -0.9741  1.6014 -1.2852
 6447SOL    HW230978   1.966   1.350   0.866 -0.3388 -0.7032  0.3406
 6448SOL     OW30979   0.796   1.004  16.298 -0.3758 -0.1939 -0.2804
 6448SOL    HW130980   0.854   1.064  16.343  0.7963 -0.9045 -0.8392
 6448SOL    HW230981   0.723   0.997  16.359  0.9568 -0.5145  1.2770
 6449SOL     OW30982   3.772   0.926   9.954 -0.5822 -0.1911 -0.3569
 6449SOL    HW130983   3.785   0.935  10.048  1.8933  0.0436 -0.7047
 6449SOL    HW230984   3.711   0.996   9.933 -0.8830  0.1793  1.8281
 6450SOL     OW30985   3.509   0.674  17.167 -0.3300  0.4584 -0.0726
 6450SOL    HW130986   3.522   0.732  17.242 -4.3565  2.5784 -1.0488
 6450SOL    HW230987   3.576   0.608  17.188 -0.9417 -0.2499 -0.3470
 6451SOL     OW30988   1.648   0.374   6.837 -0.0919  0.6076 -0.1623
 6451SOL    HW130989   1.716   0.410   6.894  0.3754  0.1091 -0.4014
 6451SOL    HW230990   1.682   0.395   6.750  2.1919  0.1309  0.6206
 6452SOL     OW30991   1.043   2.805   2.235 -0.0836  0.6536  0.2032
 6452SOL    HW130992   0.988   2.848   2.301  4.2318  3.5410  1.8968
 6452SOL    HW230993   1.124   2.821   2.283 -0.4864  0.7797  0.8491
 6453SOL     OW30994   4.461   0.886   4.389 -0.0222 -0.1604  0.1876
 6453SOL    HW130995   4.368   0.863   4.394  0.0530 -0.3170  0.9318
 6453SOL    HW230996   4.488   0.848   4.306 -2.8946 -0.8738 -0.4176
 6454SOL     OW30997   1.671   4.574  16.670 -0.2358  0.2524 -0.3717
 6454SOL    HW130998   1.703   4.564  16.759 -1.5389 -0.1934  0.0571
 6454SOL    HW230999   1.599   4.635  16.691 -0.9436 -0.5324 -0.5278
 6455SOL     OW31000   1.877   3.896   5.343 -0.1349  0.0890 -0.0315
 6455SOL    HW131001   1.895   3.915   5.435  2.0638 -0.1887 -0.3920
 6455SOL    HW231002   1.814   3.968   5.336  0.0225  0.2921  0.6261
 6456SOL     OW31003   1.340   3.822   6.855 -0.0379 -0.0851  0.3036
 6456SOL    HW131004   1.312   3.742   6.899 -2.2294  0.3193 -0.3343
 6456SOL    HW231005   1.431   3.820   6.884 -0.8091 -3.7844  2.4101
 6457SOL     OW31006   0.386   2.147   8.043  0.2928 -0.1545  0.4086
 6457SOL    HW131007   0.395   2.061   8.002 -0.0015  1.0364 -2.0885
 6457SOL    HW231008   0.292   2.164   8.048 -0.1234 -2.0777 -1.1129
 6458SOL     OW31009   1.299   3.186   5.762 -0.3871  0.5379  0.2497
 6458SOL    HW131010   1.224   3.160   5.815 -0.2152  0.7311  0.5840
 6458SOL    HW231011   1.273   3.194   5.670 -1.3760  0.3849  0.5207
 6459SOL     OW31012   2.966   0.151   4.231 -0.3182  0.0032 -0.2863
 6459SOL    HW131013   2.970   0.058   4.255  0.7689  1.0943  3.6850
 6459SOL    HW231014   3.052   0.179   4.262 -0.4370 -0.4508  0.4567
 6460SOL     OW31015   4.248   0.428   7.727  0.3367  0.0404  0.4776
 6460SOL    HW131016   4.228   0.486   7.801  1.4139 -0.7191  1.3678
 6460SOL    HW231017   4.343   0.419   7.727  0.3156 -0.2099  0.9656
 6461SOL     OW31018   3.866   0.196   7.156 -0.3114  0.1402  0.1296
 6461SOL    HW131019   3.856   0.285   7.123  0.0820 -0.3116 -1.2051
 6461SOL    HW231020   3.814   0.190   7.236  2.2473 -1.9156  1.6400
 6462SOL     OW31021   2.249   1.295  17.591 -0.8444  0.5831  0.3791
 6462SOL    HW131022   2.207   1.220  17.550  1.1777 -1.3959  1.9080
 6462SOL    HW231023   2.335   1.290  17.550  0.0442  1.0576  2.1809
 6463SOL     OW31024   3.015   1.719   3.432  0.8641  0.1018  0.7798
 6463SOL    HW131025   2.939   1.766   3.395  1.4403 -0.4414 -1.1146
 6463SOL    HW231026   3.020   1.768   3.514 -0.3231 -0.9746  1.4778
 6464SOL     OW31027   2.310   0.895   5.789 -0.2390 -0.7524 -0.5727
 6464SOL    HW131028   2.297   0.924   5.699  0.7669 -1.5407 -0.9749
 6464SOL    HW231029   2.403   0.913   5.804 -0.2148 -1.1415 -0.2579
 6465SOL     OW31030   2.311   4.296   7.979  0.5187  0.0235  0.0256
 6465SOL    HW131031   2.232   4.312   8.031 -0.4685  1.8461 -2.0214
 6465SOL    HW231032   2.289   4.337   7.895 -1.3175 -1.4955 -0.2504
 6466SOL     OW31033   0.018   0.105  12.432  0.0391  0.3521 -0.3149
 6466SOL    HW131034   4.711   0.185  12.407 -0.1071  0.9913  1.9513
 6466SOL    HW231035   4.707   0.036  12.390 -0.1610 -0.2959  0.9813
 6467SOL     OW31036   1.483   2.014   2.882 -0.3667  0.5072 -0.5039
 6467SOL    HW131037   1.496   1.952   2.810 -0.7518 -1.7165  1.3433
 6467SOL    HW231038   1.563   1.997   2.930 -0.2811  1.9307 -0.1483
 6468SOL     OW31039   1.035   3.496   1.966  0.0387  0.2574 -0.2721
 6468SOL    HW131040   1.127   3.495   1.940 -0.4889 -0.2621 -2.1022
 6468SOL    HW231041   0.994   3.440   1.900  0.7121  0.4361 -0.8350
 6469SOL     OW31042   1.722   1.052   7.890 -0.1220 -0.3565  0.7686
 6469SOL    HW131043   1.816   1.062   7.905 -0.0284  0.7931 -0.6411
 6469SOL    HW231044   1.704   1.093   7.806 -2.1017 -2.6868  0.0377
 6470SOL     OW31045   2.986   3.278  10.078 -0.1342 -0.2806 -0.0456
 6470SOL    HW131046   2.928   3.207  10.106  1.1703 -1.8976 -1.4510
 6470SOL    HW231047   3.044   3.275  10.154  0.0471  2.1402 -0.0860
 6471SOL     OW31048   0.545   1.019   6.499 -0.7837 -0.3025  0.1273
 6471SOL    HW131049   0.560   1.012   6.405  1.1788 -0.8915  0.4894
 6471SOL    HW231050   0.571   0.932   6.529  0.2769 -0.3859 -1.0622
 6472SOL     OW31051   1.859   4.019  17.048 -0.6846  0.0895 -0.1588
 6472SOL    HW131052   1.914   3.941  17.040  1.5908  1.8582 -1.7457
 6472SOL    HW231053   1.776   3.984  17.018 -1.4591  0.8082  1.1392
 6473SOL     OW31054   3.921   1.605   5.071 -0.4151  0.3723 -0.0436
 6473SOL    HW131055   3.976   1.684   5.068  0.5420 -0.2826  0.3169
 6473SOL    HW231056   3.981   1.551   5.123 -1.3505  1.5958  2.3078
 6474SOL     OW31057   3.532   1.060   8.976  0.0067 -0.2417  1.2418
 6474SOL    HW131058   3.520   1.148   9.013  1.5577  0.7452 -0.5876
 6474SOL    HW231059   3.536   1.084   8.884  1.0060 -1.2460  1.0152
 6475SOL     OW31060   2.052   2.333   0.869 -0.1937  0.5336  0.4835
 6475SOL    HW131061   2.126   2.345   0.809 -0.3438 -0.5014  0.0901
 6475SOL    HW231062   2.090   2.272   0.931  2.3216  0.0742 -1.5038
 6476SOL     OW31063   4.307   3.072   0.267 -0.9918  0.8666 -0.1114
 6476SOL    HW131064   4.326   3.162   0.294  0.2402  0.6676 -0.3065
 6476SOL    HW231065   4.214   3.061   0.287 -0.7049  1.5487  1.6184
 6477SOL     OW31066   2.784   0.577   7.565 -0.1749  0.5268  0.3635
 6477SOL    HW131067   2.756   0.652   7.512  2.5656  1.7590  0.6590
 6477SOL    HW231068   2.877   0.582   7.543 -0.0292  0.7456  1.0040
 6478SOL     OW31069   2.632   4.200   2.966  0.3999  0.0840  0.0994
 6478SOL    HW131070   2.670   4.235   2.885 -1.0100  0.3545 -0.4474
 6478SOL    HW231071   2.544   4.185   2.931  1.3477  1.6752 -2.9658
 6479SOL     OW31072   1.514   2.497   4.821 -0.0149  0.1675  0.2584
 6479SOL    HW131073   1.434   2.550   4.826 -0.6085 -0.8654  1.6440
 6479SOL    HW231074   1.570   2.573   4.805 -0.5320  1.1495  2.9908
 6480SOL     OW31075   2.800   3.579   3.120  0.4118 -0.2068  0.0751
 6480SOL    HW131076   2.834   3.668   3.131 -0.7545  0.1240  0.9639
 6480SOL    HW231077   2.833   3.572   3.030  0.0243 -0.2412 -0.0625
 6481SOL     OW31078   0.468   3.409  13.848  0.4105 -1.0674 -0.1587
 6481SOL    HW131079   0.525   3.430  13.774 -1.2219 -0.6193 -1.2921
 6481SOL    HW231080   0.497   3.481  13.904 -2.3473  0.0544 -0.1832
 6482SOL     OW31081   2.187   4.734   5.466 -0.1353  0.2336  0.1541
 6482SOL    HW131082   2.091   4.738   5.467 -0.2076 -1.7370  2.0124
 6482SOL    HW231083   2.216   0.085   5.456  1.5114  0.1262  3.8196
 6483SOL     OW31084   2.776   2.981   4.752  0.0587 -0.7890 -0.4869
 6483SOL    HW131085   2.725   3.047   4.798 -0.5854 -2.1143  0.7130
 6483SOL    HW231086   2.862   3.022   4.766  0.1954 -1.4403  0.5957
 6484SOL     OW31087   1.149   3.124   5.162 -0.0585  0.3690 -0.2740
 6484SOL    HW131088   1.068   3.074   5.170  0.7324 -0.8341  0.1128
 6484SOL    HW231089   1.212   3.077   5.217  0.6606 -0.3033 -1.6774
 6485SOL     OW31090   3.873   1.431   2.584  0.0109  0.3230  0.1345
 6485SOL    HW131091   3.950   1.485   2.603  1.9475 -1.8153 -1.7314
 6485SOL    HW231092   3.835   1.502   2.531 -2.0647 -0.6988  0.2649
 6486SOL     OW31093   0.995   0.246   1.269  0.2634  0.0482 -0.1620
 6486SOL    HW131094   1.078   0.246   1.317  0.4569 -0.3195 -0.5033
 6486SOL    HW231095   1.016   0.174   1.210  2.0348  0.0382  0.4674
 6487SOL     OW31096   3.841   2.408   2.800  0.1204  0.2517 -0.0670
 6487SOL    HW131097   3.903   2.376   2.865 -1.6569  0.1175  1.5896
 6487SOL    HW231098   3.769   2.345   2.808 -0.2111  0.3368 -2.4101
 6488SOL     OW31099   1.455   3.441   2.609  0.2916  0.3446  0.4055
 6488SOL    HW131100   1.394   3.417   2.538  1.2436 -0.0035 -0.2886
 6488SOL    HW231101   1.526   3.378   2.599  0.2789  0.5688 -1.1268
 6489SOL     OW31102   0.827   2.016   6.595  0.4306  0.3742  0.7089
 6489SOL    HW131103   0.763   2.063   6.541  1.1291 -0.5878 -0.9310
 6489SOL    HW231104   0.822   1.932   6.551  2.2011 -0.1623  1.5391
 6490SOL     OW31105   1.879   1.550   8.977 -0.4862 -0.2860  0.3890
 6490SOL    HW131106   1.827   1.630   8.988  3.8372  2.6191 -0.5707
 6490SOL    HW231107   1.938   1.562   9.051 -1.2506 -2.7990  1.3913
 6491SOL     OW31108   1.876   4.473   3.227  0.5213 -0.4235 -0.1748
 6491SOL    HW131109   1.884   4.453   3.320  2.0348  2.6065  0.3332
 6491SOL    HW231110   1.867   4.569   3.223 -0.6682 -0.4893  1.0251
 6492SOL     OW31111   3.605   2.643  14.332  0.1939 -0.2853 -0.5211
 6492SOL    HW131112   3.611   2.716  14.270 -2.2323 -0.1028 -0.5189
 6492SOL    HW231113   3.645   2.566  14.291 -1.6339 -1.2018 -0.5547
 6493SOL     OW31114   0.975   2.819   9.965 -0.1322 -0.0079  0.2678
 6493SOL    HW131115   1.045   2.755   9.983 -0.9623 -1.1311 -0.4763
 6493SOL    HW231116   0.935   2.821  10.052  1.5408  0.9373  1.0217
 6494SOL     OW31117   4.358   2.185  16.059  0.3119  0.0694 -0.2287
 6494SOL    HW131118   4.263   2.171  16.063  0.7930 -2.9994  1.0110
 6494SOL    HW231119   4.372   2.210  16.151 -3.5654  1.6271 -0.0366
 6495SOL     OW31120   0.619   0.527   5.694 -0.3882  0.1056 -0.6577
 6495SOL    HW131121   0.640   0.579   5.616 -2.9642 -0.1226 -1.5133
 6495SOL    HW231122   0.608   0.438   5.661  0.6695 -0.9545  1.8480
 6496SOL     OW31123   2.446   2.625  15.894  0.1876  0.1132 -0.1230
 6496SOL    HW131124   2.366   2.578  15.919  0.0513  0.3896 -0.0325
 6496SOL    HW231125   2.432   2.718  15.914  2.2675  0.2601  0.6311
 6497SOL     OW31126   2.007   3.325   3.852 -0.0120  0.3348  0.4837
 6497SOL    HW131127   1.923   3.296   3.816  0.4844  0.2840 -0.6273
 6497SOL    HW231128   2.056   3.243   3.860 -1.3875 -0.5211  0.0657
 6498SOL     OW31129   1.446   1.535   9.942  0.1462  0.0396 -0.0770
 6498SOL    HW131130   1.456   1.600   9.871  1.2584 -0.9227 -0.8013
 6498SOL    HW231131   1.430   1.453   9.895  1.5262  0.1059 -0.6563
 6499SOL     OW31132   3.742   1.828   3.492 -0.2981 -0.0057 -0.3680
 6499SOL    HW131133   3.668   1.798   3.439 -0.6717  1.1899 -0.5166
 6499SOL    HW231134   3.758   1.754   3.552 -2.7267  0.4379  0.8003
 6500SOL     OW31135   0.506   3.565   3.354  0.0763  0.6972  0.3374
 6500SOL    HW131136   0.533   3.535   3.440  1.7825 -0.2251 -0.5069
 6500SOL    HW231137   0.518   3.478   3.315 -0.9568  0.5848  0.2679
 6501SOL     OW31138   1.574   2.696   5.572  0.7331 -0.5166 -0.0588
 6501SOL    HW131139   1.654   2.658   5.609 -0.6095 -1.0018  2.3728
 6501SOL    HW231140   1.602   2.787   5.577 -0.1157 -0.3247  1.2804
 6502SOL     OW31141   3.262   3.145  12.156  0.5142  0.3110  0.2148
 6502SOL    HW131142   3.255   3.087  12.080  1.3179  0.4308  0.0464
 6502SOL    HW231143   3.219   3.081  12.211 -0.2118  1.3546  0.8563
 6503SOL     OW31144   2.743   1.914   1.438 -0.1504  0.1042  0.8725
 6503SOL    HW131145   2.746   2.009   1.452  2.5274  0.4909 -2.2209
 6503SOL    HW231146   2.826   1.905   1.390  0.2662  0.6030  1.5026
 6504SOL     OW31147   1.866   1.008   3.870 -0.5245  0.3007 -0.2332
 6504SOL    HW131148   1.805   1.025   3.942 -1.8768 -1.5564 -0.9364
 6504SOL    HW231149   1.945   1.050   3.905  0.1808 -0.2718 -1.1535
 6505SOL     OW31150   2.339   2.534   6.049  0.4791  0.2831 -0.3933
 6505SOL    HW131151   2.327   2.461   5.988  0.3713 -0.0244 -0.0042
 6505SOL    HW231152   2.431   2.525   6.075  0.5864  2.1052 -0.1314
 6506SOL     OW31153   3.564   2.617  13.019  0.4929 -0.1909  0.6216
 6506SOL    HW131154   3.539   2.560  12.947  0.4915 -0.2866  0.6986
 6506SOL    HW231155   3.659   2.620  13.006 -0.0066 -0.9141 -3.2882
 6507SOL     OW31156   0.363   3.058   2.114  0.2772  0.5732  0.1551
 6507SOL    HW131157   0.392   3.053   2.206 -0.5722  3.4231  0.5830
 6507SOL    HW231158   0.275   3.020   2.121  0.5043  0.1477  0.7395
 6508SOL     OW31159   4.139   0.553   2.299 -0.4865  0.5697  0.2523
 6508SOL    HW131160   4.100   0.591   2.220  1.4640  1.1681 -0.4261
 6508SOL    HW231161   4.154   0.638   2.341  1.3186  0.4436 -0.1477
 6509SOL     OW31162   1.854   4.421   7.865 -0.2430  0.3030  0.6623
 6509SOL    HW131163   1.766   4.437   7.832  0.3856  0.6677 -0.8082
 6509SOL    HW231164   1.870   4.327   7.852  0.9755  0.8055 -1.4906
 6510SOL     OW31165   1.000   4.629  15.030 -0.4773 -0.3871 -0.0824
 6510SOL    HW131166   1.027   4.718  15.050 -1.1517  0.1394 -1.5253
 6510SOL    HW231167   0.949   4.640  14.949 -0.4075  2.0817  0.2187
 6511SOL     OW31168   2.644   0.136  12.258 -0.1529  0.2502  0.2115
 6511SOL    HW131169   2.691   0.111  12.337  2.2347 -1.4666 -1.7532
 6511SOL    HW231170   2.555   0.151  12.289 -0.2573 -1.9964  0.9968
 6512SOL     OW31171   0.825   0.717  11.643 -0.4878  0.0365  0.3463
 6512SOL    HW131172   0.877   0.758  11.712  0.8904 -2.2776  0.6745
 6512SOL    HW231173   0.738   0.732  11.679 -0.5978 -1.2739  0.6267
 6513SOL     OW31174   0.851   4.501   4.011  0.3299  0.1667  0.1196
 6513SOL    HW131175   0.925   4.529   4.064  0.3791 -0.8593  0.5961
 6513SOL    HW231176   0.899   4.486   3.929 -0.4723  0.3665 -0.3873
 6514SOL     OW31177   4.464   3.320   3.990  0.6421  0.3167 -0.4846
 6514SOL    HW131178   4.485   3.372   3.912  1.8713  2.2812  1.1639
 6514SOL    HW231179   4.373   3.346   3.998  0.5768 -0.5559  1.4648
 6515SOL     OW31180   0.301   3.179  16.874  0.5370 -0.5186  0.9885
 6515SOL    HW131181   0.348   3.178  16.790  1.1795  1.7679  1.3371
 6515SOL    HW231182   0.342   3.253  16.917  2.4472 -0.8341 -0.3015
 6516SOL     OW31183   0.762   0.580   4.525  0.5830 -0.2958 -0.0831
 6516SOL    HW131184   0.848   0.554   4.558 -0.8702 -0.6778  3.4326
 6516SOL    HW231185   0.708   0.503   4.545  0.9477 -0.5394 -0.0469
 6517SOL     OW31186   1.482   2.262   9.153 -0.0924 -0.3301 -0.1775
 6517SOL    HW131187   1.557   2.274   9.210 -0.5076 -1.4247  0.6069
 6517SOL    HW231188   1.516   2.209   9.080 -0.3056  1.4640 -1.5883
 6518SOL     OW31189   3.387   1.717   6.530  0.3771 -0.2527 -0.0731
 6518SOL    HW131190   3.459   1.720   6.467  0.4902  1.5591  0.1405
 6518SOL    HW231191   3.412   1.648   6.591 -2.7783 -1.9804 -0.6900
 6519SOL     OW31192   1.727   1.057   4.143 -0.1465  0.0400  0.1712
 6519SOL    HW131193   1.750   1.000   4.217 -0.7934 -0.2812  0.1254
 6519SOL    HW231194   1.646   1.011   4.120 -0.1569  0.5566 -0.7965
 6520SOL     OW31195   2.643   3.285  13.115  0.1286  0.4385 -0.1340
 6520SOL    HW131196   2.591   3.205  13.121 -1.2693  1.3199 -0.6802
 6520SOL    HW231197   2.695   3.284  13.195 -0.0937  1.9519  0.0423
 6521SOL     OW31198   2.418   4.000   1.416 -0.1014  0.3255  0.1298
 6521SOL    HW131199   2.344   3.938   1.419  1.1306 -0.9739  3.4455
 6521SOL    HW231200   2.491   3.952   1.454  0.4345  2.3258  1.6263
 6522SOL     OW31201   3.081   0.656  15.378 -0.0881 -0.8379  0.4918
 6522SOL    HW131202   3.135   0.734  15.371 -0.8020 -0.3653  0.2261
 6522SOL    HW231203   2.992   0.691  15.375  0.4514  0.4780 -0.0376
 6523SOL     OW31204   1.706   1.093   8.484  0.0770  0.6657  0.0620
 6523SOL    HW131205   1.653   1.086   8.563  0.8041  1.4717  0.6299
 6523SOL    HW231206   1.705   1.187   8.463  0.5685  0.5709 -0.3930
 6524SOL     OW31207   1.751   4.476   9.269 -0.4565 -0.1602 -0.1681
 6524SOL    HW131208   1.674   4.474   9.326 -1.1699  0.4176 -1.1206
 6524SOL    HW231209   1.820   4.500   9.331  0.3899 -1.7831 -0.4758
 6525SOL     OW31210   2.288   2.435   5.541  0.1181 -0.1503 -0.5922
 6525SOL    HW131211   2.339   2.494   5.597  0.2736 -0.5353 -0.3274
 6525SOL    HW231212   2.304   2.348   5.579 -0.0281  0.8884  1.8429
 6526SOL     OW31213   1.934   0.938   5.388  0.4355 -0.4604 -0.2354
 6526SOL    HW131214   1.849   0.976   5.365  0.0603 -0.7605  0.6564
 6526SOL    HW231215   1.924   0.852   5.348  0.5367 -0.0546 -1.1383
 6527SOL     OW31216   1.290   2.367   6.589 -0.4487 -0.0676  0.2005
 6527SOL    HW131217   1.197   2.390   6.598 -0.5176 -0.5822  0.8497
 6527SOL    HW231218   1.317   2.443   6.539  1.2868 -2.0247 -1.8174
 6528SOL     OW31219   2.390   4.725   4.094  0.1181  0.1188  0.3380
 6528SOL    HW131220   2.467   0.005   4.041  1.5044 -1.1423  1.8886
 6528SOL    HW231221   2.376   4.631   4.081  2.1607 -0.2906  1.0955
 6529SOL     OW31222   2.784   0.921   3.235  0.5986 -0.7108 -0.2109
 6529SOL    HW131223   2.840   0.845   3.219 -0.1122 -0.8770 -1.9467
 6529SOL    HW231224   2.760   0.909   3.327  0.1545  2.5353  0.0776
 6530SOL     OW31225   3.733   2.039   1.674  0.4494  0.4518  0.4820
 6530SOL    HW131226   3.745   2.134   1.682  1.7263  0.3565 -0.3035
 6530SOL    HW231227   3.669   2.033   1.603 -0.5863  2.2970  1.2505
 6531SOL     OW31228   4.227   3.925   3.368  0.5398 -0.6586 -0.0707
 6531SOL    HW131229   4.249   3.882   3.451 -1.0735  2.0558  1.7881
 6531SOL    HW231230   4.196   3.845   3.326  1.1512 -0.1807 -1.4221
 6532SOL     OW31231   0.135   4.216   2.162  0.1018 -0.2276  0.0891
 6532SOL    HW131232   0.146   4.306   2.194 -1.4309 -0.2696  0.7269
 6532SOL    HW231233   0.223   4.212   2.123  0.6895  1.5676  1.2018
 6533SOL     OW31234   1.907   4.065   3.416 -0.1646 -0.4959 -0.3167
 6533SOL    HW131235   1.997   4.052   3.385  0.4382  0.2170  1.1327
 6533SOL    HW231236   1.859   4.112   3.348 -0.4189 -1.0656 -0.5296
 6534SOL     OW31237   0.086   3.582   4.782  0.0102  0.1583 -0.2217
 6534SOL    HW131238   0.041   3.553   4.861 -1.2292  1.6955 -0.3886
 6534SOL    HW231239   0.147   3.508   4.791  1.5742  1.3992 -0.7469
 6535SOL     OW31240   2.694   3.435   4.755 -0.5418 -0.1751 -0.3542
 6535SOL    HW131241   2.694   3.485   4.836  1.2326 -3.8895  1.9223
 6535SOL    HW231242   2.613   3.455   4.708 -1.0374 -0.7124  0.2822
 6536SOL     OW31243   0.304   0.877   6.734 -0.4997  0.1222  0.4329
 6536SOL    HW131244   0.264   0.941   6.675  0.7163 -2.0320 -2.6789
 6536SOL    HW231245   0.311   0.797   6.683  0.1740  0.3257  0.2149
 6537SOL     OW31246   2.610   0.457   2.096  0.0028 -0.1010 -0.6995
 6537SOL    HW131247   2.694   0.410   2.095 -0.5614 -1.1251  0.3332
 6537SOL    HW231248   2.610   0.487   2.005 -0.2932  1.9441 -0.0259
 6538SOL     OW31249   2.637   2.562   7.901  0.3110 -0.0068  0.1858
 6538SOL    HW131250   2.596   2.647   7.891  0.1064 -0.2584 -1.1216
 6538SOL    HW231251   2.657   2.530   7.813 -0.6548  1.7009 -0.6489
 6539SOL     OW31252   3.735   1.025  10.715  0.2909  0.6042  0.2366
 6539SOL    HW131253   3.799   0.968  10.671 -0.3895  0.1590 -0.1818
 6539SOL    HW231254   3.746   1.001  10.807 -3.6814  1.8741  1.0476
 6540SOL     OW31255   1.597   4.324   4.667  0.0446 -0.0965 -0.0211
 6540SOL    HW131256   1.656   4.377   4.613  2.6113 -1.7668  1.1666
 6540SOL    HW231257   1.634   4.237   4.657  0.8486 -0.0703  2.8684
 6541SOL     OW31258   2.970   4.582  13.119  0.0317  0.7351 -0.3491
 6541SOL    HW131259   2.944   4.592  13.211 -2.5012  0.0562 -1.0038
 6541SOL    HW231260   2.957   4.489  13.101  0.9749  0.8556 -1.6304
 6542SOL     OW31261   0.865   2.075   8.652  0.0519 -0.3755  0.1922
 6542SOL    HW131262   0.857   2.072   8.557 -0.3128  0.6258  0.1951
 6542SOL    HW231263   0.929   2.144   8.670 -0.7040  0.6278 -1.0131
 6543SOL     OW31264   1.710   2.371  14.662 -0.7364 -0.0835  0.0258
 6543SOL    HW131265   1.660   2.401  14.738 -0.8636  1.6610 -0.7562
 6543SOL    HW231266   1.789   2.335  14.702 -1.7423  2.1874  4.0275
 6544SOL     OW31267   0.888   4.006   3.233 -0.2325  0.1317  0.3064
 6544SOL    HW131268   0.953   4.067   3.198 -0.3503 -0.7727 -1.4454
 6544SOL    HW231269   0.929   3.976   3.315  1.7765 -2.8113 -1.7798
 6545SOL     OW31270   4.199   4.584   8.094 -0.6110 -0.4250 -0.1442
 6545SOL    HW131271   4.111   4.556   8.067 -1.1282  1.3501 -0.2764
 6545SOL    HW231272   4.184   4.665   8.142  1.4200  0.5178 -1.1321
 6546SOL     OW31273   2.800   0.959   1.170 -0.3319 -0.5634  0.5918
 6546SOL    HW131274   2.708   0.985   1.159 -0.8731 -2.7304 -0.1258
 6546SOL    HW231275   2.847   1.040   1.152  1.9641 -2.1108 -0.3424
 6547SOL     OW31276   0.855   3.390   8.757  0.2234 -0.4861 -0.1038
 6547SOL    HW131277   0.926   3.389   8.694 -0.5908  2.4767 -1.0640
 6547SOL    HW231278   0.910   3.395   8.835 -1.0224  0.1929  0.7363
 6548SOL     OW31279   4.363   0.244  16.142 -0.5742  0.6073 -0.7367
 6548SOL    HW131280   4.368   0.321  16.084 -0.4800  0.2450 -1.2041
 6548SOL    HW231281   4.398   0.179  16.080  2.2143  0.8799  0.5586
 6549SOL     OW31282   2.234   0.915   7.337 -0.1747  0.2965 -0.6926
 6549SOL    HW131283   2.247   0.942   7.428  1.7660  1.3998 -1.3079
 6549SOL    HW231284   2.171   0.846   7.358  1.0051 -0.5100  0.1303
 6550SOL     OW31285   1.778   1.874   8.016 -0.0520 -0.2202  0.3184
 6550SOL    HW131286   1.812   1.790   8.047  0.5254 -1.1438 -2.7372
 6550SOL    HW231287   1.808   1.933   8.085 -0.0977  0.1064  0.0622
 6551SOL     OW31288   0.699   0.548  16.364 -0.0133 -0.4842  0.5600
 6551SOL    HW131289   0.690   0.505  16.279  1.5380 -1.4040  0.8703
 6551SOL    HW231290   0.724   0.471  16.414 -0.9615  1.1024  3.4410
 6552SOL     OW31291   1.414   3.382   3.537  0.5462  0.3843  0.4700
 6552SOL    HW131292   1.402   3.333   3.456  1.4627  0.0040  0.5753
 6552SOL    HW231293   1.423   3.475   3.514  1.8299  0.6292  1.9615
 6553SOL     OW31294   0.252   3.526  13.703  0.1418 -0.2252  0.0903
 6553SOL    HW131295   0.328   3.501  13.757 -0.6264 -2.4941  0.1166
 6553SOL    HW231296   0.290   3.578  13.632 -0.2626 -1.1549 -0.8013
 6554SOL     OW31297   4.634   2.975  11.054 -0.2034 -0.0383  0.0981
 6554SOL    HW131298   4.610   3.026  11.131 -0.0446  0.3655 -0.1234
 6554SOL    HW231299   4.618   3.039  10.986  2.8372  1.9690  1.2635
 6555SOL     OW31300   0.615   0.053   2.082  0.5791 -0.5196  0.0463
 6555SOL    HW131301   0.653   4.710   2.051 -0.6519 -0.7821 -0.7478
 6555SOL    HW231302   0.646   0.113   2.014  0.8856 -3.1266 -2.1536
 6556SOL     OW31303   0.382   3.907   0.490 -0.8488 -0.6344 -0.0003
 6556SOL    HW131304   0.387   3.817   0.458 -0.8746 -1.1209  1.3742
 6556SOL    HW231305   0.300   3.902   0.538 -1.3312 -1.0484 -0.8526
 6557SOL     OW31306   4.001   2.540   1.868 -0.6197  0.5043 -0.0462
 6557SOL    HW131307   3.982   2.464   1.923  3.9749 -0.7448 -0.1840
 6557SOL    HW231308   4.094   2.529   1.851 -0.2680  2.4552  0.5753
 6558SOL     OW31309   1.895   3.106   8.619  0.1203 -0.2361 -0.6506
 6558SOL    HW131310   1.923   3.142   8.703  2.0409 -0.7633 -1.0757
 6558SOL    HW231311   1.807   3.142   8.607  0.4177  0.6878 -0.0629
 6559SOL     OW31312   3.867   1.151   2.030  0.0001  0.4746 -0.4783
 6559SOL    HW131313   3.947   1.107   2.057 -1.6482 -1.9146  0.5081
 6559SOL    HW231314   3.804   1.101   2.083  1.1267 -0.3462  0.0760
 6560SOL     OW31315   3.053   0.207  15.648  0.0633 -0.1615 -0.3455
 6560SOL    HW131316   3.143   0.229  15.625  1.1550 -5.0927 -0.9561
 6560SOL    HW231317   3.043   0.127  15.595 -1.6706 -0.4660  0.4321
 6561SOL     OW31318   2.249   2.813  14.304  0.2828 -0.1142 -0.0646
 6561SOL    HW131319   2.267   2.848  14.217 -1.4980 -1.1233 -0.8283
 6561SOL    HW231320   2.260   2.718  14.297  0.0824 -0.1014 -0.4838
 6562SOL     OW31321   0.079   3.061  12.630 -0.3596 -0.0217 -0.2350
 6562SOL    HW131322   0.173   3.080  12.634 -0.8230  2.3241 -0.6212
 6562SOL    HW231323   0.052   3.113  12.555 -0.7480  0.1865  0.0500
 6563SOL     OW31324   0.396   3.252   3.795  0.3845  0.0736  0.1714
 6563SOL    HW131325   0.358   3.169   3.767 -0.1569  0.6920 -0.8874
 6563SOL    HW231326   0.488   3.241   3.769  0.7595 -1.1405  1.9994
 6564SOL     OW31327   4.205   2.226   5.601  0.0685  0.1328 -0.6417
 6564SOL    HW131328   4.238   2.194   5.518  1.0221  1.3908 -0.7399
 6564SOL    HW231329   4.265   2.298   5.619 -0.4582  0.4067  0.0370
 6565SOL     OW31330   0.022   3.671  17.444  0.0594 -0.4394  0.4221
 6565SOL    HW131331   0.088   3.665  17.374  1.0735  1.0433  1.2426
 6565SOL    HW231332   4.711   3.746  17.411 -0.1265 -0.3312  0.9576
 6566SOL     OW31333   0.627   3.979   6.310  0.2112 -0.1070 -0.3601
 6566SOL    HW131334   0.568   3.933   6.371  0.3904 -0.7437 -0.6614
 6566SOL    HW231335   0.658   4.055   6.360  2.7446 -1.0116 -0.5645
 6567SOL     OW31336   0.314   2.923   5.372 -0.4129 -0.2786  0.2415
 6567SOL    HW131337   0.241   2.929   5.432 -1.7978 -4.2596 -1.0668
 6567SOL    HW231338   0.375   2.994   5.392 -0.2938 -0.4612  0.5380
 6568SOL     OW31339   4.214   3.091   6.116  0.3171  0.1945  0.1162
 6568SOL    HW131340   4.156   3.016   6.124  0.3919  0.1136 -0.1108
 6568SOL    HW231341   4.149   3.162   6.109 -0.8260 -0.8994 -0.5145
 6569SOL     OW31342   0.552   3.707   3.991  0.4526 -0.0937 -0.0370
 6569SOL    HW131343   0.578   3.620   3.961  1.4040 -0.7606  2.7126
 6569SOL    HW231344   0.626   3.767   3.978  1.1810 -1.2094 -0.9817
 6570SOL     OW31345   4.421   0.561   5.000 -0.1395 -0.3104 -0.2994
 6570SOL    HW131346   4.471   0.479   4.998 -1.5724 -1.1388 -2.2711
 6570SOL    HW231347   4.487   0.628   5.017 -0.7013  0.7441 -2.2582
 6571SOL     OW31348   1.862   1.694   4.525  0.1550  0.3336 -0.0903
 6571SOL    HW131349   1.894   1.753   4.456 -2.0686 -1.2947 -2.5424
 6571SOL    HW231350   1.929   1.626   4.529  1.7934  1.8868 -0.7421
 6572SOL     OW31351   2.244   1.083   0.373 -0.5556 -0.0912 -0.7277
 6572SOL    HW131352   2.204   1.103   0.289  0.6503 -3.7579 -2.1935
 6572SOL    HW231353   2.212   0.994   0.389 -0.6537  0.2099  0.7646
 6573SOL     OW31354   0.364   3.728   2.071 -0.1853  0.2334 -0.0497
 6573SOL    HW131355   0.395   3.700   2.157  1.1172 -1.3506 -1.0479
 6573SOL    HW231356   0.438   3.783   2.044  0.8154 -0.8926  0.4275
 6574SOL     OW31357   2.570   2.485   2.127  0.2013 -0.5468  0.7003
 6574SOL    HW131358   2.483   2.473   2.164 -0.4140  0.8398 -0.3235
 6574SOL    HW231359   2.609   2.400   2.150  0.5719 -0.5510  0.0579
 6575SOL     OW31360   2.767   2.126   7.679  0.1746  0.2586  0.1149
 6575SOL    HW131361   2.855   2.163   7.676  0.8677 -1.4033 -0.3364
 6575SOL    HW231362   2.742   2.101   7.590  4.9676  2.5936 -1.8765
 6576SOL     OW31363   1.363   0.509   2.771 -0.0484  0.2525  0.1741
 6576SOL    HW131364   1.315   0.458   2.836  0.1019  0.6460  0.5922
 6576SOL    HW231365   1.311   0.482   2.695  1.2114  1.2513 -1.0405
 6577SOL     OW31366   3.640   2.796  14.556  0.2158 -0.1193  0.3153
 6577SOL    HW131367   3.559   2.847  14.560  1.3035  1.7461 -1.4991
 6577SOL    HW231368   3.623   2.748  14.475 -2.2036  2.1075 -0.5101
 6578SOL     OW31369   2.636   3.884  11.379  0.1171  0.0746 -0.1373
 6578SOL    HW131370   2.555   3.930  11.358 -0.8514 -1.5012  0.1753
 6578SOL    HW231371   2.648   3.823  11.306  2.1756 -0.8232  0.9362
 6579SOL     OW31372   3.294   4.482   0.743  0.3101 -0.5534 -0.2965
 6579SOL    HW131373   3.281   4.536   0.665 -2.3275 -0.7368  0.0139
 6579SOL    HW231374   3.298   4.553   0.807  0.3929 -2.1046  1.4319
 6580SOL     OW31375   1.820   3.847   5.794  0.2516  0.5969 -0.2227
 6580SOL    HW131376   1.751   3.781   5.794  1.2160 -0.4181  1.2743
 6580SOL    HW231377   1.803   3.886   5.880 -0.7944 -0.1068 -0.1106
 6581SOL     OW31378   2.735   2.417  10.515  0.3287 -0.0338  0.0105
 6581SOL    HW131379   2.713   2.330  10.482  0.1505 -0.5907  1.6297
 6581SOL    HW231380   2.733   2.466  10.432  0.5226  0.0350  0.0459
 6582SOL     OW31381   0.481   0.127   3.131 -0.7415 -0.4360  0.2787
 6582SOL    HW131382   0.494   0.032   3.126 -1.8594 -0.6835  1.8900
 6582SOL    HW231383   0.493   0.151   3.040  1.3779  0.0006  0.6730
 6583SOL     OW31384   2.472   0.868   0.658 -0.1128  0.5911 -0.3123
 6583SOL    HW131385   2.439   0.781   0.637  0.0839  0.8473 -1.6462
 6583SOL    HW231386   2.531   0.850   0.732 -0.2100 -1.9545 -0.8395
 6584SOL     OW31387   2.872   3.586   2.844 -0.4951  0.4961  0.3864
 6584SOL    HW131388   2.819   3.516   2.804 -1.2646 -0.8377  3.7434
 6584SOL    HW231389   2.853   3.659   2.784 -0.4735  1.0952  1.1128
 6585SOL     OW31390   1.109   0.261   8.183  0.6491 -0.4241 -0.5840
 6585SOL    HW131391   1.017   0.282   8.198  0.2439 -0.9432 -2.3550
 6585SOL    HW231392   1.140   0.298   8.266  1.8755 -0.8305 -0.8516
 6586SOL     OW31393   1.993   0.434  14.516 -0.7370  0.0149 -0.2115
 6586SOL    HW131394   1.944   0.473  14.589  1.6969 -1.6568  2.2929
 6586SOL    HW231395   2.033   0.359  14.559  0.7150  0.1903 -1.2754
 6587SOL     OW31396   0.594   3.340   7.417 -0.4172  0.1408  0.2293
 6587SOL    HW131397   0.650   3.314   7.344  2.3916  1.1707  2.0197
 6587SOL    HW231398   0.653   3.376   7.482 -1.1048 -0.9026  1.4332
 6588SOL     OW31399   2.897   4.621   8.405 -0.5686  0.2924  0.1188
 6588SOL    HW131400   2.883   4.715   8.396 -1.4120  0.4480  3.2021
 6588SOL    HW231401   2.831   4.584   8.464 -0.4181  0.4185  0.3658
 6589SOL     OW31402   0.038   3.415   6.433  0.1364 -0.0589 -0.0677
 6589SOL    HW131403   4.697   3.373   6.463  0.1805  0.6620  1.0513
 6589SOL    HW231404   0.059   3.368   6.352  0.3067  0.4314 -0.3104
 6590SOL     OW31405   1.261   0.492   1.735 -0.2504  0.0221  0.2490
 6590SOL    HW131406   1.317   0.432   1.783 -0.3626 -2.7323 -3.1062
 6590SOL    HW231407   1.291   0.575   1.774 -1.0725  1.1173 -1.4481
 6591SOL     OW31408   1.502   3.536   8.137 -0.0946  0.1392 -0.2662
 6591SOL    HW131409   1.501   3.630   8.117  0.2532 -0.2380 -2.0134
 6591SOL    HW231410   1.594   3.517   8.119  0.0154  0.0230  0.4068
 6592SOL     OW31411   2.085   0.414   8.761 -0.0625 -0.1435 -0.1931
 6592SOL    HW131412   2.090   0.379   8.850  0.0630 -1.2600 -0.6350
 6592SOL    HW231413   2.046   0.500   8.773 -1.7476 -1.1764  1.8008
 6593SOL     OW31414   4.332   2.797  13.316  0.8079 -0.0107 -0.2579
 6593SOL    HW131415   4.246   2.760  13.294  0.4587 -0.0039  1.0466
 6593SOL    HW231416   4.382   2.745  13.255  1.4771  2.1588 -1.5702
 6594SOL     OW31417   4.708   0.295   6.836 -0.0043 -0.0230  0.1390
 6594SOL    HW131418   4.631   0.346   6.812 -1.1188 -1.2746  1.0392
 6594SOL    HW231419   4.670   0.211   6.861 -1.7892  0.4924 -0.9134
 6595SOL     OW31420   0.148   3.936   8.427  0.1147 -0.5795  0.1170
 6595SOL    HW131421   0.236   3.944   8.391 -1.0897  3.9455 -1.8542
 6595SOL    HW231422   0.170   3.988   8.504  2.1357 -1.1573 -0.0742
 6596SOL     OW31423   1.413   3.936   7.682  0.0930  0.6071 -0.4743
 6596SOL    HW131424   1.346   3.871   7.704  0.1961  0.8851  0.7074
 6596SOL    HW231425   1.451   3.887   7.610  0.6978  2.4094 -1.3877
 6597SOL     OW31426   0.643   1.809  10.996 -0.4603  0.0496  0.9320
 6597SOL    HW131427   0.570   1.753  10.969 -1.0484  1.1891  0.1333
 6597SOL    HW231428   0.598   1.893  11.005 -0.7929 -0.2135  1.7229
 6598SOL     OW31429   3.885   3.986   6.726 -0.2697 -0.3844 -0.3329
 6598SOL    HW131430   3.877   3.916   6.791  0.4460 -1.2388 -1.1615
 6598SOL    HW231431   3.885   4.066   6.778 -1.1260 -0.6791  0.1235
 6599SOL     OW31432   1.204   4.368   9.542  0.0213 -0.4192  0.5942
 6599SOL    HW131433   1.113   4.343   9.532  0.1030  0.0713 -1.4986
 6599SOL    HW231434   1.208   4.397   9.451 -1.3743 -1.3764  0.2352
 6600SOL     OW31435   2.361   3.526  10.465 -0.8531  0.1004 -0.2568
 6600SOL    HW131436   2.331   3.614  10.487  1.0460  1.0754 -1.7014
 6600SOL    HW231437   2.379   3.541  10.373  1.9448  1.1316  0.4709
 6601SOL     OW31438   4.122   0.862  13.618  0.9423  0.3091  0.3877
 6601SOL    HW131439   4.217   0.862  13.607  0.7038  1.4245 -1.6332
 6601SOL    HW231440   4.110   0.797  13.688 -0.4631 -1.9667 -1.9827
 6602SOL     OW31441   2.828   0.377   3.757  0.6232 -0.5263 -0.2562
 6602SOL    HW131442   2.800   0.315   3.690 -2.0944 -0.6303  0.9876
 6602SOL    HW231443   2.867   0.317   3.821  0.0645  0.8306  1.3507
 6603SOL     OW31444   1.268   4.543   4.177 -0.0182  0.2508 -0.6473
 6603SOL    HW131445   1.188   4.596   4.168 -0.5949 -0.9245 -2.4159
 6603SOL    HW231446   1.311   4.567   4.095  0.3485  0.8625 -0.2752
 6604SOL     OW31447   4.587   4.595   1.066  0.1630 -0.1878  0.1703
 6604SOL    HW131448   4.526   4.522   1.057  0.9578 -0.9522  0.8831
 6604SOL    HW231449   4.646   4.560   1.133 -0.1948  1.5866  1.3734
 6605SOL     OW31450   4.196   0.124  11.371 -0.0847 -0.4699  0.4701
 6605SOL    HW131451   4.116   0.136  11.320  0.2499  0.6577  0.2072
 6605SOL    HW231452   4.249   0.086  11.302 -2.6779 -0.6522 -1.4164
 6606SOL     OW31453   1.397   0.347   9.273 -0.5513 -0.3993 -0.0648
 6606SOL    HW131454   1.349   0.265   9.286 -0.3415 -0.4224  0.5755
 6606SOL    HW231455   1.353   0.374   9.193  1.1568  1.4786 -0.3791
 6607SOL     OW31456   1.486   1.642   2.440  0.0072 -0.1939  0.0910
 6607SOL    HW131457   1.525   1.688   2.365  1.8324 -1.1424  0.4418
 6607SOL    HW231458   1.396   1.619   2.418 -0.1610 -0.0554  0.6492
 6608SOL     OW31459   3.727   3.572  10.036  0.3489 -0.0207  0.4309
 6608SOL    HW131460   3.681   3.562   9.953  2.5282 -2.7498 -0.4407
 6608SOL    HW231461   3.682   3.507  10.089  1.2715 -0.7761  0.2926
 6609SOL     OW31462   3.457   4.177  11.438  0.2090 -0.0193  0.3885
 6609SOL    HW131463   3.506   4.118  11.380 -0.3098 -0.3984  0.3373
 6609SOL    HW231464   3.423   4.111  11.498  1.4025  0.3117  1.4199
 6610SOL     OW31465   2.130   3.026  11.718  0.3853  0.1363  0.1147
 6610SOL    HW131466   2.073   3.004  11.644  0.7147 -0.1780 -0.0463
 6610SOL    HW231467   2.100   3.115  11.732 -0.1434 -0.1490  0.7886
 6611SOL     OW31468   2.883   3.522   8.198  0.3679  0.2526  0.0330
 6611SOL    HW131469   2.814   3.491   8.139 -0.3930  0.9051  0.5715
 6611SOL    HW231470   2.865   3.483   8.284 -0.6218  2.0975  0.6707
 6612SOL     OW31471   2.278   3.689   5.737  0.0645 -0.1086  0.4376
 6612SOL    HW131472   2.184   3.672   5.743 -0.0524  0.6659  0.8584
 6612SOL    HW231473   2.295   3.694   5.644 -0.7671 -1.7452  0.1956
 6613SOL     OW31474   0.569   3.033   3.303  0.0844  0.6026  0.4468
 6613SOL    HW131475   0.513   2.975   3.253  1.8842 -0.0699 -0.7996
 6613SOL    HW231476   0.506   3.049   3.373  0.9667 -1.0435  1.6112
 6614SOL     OW31477   4.360   4.449   3.049 -0.3251 -0.3852 -0.4801
 6614SOL    HW131478   4.310   4.463   2.969 -1.2902  1.2936  0.4065
 6614SOL    HW231479   4.382   4.537   3.081 -2.9079  0.2628 -0.5166
 6615SOL     OW31480   2.414   1.140   8.724  0.7197 -0.4347 -0.7254
 6615SOL    HW131481   2.374   1.175   8.803 -1.3790 -2.4387 -0.9029
 6615SOL    HW231482   2.337   1.124   8.671  0.0134 -0.1483  0.2183
 6616SOL     OW31483   2.292   4.159   7.610  0.1764 -0.0119 -0.2931
 6616SOL    HW131484   2.381   4.190   7.594  0.6854 -1.6897 -0.7227
 6616SOL    HW231485   2.258   4.184   7.524 -0.8202 -0.5475 -0.0601
 6617SOL     OW31486   3.254   3.008   6.267 -0.0994  0.2971 -0.4159
 6617SOL    HW131487   3.187   2.998   6.199 -0.4850  1.5825 -0.2110
 6617SOL    HW231488   3.314   3.067   6.222 -0.1852 -0.2142 -1.2085
 6618SOL     OW31489   4.514   3.194   3.050 -0.4330 -0.0291  0.0312
 6618SOL    HW131490   4.490   3.121   3.106 -0.3925 -0.7811 -0.9299
 6618SOL    HW231491   4.431   3.239   3.037  0.5559  2.3751  2.1452
 6619SOL     OW31492   3.099   4.432   4.203  0.4410  0.0205 -0.9268
 6619SOL    HW131493   3.121   4.507   4.258 -1.0150 -0.6673  0.6060
 6619SOL    HW231494   3.027   4.470   4.153  1.7995  1.0716 -2.0594
 6620SOL     OW31495   0.813   2.744   7.465 -0.2604  0.3692  0.3702
 6620SOL    HW131496   0.753   2.701   7.404 -0.5555 -0.9404  1.5588
 6620SOL    HW231497   0.820   2.668   7.524 -2.3383  1.4189  1.9721
 6621SOL     OW31498   2.499   3.324   4.552  0.8351 -0.4324 -0.2876
 6621SOL    HW131499   2.450   3.304   4.631 -1.1580 -0.0172 -1.4092
 6621SOL    HW231500   2.456   3.404   4.521 -0.2327 -0.5072  0.9956
 6622SOL     OW31501   0.015   3.770   3.831 -0.0764 -0.1799  0.2863
 6622SOL    HW131502   4.712   3.818   3.902  0.5427  1.5361 -0.4934
 6622SOL    HW231503   0.098   3.817   3.832  0.0088 -0.3423  0.7926
 6623SOL     OW31504   1.530   3.612   9.808 -0.3343 -0.1620  0.1438
 6623SOL    HW131505   1.449   3.589   9.762  0.6454 -2.1853 -0.5760
 6623SOL    HW231506   1.600   3.591   9.746  0.8647  1.3699  0.9742
 6624SOL     OW31507   2.426   0.568   0.942  0.0480  0.0642 -0.0855
 6624SOL    HW131508   2.503   0.623   0.952 -0.3078  0.3402  1.1121
 6624SOL    HW231509   2.409   0.564   0.848  0.7950  1.0644 -0.2592
 6625SOL     OW31510   3.251   4.463   6.135 -0.2450  0.1093  0.4940
 6625SOL    HW131511   3.345   4.453   6.119 -0.3672  0.3636 -0.3821
 6625SOL    HW231512   3.240   4.374   6.168  1.5268 -0.6324 -0.9061
 6626SOL     OW31513   1.666   1.713   0.721 -0.3039 -0.0612 -0.1963
 6626SOL    HW131514   1.597   1.696   0.656  0.1258  0.4963 -0.7956
 6626SOL    HW231515   1.722   1.770   0.669 -0.7549  1.0805  0.5846
 6627SOL     OW31516   2.098   1.740   9.966 -0.2959  0.1292 -0.0226
 6627SOL    HW131517   2.051   1.659   9.946 -0.6217  0.2484  0.2715
 6627SOL    HW231518   2.142   1.760   9.883 -1.4786  3.3118  0.1190
 6628SOL     OW31519   4.258   0.897  10.485 -0.2940  0.4118 -0.3054
 6628SOL    HW131520   4.175   0.853  10.471 -0.3847  0.3109  0.5740
 6628SOL    HW231521   4.304   0.854  10.413 -2.1015 -2.2439  0.1521
 6629SOL     OW31522   4.174   2.292  15.162 -0.5070 -0.0910 -0.0455
 6629SOL    HW131523   4.150   2.361  15.225 -0.8732 -0.0263 -0.2570
 6629SOL    HW231524   4.113   2.221  15.181  0.0509 -0.3601  0.7549
 6630SOL     OW31525   3.664   3.879   1.577  0.2843 -0.2300  0.1548
 6630SOL    HW131526   3.727   3.944   1.547 -0.0210 -0.7944 -1.7162
 6630SOL    HW231527   3.712   3.839   1.649 -0.1083 -2.9446 -1.0840
 6631SOL     OW31528   3.793   3.587   4.027  0.0680  0.6370 -0.3344
 6631SOL    HW131529   3.740   3.648   4.078 -1.5344 -0.6224 -0.4924
 6631SOL    HW231530   3.841   3.533   4.089  0.4185  1.3326  0.0001
 6632SOL     OW31531   4.152   3.833   8.777  0.2994  0.3377  0.2447
 6632SOL    HW131532   4.162   3.738   8.788 -1.2071 -0.1014 -2.1132
 6632SOL    HW231533   4.062   3.833   8.743 -0.0139  2.2060  1.0716
 6633SOL     OW31534   3.477   3.848   7.269  0.0105 -0.1746 -0.4468
 6633SOL    HW131535   3.490   3.937   7.300  0.7897 -1.4875  3.0282
 6633SOL    HW231536   3.430   3.866   7.188 -0.9056  0.0032  0.1260
 6634SOL     OW31537   3.683   4.638   2.650 -0.0267  1.0431  0.1732
 6634SOL    HW131538   3.751   4.575   2.671 -0.3178  0.3208 -1.0152
 6634SOL    HW231539   3.609   4.578   2.642  0.9202  0.1037 -1.6430
 6635SOL     OW31540   4.030   0.252  11.011  0.6015 -0.3293  0.6637
 6635SOL    HW131541   4.103   0.269  11.071  1.1867  0.4447 -0.2703
 6635SOL    HW231542   3.976   0.194  11.065  2.0884 -0.8321  1.6196
 6636SOL     OW31543   2.291   3.316   8.534 -0.3852 -0.0512 -0.0324
 6636SOL    HW131544   2.296   3.222   8.550  1.1625  0.4567  2.5232
 6636SOL    HW231545   2.222   3.351   8.590  0.0074 -0.0177  0.4299
 6637SOL     OW31546   2.959   2.872   3.769 -0.2297  0.0297 -0.0219
 6637SOL    HW131547   2.974   2.806   3.837  0.9460  0.4065  0.0717
 6637SOL    HW231548   2.958   2.948   3.827  1.9608  1.1232 -1.4321
 6638SOL     OW31549   3.525   1.003   1.132  0.6014 -0.0136  0.1910
 6638SOL    HW131550   3.576   1.083   1.114  0.4370  0.5398  2.1426
 6638SOL    HW231551   3.591   0.953   1.180 -1.7664 -1.2375  2.1124
 6639SOL     OW31552   3.853   0.470   4.910 -0.8141 -0.1394 -0.5658
 6639SOL    HW131553   3.803   0.440   4.986 -1.2129  0.9988 -0.3763
 6639SOL    HW231554   3.939   0.435   4.930 -0.9631 -0.0358  0.2665
 6640SOL     OW31555   4.097   4.258  13.229  0.1586  0.3460  0.3930
 6640SOL    HW131556   4.114   4.187  13.291  0.5481  1.5177  1.6250
 6640SOL    HW231557   4.002   4.274  13.236 -0.2441 -1.4951 -0.8480
 6641SOL     OW31558   3.587   0.046   2.249  0.4439 -0.0579 -0.0003
 6641SOL    HW131559   3.510   4.737   2.221 -1.4414  1.3104  2.8115
 6641SOL    HW231560   3.639   4.712   2.283  0.7403  0.9253  1.7209
 6642SOL     OW31561   4.368   2.852   7.749  0.0998  0.0547  0.4006
 6642SOL    HW131562   4.460   2.860   7.724 -0.6704  1.7647 -1.8768
 6642SOL    HW231563   4.350   2.938   7.785  0.2636 -0.4053  1.5863
 6643SOL     OW31564   0.716   4.386   9.085  0.0778  0.4357 -0.1832
 6643SOL    HW131565   0.697   4.376   9.178 -2.3724  2.4121 -0.4727
 6643SOL    HW231566   0.759   4.471   9.090 -0.7179  0.5905  3.5683
 6644SOL     OW31567   3.410   2.712   5.590  0.6487  0.3218 -0.6640
 6644SOL    HW131568   3.427   2.803   5.612  0.8882  0.0524  0.2720
 6644SOL    HW231569   3.490   2.692   5.541  1.5454  1.6300  0.2700
 6645SOL     OW31570   3.478   2.188   6.480  0.1142  0.4793 -0.1049
 6645SOL    HW131571   3.428   2.106   6.476  1.0224 -0.1331  0.9216
 6645SOL    HW231572   3.560   2.152   6.515  0.6627  2.4531  0.5986
 6646SOL     OW31573   3.831   2.040   9.245 -0.3276 -0.0856 -0.3057
 6646SOL    HW131574   3.748   2.043   9.293 -0.5731  1.2629 -0.8140
 6646SOL    HW231575   3.804   2.085   9.165 -0.5583  0.0462 -0.1536
 6647SOL     OW31576   4.179   3.770   6.118  0.6696 -0.7259  0.2370
 6647SOL    HW131577   4.151   3.858   6.089  0.9873 -0.5965  0.3263
 6647SOL    HW231578   4.104   3.713   6.100  1.2456 -1.7528  1.1364
 6648SOL     OW31579   2.479   3.734   6.882 -0.3909  0.1296 -0.5494
 6648SOL    HW131580   2.452   3.806   6.939 -2.5291 -1.3452  0.3100
 6648SOL    HW231581   2.568   3.722   6.916  0.2303  2.3101 -1.4664
 6649SOL     OW31582   2.326   3.784  10.440 -0.0143 -0.5638 -0.1470
 6649SOL    HW131583   2.270   3.838  10.495  0.7084 -0.6386  0.6695
 6649SOL    HW231584   2.400   3.844  10.439 -0.7728  0.3689  1.0353
 6650SOL     OW31585   4.448   2.258   0.317  0.2684  0.5727 -0.1928
 6650SOL    HW131586   4.471   2.220   0.402  2.7837 -0.8146 -1.4838
 6650SOL    HW231587   4.385   2.324   0.345  0.3133  0.2948  0.5640
 6651SOL     OW31588   3.404   1.369   7.165 -0.3078 -0.2436  0.7009
 6651SOL    HW131589   3.379   1.324   7.245  3.0052 -1.0276  1.3064
 6651SOL    HW231590   3.486   1.401   7.202  0.4850  1.6026 -2.6659
 6652SOL     OW31591   3.779   3.392   2.435 -0.3247 -0.3078  0.3936
 6652SOL    HW131592   3.864   3.373   2.474 -0.4040  1.8877  1.6749
 6652SOL    HW231593   3.763   3.478   2.475 -0.3741  0.2798 -0.8652
 6653SOL     OW31594   3.109   3.826   7.686 -0.5906  0.2128 -0.2274
 6653SOL    HW131595   3.134   3.866   7.770 -0.0709 -1.2138  0.2955
 6653SOL    HW231596   3.183   3.767   7.673  0.0186  0.7725  0.6883
 6654SOL     OW31597   0.289   3.381  17.463 -0.0064 -0.3092 -0.0479
 6654SOL    HW131598   0.228   3.312  17.435  0.7925 -0.9068 -0.3120
 6654SOL    HW231599   0.252   3.404  17.548 -0.4454 -0.4732 -0.1933
 6655SOL     OW31600   2.575   1.487   4.513 -0.1736  0.2785 -0.1950
 6655SOL    HW131601   2.551   1.532   4.595  1.3775 -1.9122  1.4605
 6655SOL    HW231602   2.670   1.484   4.520 -0.2165  0.2548  0.4413
 6656SOL     OW31603   1.037   3.641  10.145  0.6233  0.6792 -0.3400
 6656SOL    HW131604   1.115   3.606  10.102 -0.2705 -1.3153 -0.3333
 6656SOL    HW231605   0.961   3.631  10.087  1.2053 -1.3559 -0.7643
 6657SOL     OW31606   1.996   3.498   4.451 -0.0242  0.1337  0.3367
 6657SOL    HW131607   1.938   3.441   4.501  1.2205 -2.0025 -0.6711
 6657SOL    HW231608   1.992   3.446   4.371  1.4760  1.3598 -0.5290
 6658SOL     OW31609   4.267   2.816  11.554 -0.2540  0.1209 -0.3029
 6658SOL    HW131610   4.274   2.721  11.566 -1.1439  0.2554  1.2036
 6658SOL    HW231611   4.351   2.844  11.590  0.7351 -0.8595 -1.8480
 6659SOL     OW31612   0.096   2.594   1.434  0.3178  0.0562  0.1306
 6659SOL    HW131613   0.055   2.664   1.484  0.1575 -1.6825  2.4213
 6659SOL    HW231614   0.187   2.601   1.465  0.6837 -2.5407 -0.3019
 6660SOL     OW31615   1.175   3.139   2.237  0.5443  0.2155 -0.0315
 6660SOL    HW131616   1.253   3.095   2.202  0.4344 -0.0541  0.0590
 6660SOL    HW231617   1.179   3.130   2.333  0.0301 -0.2090 -0.0493
 6661SOL     OW31618   2.530   1.361   3.441  0.3725  0.1930 -0.2464
 6661SOL    HW131619   2.610   1.399   3.477  1.4384 -0.0614 -2.3556
 6661SOL    HW231620   2.477   1.367   3.521  0.7803 -0.6706  0.0916
 6662SOL     OW31621   4.453   1.850   7.773 -0.2731 -0.0581 -0.4026
 6662SOL    HW131622   4.535   1.864   7.820 -0.2257 -0.1895 -0.4470
 6662SOL    HW231623   4.427   1.939   7.748  1.6120  1.0016  1.4965
 6663SOL     OW31624   3.508   0.607   5.980 -0.2637 -0.1143  0.3199
 6663SOL    HW131625   3.413   0.591   5.975 -0.5618  2.1515 -1.5811
 6663SOL    HW231626   3.507   0.609   6.075  2.2073 -0.3056  0.3429
 6664SOL     OW31627   2.376   0.502  13.399  0.2569  0.4708  0.7969
 6664SOL    HW131628   2.301   0.445  13.415  0.1361  0.4536  0.1649
 6664SOL    HW231629   2.444   0.478  13.462  1.1079  0.6946 -0.0368
 6665SOL     OW31630   2.811   3.518   3.495  0.1257  0.1221  0.2209
 6665SOL    HW131631   2.733   3.568   3.521  0.7338  0.1538  2.0008
 6665SOL    HW231632   2.885   3.568   3.528 -0.6332  0.9553  0.6696
 6666SOL     OW31633   0.842   1.098   8.200 -0.2781  0.0813  0.0433
 6666SOL    HW131634   0.856   1.042   8.276  0.1759 -1.4861 -1.1999
 6666SOL    HW231635   0.892   1.051   8.134 -0.5757  2.6611 -1.9994
 6667SOL     OW31636   2.784   0.987   0.860 -0.7335  0.2368  0.1048
 6667SOL    HW131637   2.852   1.009   0.924 -0.8716 -0.3137  0.4342
 6667SOL    HW231638   2.760   1.075   0.831  0.3482  0.8307  1.0158
 6668SOL     OW31639   4.643   0.293   9.391  0.4135  0.1364  0.0188
 6668SOL    HW131640   4.713   0.340   9.345 -0.0350  0.2658 -0.5402
 6668SOL    HW231641   4.675   0.297   9.481  2.2465 -1.6002 -0.5804
 6669SOL     OW31642   3.738   2.029   6.974  0.0896  0.2943 -0.3385
 6669SOL    HW131643   3.779   2.115   6.984  0.0868  0.0925  1.4066
 6669SOL    HW231644   3.659   2.034   7.028  2.6403 -0.4869  3.4474
 6670SOL     OW31645   4.040   2.118  11.320 -0.1534  0.6215 -0.0727
 6670SOL    HW131646   4.132   2.127  11.295 -0.3077  0.4354 -0.7125
 6670SOL    HW231647   3.999   2.170  11.251  2.7771  1.9199 -0.8589
 6671SOL     OW31648   1.197   1.672  10.510 -0.1893  0.1717 -0.1918
 6671SOL    HW131649   1.166   1.733  10.577 -1.2934 -0.6477  0.0450
 6671SOL    HW231650   1.260   1.616  10.557  0.4971 -0.4558 -1.8626
 6672SOL     OW31651   3.227   2.577   7.624  0.1945 -0.2340 -0.1230
 6672SOL    HW131652   3.307   2.525   7.635  0.0375 -0.3544  0.4412
 6672SOL    HW231653   3.166   2.519   7.669 -0.1964 -0.2758 -0.7070
 6673SOL     OW31654   2.227   2.851   2.785 -0.8736  0.3689  0.3716
 6673SOL    HW131655   2.145   2.831   2.831 -0.2061 -3.2280  0.0312
 6673SOL    HW231656   2.296   2.803   2.831 -1.2813  0.0763  0.6819
 6674SOL     OW31657   0.701   4.262  15.274  0.0433  0.1064 -0.0652
 6674SOL    HW131658   0.748   4.285  15.194  0.3008  0.5503  0.2171
 6674SOL    HW231659   0.736   4.325  15.336  0.3896 -0.5539  0.4161
 6675SOL     OW31660   4.561   1.755   8.337 -0.3724 -0.1006  0.5226
 6675SOL    HW131661   4.613   1.685   8.377 -0.4106 -0.9393 -0.8578
 6675SOL    HW231662   4.627   1.794   8.280 -0.9236  0.6196  0.3795
 6676SOL     OW31663   1.798   3.607  11.398 -0.2197 -0.0363 -0.1206
 6676SOL    HW131664   1.747   3.529  11.375  1.1527 -0.7816 -0.6497
 6676SOL    HW231665   1.729   3.673  11.394 -0.2854 -0.1936 -1.7258
 6677SOL     OW31666   4.549   2.490   4.515  0.4008  0.7761 -0.1748
 6677SOL    HW131667   4.643   2.508   4.518  0.0423  2.2337  1.9508
 6677SOL    HW231668   4.539   2.444   4.598 -0.6677 -2.5516 -2.1556
 6678SOL     OW31669   2.507   0.377  16.219 -0.0737 -0.0347 -0.6409
 6678SOL    HW131670   2.510   0.413  16.130 -1.5350 -1.5675 -1.2987
 6678SOL    HW231671   2.600   0.385  16.241 -0.9498  0.8860  2.7112
 6679SOL     OW31672   2.887   0.415   4.811 -0.2316  0.4423 -0.4327
 6679SOL    HW131673   2.879   0.441   4.719  0.2734 -0.8367 -0.8338
 6679SOL    HW231674   2.815   0.462   4.855 -0.1510 -1.0017  1.2290
 6680SOL     OW31675   4.042   2.296  10.090 -0.0419  0.0330  0.0635
 6680SOL    HW131676   3.988   2.374  10.100 -0.1268 -0.0263  0.0677
 6680SOL    HW231677   3.981   2.234  10.128  0.4379 -0.7996 -0.5095
 6681SOL     OW31678   0.230   1.011  15.514 -0.1003  0.1705  0.0737
 6681SOL    HW131679   0.235   0.944  15.581  2.8241 -1.6561 -1.9269
 6681SOL    HW231680   0.226   1.095  15.560  1.5770  0.3896 -0.1690
 6682SOL     OW31681   0.344   4.404   6.903  0.1805 -0.2556  0.2231
 6682SOL    HW131682   0.373   4.454   6.979 -0.0542  0.9382 -0.4909
 6682SOL    HW231683   0.308   4.333   6.957 -0.6695  0.7588  0.9977
 6683SOL     OW31684   1.793   2.532   8.252  0.0253 -0.0659 -0.2986
 6683SOL    HW131685   1.872   2.480   8.264 -0.2955 -0.1133  1.6597
 6683SOL    HW231686   1.842   2.614   8.241 -0.3694  0.3356  0.9299
 6684SOL     OW31687   1.219   1.636   7.347  0.5608 -0.1176 -0.3465
 6684SOL    HW131688   1.230   1.715   7.401  2.2499 -0.1784 -0.5994
 6684SOL    HW231689   1.126   1.623   7.363  0.3954  0.4052 -0.8782
 6685SOL     OW31690   0.822   3.719   6.393 -0.6039  0.4751 -0.3041
 6685SOL    HW131691   0.885   3.672   6.448 -0.4241  0.4765 -0.5070
 6685SOL    HW231692   0.774   3.784   6.443 -0.1150  1.1551 -0.7059
 6686SOL     OW31693   3.275   3.931   2.633 -0.4260 -0.0063 -0.3756
 6686SOL    HW131694   3.315   3.924   2.546  0.6348 -1.9222  0.2656
 6686SOL    HW231695   3.311   3.853   2.675 -0.0301  0.3678 -0.0154
 6687SOL     OW31696   1.457   3.094   8.181 -0.0826 -0.7419  0.0532
 6687SOL    HW131697   1.449   3.080   8.087 -0.4878 -0.9639  0.1235
 6687SOL    HW231698   1.520   3.025   8.206  0.7499  0.5223  1.4704
 6688SOL     OW31699   3.117   0.913   8.207  0.0919 -0.1025 -0.2459
 6688SOL    HW131700   3.193   0.917   8.148 -0.6238  1.2113 -1.0773
 6688SOL    HW231701   3.064   0.847   8.162  2.3592 -1.0100 -1.5910
 6689SOL     OW31702   0.431   1.952   4.627  0.5390  0.3492  0.6214
 6689SOL    HW131703   0.476   1.875   4.592 -1.6479 -1.0654  0.8847
 6689SOL    HW231704   0.449   2.012   4.555 -0.2089 -1.9555 -1.4847
 6690SOL     OW31705   3.722   3.320   2.943  0.0887  0.1175 -0.6175
 6690SOL    HW131706   3.723   3.236   2.897  0.9149  0.2398 -0.8176
 6690SOL    HW231707   3.778   3.379   2.892  1.1560 -0.4757 -0.1133
 6691SOL     OW31708   2.165   0.411   0.569  0.0112  0.4224  0.5778
 6691SOL    HW131709   2.116   0.344   0.521  1.0519 -0.4726  0.7535
 6691SOL    HW231710   2.206   0.354   0.635 -0.0805 -1.2935 -0.8436
 6692SOL     OW31711   0.558   1.390  15.575 -0.3274  0.0481 -0.2133
 6692SOL    HW131712   0.568   1.420  15.484  1.3413 -0.4588 -0.1982
 6692SOL    HW231713   0.515   1.304  15.568 -0.6372  0.3439 -2.2099
 6693SOL     OW31714   0.470   4.315  15.421  0.0844  1.1108  0.5692
 6693SOL    HW131715   0.439   4.387  15.366 -2.4625  0.7168  1.4794
 6693SOL    HW231716   0.512   4.269  15.348 -0.0986  2.9017 -0.6669
 6694SOL     OW31717   3.618   1.266   1.135  0.1997 -0.1892  0.2343
 6694SOL    HW131718   3.557   1.335   1.161 -0.6671 -2.0834  3.2084
 6694SOL    HW231719   3.681   1.309   1.077  1.0788 -0.4540  0.9712
 6695SOL     OW31720   1.875   3.978   7.577  0.0245 -0.5483  0.2533
 6695SOL    HW131721   1.824   4.057   7.560 -1.0371 -1.0602  1.1066
 6695SOL    HW231722   1.944   4.004   7.638  0.3838  0.7487 -0.7126
 6696SOL     OW31723   2.379   0.494   3.087 -0.9603  0.6212  0.1247
 6696SOL    HW131724   2.471   0.517   3.100 -0.6998  0.2686 -1.1293
 6696SOL    HW231725   2.359   0.543   3.008 -0.3149  0.4691 -0.1287
 6697SOL     OW31726   1.707   0.439   3.548 -0.2246 -0.5573  0.1690
 6697SOL    HW131727   1.750   0.523   3.536 -1.0720 -0.0213  0.9105
 6697SOL    HW231728   1.783   0.380   3.544  0.1258 -0.0815 -0.0837
 6698SOL     OW31729   4.331   1.584   5.040 -0.3857  0.7021 -0.4912
 6698SOL    HW131730   4.385   1.653   5.077 -0.1962 -0.8364  2.0703
 6698SOL    HW231731   4.330   1.524   5.115 -2.0124 -0.0172 -1.1024
 6699SOL     OW31732   1.656   1.103   3.076 -0.0899 -0.1907 -0.8211
 6699SOL    HW131733   1.671   1.089   3.169  0.5651 -0.2323 -0.9368
 6699SOL    HW231734   1.706   1.184   3.068  1.9865 -1.4851 -1.0091
 6700SOL     OW31735   3.932   3.680   6.035  0.5850 -0.3114  0.5865
 6700SOL    HW131736   3.900   3.654   5.948 -1.4117 -0.2891  1.3046
 6700SOL    HW231737   3.888   3.765   6.043  0.2355 -0.3660 -0.6729
 6701SOL     OW31738   3.896   4.301   6.389 -0.0981  0.1054  0.4436
 6701SOL    HW131739   3.908   4.210   6.415 -3.3600 -1.2216 -2.6987
 6701SOL    HW231740   3.802   4.307   6.375  0.1480  0.0914 -1.2475
 6702SOL     OW31741   2.118   1.124  17.411  0.6270  0.8037  1.2115
 6702SOL    HW131742   2.049   1.077  17.458 -0.5971  0.6273 -0.7686
 6702SOL    HW231743   2.173   1.055  17.374 -1.7001 -0.5074  0.2039
 6703SOL     OW31744   4.233   2.476   8.465 -0.0178 -0.1546 -0.2310
 6703SOL    HW131745   4.150   2.430   8.473 -0.2894  0.2908 -0.5237
 6703SOL    HW231746   4.196   2.559   8.437  2.2626  0.7360 -0.6165
 6704SOL     OW31747   2.143   1.539   2.641  0.3950 -0.5058 -0.0603
 6704SOL    HW131748   2.189   1.459   2.663 -1.1575 -0.7720  2.1702
 6704SOL    HW231749   2.150   1.594   2.719  2.7458 -1.1129  0.1368
 6705SOL     OW31750   2.402   4.605   9.907 -0.2269  0.3470 -0.2580
 6705SOL    HW131751   2.479   4.625   9.960  0.0013 -0.4485 -0.2809
 6705SOL    HW231752   2.369   4.542   9.971  0.2316 -0.9760 -1.3049
 6706SOL     OW31753   2.199   0.982   1.895 -0.0558  0.2199 -0.0390
 6706SOL    HW131754   2.202   1.008   1.803 -0.2227  0.6544  0.0786
 6706SOL    HW231755   2.104   0.990   1.905  0.1596  0.3670  1.9430
 6707SOL     OW31756   0.782   2.577   2.353  0.2119 -0.3873  0.8249
 6707SOL    HW131757   0.770   2.550   2.444  3.1054 -1.5763  0.8410
 6707SOL    HW231758   0.861   2.631   2.361  1.0225 -1.2378 -1.5200
 6708SOL     OW31759   0.775   2.198   6.802  0.2980  0.4854  0.2393
 6708SOL    HW131760   0.809   2.250   6.729  3.4252 -1.3994  0.3667
 6708SOL    HW231761   0.760   2.114   6.759 -1.0486  0.1300  1.4282
 6709SOL     OW31762   3.663   0.098   8.385  0.0032 -0.2314  0.2808
 6709SOL    HW131763   3.654   0.089   8.480 -1.7279  2.4615  0.3413
 6709SOL    HW231764   3.590   0.039   8.367  0.3890 -0.5682 -0.1700
 6710SOL     OW31765   1.091   1.354   0.687 -0.4912  0.0973  0.6805
 6710SOL    HW131766   1.164   1.380   0.744  1.3923  0.7690 -2.0656
 6710SOL    HW231767   1.017   1.356   0.748  0.0863  0.9305  1.3421
 6711SOL     OW31768   0.070   1.713  11.451 -0.0714  0.2183  0.2639
 6711SOL    HW131769   0.056   1.620  11.431 -1.0948  0.6258 -0.9513
 6711SOL    HW231770   0.023   1.758  11.381  1.0543 -1.1256 -1.3668
 6712SOL     OW31771   2.392   1.837   6.090  0.6734 -0.1553 -0.3187
 6712SOL    HW131772   2.322   1.824   6.153 -0.4932 -1.2869 -1.8500
 6712SOL    HW231773   2.407   1.755   6.043 -2.9052 -1.4691  0.8179
 6713SOL     OW31774   0.935   3.574   9.508  0.3320 -0.2633  0.1973
 6713SOL    HW131775   1.017   3.527   9.516  1.2836  0.9529 -2.2231
 6713SOL    HW231776   0.908   3.542   9.594 -0.9518  1.0307  0.2798
 6714SOL     OW31777   4.443   2.089  10.842 -0.6186 -0.4122 -0.2937
 6714SOL    HW131778   4.452   2.154  10.911 -1.2402 -1.5056  0.8171
 6714SOL    HW231779   4.351   2.068  10.852 -0.3522 -0.3910  2.2719
 6715SOL     OW31780   2.155   4.720   8.399 -0.5682 -0.2872 -0.6144
 6715SOL    HW131781   2.204   4.685   8.325  0.1957 -1.3237  0.3812
 6715SOL    HW231782   2.157   4.640   8.452 -1.7547 -0.7811 -1.3127
 6716SOL     OW31783   2.147   4.263  16.347 -0.2922  0.0894 -0.0000
 6716SOL    HW131784   2.099   4.196  16.298  1.4092 -1.1977  0.0932
 6716SOL    HW231785   2.082   4.330  16.367  0.5630  0.6713  0.8077
 6717SOL     OW31786   2.951   4.538   6.795 -0.4036  0.4844 -0.2631
 6717SOL    HW131787   2.969   4.475   6.725  1.6692  0.0621  0.6366
 6717SOL    HW231788   2.952   4.484   6.874 -1.1278  2.1957  0.9336
 6718SOL     OW31789   1.435   0.275   4.610  0.2330  0.3636  0.0845
 6718SOL    HW131790   1.354   0.254   4.656  0.3383 -1.5798 -0.6091
 6718SOL    HW231791   1.398   0.339   4.549  0.6292 -0.4987 -1.0510
 6719SOL     OW31792   1.320   1.894   4.508  0.0649  0.1318  0.1681
 6719SOL    HW131793   1.414   1.900   4.526  0.5882 -0.1054 -2.5541
 6719SOL    HW231794   1.300   1.805   4.536 -0.5496  0.5297  1.0107
 6720SOL     OW31795   2.051   1.478   9.837 -0.2465 -0.4441  0.9459
 6720SOL    HW131796   2.113   1.472   9.765 -1.4636  1.5980 -0.2880
 6720SOL    HW231797   2.091   1.419   9.900  0.0392  0.3682  1.5296
 6721SOL     OW31798   0.068   2.961  13.635  0.5031  0.0127  0.8761
 6721SOL    HW131799   0.100   2.890  13.579  1.3395 -0.5187  2.0309
 6721SOL    HW231800   4.729   2.928  13.679  1.1909 -0.6024  1.6372
 6722SOL     OW31801   0.264   3.937   7.207  0.6958  0.0090  0.0667
 6722SOL    HW131802   0.186   3.882   7.208  0.3579  0.5055  0.6680
 6722SOL    HW231803   0.239   3.994   7.280 -1.7143 -2.2273  0.9760
 6723SOL     OW31804   3.896   1.883   2.418  0.1835 -0.2877 -0.2466
 6723SOL    HW131805   3.813   1.890   2.371 -0.4291 -0.8697  0.7479
 6723SOL    HW231806   3.928   1.972   2.403  0.0400 -0.4648 -1.6535
 6724SOL     OW31807   2.719   2.764   4.078  0.5229 -0.1365  1.0038
 6724SOL    HW131808   2.679   2.701   4.139 -2.3513  1.2850  0.6032
 6724SOL    HW231809   2.721   2.842   4.134 -1.2140  0.7892 -0.2314
 6725SOL     OW31810   2.682   4.184   4.165  0.1368 -0.0016  0.1037
 6725SOL    HW131811   2.605   4.241   4.165  0.9047  1.0320 -0.1169
 6725SOL    HW231812   2.702   4.191   4.259  4.0595  1.0105 -0.8127
 6726SOL     OW31813   0.666   2.298   8.342 -0.5473  0.0220  0.7036
 6726SOL    HW131814   0.581   2.269   8.375 -0.7527 -0.8831 -0.6314
 6726SOL    HW231815   0.646   2.379   8.294 -0.1284  0.0157  0.5210
 6727SOL     OW31816   0.159   2.138  16.398 -0.3558  0.0371  0.5357
 6727SOL    HW131817   0.087   2.184  16.354  1.2412  1.1337 -0.9684
 6727SOL    HW231818   0.133   2.047  16.389  0.1258 -0.0466 -0.0474
 6728SOL     OW31819   4.503   0.274   5.667  0.7601  0.3676 -0.6878
 6728SOL    HW131820   4.420   0.303   5.630  0.0502  0.6190  1.0917
 6728SOL    HW231821   4.494   0.179   5.671 -1.5918  0.5498 -1.3856
 6729SOL     OW31822   1.176   3.970   0.996 -0.2480 -0.1028 -0.0245
 6729SOL    HW131823   1.262   3.994   0.960 -0.2261 -0.5322 -0.2607
 6729SOL    HW231824   1.140   4.056   1.015 -0.8192 -0.7241  1.6781
 6730SOL     OW31825   0.962   1.258   2.525 -0.1082  0.3052  0.1284
 6730SOL    HW131826   1.040   1.300   2.488 -0.4875 -0.1714 -1.1836
 6730SOL    HW231827   0.902   1.260   2.451  0.1295  1.2704 -0.0422
 6731SOL     OW31828   1.353   2.319   5.808 -0.4569  0.1745 -0.3272
 6731SOL    HW131829   1.388   2.408   5.802 -1.3608  0.5975  0.6304
 6731SOL    HW231830   1.419   2.268   5.761  0.2656  0.9790 -0.1779
 6732SOL     OW31831   1.378   4.617   7.415 -0.4301  0.0196  0.2011
 6732SOL    HW131832   1.365   4.583   7.504 -0.7424  1.4378  0.7052
 6732SOL    HW231833   1.426   4.540   7.384 -1.8803 -1.8001  2.5034
 6733SOL     OW31834   1.824   1.926   4.741  0.4411  0.2490  0.5303
 6733SOL    HW131835   1.809   1.853   4.681 -3.6773  0.5607  1.1649
 6733SOL    HW231836   1.826   1.887   4.829 -0.0201  0.8079  0.7898
 6734SOL     OW31837   3.643   0.388   8.329 -0.7001 -0.3507 -0.3083
 6734SOL    HW131838   3.654   0.441   8.407 -0.5946  0.9094 -1.1793
 6734SOL    HW231839   3.663   0.301   8.364  0.6372 -0.5491 -1.5497
 6735SOL     OW31840   3.797   0.422   8.104 -0.1687  0.1141  0.0025
 6735SOL    HW131841   3.727   0.412   8.167  0.7341  1.2193  1.1684
 6735SOL    HW231842   3.844   0.341   8.123  0.6957  0.3158 -1.2670
 6736SOL     OW31843   4.318   3.246   4.610  0.0580 -0.3368  0.3241
 6736SOL    HW131844   4.226   3.270   4.617 -0.2634 -1.8483  1.2456
 6736SOL    HW231845   4.310   3.175   4.546 -4.7340 -0.6046  1.2582
 6737SOL     OW31846   3.335   3.259   4.436  0.1137 -0.6558  0.3448
 6737SOL    HW131847   3.248   3.261   4.477  0.1203  0.9402  0.3112
 6737SOL    HW231848   3.315   3.209   4.357  1.7734 -1.5518  0.4899
 6738SOL     OW31849   1.919   1.621   5.720  0.0739 -0.3658 -0.6969
 6738SOL    HW131850   1.838   1.629   5.771 -0.8145  0.9383 -2.3291
 6738SOL    HW231851   1.878   1.638   5.635 -2.4529  2.8398  1.1276
 6739SOL     OW31852   0.112   0.016   4.037 -0.1119  0.4790 -0.0862
 6739SOL    HW131853   0.123   0.076   4.111  0.7671  0.4169 -0.1713
 6739SOL    HW231854   0.028   4.720   4.067 -0.8952  2.5441  0.1732
 6740SOL     OW31855   3.344   3.051   2.371  0.2122 -0.2573 -0.4635
 6740SOL    HW131856   3.295   3.107   2.432  0.0776  0.3151 -1.0916
 6740SOL    HW231857   3.305   2.969   2.401  1.4268 -0.6513  0.0411
 6741SOL     OW31858   4.153   3.395   6.000 -0.3500 -0.2985 -0.6781
 6741SOL    HW131859   4.194   3.473   5.963 -2.0528  0.9572  0.0875
 6741SOL    HW231860   4.103   3.370   5.922 -1.5692  0.6910 -0.2056
 6742SOL     OW31861   0.907   0.535  12.547 -0.6858  0.5226 -0.0557
 6742SOL    HW131862   0.832   0.503  12.497  0.7877 -1.2556 -1.1412
 6742SOL    HW231863   0.971   0.536  12.476  2.3932 -0.9415  2.7157
 6743SOL     OW31864   3.187   2.068   4.054 -0.2625 -0.2275 -0.2819
 6743SOL    HW131865   3.181   2.121   4.134  0.7259  0.2788 -0.5571
 6743SOL    HW231866   3.135   1.992   4.082 -1.4265 -0.0415 -1.9411
 6744SOL     OW31867   0.087   2.673   9.272  0.0522  0.1391 -0.3743
 6744SOL    HW131868   0.052   2.593   9.310  0.1744  1.4045  2.4119
 6744SOL    HW231869   0.138   2.626   9.206  1.2785  0.5467  0.2764
 6745SOL     OW31870   0.877   1.630   8.999 -0.2241  0.0899  0.5340
 6745SOL    HW131871   0.800   1.685   9.012 -0.0497  0.6822 -0.8381
 6745SOL    HW231872   0.829   1.557   8.960 -0.9785  0.8428  0.0596
 6746SOL     OW31873   1.676   3.889  12.212 -0.4549 -0.3002  0.1729
 6746SOL    HW131874   1.741   3.945  12.254  0.1439 -0.8179 -0.0658
 6746SOL    HW231875   1.687   3.919  12.122 -0.7395 -2.1145 -0.4712
 6747SOL     OW31876   1.809   2.909  15.088  0.3894 -0.5219  0.1975
 6747SOL    HW131877   1.780   2.922  14.998 -1.5459  1.5461  1.1273
 6747SOL    HW231878   1.728   2.893  15.137 -1.1900 -0.4978 -2.4238
 6748SOL     OW31879   0.846   0.910  14.042 -0.0960  0.6144 -0.4678
 6748SOL    HW131880   0.894   0.969  13.983  0.3865  1.2745  0.5963
 6748SOL    HW231881   0.768   0.892  13.988  0.8625  1.4829 -2.1428
 6749SOL     OW31882   0.200   0.091  11.353 -0.1259 -0.3137  0.9251
 6749SOL    HW131883   0.286   0.127  11.376 -0.3505 -0.2040  1.5888
 6749SOL    HW231884   0.213   0.046  11.270 -1.8143  0.3432  0.2980
 6750SOL     OW31885   0.818   2.911   9.096  0.3817 -0.4553  0.2094
 6750SOL    HW131886   0.774   2.961   9.164 -0.5938  0.8794 -1.4132
 6750SOL    HW231887   0.815   2.825   9.139  0.7853 -1.6491 -2.1308
 6751SOL     OW31888   3.095   2.104   7.712 -0.2056  0.5310 -0.5908
 6751SOL    HW131889   3.164   2.061   7.763  0.4081  1.4107 -0.6879
 6751SOL    HW231890   3.099   2.044   7.638 -0.3287  0.0299 -0.1937
 6752SOL     OW31891   2.138   0.583   1.001 -0.5523  0.6716 -0.1590
 6752SOL    HW131892   2.231   0.595   0.979 -0.3429  0.2718  0.4984
 6752SOL    HW231893   2.110   0.552   0.914  1.1605  2.2913 -1.2852
 6753SOL     OW31894   0.963   3.265   8.384  0.7411 -0.2740  0.0239
 6753SOL    HW131895   0.992   3.204   8.453  1.6799  0.6890  0.4740
 6753SOL    HW231896   0.892   3.216   8.343  1.8964 -2.4984  0.6700
 6754SOL     OW31897   3.741   3.196  15.186  0.0884 -0.3467 -0.2131
 6754SOL    HW131898   3.729   3.260  15.256 -0.3255 -1.5018  0.7773
 6754SOL    HW231899   3.678   3.212  15.115 -1.3851 -0.7972  0.9867
 6755SOL     OW31900   1.884   2.243  11.321 -0.2440  0.1085  0.8880
 6755SOL    HW131901   1.822   2.191  11.373  1.2041 -1.4467  1.0814
 6755SOL    HW231902   1.941   2.284  11.385 -0.3630 -0.4277  1.3418
 6756SOL     OW31903   0.366   1.806  11.759 -0.2351 -0.3935 -0.4497
 6756SOL    HW131904   0.429   1.860  11.712 -0.1462  1.2403  1.5466
 6756SOL    HW231905   0.417   1.774  11.834  0.7956  0.0366 -0.9724
 6757SOL     OW31906   1.671   3.603   8.658 -0.5371 -0.1291  0.0297
 6757SOL    HW131907   1.615   3.590   8.581 -0.6286 -1.3571  0.2996
 6757SOL    HW231908   1.708   3.689   8.637  1.6750 -0.8193  1.0496
 6758SOL     OW31909   2.794   1.987  13.475 -0.1342 -0.2910  0.3927
 6758SOL    HW131910   2.877   1.942  13.489 -0.3053 -0.5818  0.4693
 6758SOL    HW231911   2.757   1.989  13.563  1.0916 -1.7520  0.9365
 6759SOL     OW31912   0.339   1.944   1.511  0.2161 -0.0526 -0.0348
 6759SOL    HW131913   0.258   1.933   1.561 -0.8114 -0.6497 -1.8284
 6759SOL    HW231914   0.320   1.927   1.419 -0.3215 -1.1941  0.2858
 6760SOL     OW31915   3.741   0.444  17.435 -0.0755  1.1983 -0.1116
 6760SOL    HW131916   3.701   0.359  17.449 -0.2254  1.0612 -1.3997
 6760SOL    HW231917   3.810   0.450  17.502 -1.0323  1.5871  0.8419
 6761SOL     OW31918   3.483   1.694  10.039  0.1471  0.2100 -0.1959
 6761SOL    HW131919   3.483   1.780  10.080  1.2047  1.7600 -3.4520
 6761SOL    HW231920   3.510   1.643  10.115 -0.1162  1.0796  0.4782
 6762SOL     OW31921   4.413   3.921  17.247  0.6532 -0.8747 -0.5204
 6762SOL    HW131922   4.352   3.964  17.307  2.8439 -0.4656  1.4054
 6762SOL    HW231923   4.366   3.843  17.217  0.0017 -0.8951  0.5737
 6763SOL     OW31924   3.421   0.628   7.373 -0.6363  0.7973 -0.3127
 6763SOL    HW131925   3.513   0.654   7.374  0.0200 -1.4962 -1.8205
 6763SOL    HW231926   3.413   0.599   7.282 -2.0064  0.9463 -0.2419
 6764SOL     OW31927   2.188   4.496   6.712 -0.0462  0.2696  0.2525
 6764SOL    HW131928   2.200   4.407   6.745 -3.6880  0.9253  3.3676
 6764SOL    HW231929   2.094   4.507   6.727  0.2173  0.8119  1.5281
 6765SOL     OW31930   3.858   3.655   0.702 -0.2164  1.0122  0.0395
 6765SOL    HW131931   3.777   3.605   0.710 -0.7964  1.7831 -1.0908
 6765SOL    HW231932   3.907   3.621   0.627  1.3098 -0.9646  1.9233
 6766SOL     OW31933   1.241   1.349   6.763 -0.3857  0.2607 -0.7098
 6766SOL    HW131934   1.217   1.288   6.693 -0.7261 -1.5069  0.9201
 6766SOL    HW231935   1.267   1.428   6.715  1.8919 -0.8472 -1.3554
 6767SOL     OW31936   3.539   3.196   9.213  0.0062  0.0603  0.0997
 6767SOL    HW131937   3.569   3.261   9.276  1.9634  1.9598 -2.8148
 6767SOL    HW231938   3.591   3.120   9.239  1.3434 -0.4577 -4.0861
 6768SOL     OW31939   2.298   4.469   1.674  0.0767  0.3330 -0.0807
 6768SOL    HW131940   2.378   4.488   1.626  0.0874  0.5628  0.0243
 6768SOL    HW231941   2.221   4.483   1.619  1.1519  0.2542 -1.5912
 6769SOL     OW31942   1.644   2.412  13.426 -0.2205 -0.0272 -0.3338
 6769SOL    HW131943   1.615   2.457  13.506 -2.9375 -1.2736 -0.6298
 6769SOL    HW231944   1.739   2.422  13.433 -0.0392 -0.6790 -2.0109
 6770SOL     OW31945   0.559   1.704  15.262  0.0779  0.0413  0.3969
 6770SOL    HW131946   0.631   1.660  15.309  0.4414  0.4232  0.1973
 6770SOL    HW231947   0.596   1.707  15.174  0.5917  0.8841  0.6394
 6771SOL     OW31948   2.864   2.520   9.326  0.0742 -0.4522  0.1867
 6771SOL    HW131949   2.851   2.439   9.276 -1.8042 -1.2722  1.9733
 6771SOL    HW231950   2.928   2.500   9.394  0.4613  0.4589  0.0760
 6772SOL     OW31951   2.967   0.308   9.115 -0.6799  0.0724  1.1820
 6772SOL    HW131952   2.965   0.216   9.091 -0.5815  0.2912  0.3520
 6772SOL    HW231953   2.926   0.348   9.039 -0.7266 -1.7841  0.2343
 6773SOL     OW31954   2.706   2.243   2.269 -0.2705 -0.1055  0.3988
 6773SOL    HW131955   2.652   2.164   2.262  1.1100 -1.0676  0.5570
 6773SOL    HW231956   2.666   2.300   2.335  2.2060  1.4674  0.5241
 6774SOL     OW31957   2.377   4.066   2.893 -0.2849  0.0374 -0.1366
 6774SOL    HW131958   2.412   4.006   2.827 -2.8861  0.5941 -2.0058
 6774SOL    HW231959   2.315   4.114   2.838  0.4778 -0.7079 -1.6653
 6775SOL     OW31960   3.413   2.193  10.445  0.3244  0.1253 -0.0173
 6775SOL    HW131961   3.472   2.123  10.416  2.4110  1.1921  1.6426
 6775SOL    HW231962   3.334   2.144  10.466  0.0806  1.0126  1.1036
 6776SOL     OW31963   4.692   1.560   5.419 -0.0882  0.7410  0.6728
 6776SOL    HW131964   4.701   1.479   5.368  0.1707  0.7188  0.7562
 6776SOL    HW231965   4.659   1.527   5.503 -3.3269  2.4048  0.0723
 6777SOL     OW31966   3.710   1.064  14.312 -0.2809  0.0276  0.6512
 6777SOL    HW131967   3.722   1.079  14.405 -1.6380  2.2182  0.4753
 6777SOL    HW231968   3.801   1.039  14.293 -1.5216 -1.4368 -3.3687
 6778SOL     OW31969   0.285   3.621  12.368 -0.1631 -0.1234  0.6242
 6778SOL    HW131970   0.190   3.629  12.372 -0.0023  2.0032  0.3146
 6778SOL    HW231971   0.305   3.528  12.354 -0.1896 -0.1089  0.4875
 6779SOL     OW31972   1.276   1.027   1.245  0.2883  0.4023 -0.5635
 6779SOL    HW131973   1.364   0.996   1.223 -0.8528 -1.8403 -1.9324
 6779SOL    HW231974   1.260   1.100   1.185  0.4947 -0.7346 -1.9982
 6780SOL     OW31975   0.750   2.382   6.471  0.2538 -0.4680  0.1199
 6780SOL    HW131976   0.730   2.300   6.426 -2.6469 -0.7214  1.9176
 6780SOL    HW231977   0.669   2.394   6.520  0.5544 -1.0197  0.7664
 6781SOL     OW31978   4.382   1.520   8.340 -0.1781 -0.2078  0.2759
 6781SOL    HW131979   4.419   1.607   8.356  0.7535  0.0341 -3.0961
 6781SOL    HW231980   4.425   1.490   8.259  0.7507  0.2744  0.5959
 6782SOL     OW31981   3.063   4.192   8.297  0.4367  0.5369  0.2841
 6782SOL    HW131982   3.077   4.285   8.312 -2.5244  1.0443 -0.1361
 6782SOL    HW231983   3.009   4.181   8.375  0.1126 -0.4739 -0.0710
 6783SOL     OW31984   4.712   2.283   7.235 -0.2188 -0.3143  0.0211
 6783SOL    HW131985   0.039   2.215   7.245  0.4172  0.1619 -0.8861
 6783SOL    HW231986   4.641   2.229   7.202  0.3252 -0.7310 -0.4869
 6784SOL     OW31987   0.544   1.148   2.369  0.5850  0.4091 -0.3197
 6784SOL    HW131988   0.533   1.098   2.287  0.5225  0.1154 -0.1324
 6784SOL    HW231989   0.457   1.186   2.378  0.2850 -0.7655  1.6891
 6785SOL     OW31990   2.803   4.062   3.937  0.0137 -0.0530 -0.0914
 6785SOL    HW131991   2.746   4.107   3.998 -0.7187  0.5384 -1.2114
 6785SOL    HW231992   2.865   4.135   3.930  1.0230 -0.8486  0.6021
 6786SOL     OW31993   1.512   2.059   0.154  0.1465  0.1652 -0.1559
 6786SOL    HW131994   1.559   1.989   0.198 -0.5788 -0.5795 -0.5604
 6786SOL    HW231995   1.578   2.128   0.159  0.4306 -0.0942 -0.3856
 6787SOL     OW31996   2.094   3.162   6.399  0.3771 -0.5018 -0.0112
 6787SOL    HW131997   2.163   3.119   6.348 -0.9982  0.4834 -2.6916
 6787SOL    HW231998   2.096   3.248   6.357  2.6964 -0.6212 -0.1303
 6788SOL     OW31999   3.848   2.084   2.026  0.3220 -0.0765  0.3188
 6788SOL    HW132000   3.898   2.005   2.007  0.3019  0.1521 -0.7163
 6788SOL    HW232001   3.762   2.041   2.025  0.2317  0.1292 -0.6969
 6789SOL     OW32002   2.917   3.990   9.864 -0.0830  0.3893 -0.4128
 6789SOL    HW132003   2.927   3.925   9.794 -1.8687 -1.3760  0.9773
 6789SOL    HW232004   2.967   4.066   9.834  1.2945 -0.6524 -0.7732
 6790SOL     OW32005   4.220   0.935   3.954  0.8006 -0.0321  0.1948
 6790SOL    HW132006   4.155   0.888   4.008 -2.0100  2.7029 -0.8020
 6790SOL    HW232007   4.198   0.897   3.869 -1.7828  0.5894  0.5776
 6791SOL     OW32008   4.132   4.569   5.125 -0.2622 -0.0945  0.4691
 6791SOL    HW132009   4.049   4.540   5.085 -1.0657 -1.2402  2.9683
 6791SOL    HW232010   4.177   4.485   5.118 -1.8222 -1.0022  1.3087
 6792SOL     OW32011   0.832   1.558   1.762 -0.1226 -0.2585 -0.0805
 6792SOL    HW132012   0.738   1.573   1.773 -0.4108 -2.1548 -0.0360
 6792SOL    HW232013   0.847   1.524   1.674  0.7394  0.7649 -0.3427
 6793SOL     OW32014   1.404   3.350   4.616 -0.6617  0.2304 -0.1791
 6793SOL    HW132015   1.402   3.309   4.530 -2.6739 -2.4919  1.1466
 6793SOL    HW232016   1.311   3.363   4.638 -0.7598  2.6241 -2.0605
 6794SOL     OW32017   1.367   0.865   1.857 -0.1286  0.3656  0.6960
 6794SOL    HW132018   1.419   0.919   1.798  0.4625  0.0789  0.9473
 6794SOL    HW232019   1.289   0.857   1.802  1.5290  0.7903 -1.6926
 6795SOL     OW32020   1.578   3.622  11.757 -0.3004  0.0945  0.4317
 6795SOL    HW132021   1.549   3.704  11.797 -0.9989  0.2241 -0.3418
 6795SOL    HW232022   1.509   3.596  11.696  0.8896 -0.9898 -0.4480
 6796SOL     OW32023   3.834   2.754   0.684  0.1731 -0.2533 -0.0105
 6796SOL    HW132024   3.912   2.716   0.724 -0.3199  0.0014  1.1893
 6796SOL    HW232025   3.800   2.809   0.755 -1.1544  0.0864 -0.9071
 6797SOL     OW32026   3.139   1.725   3.748  0.1253  0.6086  0.0222
 6797SOL    HW132027   3.196   1.787   3.702 -0.5240  0.4804 -0.9347
 6797SOL    HW232028   3.183   1.736   3.833  0.7251  1.4435 -0.4060
 6798SOL     OW32029   1.548   3.631   6.002  0.6154  0.2114 -0.8659
 6798SOL    HW132030   1.540   3.536   6.005 -2.6299  0.4705 -1.1968
 6798SOL    HW232031   1.538   3.658   5.911 -2.0467  0.2040 -0.5951
 6799SOL     OW32032   4.483   3.728   2.460 -0.1316 -0.2555 -0.3840
 6799SOL    HW132033   4.575   3.722   2.486 -0.0979  2.7670  0.2401
 6799SOL    HW232034   4.498   3.722   2.365  3.3213 -0.0421  0.1538
 6800SOL     OW32035   1.372   1.525   4.759 -0.0532  0.5090  0.2076
 6800SOL    HW132036   1.336   1.493   4.676  0.2026 -1.2569  0.7702
 6800SOL    HW232037   1.298   1.531   4.819  0.1692  0.0344  0.5349
 6801SOL     OW32038   3.199   3.282   5.215 -0.3022 -0.0906 -0.7334
 6801SOL    HW132039   3.238   3.246   5.294  0.2164  0.0813 -0.9092
 6801SOL    HW232040   3.270   3.337   5.182  0.0952  0.5723  1.2162
 6802SOL     OW32041   3.856   1.762   3.078 -0.2655  0.3560 -0.1268
 6802SOL    HW132042   3.831   1.811   3.000  1.7178  2.1136  0.3272
 6802SOL    HW232043   3.857   1.835   3.141  0.7110 -0.4599  0.8264
 6803SOL     OW32044   1.114   1.632   1.764  0.0287  0.2027 -0.4805
 6803SOL    HW132045   1.168   1.565   1.722 -1.5215 -1.4603  0.1346
 6803SOL    HW232046   1.025   1.611   1.734 -1.5553  1.4451  3.4178
 6804SOL     OW32047   3.797   2.400   6.455  0.0754 -0.0429  0.0732
 6804SOL    HW132048   3.752   2.385   6.538  0.9614  1.0070  0.7370
 6804SOL    HW232049   3.792   2.495   6.448  0.9009  0.0274  0.3929
 6805SOL     OW32050   4.578   0.030   9.303 -0.5061  0.7873  0.3540
 6805SOL    HW132051   4.497   0.055   9.258 -1.6835  1.0588  2.6173
 6805SOL    HW232052   4.612   0.118   9.324 -0.0282  0.4845  0.8483
 6806SOL     OW32053   4.268   2.426  17.726 -0.2513  0.0475  0.0230
 6806SOL    HW132054   4.332   2.409  17.657 -0.5931 -1.2035  0.0116
 6806SOL    HW232055   4.254   2.342   0.015 -0.1734  1.5136  2.7961
 6807SOL     OW32056   0.558   4.122  12.647  0.5624  0.2163 -0.1229
 6807SOL    HW132057   0.576   4.142  12.739 -1.5969 -1.3420  0.6442
 6807SOL    HW232058   0.610   4.042  12.637 -0.5155 -0.3025 -1.5341
 6808SOL     OW32059   4.722   0.497   6.025  0.0998  0.5275 -0.5421
 6808SOL    HW132060   4.733   0.552   6.103 -1.2802  0.6117 -0.4137
 6808SOL    HW232061   4.640   0.449   6.038  1.7446 -1.1627  3.5154
 6809SOL     OW32062   4.198   4.386   4.418 -0.4947  0.2205 -0.0838
 6809SOL    HW132063   4.128   4.343   4.368  0.4866 -0.1816 -1.1167
 6809SOL    HW232064   4.205   4.326   4.493  1.3431 -1.2641 -1.4298
 6810SOL     OW32065   3.986   3.439   9.076  0.0796  0.2571 -0.1477
 6810SOL    HW132066   3.982   3.450   8.981 -0.6006 -0.2177 -0.1709
 6810SOL    HW232067   4.025   3.520   9.107 -0.4946  0.0300  1.1673
 6811SOL     OW32068   4.412   1.197  14.244  0.3860 -0.3913 -0.3087
 6811SOL    HW132069   4.500   1.159  14.255  0.6496  0.1244 -0.6659
 6811SOL    HW232070   4.418   1.229  14.154 -1.3981 -0.5926 -0.4953
 6812SOL     OW32071   0.919   1.060  13.776  0.2631  0.5931  0.4238
 6812SOL    HW132072   0.898   0.988  13.716  0.1708  0.4581  0.6162
 6812SOL    HW232073   0.836   1.107  13.775  1.2451  2.3284  0.3944
 6813SOL     OW32074   4.370   0.185   2.663  0.4291  0.2295  0.1921
 6813SOL    HW132075   4.359   0.237   2.583  1.2547 -1.5172 -1.0534
 6813SOL    HW232076   4.417   0.108   2.634  2.0489  1.3205 -0.0874
 6814SOL     OW32077   0.072   2.625   6.061  0.2770 -0.1097  0.5686
 6814SOL    HW132078   0.099   2.643   6.151  1.6030 -1.5745  0.4557
 6814SOL    HW232079   0.158   2.592   6.038  0.6370  0.3510  1.2737
 6815SOL     OW32080   4.679   2.895   4.113 -0.3723  0.2363  0.1992
 6815SOL    HW132081   4.679   2.810   4.069  0.3107  2.7138 -4.6060
 6815SOL    HW232082   4.590   2.906   4.147 -0.0722  1.2137  0.6662
 6816SOL     OW32083   3.154   0.866   3.355 -0.0708 -0.5248  0.7915
 6816SOL    HW132084   3.241   0.907   3.349 -0.0633 -0.6365  0.1496
 6816SOL    HW232085   3.139   0.850   3.448 -0.9229  0.8016  0.8759
 6817SOL     OW32086   4.031   0.829   4.127 -0.2688 -0.2995 -0.7556
 6817SOL    HW132087   4.080   0.798   4.204  0.4256  1.7744 -0.3662
 6817SOL    HW232088   3.961   0.767   4.145 -0.0295 -0.5444 -0.6655
 6818SOL     OW32089   4.178   0.015  13.652 -0.2846  0.2030  0.3188
 6818SOL    HW132090   4.227   4.684  13.611 -0.3312  0.5762 -0.3905
 6818SOL    HW232091   4.227   0.014  13.734  0.0291  0.1080  0.1309
 6819SOL     OW32092   3.364   1.125  17.416 -0.7377 -0.4366 -0.2595
 6819SOL    HW132093   3.456   1.148  17.429 -0.9884  1.5827 -2.0111
 6819SOL    HW232094   3.348   1.058  17.482  1.9151 -1.3901 -0.6016
 6820SOL     OW32095   1.403   0.764   4.464 -0.9763  0.8484 -0.7574
 6820SOL    HW132096   1.442   0.759   4.376  1.1695  0.1975  0.2282
 6820SOL    HW232097   1.393   0.859   4.462  1.0190  1.0732 -0.0942
 6821SOL     OW32098   3.115   1.787   1.663 -0.2474 -0.0872  0.2815
 6821SOL    HW132099   3.046   1.724   1.682  0.4843 -0.4722  1.6610
 6821SOL    HW232100   3.058   1.863   1.672  1.1973  1.3644 -2.6859
 6822SOL     OW32101   0.845   3.793  13.802 -0.3046  0.1978  0.1344
 6822SOL    HW132102   0.930   3.778  13.844  0.1959  0.3906 -0.7871
 6822SOL    HW232103   0.822   3.875  13.847 -2.3560 -0.7372  0.7424
 6823SOL     OW32104   0.906   4.550   4.988 -0.2588 -0.4082  0.5768
 6823SOL    HW132105   0.847   4.624   4.977  1.5899  0.8522 -0.9076
 6823SOL    HW232106   0.882   4.510   4.904  1.6749 -0.3421 -0.0241
 6824SOL     OW32107   1.663   2.787   8.529  0.2294 -0.6034 -0.3513
 6824SOL    HW132108   1.692   2.841   8.455 -0.7041  0.7005  0.2239
 6824SOL    HW232109   1.746   2.743   8.548  0.8761  0.8731  0.3100
 6825SOL     OW32110   0.773   1.427   1.507 -0.4260 -0.0329 -0.2950
 6825SOL    HW132111   0.699   1.427   1.446 -1.7438 -3.0490  1.3013
 6825SOL    HW232112   0.817   1.347   1.477  1.5590  0.3772  1.5571
 6826SOL     OW32113   4.547   1.774  15.448 -0.0948  0.8030  0.0060
 6826SOL    HW132114   4.621   1.745  15.394  0.6760  0.3624  1.2875
 6826SOL    HW232115   4.570   1.857  15.490  1.3872  1.2357 -1.6737
 6827SOL     OW32116   0.475   4.386   4.241  0.0664 -0.4424  0.6473
 6827SOL    HW132117   0.566   4.391   4.269  0.5984 -1.6582 -0.8965
 6827SOL    HW232118   0.445   4.476   4.228 -2.9688 -1.5893 -0.2312
 6828SOL     OW32119   1.784   2.304  12.296 -0.4368 -0.6015  0.5569
 6828SOL    HW132120   1.706   2.321  12.350  0.9941  0.8688  2.1926
 6828SOL    HW232121   1.855   2.346  12.345 -0.5351 -1.0961  1.1308
 6829SOL     OW32122   2.934   4.306  13.181 -0.1268 -0.7378 -0.1356
 6829SOL    HW132123   2.947   4.254  13.102 -0.9012 -0.8304 -0.1984
 6829SOL    HW232124   3.027   4.309  13.204 -0.0192  4.3101 -1.2512
 6830SOL     OW32125   1.018   3.682  16.751 -0.0342 -0.1837  0.0693
 6830SOL    HW132126   1.011   3.644  16.838 -3.4283  1.6427  0.5707
 6830SOL    HW232127   1.111   3.678  16.725  0.0687 -1.7986  0.6764
 6831SOL     OW32128   2.252   2.544   4.662 -0.2532  0.0580 -0.4790
 6831SOL    HW132129   2.256   2.495   4.580 -2.8341 -1.4529  0.2976
 6831SOL    HW232130   2.171   2.508   4.699  0.0561 -0.6786 -0.5214
 6832SOL     OW32131   1.091   1.837   0.027 -0.1628 -0.4887 -0.2989
 6832SOL    HW132132   1.023   1.892  17.744  0.0533  1.1816  1.6908
 6832SOL    HW232133   1.131   1.904   0.082 -0.0766 -0.2590 -0.6410
 6833SOL     OW32134   1.231   1.945   6.463  0.3529  0.0894  0.4058
 6833SOL    HW132135   1.273   1.952   6.377  0.0329 -0.7201  0.1803
 6833SOL    HW232136   1.247   1.852   6.479  1.2918  0.1051 -0.4244
 6834SOL     OW32137   4.280   1.853   3.623  0.2487 -0.3523  0.2752
 6834SOL    HW132138   4.281   1.918   3.693 -1.4876 -0.4738  0.4123
 6834SOL    HW232139   4.196   1.817   3.650 -1.3198  1.0848 -2.7244
 6835SOL     OW32140   3.050   2.789  14.911  0.3778 -0.0782  0.3188
 6835SOL    HW132141   2.956   2.773  14.912  0.5417 -0.8092  3.0868
 6835SOL    HW232142   3.066   2.740  14.830  1.2687  1.2754 -0.3308
 6836SOL     OW32143   0.763   0.733  16.818 -0.3981 -0.2282  0.2191
 6836SOL    HW132144   0.736   0.744  16.727  0.5119  0.0549 -0.0142
 6836SOL    HW232145   0.859   0.725  16.815 -0.3888  0.4603 -1.3588
 6837SOL     OW32146   1.667   2.266  15.956  0.1945  0.1448 -0.0150
 6837SOL    HW132147   1.755   2.285  15.989  0.2133 -1.4582  0.8593
 6837SOL    HW232148   1.601   2.299  16.017  0.3501 -0.0561  0.2614
 6838SOL     OW32149   0.106   4.044   3.460 -0.2212  0.2640  0.7647
 6838SOL    HW132150   0.111   4.139   3.474  0.6903 -0.0164  2.4446
 6838SOL    HW232151   0.193   4.021   3.428 -0.0309 -0.6386  1.9237
 6839SOL     OW32152   4.542   1.597  13.934 -0.0185 -0.4066  0.4239
 6839SOL    HW132153   4.562   1.663  14.000 -1.4029 -0.4597  0.9043
 6839SOL    HW232154   4.447   1.593  13.945  0.0331 -0.1801  0.9275
 6840SOL     OW32155   1.944   3.507   3.131  0.6270  0.2558 -0.6935
 6840SOL    HW132156   1.933   3.576   3.196  1.0270 -0.3714  0.0368
 6840SOL    HW232157   1.866   3.452   3.141 -0.2967  1.9745  1.6811
 6841SOL     OW32158   0.240   2.232  10.039  0.2543 -0.2452  0.1508
 6841SOL    HW132159   0.257   2.318  10.000 -2.1413 -0.3206 -1.0534
 6841SOL    HW232160   0.320   2.189  10.007 -1.5765 -1.6148 -2.5492
 6842SOL     OW32161   3.861   2.670   6.187 -1.3817 -0.0342  0.1085
 6842SOL    HW132162   3.916   2.646   6.261 -0.6494  3.2889  0.6502
 6842SOL    HW232163   3.783   2.692   6.238 -0.9424  2.3147 -0.2316
 6843SOL     OW32164   2.016   3.668   5.740  0.0873 -0.1728 -0.7066
 6843SOL    HW132165   1.960   3.736   5.777 -0.9890 -1.2619 -0.3133
 6843SOL    HW232166   1.945   3.631   5.688 -1.4968  0.7842  0.7745
 6844SOL     OW32167   2.806   0.938  17.240  0.2424  0.4797  0.6537
 6844SOL    HW132168   2.757   0.986  17.173 -0.4196 -0.9134  0.1488
 6844SOL    HW232169   2.893   0.931  17.200  0.0301  0.4373  0.1999
 6845SOL     OW32170   1.191   1.584   4.996 -0.0371 -0.1742 -0.1153
 6845SOL    HW132171   1.105   1.616   5.025  0.5129  0.3918  0.8680
 6845SOL    HW232172   1.195   1.492   5.020 -0.4551 -0.0752  0.3261
 6846SOL     OW32173   2.153   2.195   6.853 -0.5643  0.3820  0.0699
 6846SOL    HW132174   2.082   2.137   6.825 -0.1502  1.2886 -2.8666
 6846SOL    HW232175   2.107   2.279   6.842 -0.9032  0.3094  0.8960
 6847SOL     OW32176   0.515   4.216   2.660  0.8130  0.2621 -0.3489
 6847SOL    HW132177   0.490   4.144   2.602 -1.3794  0.5470  0.2309
 6847SOL    HW232178   0.507   4.172   2.744  1.2568 -0.4548 -0.6863
 6848SOL     OW32179   0.506   2.769   9.282 -0.2743  0.0655 -0.3266
 6848SOL    HW132180   0.511   2.814   9.366 -0.3222 -2.3597  0.9906
 6848SOL    HW232181   0.573   2.817   9.235 -1.1456  0.2801 -1.3522
 6849SOL     OW32182   1.336   1.121   1.513 -0.2973 -0.1018 -0.1105
 6849SOL    HW132183   1.366   1.209   1.490 -1.4967  0.4922  0.6312
 6849SOL    HW232184   1.328   1.095   1.421 -1.2586 -0.2071  0.0031
 6850SOL     OW32185   3.070   2.918   7.145  0.0027 -0.1974 -0.5205
 6850SOL    HW132186   3.033   2.912   7.234  1.1054  0.5466 -0.0089
 6850SOL    HW232187   3.096   2.827   7.136 -0.0004 -0.2421 -0.0768
 6851SOL     OW32188   3.458   4.095   7.491 -0.3648  0.1829 -0.7539
 6851SOL    HW132189   3.512   4.079   7.568 -1.5948  2.6341  0.5882
 6851SOL    HW232190   3.381   4.043   7.515 -0.8936  0.2778 -2.2446
 6852SOL     OW32191   3.841   0.337   4.268  0.6146  0.3749 -0.2411
 6852SOL    HW132192   3.927   0.326   4.310  0.3173 -0.1745  0.2303
 6852SOL    HW232193   3.847   0.252   4.224  0.2695 -0.0791  0.5779
 6853SOL     OW32194   0.160   1.859   8.708  0.3572 -0.2473 -0.8461
 6853SOL    HW132195   0.144   1.946   8.746 -0.0956 -0.0531 -1.4767
 6853SOL    HW232196   0.080   1.858   8.655 -0.7513 -3.1589  0.9190
 6854SOL     OW32197   1.288   3.805   6.591 -0.0412 -0.0193 -0.4471
 6854SOL    HW132198   1.330   3.793   6.676 -0.7457 -0.3763 -0.1461
 6854SOL    HW232199   1.363   3.821   6.533 -0.4413 -0.8960 -1.2172
 6855SOL     OW32200   0.572   4.183   6.564  0.5277  0.0389 -0.1053
 6855SOL    HW132201   0.484   4.215   6.582  0.6843  0.0200  0.6850
 6855SOL    HW232202   0.622   4.258   6.597  2.3456  0.1105 -2.9701
 6856SOL     OW32203   1.021   3.868   9.744 -0.1010 -0.2693 -0.2345
 6856SOL    HW132204   0.935   3.887   9.706  1.5727  1.0809 -3.3070
 6856SOL    HW232205   1.086   3.871   9.674  0.1616 -2.5787 -0.0832
 6857SOL     OW32206   1.838   2.261   0.671 -0.2318  0.2136  0.1232
 6857SOL    HW132207   1.893   2.293   0.743 -0.6324 -1.2304  1.0768
 6857SOL    HW232208   1.753   2.294   0.703 -1.5420 -1.7092 -1.4399
 6858SOL     OW32209   1.431   2.269   4.187 -0.4049  0.2668  0.2840
 6858SOL    HW132210   1.476   2.217   4.120 -1.0778 -1.6575  1.3224
 6858SOL    HW232211   1.462   2.357   4.168  0.3918 -0.5508 -2.1009
 6859SOL     OW32212   4.113   4.124   2.458 -0.0356  0.0098 -0.4125
 6859SOL    HW132213   4.136   4.039   2.419 -1.2420 -0.5951  0.2079
 6859SOL    HW232214   4.149   4.182   2.391 -0.1188  0.1090 -0.3699
 6860SOL     OW32215   4.709   3.936   7.958  0.1731 -0.3335 -0.1286
 6860SOL    HW132216   4.711   3.946   8.053  0.3402 -0.1721 -0.1481
 6860SOL    HW232217   0.062   3.941   7.936  1.1113  1.1996  4.2010
 6861SOL     OW32218   4.439   4.527   0.622  0.1355  0.6215  0.0494
 6861SOL    HW132219   4.374   4.545   0.554 -0.8076  0.9409  1.0200
 6861SOL    HW232220   4.452   4.620   0.638  1.1313  0.3224  1.0297
 6862SOL     OW32221   0.635   2.370   6.080  0.2827  0.2577 -0.4001
 6862SOL    HW132222   0.723   2.364   6.118  0.4177 -0.6792 -0.8585
 6862SOL    HW232223   0.607   2.444   6.134  0.1745  0.0092 -0.1141
 6863SOL     OW32224   2.661   3.920   5.010 -0.3040 -0.4364  0.1404
 6863SOL    HW132225   2.609   3.888   4.936  0.0335  0.7000 -0.5927
 6863SOL    HW232226   2.751   3.926   4.978 -0.1987 -0.5700  0.4081
 6864SOL     OW32227   4.296   2.153   4.562 -0.1075 -0.5186  0.5132
 6864SOL    HW132228   4.380   2.136   4.605  0.3830 -2.5867 -1.2628
 6864SOL    HW232229   4.308   2.072   4.512 -1.8106  1.1585 -2.5480
 6865SOL     OW32230   1.953   1.760  16.608  0.1392  0.4873  0.0185
 6865SOL    HW132231   1.984   1.773  16.519 -2.4546  2.7460 -0.5668
 6865SOL    HW232232   1.867   1.721  16.594  0.6506 -0.2181 -1.0861
 6866SOL     OW32233   4.303   2.390   3.586 -0.2605 -0.2362  0.0415
 6866SOL    HW132234   4.258   2.317   3.544  1.2481 -2.1118  1.6817
 6866SOL    HW232235   4.386   2.345   3.602 -0.1554  0.0862  0.4077
 6867SOL     OW32236   3.189   2.767   7.796 -0.1448 -0.0535  0.1930
 6867SOL    HW132237   3.213   2.705   7.727  0.6620  0.0707  0.3578
 6867SOL    HW232238   3.266   2.783   7.850  0.3845 -1.2199 -0.2258
 6868SOL     OW32239   2.845   2.563   2.140  0.4141 -0.6856  0.1928
 6868SOL    HW132240   2.843   2.586   2.233  1.5882 -0.5886  0.1962
 6868SOL    HW232241   2.751   2.560   2.126  0.1613  4.9157  0.9002
 6869SOL     OW32242   0.529   3.252  17.564 -0.0560  0.0205 -0.0879
 6869SOL    HW132243   0.534   3.327  17.624 -1.3683  1.0232 -1.2159
 6869SOL    HW232244   0.447   3.279  17.522 -0.0435  1.5140  0.8482
 6870SOL     OW32245   0.393   3.644   0.401 -0.1044  0.0872  0.7228
 6870SOL    HW132246   0.389   3.550   0.420 -1.8294  0.2689  1.2027
 6870SOL    HW232247   0.309   3.649   0.357  1.6548 -2.7547 -2.9483
 6871SOL     OW32248   4.418   4.732   4.384  0.5192  0.0058  0.2641
 6871SOL    HW132249   4.324   4.739   4.401  0.2140  1.3618 -1.8715
 6871SOL    HW232250   4.449   0.040   4.461  0.2875 -0.0844  0.4117
 6872SOL     OW32251   0.266   1.263   2.056 -0.0735 -0.5569 -0.7405
 6872SOL    HW132252   0.307   1.196   2.002  2.3966  0.3251  0.0648
 6872SOL    HW232253   0.185   1.278   2.008 -0.5563  0.6814  0.4563
 6873SOL     OW32254   3.326   1.591   7.408 -0.2441 -0.2982 -0.7446
 6873SOL    HW132255   3.314   1.496   7.418 -2.3894 -0.2951 -3.1821
 6873SOL    HW232256   3.395   1.621   7.468 -0.0350 -0.0614 -1.1018
 6874SOL     OW32257   2.099   1.562   0.523 -0.2605  0.7474 -0.1107
 6874SOL    HW132258   2.148   1.479   0.529  0.7784  1.5272  2.3490
 6874SOL    HW232259   2.014   1.544   0.564 -1.2751  3.7652 -0.9516
 6875SOL     OW32260   3.694   3.976   0.940  0.5742  0.0389  0.6492
 6875SOL    HW132261   3.665   4.067   0.934 -0.2435 -0.2938 -0.4650
 6875SOL    HW232262   3.750   3.975   0.862  0.0819  0.7233  0.2856
 6876SOL     OW32263   2.091   3.748   3.014  0.2610  0.0889  0.1771
 6876SOL    HW132264   2.080   3.665   2.968 -1.8982 -0.5943  1.9412
 6876SOL    HW232265   2.142   3.713   3.088  0.5072 -0.7168 -0.3693
 6877SOL     OW32266   3.759   1.393  17.586 -0.2995  0.3548 -0.4820
 6877SOL    HW132267   3.812   1.401  17.507 -0.7198  0.4192 -0.7542
 6877SOL    HW232268   3.788   1.473  17.630 -1.7559  0.4255  0.3418
 6878SOL     OW32269   1.556   3.492   9.489 -0.5275 -0.2196 -0.0974
 6878SOL    HW132270   1.532   3.430   9.420 -0.1030  2.5434 -2.7154
 6878SOL    HW232271   1.627   3.545   9.453  0.5045 -1.5970 -0.0798
 6879SOL     OW32272   4.704   2.070   3.720  0.1144  0.3263 -0.0113
 6879SOL    HW132273   0.023   2.140   3.691  0.0279  1.0411  1.5534
 6879SOL    HW232274   4.678   2.096   3.808 -2.1806 -1.5650 -0.1469
 6880SOL     OW32275   3.401   1.295   3.583  0.2344  0.2180 -0.7810
 6880SOL    HW132276   3.469   1.344   3.629 -0.7914  0.5567  0.3835
 6880SOL    HW232277   3.321   1.343   3.605 -0.0287 -0.9067  0.7063
 6881SOL     OW32278   3.696   2.415  14.214 -0.2314 -0.3522  0.2122
 6881SOL    HW132279   3.739   2.418  14.129  0.6774  0.4913  0.6985
 6881SOL    HW232280   3.744   2.350  14.265 -0.1418 -0.2742  0.2277
 6882SOL     OW32281   3.106   1.979   4.700  0.3193  0.1103 -0.1689
 6882SOL    HW132282   3.013   1.986   4.722  0.3466  1.7805 -0.5779
 6882SOL    HW232283   3.133   2.068   4.678  0.5040  0.7849  2.8925
 6883SOL     OW32284   3.277   1.904   9.212 -0.1870 -0.1841 -0.2742
 6883SOL    HW132285   3.211   1.840   9.184 -0.7646 -0.7953  2.5324
 6883SOL    HW232286   3.310   1.923   9.124 -2.8931  0.7443 -1.0958
 6884SOL     OW32287   3.054   2.995   2.438 -0.5910 -0.5300  0.9878
 6884SOL    HW132288   3.040   2.967   2.528  1.4397  0.3094  1.5726
 6884SOL    HW232289   2.982   2.950   2.395 -0.0713  0.0887 -0.5290
 6885SOL     OW32290   0.203   1.731   8.397  0.4215  0.0541 -0.0831
 6885SOL    HW132291   0.198   1.639   8.422 -1.4565  0.0628 -0.4143
 6885SOL    HW232292   0.298   1.740   8.402  0.4595  0.0174 -0.8231
 6886SOL     OW32293   1.299   2.691  13.148 -0.1178  0.4814  0.8949
 6886SOL    HW132294   1.373   2.703  13.207  1.7266  0.4769 -1.4383
 6886SOL    HW232295   1.237   2.737  13.205 -2.2053 -0.7402 -0.3872
 6887SOL     OW32296   2.370   4.399   5.475  0.1829 -0.0804 -0.1686
 6887SOL    HW132297   2.437   4.379   5.410 -0.1017  0.1867 -0.5389
 6887SOL    HW232298   2.303   4.423   5.412 -0.3912  2.3152  1.3393
 6888SOL     OW32299   3.789   3.193  16.616  0.4770 -0.3959 -0.4100
 6888SOL    HW132300   3.702   3.192  16.657  0.3189  1.9194 -0.6893
 6888SOL    HW232301   3.790   3.286  16.592  0.0399 -0.2636  0.0879
 6889SOL     OW32302   1.610   4.143   2.382 -0.4931  0.2599 -0.3984
 6889SOL    HW132303   1.606   4.109   2.292 -1.9224 -2.0166  0.5137
 6889SOL    HW232304   1.557   4.078   2.428 -2.0855  3.1408  1.8694
 6890SOL     OW32305   4.116   0.768   5.064 -0.4516 -0.6998 -0.0642
 6890SOL    HW132306   4.187   0.762   5.000 -0.7855 -1.9177 -0.3206
 6890SOL    HW232307   4.157   0.716   5.133  2.4864 -1.3240 -2.2645
 6891SOL     OW32308   1.172   4.499  14.742  0.3240 -0.3438 -0.0665
 6891SOL    HW132309   1.257   4.540  14.728  0.0403 -0.0925 -1.0520
 6891SOL    HW232310   1.126   4.575  14.778 -0.7571 -0.4679 -1.1926
 6892SOL     OW32311   3.877   0.630  14.189  0.1053 -0.0230  0.4618
 6892SOL    HW132312   3.896   0.571  14.262  1.4249 -1.0442 -0.6973
 6892SOL    HW232313   3.957   0.628  14.137 -1.2043  0.8603 -1.5763
 6893SOL     OW32314   1.964   0.767  17.187 -0.2446  0.4406  0.0011
 6893SOL    HW132315   1.889   0.749  17.243  0.7640 -2.4147  0.4562
 6893SOL    HW232316   1.926   0.801  17.107  0.4249  1.0271 -0.0707
 6894SOL     OW32317   2.392   2.773   5.021  0.0424 -0.3604 -0.1956
 6894SOL    HW132318   2.453   2.703   5.044  0.8460 -0.0298 -1.2909
 6894SOL    HW232319   2.404   2.762   4.927 -0.4363  2.0555 -0.5398
 6895SOL     OW32320   2.345   4.104   6.789  0.3885  0.0911  0.4647
 6895SOL    HW132321   2.359   4.095   6.883 -1.5594 -0.3482  0.7161
 6895SOL    HW232322   2.416   4.160   6.755 -1.6122  1.7424 -1.0263
 6896SOL     OW32323   1.475   2.860   8.977  0.8629 -0.1504  0.0479
 6896SOL    HW132324   1.535   2.928   8.948  1.5017 -0.5731  0.3723
 6896SOL    HW232325   1.500   2.795   8.911  1.3988 -1.2141  1.3006
 6897SOL     OW32326   2.397   0.714   9.457 -0.4909  0.3867 -0.8185
 6897SOL    HW132327   2.493   0.713   9.447 -0.4152 -0.5457 -0.0791
 6897SOL    HW232328   2.381   0.624   9.485  3.1264 -0.0133  0.0257
 6898SOL     OW32329   3.588   0.628  17.587 -0.2540 -0.0599  0.1058
 6898SOL    HW132330   3.599   0.559  17.522 -3.2183 -1.6073  1.2542
 6898SOL    HW232331   3.653   0.598  17.652  0.4005  0.7486 -0.1767
 6899SOL     OW32332   1.288   3.606   6.997 -0.0795  0.1143 -0.3778
 6899SOL    HW132333   1.220   3.620   7.063  0.4542  0.1637  0.1629
 6899SOL    HW232334   1.310   3.514   7.011  0.9231  0.4284  0.1256
 6900SOL     OW32335   2.811   0.192   3.529  0.1440 -0.3549 -0.2647
 6900SOL    HW132336   2.801   0.221   3.438 -0.2885 -2.2478 -0.8180
 6900SOL    HW232337   2.901   0.160   3.535  0.9939  1.6098 -2.5519
 6901SOL     OW32338   0.218   2.167   6.210 -0.3352  0.1426 -0.6767
 6901SOL    HW132339   0.275   2.239   6.238  0.2536  0.0663 -1.6859
 6901SOL    HW232340   0.282   2.113   6.165 -0.6576 -1.4543  0.8015
 6902SOL     OW32341   1.372   3.653   2.735  0.9257  0.2339  0.9205
 6902SOL    HW132342   1.354   3.696   2.652  0.6411 -0.4490  0.6340
 6902SOL    HW232343   1.405   3.567   2.708  0.2612  0.3248 -0.1859
 6903SOL     OW32344   1.259   3.357  17.498 -0.2799 -0.1679 -0.3658
 6903SOL    HW132345   1.341   3.387  17.459  1.1281 -0.3079  2.4872
 6903SOL    HW232346   1.281   3.268  17.524  0.3084  0.6194  1.8337
 6904SOL     OW32347   0.946   0.933   7.986  0.1640  0.0974 -0.5627
 6904SOL    HW132348   0.917   0.878   7.914  1.4104  1.0478 -1.7817
 6904SOL    HW232349   0.992   1.000   7.935 -0.9090  1.0072 -0.3481
 6905SOL     OW32350   4.624   2.277   2.169 -0.1529  0.3603 -0.4362
 6905SOL    HW132351   4.618   2.354   2.114 -0.8642  0.8735  0.3557
 6905SOL    HW232352   4.703   2.231   2.140 -0.3306  0.6630 -1.3908
 6906SOL     OW32353   0.217   0.577  13.946  0.0369  0.5313  0.1709
 6906SOL    HW132354   0.137   0.586  13.893  0.9251  0.8939 -1.0972
 6906SOL    HW232355   0.268   0.619  13.877 -1.7278 -1.4994 -2.3796
 6907SOL     OW32356   1.984   3.346   7.892 -0.6430 -0.5164 -0.2435
 6907SOL    HW132357   1.967   3.328   7.799 -2.5554 -1.1469  0.2351
 6907SOL    HW232358   1.994   3.442   7.897  1.7652 -0.7096 -1.1254
 6908SOL     OW32359   1.396   0.431   3.993 -0.3638  0.4129  0.3340
 6908SOL    HW132360   1.468   0.406   3.936 -0.8874 -1.0977  0.3383
 6908SOL    HW232361   1.355   0.499   3.939 -0.2851 -0.6086 -1.0389
 6909SOL     OW32362   0.600   1.793  16.529  0.1411 -0.2504 -0.4393
 6909SOL    HW132363   0.597   1.748  16.614 -1.0742  4.2390  1.8747
 6909SOL    HW232364   0.520   1.757  16.492 -0.0771 -0.5378  0.3160
 6910SOL     OW32365   4.025   1.784  12.128  0.1375 -0.0600 -0.1473
 6910SOL    HW132366   4.081   1.751  12.058  0.1352  0.8346 -0.5798
 6910SOL    HW232367   4.073   1.756  12.206  3.1487  2.2447 -1.1565
 6911SOL     OW32368   2.351   1.939   9.339  0.0601  0.0324 -0.3324
 6911SOL    HW132369   2.418   1.937   9.271 -0.4244  1.8189 -0.8648
 6911SOL    HW232370   2.285   1.987   9.289  2.7291  1.2598 -2.6143
 6912SOL     OW32371   0.261   0.352  14.118  0.4706  0.8080  0.3572
 6912SOL    HW132372   0.286   0.437  14.082 -1.6574  0.8568 -0.9628
 6912SOL    HW232373   0.275   0.289  14.047  0.0216  2.0565 -0.8312
 6913SOL     OW32374   1.257   3.252   3.324  0.0062 -0.1358 -0.0256
 6913SOL    HW132375   1.186   3.243   3.261 -0.7356  2.3567  0.4304
 6913SOL    HW232376   1.319   3.210   3.265 -0.5223 -0.1567 -0.5653
 6914SOL     OW32377   0.862   0.588  13.292 -0.4867 -0.5578 -0.1139
 6914SOL    HW132378   0.834   0.596  13.200 -0.2500 -2.4540 -0.3530
 6914SOL    HW232379   0.956   0.602  13.281 -0.4887  0.5659  1.2843
 6915SOL     OW32380   3.921   1.986   4.010 -0.1092 -0.3586  0.1383
 6915SOL    HW132381   3.987   1.938   4.059 -0.4902 -0.6736  0.3424
 6915SOL    HW232382   3.862   1.912   3.995 -2.1165  1.2996 -0.0709
 6916SOL     OW32383   4.685   1.415   5.070  0.3244  0.0828 -0.5231
 6916SOL    HW132384   4.701   1.378   5.157 -1.2174  2.7319  0.8792
 6916SOL    HW232385   4.589   1.409   5.062  0.3301  1.0483 -1.2169
 6917SOL     OW32386   0.333   2.981   8.724  0.3865  0.6562  0.1093
 6917SOL    HW132387   0.355   3.004   8.814 -0.8608 -2.6217  1.2691
 6917SOL    HW232388   0.326   2.886   8.727 -0.1424  0.7699  2.8210
 6918SOL     OW32389   1.359   4.434  10.787 -0.4618  0.1172  0.1937
 6918SOL    HW132390   1.424   4.504  10.788  1.4317 -1.6446  1.3348
 6918SOL    HW232391   1.296   4.460  10.855 -1.9711 -1.6955 -0.4823
 6919SOL     OW32392   1.800   2.693  13.375  0.0896  0.1383  0.0008
 6919SOL    HW132393   1.838   2.714  13.290  0.0072 -0.7676 -0.2628
 6919SOL    HW232394   1.762   2.777  13.403  0.1868 -0.9457  3.3479
 6920SOL     OW32395   0.350   1.555   3.146 -0.0130  0.1589 -0.4571
 6920SOL    HW132396   0.308   1.469   3.141 -2.4395  1.2738  0.8495
 6920SOL    HW232397   0.436   1.537   3.185  0.2704 -0.8967 -1.5383
 6921SOL     OW32398   0.011   3.867   2.897  0.0158 -0.1877  0.1658
 6921SOL    HW132399   4.695   3.912   2.834  0.2988 -0.3246 -0.1770
 6921SOL    HW232400   4.703   3.863   2.980  0.0654  0.5604  0.2264
 6922SOL     OW32401   2.103   4.019   7.744 -0.8816 -0.5464  0.1600
 6922SOL    HW132402   2.161   3.963   7.794  3.1552  1.7430 -2.0037
 6922SOL    HW232403   2.166   4.089   7.730 -0.0674 -1.2910  0.1356
 6923SOL     OW32404   3.036   2.139   6.261 -0.3496 -0.2798  0.2778
 6923SOL    HW132405   3.037   2.046   6.281 -4.2204 -0.4067  0.0179
 6923SOL    HW232406   3.055   2.135   6.168 -0.2708 -1.3668  0.3423
 6924SOL     OW32407   0.259   0.976  13.657  0.1698 -0.0539  0.0453
 6924SOL    HW132408   0.298   1.030  13.726  1.0208 -1.9133  0.9990
 6924SOL    HW232409   0.253   1.032  13.579  1.6857  2.3886  1.7023
 6925SOL     OW32410   2.330   3.004   8.548  0.4265  0.1771  0.4475
 6925SOL    HW132411   2.331   3.048   8.633  1.1284  1.7363 -0.3584
 6925SOL    HW232412   2.370   2.919   8.565  0.8459  0.2986  0.0947
 6926SOL     OW32413   0.186   3.401   5.080  0.2637 -0.0765  0.1230
 6926SOL    HW132414   0.254   3.467   5.068 -0.0966  0.2676 -0.0189
 6926SOL    HW232415   0.121   3.446   5.134 -1.1589 -0.6595 -1.1157
 6927SOL     OW32416   0.270   0.630   8.167  0.0382  0.4497  0.2588
 6927SOL    HW132417   0.286   0.678   8.249 -2.2270 -1.4631  1.8239
 6927SOL    HW232418   0.290   0.692   8.097 -1.3777  0.9131  0.2665
 6928SOL     OW32419   1.029   1.214   8.968  0.1021 -0.1478 -0.9101
 6928SOL    HW132420   1.087   1.260   9.029 -1.6021 -0.7036  1.1095
 6928SOL    HW232421   1.033   1.273   8.893  3.2797  0.1972 -0.4749
 6929SOL     OW32422   2.168   2.224   2.758 -0.1117 -0.2755  0.3890
 6929SOL    HW132423   2.153   2.130   2.759 -2.0554  0.0322 -0.0868
 6929SOL    HW232424   2.099   2.262   2.704  1.2418 -0.2554 -1.3271
 6930SOL     OW32425   4.708   0.750   3.167  0.5023 -0.1729  0.5654
 6930SOL    HW132426   0.062   0.735   3.182  0.6064 -3.6415 -3.3139
 6930SOL    HW232427   4.679   0.748   3.258 -0.2504  1.1928  0.3548
 6931SOL     OW32428   2.772   1.565   8.804  0.4803 -0.1313 -0.1321
 6931SOL    HW132429   2.750   1.647   8.760 -2.3758 -1.9428 -2.1097
 6931SOL    HW232430   2.715   1.517   8.744  2.7517 -2.3406 -0.5029
 6932SOL     OW32431   1.329   0.103   8.106  0.1383  0.1978  0.2689
 6932SOL    HW132432   1.237   0.121   8.128 -0.0512  0.2793 -0.5807
 6932SOL    HW232433   1.354   0.195   8.105  0.1611  0.2025  1.3682
 6933SOL     OW32434   3.621   2.820   8.566 -0.4177 -0.2656  0.1050
 6933SOL    HW132435   3.668   2.738   8.581  0.0484 -0.3212 -1.6925
 6933SOL    HW232436   3.678   2.861   8.501 -1.4639  2.7968  1.1028
 6934SOL     OW32437   4.576   1.618   7.758 -0.0641  0.4434 -0.6010
 6934SOL    HW132438   4.637   1.624   7.832  0.2026  0.5997 -0.8337
 6934SOL    HW232439   4.539   1.707   7.755 -3.1525 -0.9481 -3.5013
 6935SOL     OW32440   0.822   1.255   4.593 -0.4134  0.3729  0.0577
 6935SOL    HW132441   0.893   1.298   4.545  0.4273 -2.0053 -0.8029
 6935SOL    HW232442   0.790   1.335   4.635  1.5280 -0.3965  3.0240
 6936SOL     OW32443   1.650   2.689   5.101  0.5107  0.1960  0.2271
 6936SOL    HW132444   1.679   2.737   5.023  1.3716  0.7502  0.8967
 6936SOL    HW232445   1.559   2.716   5.100  0.3256 -0.4042  0.7633
 6937SOL     OW32446   2.660   0.248   4.284 -0.8167 -0.0610  0.1175
 6937SOL    HW132447   2.746   0.256   4.243 -0.2946  0.1464  1.2562
 6937SOL    HW232448   2.604   0.280   4.213  0.4354  1.9554  0.0368
 6938SOL     OW32449   0.366   2.697  10.730 -0.2214  0.5873  0.6968
 6938SOL    HW132450   0.274   2.720  10.748 -1.4698 -1.0233 -3.7673
 6938SOL    HW232451   0.355   2.652  10.646  1.3722  1.3445  0.0998
 6939SOL     OW32452   0.778   1.301   2.333 -0.1923  0.4936 -0.2027
 6939SOL    HW132453   0.717   1.372   2.353  0.1350  0.3840  1.2537
 6939SOL    HW232454   0.715   1.230   2.330  0.3334 -0.1065  2.4803
 6940SOL     OW32455   3.057   4.287  12.265 -0.2430  0.2413 -0.3776
 6940SOL    HW132456   3.032   4.228  12.193 -2.1927 -0.7084  1.0497
 6940SOL    HW232457   3.144   4.316  12.239 -0.0884  0.3972  0.3176
 6941SOL     OW32458   0.713   1.619  17.027 -0.0150 -0.0992  0.7836
 6941SOL    HW132459   0.636   1.578  17.066  0.4868  0.2026  2.0939
 6941SOL    HW232460   0.693   1.619  16.933  0.8505  1.7586  0.5842
 6942SOL     OW32461   1.843   0.041   5.202 -0.8006 -0.3664 -0.1200
 6942SOL    HW132462   1.896   4.730   5.140  0.7744  1.2668 -0.1056
 6942SOL    HW232463   1.754   0.007   5.194 -0.3694 -1.1872 -1.4737
 6943SOL     OW32464   2.387   1.208   1.265 -0.0887  0.5283  0.1746
 6943SOL    HW132465   2.386   1.297   1.299  3.4313  0.8996 -0.6429
 6943SOL    HW232466   2.296   1.197   1.239 -0.0860 -1.4732  0.9707
 6944SOL     OW32467   0.905   0.805  11.210  0.4999 -0.1345 -0.4064
 6944SOL    HW132468   0.847   0.767  11.144 -0.7922  1.0918  0.0432
 6944SOL    HW232469   0.948   0.863  11.147  0.6665  0.4841  0.2897
 6945SOL     OW32470   3.089   2.267   4.235  0.4712 -0.1150  0.0661
 6945SOL    HW132471   3.064   2.262   4.328 -2.3742  1.9595 -0.5879
 6945SOL    HW232472   3.133   2.351   4.226  1.7171 -0.7411  0.3335
 6946SOL     OW32473   2.379   1.032   2.232 -0.0754  0.1467  0.2382
 6946SOL    HW132474   2.422   1.017   2.316  0.0633  2.0041  0.4928
 6946SOL    HW232475   2.284   1.044   2.243 -0.3535 -0.4931 -1.4226
 6947SOL     OW32476   1.958   1.688   5.265 -0.1283  0.1440 -0.2279
 6947SOL    HW132477   1.914   1.659   5.185 -0.6448  0.8925 -0.2162
 6947SOL    HW232478   2.048   1.661   5.248  0.3732 -1.6031  5.4352
 6948SOL     OW32479   4.638   0.679   8.662 -0.7883 -0.1143  0.2730
 6948SOL    HW132480   4.670   0.596   8.626  1.6755  0.0951  1.9457
 6948SOL    HW232481   4.715   0.729   8.690  0.2020  0.1598 -3.0227
 6949SOL     OW32482   2.688   3.293   8.938  0.0950 -0.7566  0.0434
 6949SOL    HW132483   2.691   3.317   9.031  1.6986 -0.1272 -0.1786
 6949SOL    HW232484   2.692   3.198   8.944  2.6152 -0.6606 -0.3834
 6950SOL     OW32485   3.734   3.352   1.753  0.1031 -0.0531 -0.4173
 6950SOL    HW132486   3.658   3.354   1.812  0.4249 -0.9215  0.0243
 6950SOL    HW232487   3.704   3.316   1.669  1.6069 -1.3903 -0.3682
 6951SOL     OW32488   1.205   2.183  11.984  0.0121  0.5784 -0.6497
 6951SOL    HW132489   1.272   2.191  11.917 -0.4148 -1.0977 -1.2550
 6951SOL    HW232490   1.241   2.238  12.054 -0.0439 -0.5036  0.2251
 6952SOL     OW32491   3.789   0.953   3.532 -0.3931  0.5322 -0.1990
 6952SOL    HW132492   3.723   0.894   3.496  1.0634 -2.1264  1.5320
 6952SOL    HW232493   3.732   1.007   3.586 -1.1340 -0.4084 -0.0341
 6953SOL     OW32494   4.362   3.921   5.092  0.1482  0.2282  0.2776
 6953SOL    HW132495   4.389   3.950   5.004  2.0868 -3.0405 -0.2218
 6953SOL    HW232496   4.437   3.959   5.137 -0.5362  0.8984  0.8329
 6954SOL     OW32497   1.135   0.868   2.020  0.6350  0.0966 -0.3305
 6954SOL    HW132498   1.229   0.875   2.002  0.2186  0.9663 -2.2064
 6954SOL    HW232499   1.116   0.962   2.027  0.4152  0.1785 -2.1087
 6955SOL     OW32500   1.759   2.059   5.514  0.1206  0.1507 -0.3205
 6955SOL    HW132501   1.852   2.079   5.503  0.0723  0.1926 -0.6662
 6955SOL    HW232502   1.762   1.964   5.499 -2.9239  0.2876 -1.7556
 6956SOL     OW32503   1.805   2.585   6.853 -0.6306  0.2666  0.2628
 6956SOL    HW132504   1.748   2.611   6.781 -0.3600  0.4121  0.1000
 6956SOL    HW232505   1.745   2.534   6.908 -2.1096  1.3239 -0.3788
 6957SOL     OW32506   2.596   0.172   2.462  0.1788  0.4000  0.8717
 6957SOL    HW132507   2.690   0.176   2.448  0.3477 -1.1923  1.5457
 6957SOL    HW232508   2.599   0.163   2.557 -2.4112 -0.4616  0.8596
 6958SOL     OW32509   1.341   2.441  13.450 -1.3557  0.2741 -0.1206
 6958SOL    HW132510   1.403   2.506  13.417 -0.5520 -1.6070 -2.3110
 6958SOL    HW232511   1.327   2.464  13.542  2.2244 -1.4069  0.8296
 6959SOL     OW32512   2.608   0.910   2.976  0.4555 -0.1133 -0.1040
 6959SOL    HW132513   2.675   0.911   3.044 -0.8166  0.5312  1.1425
 6959SOL    HW232514   2.547   0.965   3.026 -0.0525  1.4348 -2.4103
 6960SOL     OW32515   1.440   3.815   0.606 -0.0965  0.4394  0.2953
 6960SOL    HW132516   1.417   3.852   0.521  0.8387 -0.5357 -0.3935
 6960SOL    HW232517   1.379   3.742   0.619 -2.0698  2.1346  0.4629
 6961SOL     OW32518   3.882   0.277   7.448  0.5492  0.2057 -0.1357
 6961SOL    HW132519   3.897   0.362   7.407 -2.3380  1.0092  0.4468
 6961SOL    HW232520   3.943   0.285   7.522  0.1185  0.1800  0.2229
 6962SOL     OW32521   1.970   0.373  10.378  0.6613 -0.2483 -0.0752
 6962SOL    HW132522   2.046   0.393  10.433 -0.1980  1.0148  0.6409
 6962SOL    HW232523   1.916   0.449  10.360  0.6002 -0.6164 -1.4477
 6963SOL     OW32524   0.431   1.300   3.668 -0.8312 -0.1603  0.2441
 6963SOL    HW132525   0.392   1.256   3.743 -1.3396 -0.6742 -0.3213
 6963SOL    HW232526   0.365   1.273   3.604  0.1858 -2.4002  0.1270
 6964SOL     OW32527   4.396   4.253   9.065 -0.1760 -0.5021 -0.5577
 6964SOL    HW132528   4.342   4.330   9.078  0.8526  0.6028 -2.7426
 6964SOL    HW232529   4.343   4.196   9.008 -0.9839  0.5242 -0.8311
 6965SOL     OW32530   2.751   3.474   6.493 -0.4160  0.2787 -0.2389
 6965SOL    HW132531   2.658   3.473   6.516 -0.4829  1.7139 -0.4939
 6965SOL    HW232532   2.750   3.414   6.418  0.1621  1.7490 -1.4210
 6966SOL     OW32533   1.281   1.848   2.194 -0.0813 -0.3709 -0.0503
 6966SOL    HW132534   1.249   1.808   2.275  1.7340 -0.4455  0.6170
 6966SOL    HW232535   1.212   1.822   2.133  1.2767 -2.3257 -0.7501
 6967SOL     OW32536   3.269   4.588   9.869 -0.1246  0.5091 -0.1970
 6967SOL    HW132537   3.282   4.642   9.947  1.9283 -1.3675  0.7548
 6967SOL    HW232538   3.298   4.651   9.803  0.8196 -0.3337 -0.5872
 6968SOL     OW32539   3.474   4.422   5.835  0.0974  0.4651 -0.1441
 6968SOL    HW132540   3.411   4.468   5.779 -0.8574  0.5462  0.9919
 6968SOL    HW232541   3.435   4.436   5.922  0.5497  0.2799  0.0871
 6969SOL     OW32542   0.961   2.000   4.967  0.4657 -0.3724 -0.1615
 6969SOL    HW132543   1.054   2.021   4.982  0.3697  0.6847 -1.0350
 6969SOL    HW232544   0.934   2.059   5.037 -0.9073 -1.8261  0.5248
 6970SOL     OW32545   0.511   1.064   6.800 -0.7413  0.2904 -0.1393
 6970SOL    HW132546   0.434   1.007   6.799 -0.7358  0.3058 -1.7566
 6970SOL    HW232547   0.584   1.002   6.807 -1.3614 -0.4807 -0.5399
 6971SOL     OW32548   4.626   0.491   5.580  0.3000  0.3151 -0.6484
 6971SOL    HW132549   4.595   0.400   5.576  1.8239 -0.2670  0.5417
 6971SOL    HW232550   4.616   0.498   5.675  0.5492 -0.1113 -0.5894
 6972SOL     OW32551   3.796   1.837  15.703 -0.0091 -0.5679 -0.1434
 6972SOL    HW132552   3.788   1.868  15.613 -1.6452  0.3951  0.3442
 6972SOL    HW232553   3.880   1.791  15.698  0.6172  0.5885 -0.2974
 6973SOL     OW32554   2.787   1.431   3.554 -0.1488  0.1434  0.6059
 6973SOL    HW132555   2.828   1.345   3.546 -0.9983 -0.0682 -1.7378
 6973SOL    HW232556   2.813   1.448   3.644  0.9390 -0.2771  0.3747
 6974SOL     OW32557   2.007   2.799  17.589 -0.3158  0.0732 -0.0768
 6974SOL    HW132558   2.015   2.893  17.573 -0.1384  0.3246  1.4204
 6974SOL    HW232559   2.072   2.790  17.659  0.1605  0.2452 -0.5024
 6975SOL     OW32560   4.620   0.104   4.221  0.8647 -0.0618  0.4685
 6975SOL    HW132561   4.541   0.057   4.249  0.1346  1.7678  1.4379
 6975SOL    HW232562   4.591   0.193   4.205 -0.7737 -0.8480 -0.9891
 6976SOL     OW32563   1.574   0.364  12.941 -0.0138 -0.2062 -0.7045
 6976SOL    HW132564   1.664   0.385  12.917 -0.1325 -0.2082 -1.1519
 6976SOL    HW232565   1.594   0.328  13.027 -2.6454  0.4880  0.2072
 6977SOL     OW32566   0.096   3.044   5.191 -0.1721  0.1574  0.1442
 6977SOL    HW132567   0.123   3.120   5.243  0.0171  0.7927 -0.8967
 6977SOL    HW232568   0.146   2.978   5.238  1.0721 -0.6700 -2.3901
 6978SOL     OW32569   0.726   4.203   8.216 -0.0567  0.3700 -0.1919
 6978SOL    HW132570   0.798   4.212   8.278 -0.9381 -3.3046  1.3554
 6978SOL    HW232571   0.771   4.188   8.133 -0.4533 -1.7377 -0.0185
 6979SOL     OW32572   2.271   3.908  15.729  0.4388 -0.4391 -0.4238
 6979SOL    HW132573   2.204   3.953  15.778 -0.4152 -1.8412 -0.3091
 6979SOL    HW232574   2.210   3.846  15.690 -0.2828  0.1012 -0.1328
 6980SOL     OW32575   4.354   4.398   6.942 -0.0540  0.2907 -0.1418
 6980SOL    HW132576   4.424   4.397   6.877  2.0985 -0.2717  2.1709
 6980SOL    HW232577   4.357   4.308   6.975 -1.7890 -0.1300 -1.0919
 6981SOL     OW32578   0.465   1.184   3.247 -0.3897 -0.2718 -0.8842
 6981SOL    HW132579   0.377   1.193   3.210 -0.5034 -0.2638 -0.6129
 6981SOL    HW232580   0.524   1.209   3.176  0.6040 -1.3717 -0.4466
 6982SOL     OW32581   2.990   3.777  14.796  0.2659  0.6865 -0.5343
 6982SOL    HW132582   3.055   3.831  14.841 -0.6262  0.8469  0.5670
 6982SOL    HW232583   3.041   3.729  14.731 -0.3788  0.4664 -0.8800
 6983SOL     OW32584   2.747   0.143   7.594 -0.1052 -0.1194 -0.1953
 6983SOL    HW132585   2.831   0.171   7.558  0.2917 -1.2962 -0.1886
 6983SOL    HW232586   2.766   0.137   7.688 -0.6588 -0.0573 -0.0813
 6984SOL     OW32587   1.247   0.253   3.606  0.0863  0.3354  0.0302
 6984SOL    HW132588   1.193   0.294   3.673  0.8492  1.5844 -0.1140
 6984SOL    HW232589   1.183   0.227   3.540 -0.8650 -2.1928  1.9394
 6985SOL     OW32590   4.114   2.306  14.153 -0.1060  0.0192 -0.2829
 6985SOL    HW132591   4.165   2.385  14.170 -2.1853  1.1554  0.6860
 6985SOL    HW232592   4.045   2.297  14.219 -0.5148 -1.9410 -0.9759
 6986SOL     OW32593   2.294   3.562   8.007 -0.1644  0.4791  0.2285
 6986SOL    HW132594   2.199   3.561   7.997 -0.0746 -0.7945 -0.4673
 6986SOL    HW232595   2.308   3.478   8.049 -3.1935  0.3071  0.8548
 6987SOL     OW32596   3.627   4.683  15.171 -0.3155  0.1860 -0.2089
 6987SOL    HW132597   3.712   4.677  15.126 -0.4646 -3.3877 -0.0584
 6987SOL    HW232598   3.643   4.622  15.243 -1.0453 -2.6965 -2.4470
 6988SOL     OW32599   4.184   4.259  11.101  0.0468  0.1695 -0.6426
 6988SOL    HW132600   4.198   4.339  11.050  2.7399 -1.8744 -3.0306
 6988SOL    HW232601   4.216   4.196  11.036 -0.6921 -2.1572  1.2586
 6989SOL     OW32602   2.861   0.462   5.931 -0.1633 -0.4353  0.3272
 6989SOL    HW132603   2.825   0.467   6.019  1.0912 -2.3006  0.9440
 6989SOL    HW232604   2.949   0.433   5.954  0.1704  0.1646 -0.1734
 6990SOL     OW32605   1.760   1.032   6.849  0.2175  0.2200  0.2193
 6990SOL    HW132606   1.814   1.023   6.771  0.1400  0.4021  0.1461
 6990SOL    HW232607   1.675   1.067   6.823 -1.0627 -1.8568  1.5403
 6991SOL     OW32608   1.941   4.464   7.419  0.1866 -0.0814 -0.1748
 6991SOL    HW132609   1.910   4.525   7.487 -0.1009 -0.2406 -0.1610
 6991SOL    HW232610   2.033   4.454   7.442  0.4043  1.6721 -0.2833
 6992SOL     OW32611   0.690   0.960   2.531 -0.8446  0.6782 -1.0709
 6992SOL    HW132612   0.759   0.926   2.474 -0.8855 -2.1141  0.4962
 6992SOL    HW232613   0.642   1.014   2.468 -0.3340  1.5608 -0.6953
 6993SOL     OW32614   0.682   1.764   6.289  0.3396  0.0218  0.1026
 6993SOL    HW132615   0.732   1.818   6.228 -1.3601  0.6377 -0.7561
 6993SOL    HW232616   0.616   1.733   6.226 -1.2087 -1.5507  2.5030
 6994SOL     OW32617   2.318   4.580   8.238  0.1344  0.5682 -0.7024
 6994SOL    HW132618   2.330   4.608   8.147  0.0156 -0.0131 -0.9005
 6994SOL    HW232619   2.366   4.499   8.219 -1.4973 -1.1595  2.4796
 6995SOL     OW32620   2.210   4.665   0.428  0.4119  0.3022  0.0674
 6995SOL    HW132621   2.167   4.653   0.343 -0.6108  1.8921  0.3560
 6995SOL    HW232622   2.146   4.616   0.480  0.0625 -0.5749 -1.1846
 6996SOL     OW32623   3.831   0.793   2.692  0.0185  0.3022 -0.2288
 6996SOL    HW132624   3.813   0.700   2.699  1.2338 -0.0161 -1.3001
 6996SOL    HW232625   3.826   0.821   2.783 -3.7909 -0.5425 -0.2105
 6997SOL     OW32626   3.011   0.302   2.756  0.0150  0.3517 -0.0148
 6997SOL    HW132627   3.083   0.340   2.706  0.1260 -1.0536 -0.9271
 6997SOL    HW232628   2.941   0.364   2.735 -2.0843 -1.4346  1.7533
 6998SOL     OW32629   0.873   3.917   0.439  0.1818 -0.2792 -0.0138
 6998SOL    HW132630   0.795   3.937   0.491 -1.3305 -0.2123 -2.3211
 6998SOL    HW232631   0.840   3.954   0.357  2.3667 -1.2935 -1.3671
 6999SOL     OW32632   1.198   2.261  11.175  0.8204  0.1890  0.0411
 6999SOL    HW132633   1.220   2.223  11.090 -1.1143 -2.0310  0.5230
 6999SOL    HW232634   1.181   2.354  11.159 -0.2150  0.1422  0.8572
 7000SOL     OW32635   0.451   4.096   6.099  0.0556  0.3566 -0.6790
 7000SOL    HW132636   0.435   4.006   6.072 -0.3277 -0.2527  1.6041
 7000SOL    HW232637   0.525   4.074   6.155 -2.2582  0.2076  2.3399
 7001SOL     OW32638   3.692   1.170   2.848 -0.3092 -0.6396  0.1292
 7001SOL    HW132639   3.610   1.219   2.835 -0.1708 -0.4873 -0.1731
 7001SOL    HW232640   3.686   1.131   2.761 -2.1261  0.1390 -0.0989
 7002SOL     OW32641   4.543   3.404   1.289 -0.0829  0.3458 -0.3617
 7002SOL    HW132642   4.617   3.348   1.311 -0.5127 -1.0598 -2.3849
 7002SOL    HW232643   4.542   3.473   1.355  1.2751  0.2243 -0.2270
 7003SOL     OW32644   4.657   2.648   3.971 -0.0709  1.0050 -0.3449
 7003SOL    HW132645   4.628   2.561   3.998 -0.1706  0.7548 -1.2446
 7003SOL    HW232646   4.620   2.651   3.882  0.0709 -0.4960 -0.4558
 7004SOL     OW32647   0.319   1.755  14.727 -0.3253 -0.5079  0.4459
 7004SOL    HW132648   0.330   1.741  14.633  1.9481 -2.5178  1.0250
 7004SOL    HW232649   0.231   1.791  14.727  0.2424  0.8934 -1.5284
 7005SOL     OW32650   1.809   3.622   9.472  0.4359  0.2283  0.4733
 7005SOL    HW132651   1.851   3.547   9.515 -1.0481 -0.4646  0.6997
 7005SOL    HW232652   1.856   3.644   9.392  0.2684 -0.7421  0.1152
 7006SOL     OW32653   1.601   3.545   4.607  0.4368  0.6261  0.4905
 7006SOL    HW132654   1.636   3.517   4.522 -0.6417 -0.7357  0.4936
 7006SOL    HW232655   1.508   3.522   4.600  0.8997 -1.0189 -0.1531
 7007SOL     OW32656   0.917   2.953   5.593 -0.5292  0.2836  0.0020
 7007SOL    HW132657   0.829   2.976   5.564 -0.1533 -0.1223 -1.4484
 7007SOL    HW232658   0.951   3.041   5.612  1.3194 -0.4137 -0.0881
 7008SOL     OW32659   3.823   0.687   2.164  0.5451 -0.0608 -0.1829
 7008SOL    HW132660   3.896   0.691   2.102  1.3188  0.0235  0.7298
 7008SOL    HW232661   3.840   0.602   2.206 -0.6102  0.5978  1.6056
 7009SOL     OW32662   2.487   1.763   2.512 -0.1662  0.6217  0.5579
 7009SOL    HW132663   2.565   1.818   2.511  0.0856  0.2691  0.6292
 7009SOL    HW232664   2.476   1.720   2.427 -0.5597  1.1497  0.3425
 7010SOL     OW32665   2.065   1.486  15.656  0.5333 -0.0345  0.4535
 7010SOL    HW132666   1.983   1.437  15.650 -0.2647  1.2442  0.9306
 7010SOL    HW232667   2.111   1.426  15.597  0.4671  1.3443 -1.0047
 7011SOL     OW32668   3.059   3.543   4.222  0.0550  0.4788 -0.0689
 7011SOL    HW132669   3.138   3.509   4.179 -0.6877  0.6420 -1.5794
 7011SOL    HW232670   2.999   3.470   4.204 -0.0603  0.5677 -0.0391
 7012SOL     OW32671   2.843   1.399   4.525 -0.6812  0.0920  0.4395
 7012SOL    HW132672   2.843   1.342   4.601 -0.1921  2.5557  2.2941
 7012SOL    HW232673   2.924   1.368   4.483 -0.4290  2.0019 -0.5031
 7013SOL     OW32674   1.382   3.010   7.435 -0.2517  0.1788 -0.7353
 7013SOL    HW132675   1.359   2.970   7.519 -1.3771  2.7656  0.1554
 7013SOL    HW232676   1.406   2.935   7.380 -2.3091 -0.5724 -0.6133
 7014SOL     OW32677   0.986   3.236   5.688  0.4233 -0.3119 -0.0918
 7014SOL    HW132678   1.026   3.292   5.754  0.8695 -0.4743 -0.2236
 7014SOL    HW232679   0.974   3.301   5.620 -0.6426 -1.1823 -0.7344
 7015SOL     OW32680   2.965   3.593  12.777 -0.6502  0.3667  0.8403
 7015SOL    HW132681   2.877   3.623  12.756 -0.8076 -1.0272 -0.5215
 7015SOL    HW232682   2.939   3.525  12.840 -0.2739 -1.7156 -1.2392
 7016SOL     OW32683   4.595   1.576   0.781  0.0352  0.3115 -0.4276
 7016SOL    HW132684   4.554   1.659   0.804  1.1399  1.6445 -3.2577
 7016SOL    HW232685   4.624   1.540   0.865 -0.8357  0.6054 -0.0045
 7017SOL     OW32686   0.729   1.382   8.956 -0.3532  0.0065 -0.0183
 7017SOL    HW132687   0.720   1.288   8.945  0.9008 -0.2356  1.0542
 7017SOL    HW232688   0.691   1.398   8.870  1.2868  3.9426 -0.0186
 7018SOL     OW32689   2.618   1.727   6.608 -0.2259  0.5882 -0.0503
 7018SOL    HW132690   2.625   1.646   6.658  1.9464 -0.5191 -2.1507
 7018SOL    HW232691   2.656   1.790   6.669  0.2965  1.0689 -0.8725
 7019SOL     OW32692   2.556   0.925   6.111  0.1617 -0.1655  0.0727
 7019SOL    HW132693   2.612   0.979   6.167  0.5424  0.0791 -0.5480
 7019SOL    HW232694   2.549   0.976   6.030 -0.5724 -1.8708 -0.9373
 7020SOL     OW32695   1.054   0.014   4.456 -0.3433 -0.2260 -0.0178
 7020SOL    HW132696   1.134   4.711   4.423 -0.1213  1.5617 -1.7309
 7020SOL    HW232697   1.043   4.729   4.548  1.9254  2.0885  0.8783
 7021SOL     OW32698   0.221   4.062   2.851 -0.0430  0.6670  0.1011
 7021SOL    HW132699   0.155   4.001   2.882  2.8056 -2.2651  0.3673
 7021SOL    HW232700   0.230   4.034   2.760  0.8517  0.6055  0.2144
 7022SOL     OW32701   3.466   0.304  10.976  0.2098 -0.2414 -0.2498
 7022SOL    HW132702   3.450   0.298  10.881  3.9059  0.2754 -0.8869
 7022SOL    HW232703   3.404   0.240  11.012 -0.8936  0.5340 -0.7431
 7023SOL     OW32704   3.511   3.850  12.730  0.5375  0.1217 -0.2799
 7023SOL    HW132705   3.499   3.939  12.698 -1.1737 -1.0269 -2.8120
 7023SOL    HW232706   3.471   3.843  12.817  1.5943 -0.8207  0.1356
 7024SOL     OW32707   1.532   1.515   9.529  0.0170 -0.4938 -0.5148
 7024SOL    HW132708   1.617   1.560   9.524 -0.3896  0.2021 -1.1190
 7024SOL    HW232709   1.564   1.430   9.501  1.4300  0.1986 -1.0340
 7025SOL     OW32710   3.251   2.102   1.389  0.8356 -0.0071  0.2779
 7025SOL    HW132711   3.307   2.158   1.336  0.4202  0.5885  0.4732
 7025SOL    HW232712   3.236   2.157   1.466  1.5276  0.0211  0.3983
 7026SOL     OW32713   0.782   3.807  17.575 -0.0262  0.4965 -0.1411
 7026SOL    HW132714   0.823   3.868  17.513  1.4729 -1.2578 -0.8367
 7026SOL    HW232715   0.746   3.735  17.523  2.1220  1.4632 -2.9670
 7027SOL     OW32716   3.732   1.825   9.051  0.1158 -0.7900 -0.5826
 7027SOL    HW132717   3.806   1.816   8.991  2.3851  1.3543  1.8515
 7027SOL    HW232718   3.777   1.841   9.135 -1.7442  1.8931 -0.1130
 7028SOL     OW32719   1.333   2.731   3.127 -0.1678 -0.4252 -0.0946
 7028SOL    HW132720   1.398   2.732   3.198 -0.8741 -0.7539  0.5553
 7028SOL    HW232721   1.276   2.659   3.152  1.8281 -1.8252  0.4436
 7029SOL     OW32722   1.576   4.026   1.526 -0.1398 -0.0859  0.0295
 7029SOL    HW132723   1.649   3.994   1.579 -0.2806 -0.2534  0.1216
 7029SOL    HW232724   1.507   3.972   1.564 -0.0012  0.4448  1.0314
 7030SOL     OW32725   1.221   2.912   5.867 -0.0726 -0.3892 -0.2188
 7030SOL    HW132726   1.187   2.972   5.934  1.5409  1.3794 -0.9730
 7030SOL    HW232727   1.313   2.931   5.884  0.0502 -0.3031 -0.9945
 7031SOL     OW32728   3.099   3.384   9.259  0.4787 -0.3438 -0.1049
 7031SOL    HW132729   3.065   3.447   9.322  2.9282  0.8916 -0.0021
 7031SOL    HW232730   3.089   3.432   9.177  0.2506 -1.2800 -0.6239
 7032SOL     OW32731   3.783   2.843   5.783 -0.6577 -0.2321 -0.1787
 7032SOL    HW132732   3.837   2.866   5.707 -1.4674  1.8735 -0.0947
 7032SOL    HW232733   3.844   2.850   5.856 -0.6844  1.6695 -0.3596
 7033SOL     OW32734   0.027   1.892  16.377 -0.6649  0.0778 -0.7057
 7033SOL    HW132735   0.018   1.809  16.424  0.0237  0.6979  0.5136
 7033SOL    HW232736   4.677   1.918  16.354 -1.3312 -0.2516  1.5055
 7034SOL     OW32737   1.307   3.595   7.713 -0.2962  0.2242  0.0089
 7034SOL    HW132738   1.232   3.653   7.710  0.2963  1.0276  0.7117
 7034SOL    HW232739   1.265   3.518   7.753  0.3977  1.0026  2.2350
 7035SOL     OW32740   2.766   2.247   8.006  0.5606  0.1926  0.0286
 7035SOL    HW132741   2.682   2.281   7.976  0.7179  0.5687  0.0191
 7035SOL    HW232742   2.792   2.195   7.930 -0.6044  1.6626 -1.3925
 7036SOL     OW32743   3.354   3.397   9.968  0.0517  0.5227  0.2584
 7036SOL    HW132744   3.439   3.357   9.951 -0.7055  0.0878 -2.5127
 7036SOL    HW232745   3.326   3.337  10.037 -1.1486  0.9548  0.1471
 7037SOL     OW32746   4.636   0.467   2.308 -0.5078 -0.3254 -0.4687
 7037SOL    HW132747   4.678   0.387   2.339 -0.5705 -0.0515  0.3418
 7037SOL    HW232748   4.589   0.509   2.381  2.4990  1.6413  0.3316
 7038SOL     OW32749   0.976   1.362   8.734  1.2622  0.3379 -0.1364
 7038SOL    HW132750   0.883   1.383   8.741  1.5042  0.7482  1.7382
 7038SOL    HW232751   1.004   1.446   8.700  1.0901  1.1723  1.7704
 7039SOL     OW32752   2.021   0.267   2.904  0.6405 -0.0781  0.2177
 7039SOL    HW132753   2.074   0.247   2.827 -0.2962 -0.2136 -0.3890
 7039SOL    HW232754   2.050   0.355   2.929 -1.2284  0.6433 -0.1814
 7040SOL     OW32755   2.580   4.172   4.682 -0.1655  0.7115  0.4155
 7040SOL    HW132756   2.538   4.228   4.747  1.4092 -0.8827  2.7998
 7040SOL    HW232757   2.502   4.153   4.629  1.4697 -0.0677 -1.6647
 7041SOL     OW32758   3.993   3.068   1.600 -0.3091 -0.3547  1.1031
 7041SOL    HW132759   3.952   3.055   1.686 -1.2061  0.5113  0.7993
 7041SOL    HW232760   4.063   3.131   1.615 -0.7045  0.7146 -1.7244
 7042SOL     OW32761   1.944   0.013   4.030  0.2356  0.3440  0.4266
 7042SOL    HW132762   2.028   0.059   4.023  0.8336 -0.2751  3.6858
 7042SOL    HW232763   1.960   4.669   4.075 -2.0865  0.0185  0.6359
 7043SOL     OW32764   2.377   1.218   8.013  0.3776 -0.6632  0.4377
 7043SOL    HW132765   2.281   1.219   8.019  0.3572 -0.9845  0.1922
 7043SOL    HW232766   2.385   1.128   7.983 -2.3973 -0.0537 -2.1651
 7044SOL     OW32767   3.042   3.293   2.744 -0.2102  0.0550  0.3302
 7044SOL    HW132768   2.996   3.329   2.669 -0.6879 -2.0825 -0.3950
 7044SOL    HW232769   2.975   3.282   2.812 -1.0216 -1.2889 -0.6847
 7045SOL     OW32770   0.954   3.775   4.379  0.2281 -0.9546  0.1053
 7045SOL    HW132771   1.011   3.698   4.380  1.5113 -0.0298 -1.2992
 7045SOL    HW232772   0.915   3.756   4.294 -0.1026 -0.9800  0.2653
 7046SOL     OW32773   0.212   3.101   6.715  0.1038  0.2930 -0.2515
 7046SOL    HW132774   0.208   3.191   6.682 -1.1351 -0.3103 -1.7297
 7046SOL    HW232775   0.196   3.112   6.809 -0.4943 -0.8993 -0.2186
 7047SOL     OW32776   3.613   2.904  12.241  0.0800 -0.0126  0.0253
 7047SOL    HW132777   3.683   2.930  12.301  1.9512  0.5420 -2.3858
 7047SOL    HW232778   3.553   2.975  12.263  0.9278  0.3945  1.0277
 7048SOL     OW32779   0.113   2.072   8.933  0.4051  0.2197  0.0402
 7048SOL    HW132780   0.084   2.006   8.995 -2.5767  2.6993  1.2732
 7048SOL    HW232781   0.206   2.053   8.919  0.5986 -0.0969  1.8617
 7049SOL     OW32782   2.800   1.147   8.182  0.4010  0.3299 -0.4838
 7049SOL    HW132783   2.793   1.145   8.087  0.7487  0.3011 -0.5103
 7049SOL    HW232784   2.756   1.063   8.199 -1.1532  1.5227  1.3139
 7050SOL     OW32785   1.799   1.814   9.442  0.0881  0.4680  0.5910
 7050SOL    HW132786   1.865   1.880   9.423  1.8513 -1.5602 -0.4070
 7050SOL    HW232787   1.785   1.776   9.355 -1.2347 -0.7156  1.3292
 7051SOL     OW32788   4.230   4.105  10.881  0.3574 -0.6974 -0.4494
 7051SOL    HW132789   4.235   4.021  10.835 -0.2409 -0.5295 -0.8243
 7051SOL    HW232790   4.159   4.144  10.830  0.1786  0.8355  0.9629
 7052SOL     OW32791   0.699   0.767  16.553  0.1310  0.7474 -0.4821
 7052SOL    HW132792   0.691   0.689  16.498  1.1981 -0.0304  0.4782
 7052SOL    HW232793   0.788   0.782  16.522 -0.4560 -0.7221 -2.8447
 7053SOL     OW32794   2.583   1.474  12.803 -0.1378  0.3990 -0.0696
 7053SOL    HW132795   2.657   1.445  12.857 -0.2846 -0.2297 -0.2044
 7053SOL    HW232796   2.630   1.499  12.723 -0.2938 -1.0824 -0.6412
 7054SOL     OW32797   1.273   2.736   1.872  0.2396  0.0047  0.5608
 7054SOL    HW132798   1.219   2.811   1.898 -0.7681 -0.9738  1.2928
 7054SOL    HW232799   1.206   2.698   1.814  0.8338 -0.6547  0.3091
 7055SOL     OW32800   3.567   1.493  16.450  0.1595  0.2560  0.3394
 7055SOL    HW132801   3.526   1.577  16.471 -0.6376  0.2221 -1.0685
 7055SOL    HW232802   3.599   1.467  16.536 -0.9963 -1.8636  0.1279
 7056SOL     OW32803   2.260   4.317   1.887  0.1561 -0.4343 -0.0665
 7056SOL    HW132804   2.206   4.377   1.938  0.1275  2.0762 -3.0575
 7056SOL    HW232805   2.287   4.373   1.814 -2.0074 -0.9962 -1.3084
 7057SOL     OW32806   3.431   2.331   3.137  0.2702  0.1482  0.6129
 7057SOL    HW132807   3.336   2.332   3.149 -0.0922 -2.3557 -2.0882
 7057SOL    HW232808   3.438   2.264   3.068  1.9861 -0.0556  0.9738
 7058SOL     OW32809   2.845   2.777   8.310  0.2512  0.0416  0.1535
 7058SOL    HW132810   2.861   2.757   8.402 -0.4119 -1.3566 -0.0382
 7058SOL    HW232811   2.927   2.822   8.288 -0.4406  0.4768 -1.5403
 7059SOL     OW32812   0.866   4.175  16.895  0.3362 -0.3484  0.0886
 7059SOL    HW132813   0.842   4.111  16.829 -1.4298 -1.8709  2.2244
 7059SOL    HW232814   0.799   4.242  16.882 -0.0028 -0.8361 -0.6348
 7060SOL     OW32815   4.594   3.330   7.443 -0.6312 -0.7865 -0.2966
 7060SOL    HW132816   4.660   3.399   7.437 -2.0549  0.2973 -3.5053
 7060SOL    HW232817   4.638   3.251   7.476 -0.5731 -1.2826 -1.5704
 7061SOL     OW32818   4.410   4.428   4.058  0.4517  0.1820  0.2784
 7061SOL    HW132819   4.335   4.485   4.073  0.8183  0.7619 -0.1010
 7061SOL    HW232820   4.420   4.388   4.144  1.2706 -1.4429 -0.5706
 7062SOL     OW32821   2.760   1.718   6.984 -0.6748  0.4253  0.1387
 7062SOL    HW132822   2.687   1.707   7.045 -1.0305 -2.6037 -0.8226
 7062SOL    HW232823   2.742   1.637   6.936 -3.3164  1.8122 -1.1577
 7063SOL     OW32824   4.173   2.069   9.951 -0.4066 -0.0037 -0.3518
 7063SOL    HW132825   4.146   2.041  10.039  2.0270  0.9441  0.6963
 7063SOL    HW232826   4.154   2.163   9.955  0.9098  0.1487  2.0672
 7064SOL     OW32827   0.315   4.542   7.215 -0.1388  0.7868 -0.0129
 7064SOL    HW132828   0.292   4.634   7.226 -1.2389  0.7661 -2.1853
 7064SOL    HW232829   0.387   4.545   7.152  0.1513  0.0443  0.2824
 7065SOL     OW32830   2.323   0.265   0.773 -0.0343  0.2474 -0.6607
 7065SOL    HW132831   2.417   0.279   0.779  0.2071  0.1793 -4.1695
 7065SOL    HW232832   2.333   0.179   0.733  2.2968 -0.7434  2.1380
 7066SOL     OW32833   0.499   3.437   5.940 -0.2734  0.1324  0.7511
 7066SOL    HW132834   0.585   3.427   5.899 -1.5273  0.0257 -1.8750
 7066SOL    HW232835   0.443   3.447   5.863  1.3719 -2.5393 -0.8023
 7067SOL     OW32836   0.370   0.074   7.226  0.2360 -0.0747  0.6113
 7067SOL    HW132837   0.408   0.081   7.314 -0.7819  0.8195  0.9807
 7067SOL    HW232838   0.353   0.162   7.194  0.3427  0.4118  1.8957
 7068SOL     OW32839   0.311   0.838   7.348  0.8255 -0.1000  0.0323
 7068SOL    HW132840   0.255   0.760   7.351  0.3381  0.3010  1.1904
 7068SOL    HW232841   0.291   0.870   7.261 -2.3734  1.0312  1.1930
 7069SOL     OW32842   0.673   0.220  15.997 -0.1049  0.0900 -0.3317
 7069SOL    HW132843   0.686   0.235  16.090 -0.2389  1.1354 -0.4788
 7069SOL    HW232844   0.762   0.215  15.963 -0.2359 -1.2920 -0.4918
 7070SOL     OW32845   0.908   3.897   6.181 -0.7557 -0.2750 -0.0175
 7070SOL    HW132846   1.002   3.882   6.170 -0.3869 -0.4416  3.2199
 7070SOL    HW232847   0.873   3.844   6.253  0.7535 -1.9325 -0.4966
 7071SOL     OW32848   4.506   0.045  12.662  0.1403 -0.1463  0.6399
 7071SOL    HW132849   4.528   0.016  12.574  1.6005 -1.5613  1.4680
 7071SOL    HW232850   4.478   4.700  12.698 -1.6085  0.0026 -0.3604
 7072SOL     OW32851   2.475   1.339   6.973  0.2590  0.3018  0.6023
 7072SOL    HW132852   2.425   1.402   7.024  1.3410  2.6794 -1.2418
 7072SOL    HW232853   2.429   1.261   7.002  1.7319 -1.3073 -1.4399
 7073SOL     OW32854   2.248   1.432   3.569  0.4627 -0.3847 -0.1316
 7073SOL    HW132855   2.276   1.504   3.626  3.1320 -2.2520  0.9362
 7073SOL    HW232856   2.252   1.354   3.625  1.5788 -0.6810 -0.6294
 7074SOL     OW32857   1.000   2.460   3.091 -0.3492 -0.6394  0.0435
 7074SOL    HW132858   1.020   2.462   3.184  1.4109  3.4583 -0.3995
 7074SOL    HW232859   1.082   2.493   3.054 -0.1312 -0.5144  0.6352
 7075SOL     OW32860   0.539   0.267   5.590 -0.0437 -0.5365 -0.0967
 7075SOL    HW132861   0.504   0.186   5.554 -3.0246  1.6347 -2.0521
 7075SOL    HW232862   0.537   0.321   5.511 -1.4498 -1.0802 -0.4372
 7076SOL     OW32863   1.930   2.971   6.868  0.1962  0.1782 -0.1918
 7076SOL    HW132864   1.920   3.024   6.788 -0.4875  1.9885  1.0745
 7076SOL    HW232865   1.838   2.948   6.884 -0.0021 -0.3954 -2.2209
 7077SOL     OW32866   0.752   3.062  17.541  0.0784 -0.9059  0.4603
 7077SOL    HW132867   0.815   3.110  17.595  0.7618 -0.1764 -0.9867
 7077SOL    HW232868   0.692   3.132  17.519 -0.2494 -1.0114  1.0149
 7078SOL     OW32869   4.669   4.050   2.630  0.2523  0.1755  0.0618
 7078SOL    HW132870   4.710   3.968   2.602  0.7056  0.7863 -1.0208
 7078SOL    HW232871   4.592   4.034   2.685  0.0252  1.4593  0.1268
 7079SOL     OW32872   2.751   3.572   4.392  0.2511 -0.8376  0.3740
 7079SOL    HW132873   2.789   3.648   4.437  0.2420 -0.5644 -0.0850
 7079SOL    HW232874   2.796   3.498   4.432  0.9717 -0.4194  0.3420
 7080SOL     OW32875   3.389   1.030   3.665  0.3747  0.9225  0.2411
 7080SOL    HW132876   3.392   1.121   3.637  0.9306  0.6794 -0.5293
 7080SOL    HW232877   3.419   1.032   3.756  1.2644  0.3042 -0.0354
 7081SOL     OW32878   0.632   3.953   2.268 -0.1714  0.1824 -0.5006
 7081SOL    HW132879   0.655   3.888   2.201  0.4740 -0.2503  0.1386
 7081SOL    HW232880   0.683   4.032   2.249  0.5044  0.2540  1.6527
 7082SOL     OW32881   1.615   2.034   1.913 -0.1628  0.0293 -0.1436
 7082SOL    HW132882   1.553   1.962   1.895 -0.4128 -0.5133  2.8209
 7082SOL    HW232883   1.559   2.111   1.914 -0.2211 -0.0008 -2.2925
 7083SOL     OW32884   2.161   1.003  13.374  0.4354  0.3236 -0.4112
 7083SOL    HW132885   2.231   0.938  13.374  0.3334  0.2533  2.7864
 7083SOL    HW232886   2.084   0.946  13.378  2.3235 -2.1736  0.5419
 7084SOL     OW32887   3.712   2.334   8.289  0.2499 -0.0148 -0.0917
 7084SOL    HW132888   3.640   2.279   8.322  1.5369 -0.5661  1.7824
 7084SOL    HW232889   3.770   2.272   8.245 -0.7800  1.0087 -2.9062
 7085SOL     OW32890   2.128   4.699   5.888  0.3810  0.0744  0.1029
 7085SOL    HW132891   2.167   4.649   5.816 -1.7397  0.4804 -1.3238
 7085SOL    HW232892   2.187   0.034   5.903  3.2813 -1.7927 -2.0467
 7086SOL     OW32893   2.417   3.688   5.453 -0.1879 -0.7158  0.3001
 7086SOL    HW132894   2.436   3.740   5.375 -0.5925 -0.1905  0.5500
 7086SOL    HW232895   2.502   3.679   5.496  0.9082  1.4454 -1.4452
 7087SOL     OW32896   2.204   2.079  11.358  0.3203 -0.0825  0.4269
 7087SOL    HW132897   2.191   2.002  11.414 -1.8409 -0.9944 -1.3409
 7087SOL    HW232898   2.211   2.146  11.426 -3.5711  0.6570  0.0849
 7088SOL     OW32899   2.128   0.239   9.736  0.5988  0.0962  0.1771
 7088SOL    HW132900   2.167   0.215   9.652  1.9186 -0.7520  1.0407
 7088SOL    HW232901   2.135   0.154   9.779 -0.9980  0.4755  1.1907
 7089SOL     OW32902   3.016   1.108   5.083  0.7041 -0.5470  0.0541
 7089SOL    HW132903   2.923   1.128   5.076  1.1881  1.9798  0.9272
 7089SOL    HW232904   3.047   1.192   5.050 -1.7358  0.8138  1.2686
 7090SOL     OW32905   3.054   4.464   8.275  0.2504 -0.5612 -0.6227
 7090SOL    HW132906   3.004   4.516   8.338  0.2733 -2.8478  1.3079
 7090SOL    HW232907   3.141   4.504   8.283  0.5710 -0.7865 -3.0946
 7091SOL     OW32908   0.122   1.541   2.669  0.2499 -0.7061  0.2891
 7091SOL    HW132909   0.099   1.455   2.632 -1.5486  0.4706 -1.2913
 7091SOL    HW232910   0.099   1.596   2.595 -0.1167 -0.7384  0.3768
 7092SOL     OW32911   1.617   2.543   7.743 -0.0192 -0.5044 -0.0614
 7092SOL    HW132912   1.548   2.486   7.710  1.3399 -1.5952 -1.0109
 7092SOL    HW232913   1.587   2.629   7.713  4.0133  0.8484 -0.2382
 7093SOL     OW32914   3.314   4.667   6.786  0.2611 -0.4698 -0.2803
 7093SOL    HW132915   3.346   4.582   6.815  3.6322  1.1311  0.7183
 7093SOL    HW232916   3.255   4.702   6.854  1.8220  0.2304  0.7023
 7094SOL     OW32917   1.168   2.218   7.861 -0.5972  0.1026 -0.0319
 7094SOL    HW132918   1.141   2.216   7.769 -3.0981 -0.7915  0.7229
 7094SOL    HW232919   1.123   2.145   7.903  1.7877 -0.0542  2.2383
 7095SOL     OW32920   2.193   1.165   2.437 -1.0771  0.2380 -0.2807
 7095SOL    HW132921   2.105   1.200   2.430 -0.2567  2.1721 -0.8187
 7095SOL    HW232922   2.177   1.079   2.476 -0.1577 -0.0393 -0.5042
 7096SOL     OW32923   2.507   2.898   2.978  0.3153  0.6473  0.0297
 7096SOL    HW132924   2.602   2.892   2.968  0.5402  1.9046  1.3949
 7096SOL    HW232925   2.485   2.806   2.988 -1.0014  1.2169  2.4326
 7097SOL     OW32926   1.484   0.274   6.433 -0.3630  0.7772 -0.1546
 7097SOL    HW132927   1.548   0.209   6.463 -0.8968  0.5554  0.4879
 7097SOL    HW232928   1.537   0.353   6.425  0.8915 -0.1406 -1.0496
 7098SOL     OW32929   2.980   0.462   6.872  1.0513  0.8635 -0.3296
 7098SOL    HW132930   2.940   0.449   6.958 -0.5384 -1.1122 -1.3576
 7098SOL    HW232931   3.048   0.395   6.883 -0.7639 -1.6411 -4.0317
 7099SOL     OW32932   3.580   2.477   1.460 -0.7121  0.7240 -0.2403
 7099SOL    HW132933   3.580   2.566   1.424 -1.1348  0.3772 -1.0976
 7099SOL    HW232934   3.534   2.496   1.542 -1.4436  3.1461 -1.2137
 7100SOL     OW32935   4.008   0.265   7.688  0.2807  0.4436 -0.0963
 7100SOL    HW132936   3.945   0.304   7.749 -1.4704  0.6687 -2.0338
 7100SOL    HW232937   4.089   0.312   7.707  0.7182 -0.8472  1.2708
 7101SOL     OW32938   4.212   2.531   9.145 -0.4989  0.7270  0.4427
 7101SOL    HW132939   4.305   2.519   9.123 -0.7924  0.7905 -0.8602
 7101SOL    HW232940   4.177   2.563   9.062 -1.2850 -0.4298  0.3280
 7102SOL     OW32941   2.964   1.399   1.284  0.0826 -0.9567  0.2207
 7102SOL    HW132942   2.871   1.379   1.284 -0.1570  0.1445 -1.0527
 7102SOL    HW232943   2.992   1.353   1.363 -1.6133  0.9646  1.9444
 7103SOL     OW32944   1.766   0.059   8.601 -0.0454  0.0003 -0.2355
 7103SOL    HW132945   1.807   0.044   8.516 -0.8442 -1.4972 -0.3594
 7103SOL    HW232946   1.812   0.136   8.633  0.5314 -0.0451 -0.9448
 7104SOL     OW32947   4.106   0.741   3.792 -0.5228  0.9958  0.3354
 7104SOL    HW132948   4.082   0.779   3.708  0.8680  2.5290  0.6207
 7104SOL    HW232949   4.016   0.718   3.815 -0.5170  1.2479  0.6118
 7105SOL     OW32950   2.503   3.508   5.804  0.1600  0.4851  0.1236
 7105SOL    HW132951   2.435   3.566   5.769  0.1565  1.0251  1.0066
 7105SOL    HW232952   2.513   3.538   5.895 -0.3609  1.3099 -0.0866
 7106SOL     OW32953   3.960   2.888   7.943  0.2357  0.4119 -0.3714
 7106SOL    HW132954   3.989   2.973   7.908 -2.0874  0.7013 -1.6277
 7106SOL    HW232955   4.028   2.878   8.009 -0.2488  0.4055  0.1219
 7107SOL     OW32956   1.314   4.739   7.700 -0.2083  0.8991  0.1951
 7107SOL    HW132957   1.259   0.048   7.638  3.2112  3.8128 -0.5361
 7107SOL    HW232958   1.402   0.022   7.669 -0.8667  1.6141 -1.1662
 7108SOL     OW32959   1.991   3.402  14.925  0.4023 -0.1343  0.3096
 7108SOL    HW132960   1.949   3.319  14.949  1.3349 -0.0499  2.2277
 7108SOL    HW232961   2.068   3.403  14.982  1.4161  1.5122 -1.0805
 7109SOL     OW32962   0.746   4.626  15.519 -0.3594 -0.0957  0.3065
 7109SOL    HW132963   0.818   4.612  15.457 -1.0304 -0.6068 -0.3674
 7109SOL    HW232964   0.687   4.552  15.501 -0.9950  0.6119 -0.4658
 7110SOL     OW32965   0.097   0.991  10.637 -0.0958  0.0842  0.0354
 7110SOL    HW132966   0.182   1.029  10.660  0.4516 -0.9499 -0.3172
 7110SOL    HW232967   0.069   0.945  10.716 -0.2302 -0.3937 -0.2950
 7111SOL     OW32968   1.389   3.581   4.283 -0.2269 -0.1217 -0.3096
 7111SOL    HW132969   1.334   3.625   4.219  0.4993  1.2338 -0.0034
 7111SOL    HW232970   1.394   3.496   4.239  0.4543 -0.1773 -0.1281
 7112SOL     OW32971   4.285   4.180   9.615  0.0064  0.1009 -0.3685
 7112SOL    HW132972   4.363   4.137   9.652 -0.0029 -0.5786 -1.1473
 7112SOL    HW232973   4.258   4.121   9.545 -1.9971  0.3855  0.1679
 7113SOL     OW32974   3.059   2.415   7.749 -0.2445  0.3933 -0.1305
 7113SOL    HW132975   3.073   2.321   7.742 -1.3570  0.1233  1.1264
 7113SOL    HW232976   3.113   2.433   7.826  1.1784 -0.7995 -0.8422
 7114SOL     OW32977   3.488   1.878   3.009 -0.0374  0.7178 -0.3329
 7114SOL    HW132978   3.523   1.823   2.939 -0.1775  1.6753 -1.1502
 7114SOL    HW232979   3.501   1.821   3.085  0.2014 -0.1267 -1.0005
 7115SOL     OW32980   1.205   0.513   6.667 -0.3539 -0.2559 -0.3598
 7115SOL    HW132981   1.174   0.561   6.744 -0.2772 -2.3292  0.9403
 7115SOL    HW232982   1.204   0.581   6.599 -2.2456 -0.1379 -0.2058
 7116SOL     OW32983   2.344   2.424   8.126 -0.3301  0.4949 -0.7296
 7116SOL    HW132984   2.307   2.341   8.158  1.2731 -0.3536 -1.0733
 7116SOL    HW232985   2.430   2.414   8.168 -1.1635 -1.6148  0.4908
 7117SOL     OW32986   2.708   3.786  14.693 -0.0434  0.1220  0.5363
 7117SOL    HW132987   2.798   3.779  14.724 -0.4330 -2.5061  1.1257
 7117SOL    HW232988   2.728   3.812  14.603 -2.6773  3.0939  0.8042
 7118SOL     OW32989   1.485   4.117  16.636 -0.2123 -0.3203  0.0443
 7118SOL    HW132990   1.531   4.201  16.635 -0.0777 -0.4051 -0.7399
 7118SOL    HW232991   1.465   4.113  16.543  1.2211  0.9383 -0.3307
 7119SOL     OW32992   1.627   1.835   3.887  0.9034 -0.3028  0.0047
 7119SOL    HW132993   1.540   1.871   3.904  1.3856  1.6189 -1.5656
 7119SOL    HW232994   1.613   1.797   3.800 -2.4205 -3.3333  1.8894
 7120SOL     OW32995   4.216   2.804   5.081  0.0580 -0.1846 -0.0542
 7120SOL    HW132996   4.285   2.786   5.017  0.6198  1.8441 -0.0232
 7120SOL    HW232997   4.258   2.841   5.158  1.3483  0.6223 -1.1329
 7121SOL     OW32998   3.656   3.627   1.946 -0.2195  0.1914 -0.5149
 7121SOL    HW132999   3.586   3.677   1.987  0.9885 -0.1928  2.0422
 7121SOL    HW233000   3.686   3.556   2.003  0.0837  2.0096  1.5940
 7122SOL     OW33001   3.523   4.013   3.528 -0.4852 -0.7419  0.0357
 7122SOL    HW133002   3.607   3.979   3.499 -0.7583 -2.7597  1.5981
 7122SOL    HW233003   3.509   3.950   3.599 -3.4802  0.0746  0.1692
 7123SOL     OW33004   2.473   0.738  13.650  0.4753  0.7984 -0.3250
 7123SOL    HW133005   2.557   0.692  13.659  0.2582  0.5693  0.5176
 7123SOL    HW233006   2.421   0.676  13.700 -2.1318  3.1273 -0.1434
 7124SOL     OW33007   2.886   3.312  14.511 -0.7800  0.0334  0.4218
 7124SOL    HW133008   2.916   3.227  14.544  1.1987  1.0588  1.2519
 7124SOL    HW233009   2.890   3.362  14.593 -0.4861 -0.5170  0.7434
 7125SOL     OW33010   3.324   4.084   8.202 -0.0373  0.1273  0.2256
 7125SOL    HW133011   3.312   3.991   8.224 -1.5599 -0.1746 -1.8595
 7125SOL    HW233012   3.232   4.103   8.219  0.7461  1.0990  3.2839
 7126SOL     OW33013   0.655   4.679  16.451 -0.6351  0.5687 -0.4194
 7126SOL    HW133014   0.743   4.716  16.446 -0.8663  1.3091  1.0169
 7126SOL    HW233015   0.610   0.021  16.474 -0.1384  0.7514 -0.1159
 7127SOL     OW33016   0.626   1.758   8.983  0.7206 -0.2398 -0.4655
 7127SOL    HW133017   0.631   1.792   8.894  0.6999  2.2310  0.4756
 7127SOL    HW233018   0.657   1.832   9.034 -1.2760  0.0392  0.3653
 7128SOL     OW33019   1.018   2.966  14.547 -0.0623 -0.0404 -0.3752
 7128SOL    HW133020   1.066   2.988  14.468  1.2709  0.2107  0.5054
 7128SOL    HW233021   0.955   2.903  14.512 -0.6024  0.7483 -0.8378
 7129SOL     OW33022   4.631   4.354   9.490 -0.1840  0.3979  0.3034
 7129SOL    HW133023   4.583   4.276   9.465 -0.2744  0.6746 -0.3852
 7129SOL    HW233024   4.707   4.352   9.431 -1.2507  0.9446 -1.1015
 7130SOL     OW33025   2.461   1.960  16.641  0.0351  0.0605  0.1880
 7130SOL    HW133026   2.419   1.891  16.693  1.8228 -1.1402  0.0534
 7130SOL    HW233027   2.392   2.024  16.626  0.9622  0.7748 -0.9992
 7131SOL     OW33028   0.659   4.414  12.790  0.1049  0.3287 -0.2401
 7131SOL    HW133029   0.704   4.332  12.809  2.2027  0.9685 -2.3349
 7131SOL    HW233030   0.732   4.460  12.748  0.0298 -1.0047 -1.8555
 7132SOL     OW33031   1.583   2.075   4.901  0.4003  0.2290  0.2789
 7132SOL    HW133032   1.606   1.990   4.936 -2.5352  0.0965  1.8952
 7132SOL    HW233033   1.487   2.076   4.911  0.4728  4.9623  0.8445
 7133SOL     OW33034   3.602   0.353   8.629  0.0042 -0.4354 -0.2356
 7133SOL    HW133035   3.536   0.310   8.574  0.7307  0.2071 -1.6290
 7133SOL    HW233036   3.632   0.278   8.679 -2.1151 -0.2105  1.3810
 7134SOL     OW33037   0.145   3.969  10.597 -0.2189  0.1233 -0.3684
 7134SOL    HW133038   0.139   3.875  10.616 -2.6085  0.2522 -0.4737
 7134SOL    HW233039   0.126   4.010  10.682 -0.2673  0.7231 -0.6663
 7135SOL     OW33040   1.816   2.413  13.781 -0.4472 -0.3643 -0.3925
 7135SOL    HW133041   1.780   2.324  13.774 -0.5492 -0.2744 -1.0189
 7135SOL    HW233042   1.825   2.425  13.875  3.2526 -4.8320 -0.1563
 7136SOL     OW33043   0.965   4.548   8.704 -0.3491 -0.1654  0.0041
 7136SOL    HW133044   0.975   4.452   8.703  2.8120  0.1961 -2.6122
 7136SOL    HW233045   1.056   4.562   8.733  0.3199  0.8864 -2.6010
 7137SOL     OW33046   3.906   4.361  17.551 -0.2977 -0.6427  0.2116
 7137SOL    HW133047   3.949   4.437  17.590 -0.9480  0.3537 -1.0204
 7137SOL    HW233048   3.871   4.399  17.470  0.9645 -0.5516 -0.2950
 7138SOL     OW33049   3.161   1.383  12.975 -0.0704  0.2703 -0.1494
 7138SOL    HW133050   3.101   1.431  12.919 -0.5997  0.8176  0.8991
 7138SOL    HW233051   3.152   1.296  12.935 -3.2816  1.2271 -1.4790
 7139SOL     OW33052   3.202   1.428  15.145  0.5854 -0.6868 -0.3323
 7139SOL    HW133053   3.287   1.471  15.137 -0.2450  0.8908 -0.6281
 7139SOL    HW233054   3.226   1.336  15.132  0.0319 -0.8922  0.1357
 7140SOL     OW33055   1.200   0.746   8.378 -0.7464 -0.3815 -0.3312
 7140SOL    HW133056   1.164   0.700   8.454 -1.8093 -0.9394 -1.1638
 7140SOL    HW233057   1.227   0.829   8.416 -1.1774 -2.0061  3.4569
 7141SOL     OW33058   0.064   0.418   1.834  0.0950 -0.3259 -0.5834
 7141SOL    HW133059   0.143   0.394   1.883 -0.7954 -0.8373  0.5958
 7141SOL    HW233060   4.733   0.411   1.898  1.0712  1.3273  0.6709
 7142SOL     OW33061   0.531   2.593   3.472  0.5407 -0.1886 -0.3516
 7142SOL    HW133062   0.597   2.585   3.541 -0.7664 -1.2205  0.7803
 7142SOL    HW233063   0.460   2.638   3.519  0.3277 -0.4398 -0.4311
 7143SOL     OW33064   0.068   4.498  13.969  0.2563 -0.7393 -0.2948
 7143SOL    HW133065   0.047   4.446  14.047  1.3285 -2.4176 -1.1277
 7143SOL    HW233066   4.730   4.554  13.974  1.9544  1.6716 -0.9311
 7144SOL     OW33067   1.783   1.565   1.617 -0.0328 -0.2000 -0.4701
 7144SOL    HW133068   1.806   1.600   1.703  0.1529 -0.2694 -0.4898
 7144SOL    HW233069   1.700   1.611   1.606  0.0115 -0.2124 -0.8897
 7145SOL     OW33070   3.695   2.366   4.314 -0.0670 -0.0517  0.1328
 7145SOL    HW133071   3.751   2.309   4.261  0.6733  1.9247 -1.1698
 7145SOL    HW233072   3.688   2.315   4.395  0.9659 -0.9563 -0.3386
 7146SOL     OW33073   2.487   3.215  10.709 -0.2258 -0.0444 -0.1679
 7146SOL    HW133074   2.546   3.191  10.781  1.8318 -0.3657 -1.9664
 7146SOL    HW233075   2.529   3.166  10.638  1.7134  0.3038  0.7439
 7147SOL     OW33076   1.151   1.236   5.748 -0.9757 -0.2764 -0.3257
 7147SOL    HW133077   1.223   1.173   5.734  0.9200  1.5301  1.3303
 7147SOL    HW233078   1.180   1.282   5.827  2.4470 -0.0811 -1.6657
 7148SOL     OW33079   2.364   2.650   8.985  0.4873  0.2584  0.1794
 7148SOL    HW133080   2.348   2.598   9.064  2.4519 -1.4867 -0.5553
 7148SOL    HW233081   2.328   2.732   9.017 -4.6371 -1.7874 -0.3970
 7149SOL     OW33082   2.660   3.295  13.940 -0.0089 -0.0178 -0.1622
 7149SOL    HW133083   2.580   3.266  13.897 -0.6904  0.7098  0.6214
 7149SOL    HW233084   2.706   3.214  13.962 -3.2680 -2.0575 -0.8134
 7150SOL     OW33085   0.487   1.487  17.114 -0.7362  0.2491 -0.1325
 7150SOL    HW133086   0.444   1.547  17.052 -0.1345 -0.2440 -1.0287
 7150SOL    HW233087   0.414   1.426  17.112  1.0181 -1.8560  1.1992
 7151SOL     OW33088   1.962   2.303   2.589  0.3869  0.7634 -0.5059
 7151SOL    HW133089   1.933   2.308   2.498 -0.2063 -2.7326 -0.5157
 7151SOL    HW233090   1.936   2.385   2.631 -1.5207  0.5751 -1.2958
 7152SOL     OW33091   3.526   0.807   6.434 -0.4864 -0.0666  0.2799
 7152SOL    HW133092   3.593   0.837   6.372  1.4615 -1.1547  1.8815
 7152SOL    HW233093   3.493   0.889   6.472 -1.7311 -1.1401  1.4772
 7153SOL     OW33094   1.967   2.409   8.634  0.3557  0.2723  0.0935
 7153SOL    HW133095   2.009   2.469   8.695  0.7948  0.7673 -0.6991
 7153SOL    HW233096   2.037   2.380   8.575  0.7094 -0.6821  0.9686
 7154SOL     OW33097   0.999   2.771   5.329  0.1021  0.3456 -0.1754
 7154SOL    HW133098   0.951   2.692   5.305 -0.0689  0.6951 -0.9979
 7154SOL    HW233099   0.988   2.754   5.423  1.3955 -1.6649 -0.4050
 7155SOL     OW33100   2.944   3.654   5.013 -0.2797 -0.5844 -0.1636
 7155SOL    HW133101   2.976   3.640   4.924 -1.3714 -1.7232 -0.3845
 7155SOL    HW233102   2.852   3.628   5.004 -0.2841 -0.2111 -1.1817
 7156SOL     OW33103   1.448   0.823   8.220  0.4158 -0.1830  0.0236
 7156SOL    HW133104   1.509   0.882   8.176  0.9099  0.4482  1.5810
 7156SOL    HW233105   1.443   0.863   8.306 -1.6877  0.2375 -0.2891
 7157SOL     OW33106   0.344   4.489   0.482 -0.6889  0.1722  0.1295
 7157SOL    HW133107   0.361   4.402   0.517 -1.8116  0.1774  0.6814
 7157SOL    HW233108   0.368   4.473   0.391 -2.1225 -0.3509 -0.1547
 7158SOL     OW33109   4.389   3.073  17.745 -0.5305 -0.1853 -0.0923
 7158SOL    HW133110   4.351   2.987  17.726 -0.5792 -0.6093  1.9326
 7158SOL    HW233111   4.361   3.092   0.079 -1.7469  0.8769 -0.6810
 7159SOL     OW33112   2.005   0.647   9.605 -0.4486  0.4482  0.2816
 7159SOL    HW133113   1.940   0.672   9.539  2.0420  1.1319 -1.8791
 7159SOL    HW233114   1.965   0.572   9.648  1.7443 -1.4047 -0.9751
 7160SOL     OW33115   4.087   3.185   8.307  0.4752 -0.0505 -0.3277
 7160SOL    HW133116   4.165   3.198   8.361  1.6053  0.6033 -2.1113
 7160SOL    HW233117   4.116   3.221   8.224 -2.1691 -2.2113 -2.1868
 7161SOL     OW33118   3.491   0.778  10.189  0.5011  0.1149  0.5870
 7161SOL    HW133119   3.399   0.764  10.211  0.4292  0.1515  0.3119
 7161SOL    HW233120   3.521   0.828  10.265  0.7159  0.8988 -0.0159
 7162SOL     OW33121   3.522   4.023   8.539  0.2484 -0.0904 -0.3215
 7162SOL    HW133122   3.453   4.057   8.596 -0.2051 -2.6863  0.7197
 7162SOL    HW233123   3.568   3.975   8.609 -1.5492 -1.7199 -0.2384
 7163SOL     OW33124   2.922   3.849  16.189  0.0035 -0.1305 -0.5140
 7163SOL    HW133125   2.967   3.781  16.239 -1.4858 -1.3483 -0.8161
 7163SOL    HW233126   2.837   3.809  16.170 -0.2780  0.7464 -1.0820
 7164SOL     OW33127   3.954   0.639  13.508 -0.2387  0.0230 -0.2001
 7164SOL    HW133128   3.978   0.601  13.423 -2.2740 -0.1527 -0.6988
 7164SOL    HW233129   4.007   0.718  13.497  0.3697 -0.1369  1.5649
 7165SOL     OW33130   0.561   0.260   9.999  0.3014  0.2493 -0.0278
 7165SOL    HW133131   0.544   0.240   9.906  0.6672 -0.0678 -0.0256
 7165SOL    HW233132   0.562   0.355   9.993  0.1692  0.1378 -1.9205
 7166SOL     OW33133   3.268   2.743   8.341  0.6755  0.1602 -0.6371
 7166SOL    HW133134   3.218   2.662   8.341  1.6796 -0.4553  1.3091
 7166SOL    HW233135   3.249   2.780   8.427  1.7218 -0.3286 -0.1977
 7167SOL     OW33136   2.137   0.288   4.469  0.0229 -0.0405  0.0975
 7167SOL    HW133137   2.132   0.365   4.413  1.5514  0.1171  0.1628
 7167SOL    HW233138   2.054   0.243   4.453 -0.7098  2.2426 -2.5677
 7168SOL     OW33139   1.055   2.844   7.498 -0.1898  0.7793  0.0469
 7168SOL    HW133140   1.077   2.844   7.405 -1.7555  1.7329 -0.3100
 7168SOL    HW233141   0.967   2.808   7.503  0.4491 -0.5590  1.6081
 7169SOL     OW33142   1.280   3.912   9.016 -0.2225  0.2044  0.4068
 7169SOL    HW133143   1.254   3.956   8.935 -1.0008 -2.1638 -0.6158
 7169SOL    HW233144   1.253   3.821   9.008  1.8834 -0.3071 -0.9350
 7170SOL     OW33145   3.746   3.087   2.801 -0.1399 -0.1068  0.1463
 7170SOL    HW133146   3.704   3.001   2.802  1.8683 -1.0931 -1.2850
 7170SOL    HW233147   3.775   3.103   2.711  2.1476 -0.2621  0.8558
 7171SOL     OW33148   0.806   0.559   6.406  0.6110 -0.3650 -0.0957
 7171SOL    HW133149   0.830   0.520   6.490 -1.3735 -1.6882 -0.1411
 7171SOL    HW233150   0.892   0.584   6.371 -0.2426  1.8943 -0.5587
 7172SOL     OW33151   0.094   1.015   2.081 -0.7440  0.0926  0.6005
 7172SOL    HW133152   0.177   0.980   2.047 -0.7139 -0.5356  1.3375
 7172SOL    HW233153   0.043   1.031   2.001  0.0843 -1.9566 -0.3515
 7173SOL     OW33154   4.422   3.827   8.159  0.1554  0.1205 -0.2003
 7173SOL    HW133155   4.425   3.911   8.205 -0.4672  1.6450 -2.9183
 7173SOL    HW233156   4.328   3.819   8.144  0.3475 -3.5573  0.7625
 7174SOL     OW33157   2.401   0.707  12.533  0.2879 -0.3752  0.2048
 7174SOL    HW133158   2.431   0.640  12.594  2.7852 -1.2417 -1.9644
 7174SOL    HW233159   2.366   0.777  12.588  0.9843  0.3010 -0.2040
 7175SOL     OW33160   3.303   2.283  15.285  0.3419 -0.4354  0.5585
 7175SOL    HW133161   3.384   2.285  15.335  0.5280 -0.3596  0.2545
 7175SOL    HW233162   3.264   2.368  15.305 -2.6403 -1.3678 -1.3095
 7176SOL     OW33163   4.330   1.568   2.053  0.1572  0.1394 -0.8645
 7176SOL    HW133164   4.411   1.610   2.024 -0.0622  0.7522 -0.5712
 7176SOL    HW233165   4.285   1.555   1.969 -0.9831 -0.3596 -0.1729
 7177SOL     OW33166   1.246   2.090   8.600  0.0989  0.9549  0.0014
 7177SOL    HW133167   1.199   2.162   8.642 -0.0916  0.9072 -0.1308
 7177SOL    HW233168   1.181   2.054   8.540  2.6636 -3.1789 -0.3014
 7178SOL     OW33169   2.441   3.855  17.294 -0.3566  0.0272  0.4247
 7178SOL    HW133170   2.474   3.935  17.254 -0.7314  0.2575  0.5790
 7178SOL    HW233171   2.493   3.845  17.374 -1.3412 -1.8903  0.8246
 7179SOL     OW33172   2.801   3.301  13.342 -0.2935  0.0099 -0.5140
 7179SOL    HW133173   2.756   3.312  13.426 -1.7901  2.3701 -1.5930
 7179SOL    HW233174   2.888   3.276  13.372 -0.3599 -0.1300 -0.4395
 7180SOL     OW33175   2.904   4.269  13.654  0.1700  0.3132 -0.8676
 7180SOL    HW133176   2.963   4.208  13.698  1.3947  1.1816 -1.2752
 7180SOL    HW233177   2.902   4.232  13.566  2.4062 -1.0115 -0.3505
 7181SOL     OW33178   4.516   2.041   7.439  0.5426  0.1899  0.5433
 7181SOL    HW133179   4.535   2.072   7.351  1.4502 -1.7230  0.0684
 7181SOL    HW233180   4.424   2.066   7.450  0.1675 -1.7607  1.8863
 7182SOL     OW33181   3.031   0.754   1.277 -0.2946  0.1109  0.0067
 7182SOL    HW133182   3.014   0.726   1.367  2.7451 -0.5268  0.3915
 7182SOL    HW233183   2.977   0.832   1.266  0.5657  0.9247  1.5133
 7183SOL     OW33184   2.063   0.805   5.949  0.7620  0.5919  0.4696
 7183SOL    HW133185   2.048   0.738   5.883  1.1967 -1.0599  2.0322
 7183SOL    HW233186   2.145   0.847   5.923  3.2164 -2.5889  3.0902
 7184SOL     OW33187   1.193   2.085   5.551 -0.7117 -0.2073  0.7003
 7184SOL    HW133188   1.142   2.162   5.577  1.2895  1.4336 -0.2390
 7184SOL    HW233189   1.128   2.015   5.541  0.6878 -1.5973  1.2949
 7185SOL     OW33190   0.493   1.092   4.885  0.1152 -0.2272 -0.1969
 7185SOL    HW133191   0.444   1.152   4.942  0.7661  0.1204 -0.0017
 7185SOL    HW233192   0.485   1.142   4.804 -0.3409  0.3535  0.2059
 7186SOL     OW33193   0.509   2.771  15.258 -1.0889  0.4463 -0.5783
 7186SOL    HW133194   0.493   2.862  15.231  0.7283  1.2417  0.9692
 7186SOL    HW233195   0.557   2.778  15.341 -0.2031 -2.5266 -0.8468
 7187SOL     OW33196   1.022   0.348  16.239 -0.2320  0.3287  0.1363
 7187SOL    HW133197   0.960   0.275  16.245  1.2575 -0.9440  0.0006
 7187SOL    HW233198   1.002   0.377  16.150  2.3235  0.8837 -0.2502
 7188SOL     OW33199   2.248   2.294   0.697  0.0649 -0.2063 -0.2804
 7188SOL    HW133200   2.342   2.274   0.693 -0.2816 -2.4451  3.2921
 7188SOL    HW233201   2.218   2.283   0.607 -0.9877 -0.4460  0.0977
 7189SOL     OW33202   0.112   0.313   9.071 -0.6044  0.2458 -0.2192
 7189SOL    HW133203   0.189   0.343   9.024 -0.4698  0.8857  0.4163
 7189SOL    HW233204   0.148   0.338   9.156 -3.7101  1.3913  0.7555
 7190SOL     OW33205   4.541   1.815   2.413 -0.0329  0.2191 -0.0766
 7190SOL    HW133206   4.519   1.896   2.367 -1.1180 -0.2968 -0.4758
 7190SOL    HW233207   4.468   1.818   2.475 -2.0793 -3.8903 -2.2966
 7191SOL     OW33208   3.152   1.058   4.004 -0.3105 -0.1682  0.1596
 7191SOL    HW133209   3.230   1.017   4.042 -0.1798 -1.5552 -1.5874
 7191SOL    HW233210   3.099   0.980   3.988 -0.4146 -0.3174  1.2761
 7192SOL     OW33211   3.803   3.869   2.539  0.2082  0.6410 -0.1616
 7192SOL    HW133212   3.801   3.887   2.633 -1.2294  1.9210 -0.4492
 7192SOL    HW233213   3.770   3.946   2.492  0.0435  1.0302  0.5918
 7193SOL     OW33214   1.542   2.109   3.606  0.1345 -0.4589  0.3557
 7193SOL    HW133215   1.491   2.188   3.625  1.9768  0.6422  0.6842
 7193SOL    HW233216   1.631   2.119   3.639  0.4974 -0.2326 -0.7000
 7194SOL     OW33217   4.329   1.191   2.048 -0.2344 -0.4873  1.0373
 7194SOL    HW133218   4.370   1.116   2.090 -0.7318 -1.2139  0.2287
 7194SOL    HW233219   4.297   1.240   2.125  0.5028 -0.7695  1.5191
 7195SOL     OW33220   2.396   3.839   2.708 -0.0339  0.4547  0.0822
 7195SOL    HW133221   2.385   3.746   2.690 -0.0669  0.8696 -2.0972
 7195SOL    HW233222   2.486   3.842   2.674 -0.2138 -1.9675 -0.6021
 7196SOL     OW33223   0.981   3.880   7.887  0.8402 -0.0408  0.1724
 7196SOL    HW133224   0.891   3.904   7.912  0.0176 -1.2681 -1.6320
 7196SOL    HW233225   1.008   3.971   7.877  0.1363  0.2473  0.8111
 7197SOL     OW33226   0.922   3.574   5.568 -0.2223  1.0642 -0.2185
 7197SOL    HW133227   0.919   3.549   5.661  0.1696 -1.3379 -0.8543
 7197SOL    HW233228   0.832   3.556   5.543  0.1183  0.8911 -1.2914
 7198SOL     OW33229   2.416   0.375   2.641 -0.0829 -0.0222 -0.0809
 7198SOL    HW133230   2.361   0.343   2.569  0.0236  1.0698 -0.6563
 7198SOL    HW233231   2.437   0.292   2.683 -1.5366 -0.3551 -0.0113
 7199SOL     OW33232   0.293   4.604   4.224  0.1313 -0.2857 -1.0166
 7199SOL    HW133233   0.361   4.671   4.230  0.3737 -0.6544  0.3000
 7199SOL    HW233234   0.231   4.646   4.163 -1.4297 -0.7184  0.2798
 7200SOL     OW33235   1.721   3.735   6.171 -0.1867 -0.1125  0.7131
 7200SOL    HW133236   1.659   3.697   6.109  0.1742 -1.0814  0.9338
 7200SOL    HW233237   1.745   3.662   6.229 -0.7769 -0.0555  1.0243
 7201SOL     OW33238   3.160   1.403   2.249  0.0019  0.3123 -0.3379
 7201SOL    HW133239   3.203   1.327   2.210 -0.9608 -0.6741  0.5321
 7201SOL    HW233240   3.072   1.365   2.252 -0.2027  0.7705 -0.4579
 7202SOL     OW33241   0.417   2.220  16.401  0.1878 -0.6059 -0.7720
 7202SOL    HW133242   0.326   2.194  16.408  0.4190 -1.0139  0.5667
 7202SOL    HW233243   0.454   2.153  16.343  1.6626 -1.6109  1.3475
 7203SOL     OW33244   4.372   2.534   4.324 -0.1134 -0.4821  0.0947
 7203SOL    HW133245   4.445   2.521   4.384  1.6675  2.0463 -1.5119
 7203SOL    HW233246   4.308   2.483   4.374 -0.5861  0.5463  0.5408
 7204SOL     OW33247   2.247   1.852   3.144 -0.4102  0.4600 -1.0228
 7204SOL    HW133248   2.219   1.799   3.218  2.0697  0.6408  0.0684
 7204SOL    HW233249   2.340   1.840   3.164 -0.3907 -1.2747 -2.1538
 7205SOL     OW33250   1.451   3.883   2.937 -0.2430 -0.4132 -0.5877
 7205SOL    HW133251   1.415   3.805   2.895 -1.0411 -0.6216  0.4661
 7205SOL    HW233252   1.509   3.845   3.003 -0.6679  0.8681  0.5443
 7206SOL     OW33253   4.383   3.130   1.957 -0.1921  0.4251  0.0373
 7206SOL    HW133254   4.408   3.087   2.039 -2.6165 -3.2532 -1.1376
 7206SOL    HW233255   4.448   3.199   1.944  2.4804 -1.7790  1.7369
 7207SOL     OW33256   3.951   1.883  13.012 -0.2108 -0.2875 -0.2889
 7207SOL    HW133257   3.989   1.814  12.958 -0.6843 -0.3546 -0.5449
 7207SOL    HW233258   3.988   1.951  12.956  1.6082  0.9635  2.4505
 7208SOL     OW33259   1.728   3.310   4.039 -0.0451 -0.3245 -0.1256
 7208SOL    HW133260   1.787   3.245   4.001  1.0140  0.5600 -0.0171
 7208SOL    HW233261   1.755   3.390   3.994  0.5129 -0.3609  0.1475
 7209SOL     OW33262   0.354   0.854   1.386  0.3576  0.2256  0.4454
 7209SOL    HW133263   0.264   0.881   1.401 -0.5188 -1.6332 -1.4718
 7209SOL    HW233264   0.356   0.772   1.434 -0.2522 -0.8373 -1.3238
 7210SOL     OW33265   0.657   3.869   3.532 -0.7866  0.1697 -0.1809
 7210SOL    HW133266   0.654   3.859   3.437 -2.1427 -1.2100  0.0147
 7210SOL    HW233267   0.579   3.817   3.550 -1.9389  1.4496 -1.5214
 7211SOL     OW33268   1.379   0.899  12.331 -0.1485  0.3793 -0.1951
 7211SOL    HW133269   1.471   0.896  12.305  0.0082  0.1648  0.3802
 7211SOL    HW233270   1.351   0.984  12.298 -0.3782  0.5783  0.5111
 7212SOL     OW33271   3.424   4.412   6.803  0.4583 -1.3559  0.6931
 7212SOL    HW133272   3.456   4.408   6.893 -0.8265  1.7416  1.2632
 7212SOL    HW233273   3.480   4.341   6.770  1.4887 -1.1249  1.9408
 7213SOL     OW33274   1.175   1.064   6.025  0.2807  0.3588 -0.2594
 7213SOL    HW133275   1.207   1.153   6.012 -1.6682  1.2980  1.4414
 7213SOL    HW233276   1.257   1.015   6.029  0.6121  0.9300 -0.0674
 7214SOL     OW33277   2.567   4.684   6.079  0.2314  0.0610 -0.3265
 7214SOL    HW133278   2.655   4.707   6.107  0.0038  0.5781 -0.0520
 7214SOL    HW233279   2.516   4.724   6.149 -0.9262  1.0567 -1.7325
 7215SOL     OW33280   0.520   2.353  13.418 -0.3888 -0.0099 -0.1586
 7215SOL    HW133281   0.510   2.345  13.323 -1.2115 -1.7947  0.0754
 7215SOL    HW233282   0.604   2.399  13.421 -1.1308  1.4789 -2.5275
 7216SOL     OW33283   2.128   0.323   6.569 -0.1647 -0.3602  0.3498
 7216SOL    HW133284   2.223   0.325   6.571 -0.1399 -1.1357 -0.2448
 7216SOL    HW233285   2.097   0.320   6.660 -0.1577 -1.4845  0.3159
 7217SOL     OW33286   2.168   2.143   8.773 -0.3084 -0.1315 -0.0339
 7217SOL    HW133287   2.217   2.061   8.766  0.8148  0.6847 -1.7064
 7217SOL    HW233288   2.087   2.112   8.732 -1.8367  1.7867  1.5447
 7218SOL     OW33289   4.583   0.795   4.133  0.2344 -0.4632 -0.1594
 7218SOL    HW133290   4.673   0.787   4.102  0.6919 -1.8806  1.5384
 7218SOL    HW233291   4.532   0.842   4.067  1.4304  0.5529 -0.3736
 7219SOL     OW33292   3.048   1.259   5.847  0.3625  0.5812  0.4341
 7219SOL    HW133293   3.049   1.353   5.861  0.3927  0.4878  1.0390
 7219SOL    HW233294   3.138   1.244   5.819  0.7683  0.4945  1.8071
 7220SOL     OW33295   0.456   4.417   7.840 -0.4285  0.4929 -0.0172
 7220SOL    HW133296   0.408   4.497   7.863 -0.1235  1.0172 -1.1795
 7220SOL    HW233297   0.520   4.423   7.911  1.6084  1.2710 -1.9059
 7221SOL     OW33298   3.303   1.278   7.407  0.0146 -0.2760  0.1460
 7221SOL    HW133299   3.314   1.307   7.498  0.0930  0.1935 -0.0097
 7221SOL    HW233300   3.210   1.259   7.403 -0.3738  1.2724  1.5359
 7222SOL     OW33301   0.217   3.641   9.156 -0.4119  0.9254  0.3385
 7222SOL    HW133302   0.251   3.593   9.081 -0.0242  1.3482  0.2445
 7222SOL    HW233303   0.295   3.653   9.210 -0.4841 -0.9792  0.8702
 7223SOL     OW33304   0.603   0.882  13.897 -0.3373  0.1214 -0.0153
 7223SOL    HW133305   0.606   0.955  13.835 -0.2117 -1.3628 -1.7599
 7223SOL    HW233306   0.508   0.867  13.897  0.1500 -2.9859  0.9056
 7224SOL     OW33307   1.632   4.087   1.899  0.5519 -0.6781  0.8647
 7224SOL    HW133308   1.701   4.153   1.892  0.5708 -0.5511  2.2428
 7224SOL    HW233309   1.568   4.134   1.953  1.0586 -0.7641  1.5459
 7225SOL     OW33310   3.545   4.600   7.243  0.5903  0.2558 -0.2123
 7225SOL    HW133311   3.598   4.526   7.273 -0.1020 -0.3838 -0.5451
 7225SOL    HW233312   3.509   4.558   7.165 -1.8741 -1.7940  2.0311
 7226SOL     OW33313   2.108   3.228   9.092  0.0501  0.6477 -0.3087
 7226SOL    HW133314   2.135   3.254   9.180  1.6912  1.9364 -1.2024
 7226SOL    HW233315   2.174   3.277   9.044  1.4783 -0.5673  0.3917
 7227SOL     OW33316   3.555   0.997   7.370 -0.4337 -0.0973 -0.1917
 7227SOL    HW133317   3.464   0.984   7.343 -0.5205  1.6873 -0.7560
 7227SOL    HW233318   3.566   1.090   7.389  1.4829 -0.1594 -0.9447
 7228SOL     OW33319   4.657   3.496   5.839  0.2763  0.1005  0.0917
 7228SOL    HW133320   4.693   3.442   5.910  0.4472  1.1591  0.8219
 7228SOL    HW233321   4.569   3.494   5.875  0.8430 -0.5608  1.4429
 7229SOL     OW33322   1.998   0.407   4.216  0.5642 -0.0436 -0.1038
 7229SOL    HW133323   1.913   0.378   4.249  1.1964  1.1512  2.5484
 7229SOL    HW233324   1.962   0.482   4.168 -0.4863 -0.2173  0.4063
 7230SOL     OW33325   4.160   2.548  11.755 -0.0009 -0.7632  0.2673
 7230SOL    HW133326   4.219   2.612  11.795  1.2027  0.8875 -4.1191
 7230SOL    HW233327   4.107   2.523  11.830 -1.2567  0.0366 -0.3590
 7231SOL     OW33328   2.121   4.512  12.732 -0.3045  0.4647  0.7344
 7231SOL    HW133329   2.089   4.455  12.662  0.9212  0.1455  0.4477
 7231SOL    HW233330   2.135   4.589  12.677  0.3400 -0.4030 -0.3156
 7232SOL     OW33331   2.080   1.131   0.155  0.1658  0.2571  0.5773
 7232SOL    HW133332   2.071   1.142   0.060 -0.0320 -2.1867  0.3070
 7232SOL    HW233333   2.030   1.203   0.193  0.8003  1.5704 -1.0543
 7233SOL     OW33334   0.725   1.218   9.649 -0.1722 -0.0230  1.0391
 7233SOL    HW133335   0.742   1.306   9.681  1.9590 -0.9273  2.3981
 7233SOL    HW233336   0.772   1.168   9.717 -0.8445 -0.6915  1.0149
 7234SOL     OW33337   1.999   3.160   2.884  0.0619  0.4742 -0.5021
 7234SOL    HW133338   2.033   3.229   2.941 -0.5442  0.6985 -0.4112
 7234SOL    HW233339   1.919   3.204   2.854 -1.0694 -1.2750 -0.0707
 7235SOL     OW33340   3.271   4.086   2.854  0.6800 -0.1783 -0.2102
 7235SOL    HW133341   3.286   4.024   2.783  0.1369 -0.0080 -0.4779
 7235SOL    HW233342   3.355   4.076   2.898  0.6757  0.8328  0.0308
 7236SOL     OW33343   1.441   2.434  12.670  0.1327  0.2125 -0.4434
 7236SOL    HW133344   1.424   2.495  12.742 -0.7854 -0.7410  0.1474
 7236SOL    HW233345   1.436   2.348  12.711  2.5976  0.1164 -0.3441
 7237SOL     OW33346   0.599   3.489   1.196 -0.1973  0.1265  0.2809
 7237SOL    HW133347   0.576   3.397   1.187  1.1389 -0.2863  1.2728
 7237SOL    HW233348   0.604   3.498   1.291  0.6266  0.5600  0.1939
 7238SOL     OW33349   1.938   4.686   1.253 -0.5105  0.7769 -0.3670
 7238SOL    HW133350   1.960   4.595   1.272  1.1372  1.0500 -0.9188
 7238SOL    HW233351   1.918   4.671   1.160  1.1978 -0.3975 -0.5390
 7239SOL     OW33352   1.145   0.825   1.704  0.0793 -0.3472 -0.5648
 7239SOL    HW133353   1.066   0.792   1.747  0.1284 -0.8713 -0.8689
 7239SOL    HW233354   1.128   0.798   1.614 -1.2652  0.1465 -0.4665
 7240SOL     OW33355   3.096   0.651   2.982  0.4912 -0.4028 -0.3902
 7240SOL    HW133356   3.134   0.602   3.055  0.1321  0.1282  0.1546
 7240SOL    HW233357   3.177   0.669   2.933  0.1319  0.4740 -0.6766
 7241SOL     OW33358   0.812   0.277  10.549  0.1959 -0.5623  0.5525
 7241SOL    HW133359   0.837   0.321  10.630 -1.8226  0.4659  0.6118
 7241SOL    HW233360   0.767   0.200  10.583  1.0898 -0.4239  2.0626
 7242SOL     OW33361   3.030   2.962   9.227  0.1927 -0.0886  0.0192
 7242SOL    HW133362   2.963   3.002   9.282 -1.1359 -2.8277  0.3837
 7242SOL    HW233363   3.086   3.036   9.205  1.6184 -0.7401  1.4758
 7243SOL     OW33364   2.749   4.569   5.444  0.5763  0.1350 -0.0289
 7243SOL    HW133365   2.725   4.554   5.535 -0.4285  1.5486 -0.0537
 7243SOL    HW233366   2.668   4.550   5.398  0.2718 -1.3465  1.1394
 7244SOL     OW33367   1.628   1.504   4.936 -0.6554  0.5366 -0.2077
 7244SOL    HW133368   1.670   1.469   4.857 -1.4164 -0.7310 -0.0498
 7244SOL    HW233369   1.542   1.529   4.902 -1.0876  0.7021  1.0380
 7245SOL     OW33370   1.109   1.416   4.690 -0.1836  0.6291  0.5746
 7245SOL    HW133371   1.115   1.511   4.688  1.1422  0.5307 -0.5207
 7245SOL    HW233372   1.089   1.396   4.598  2.5177  1.1147 -0.1218
 7246SOL     OW33373   4.108   4.687   2.941 -0.2047 -0.0427  0.1036
 7246SOL    HW133374   4.024   4.721   2.973 -1.5586 -1.4590 -1.9499
 7246SOL    HW233375   4.161   4.700   3.020 -0.7409 -1.2551  0.6666
 7247SOL     OW33376   4.480   1.284   6.286  0.1686  0.0784  0.5118
 7247SOL    HW133377   4.424   1.316   6.356  0.1069  0.2333  0.3920
 7247SOL    HW233378   4.549   1.350   6.295 -0.7695  1.3802 -1.9307
 7248SOL     OW33379   3.135   2.657   7.145  0.6294 -0.8631 -0.4268
 7248SOL    HW133380   3.081   2.580   7.164  0.4750 -1.1653 -2.0818
 7248SOL    HW233381   3.112   2.667   7.053 -1.6837 -3.5652 -0.1605
 7249SOL     OW33382   4.546   0.760  11.651  0.4698  1.0132 -0.8283
 7249SOL    HW133383   4.514   0.706  11.724 -1.0622  2.8129 -0.1496
 7249SOL    HW233384   4.503   0.712  11.580  1.9930  1.0173 -1.7378
 7250SOL     OW33385   2.241   1.351   8.321  0.3117  0.0488 -1.1862
 7250SOL    HW133386   2.251   1.389   8.408  0.3147 -0.1686 -1.0932
 7250SOL    HW233387   2.277   1.263   8.335 -0.5466  0.1137  1.3441
 7251SOL     OW33388   0.027   2.760   1.795 -0.3653 -0.2137  0.3737
 7251SOL    HW133389   4.704   2.740   1.725 -2.2766  2.0533  1.4155
 7251SOL    HW233390   0.051   2.671   1.821 -1.8317 -0.6303  0.2730
 7252SOL     OW33391   3.003   1.234   1.502  0.2113 -0.1481 -0.1286
 7252SOL    HW133392   2.956   1.297   1.557 -0.2431 -0.5089 -0.1023
 7252SOL    HW233393   3.065   1.191   1.560  0.7548  0.8836  0.0342
 7253SOL     OW33394   2.856   0.170   6.818  0.0789  0.5088  0.4923
 7253SOL    HW133395   2.768   0.169   6.782  1.4619  0.5435 -2.9147
 7253SOL    HW233396   2.844   0.140   6.908 -1.4810 -0.1424  0.0650
 7254SOL     OW33397   1.018   3.834   5.296 -0.5095  0.1349 -0.2702
 7254SOL    HW133398   1.059   3.825   5.211  1.7563 -1.8574  1.0378
 7254SOL    HW233399   1.005   3.929   5.298 -0.9049  0.1022 -1.7249
 7255SOL     OW33400   2.185   0.940   4.784  0.4314  0.6609 -0.2840
 7255SOL    HW133401   2.220   0.867   4.835  2.3513  1.6059 -0.2573
 7255SOL    HW233402   2.244   0.938   4.709 -0.7078 -1.4864 -1.1062
 7256SOL     OW33403   1.557   4.254  17.733 -0.5987 -0.0915 -0.0421
 7256SOL    HW133404   1.515   4.235   0.061 -0.3600  0.4454  0.1994
 7256SOL    HW233405   1.592   4.167  17.716 -1.0074 -0.2364 -0.1325
 7257SOL     OW33406   1.069   3.542   5.334 -0.4143 -0.2277  0.0011
 7257SOL    HW133407   1.046   3.627   5.298 -0.4890 -0.4635 -0.5183
 7257SOL    HW233408   1.003   3.533   5.403  0.1212 -0.8815  0.4282
 7258SOL     OW33409   4.260   0.833   7.336 -0.4444 -0.3023  0.0306
 7258SOL    HW133410   4.317   0.866   7.405 -0.1899  2.0355 -1.3122
 7258SOL    HW233411   4.224   0.759   7.387  2.3388 -1.9181 -0.3528
 7259SOL     OW33412   3.457   2.666   5.104 -0.0649 -0.1363  0.1737
 7259SOL    HW133413   3.370   2.657   5.144  0.3414 -0.9863  0.8780
 7259SOL    HW233414   3.507   2.652   5.185  1.5608 -2.2513 -1.1934
 7260SOL     OW33415   0.366   0.787   6.994 -0.0886 -0.2083 -0.0890
 7260SOL    HW133416   0.289   0.732   7.009  0.0760 -0.3180  0.3410
 7260SOL    HW233417   0.349   0.824   6.907  0.7485 -0.5465 -0.3926
 7261SOL     OW33418   3.456   3.505   7.065 -0.2595  0.1367 -0.0407
 7261SOL    HW133419   3.376   3.508   7.013 -1.6257  2.6271  2.1779
 7261SOL    HW233420   3.414   3.492   7.150  1.8773 -0.8445  0.8502
 7262SOL     OW33421   1.370   2.209  15.400 -0.0469  0.4087 -0.1361
 7262SOL    HW133422   1.441   2.147  15.414 -0.8344 -0.2133  1.0959
 7262SOL    HW233423   1.303   2.145  15.374 -0.8820  1.1283  0.2255
 7263SOL     OW33424   3.028   1.736   3.088 -0.4793 -0.2022  0.1768
 7263SOL    HW133425   2.956   1.786   3.049 -0.8563 -1.4765 -0.7517
 7263SOL    HW233426   3.005   1.735   3.181 -0.7499 -1.5076  0.0896
 7264SOL     OW33427   2.467   3.971   7.048  0.5933 -0.4263 -0.9128
 7264SOL    HW133428   2.560   3.983   7.066  0.7347 -0.2277 -1.7498
 7264SOL    HW233429   2.433   3.951   7.135  1.2059 -1.0328 -0.8131
 7265SOL     OW33430   0.283   1.846   1.265 -0.0544 -0.4055 -0.4844
 7265SOL    HW133431   0.232   1.779   1.219 -1.4729  0.7591 -0.6139
 7265SOL    HW233432   0.360   1.797   1.293 -0.6066 -1.2504 -0.4512
 7266SOL     OW33433   2.058   3.117  12.879 -0.5098 -0.3836  0.4387
 7266SOL    HW133434   1.971   3.103  12.841 -1.0960  2.6759  0.6700
 7266SOL    HW233435   2.106   3.159  12.808 -1.4297  1.4190  0.8922
 7267SOL     OW33436   0.829   0.494   3.359 -0.4033 -0.1671 -0.5548
 7267SOL    HW133437   0.766   0.551   3.403 -0.2067 -0.5870  0.2751
 7267SOL    HW233438   0.767   0.447   3.303 -1.9683 -0.7605  1.6858
 7268SOL     OW33439   3.489   3.287  12.429 -0.3136 -0.2517 -0.2814
 7268SOL    HW133440   3.571   3.265  12.385 -0.0744 -3.2220  1.6209
 7268SOL    HW233441   3.447   3.202  12.419  1.5540 -1.4244  1.7796
 7269SOL     OW33442   3.359   2.780  12.938 -0.4738 -0.0198 -0.3237
 7269SOL    HW133443   3.418   2.714  12.972 -0.2887 -0.0097 -0.6236
 7269SOL    HW233444   3.418   2.846  12.902  0.6773 -0.4165  0.8412
 7270SOL     OW33445   1.078   1.089   2.693  0.0917  0.5619  0.3786
 7270SOL    HW133446   1.069   1.149   2.619 -1.0803 -1.6588 -1.2553
 7270SOL    HW233447   1.029   1.014   2.661  2.9297 -1.3517  0.4672
 7271SOL     OW33448   2.296   1.684   0.030 -0.1295  0.2544 -0.0257
 7271SOL    HW133449   2.202   1.700   0.017  0.0537  0.0773 -1.4796
 7271SOL    HW233450   2.300   1.615   0.096 -3.1239  1.2665  1.2588
 7272SOL     OW33451   3.712   2.489  16.562 -0.0814  0.4248 -0.4063
 7272SOL    HW133452   3.627   2.534  16.569 -0.1721  0.2057 -0.1225
 7272SOL    HW233453   3.773   2.556  16.595 -2.0223  1.2419  1.5701
 7273SOL     OW33454   3.421   0.448   8.192 -0.2004  0.3785 -1.0313
 7273SOL    HW133455   3.515   0.465   8.198 -0.8841  3.4610  1.3825
 7273SOL    HW233456   3.396   0.470   8.282 -0.4258  1.5618 -1.3819
 7274SOL     OW33457   1.871   4.588   6.138 -0.0365  0.0030  0.0379
 7274SOL    HW133458   1.949   4.538   6.162  1.2499 -0.1565 -4.5081
 7274SOL    HW233459   1.809   4.538   6.192  0.2719  1.1398  1.4336
 7275SOL     OW33460   4.725   4.341   2.691 -0.3118  0.7433 -0.5296
 7275SOL    HW133461   4.721   4.251   2.659 -1.5548  0.2274  1.0919
 7275SOL    HW233462   4.683   4.320   2.774 -1.5956  1.9205 -0.8830
 7276SOL     OW33463   1.210   1.365   2.541  0.3568 -0.0083 -0.6733
 7276SOL    HW133464   1.305   1.376   2.532  0.2331  0.5266 -1.4079
 7276SOL    HW233465   1.202   1.371   2.636  0.6805  0.5018 -0.6751
 7277SOL     OW33466   3.201   3.870   5.035 -0.4843 -0.1659 -0.2362
 7277SOL    HW133467   3.140   3.944   5.032  1.3546  1.2663 -2.2884
 7277SOL    HW233468   3.271   3.919   5.078  0.2716 -0.1635 -1.4781
 7278SOL     OW33469   1.061   3.559   0.167  0.5049  0.3901 -0.6194
 7278SOL    HW133470   1.096   3.628   0.113  1.7282  0.4878  0.2983
 7278SOL    HW233471   1.131   3.567   0.232  0.4165  0.4974 -0.5371
 7279SOL     OW33472   4.023   0.136   8.980 -0.3961  0.1973  0.2630
 7279SOL    HW133473   4.020   0.227   9.011 -0.8073 -0.0995  1.0959
 7279SOL    HW233474   4.103   0.097   9.014 -0.4182  0.1773  0.2914
 7280SOL     OW33475   3.077   0.014   6.891  0.3823  0.0973  0.2500
 7280SOL    HW133476   3.052   4.670   6.851 -0.1480  0.4506 -0.1471
 7280SOL    HW233477   3.011   0.066   6.846  1.2018  2.4219  1.7611
 7281SOL     OW33478   1.218   0.386   5.671  0.3953  0.3175  0.3491
 7281SOL    HW133479   1.241   0.368   5.580 -1.1357  0.3018 -0.0220
 7281SOL    HW233480   1.265   0.318   5.720 -0.2410 -0.8085 -0.5968
 7282SOL     OW33481   4.698   2.386   5.970 -0.3885 -0.0645  0.5443
 7282SOL    HW133482   0.015   2.320   6.010  0.1070 -0.4044 -0.7451
 7282SOL    HW233483   0.006   2.464   6.000 -0.2070 -0.2926  0.8422
 7283SOL     OW33484   1.124   0.865   1.404  0.1368 -0.0150  0.4789
 7283SOL    HW133485   1.182   0.932   1.368 -1.5832  3.0887  3.4780
 7283SOL    HW233486   1.068   0.848   1.328 -0.3055 -0.1662  0.8345
 7284SOL     OW33487   4.513   0.458   7.685  0.3019  0.2976 -0.5605
 7284SOL    HW133488   4.519   0.493   7.773  0.0809 -0.1042 -0.3830
 7284SOL    HW233489   4.572   0.383   7.689  0.8884  0.7643 -0.6067
 7285SOL     OW33490   2.385   3.349   4.005 -0.1481 -0.0035 -0.0082
 7285SOL    HW133491   2.423   3.264   3.981  0.8847  0.6357 -0.5823
 7285SOL    HW233492   2.343   3.335   4.090  1.4098  2.9131  1.2240
 7286SOL     OW33493   1.859   0.019   7.162  0.2203  0.1355  0.4570
 7286SOL    HW133494   1.779   0.043   7.115 -1.8776 -1.5853  3.1893
 7286SOL    HW233495   1.844   4.664   7.165  0.9228  0.0790  1.9083
 7287SOL     OW33496   2.403   3.571   2.680 -0.2841  0.5745 -0.3872
 7287SOL    HW133497   2.401   3.559   2.585  0.7464 -0.8872 -0.2306
 7287SOL    HW233498   2.339   3.506   2.710  0.2875 -0.3169 -1.0828
 7288SOL     OW33499   2.944   1.341   6.422  0.0166  0.1645 -0.1552
 7288SOL    HW133500   2.979   1.426   6.452  1.4044 -1.1067  1.8289
 7288SOL    HW233501   2.946   1.361   6.329 -0.2270 -2.0730 -0.6277
 7289SOL     OW33502   4.288   3.766   7.020 -0.3132 -0.1914  0.5138
 7289SOL    HW133503   4.374   3.728   7.036  0.4921  0.2222 -2.8132
 7289SOL    HW233504   4.242   3.692   6.979  2.5776 -1.5420 -0.3349
 7290SOL     OW33505   0.472   1.628   8.002 -0.4265 -0.4309 -0.1404
 7290SOL    HW133506   0.552   1.621   7.949 -0.2632  0.1885  0.0209
 7290SOL    HW233507   0.456   1.535   8.017  1.9640 -0.5647  1.6333
 7291SOL     OW33508   3.914   3.195   1.863 -0.3592 -0.2364 -0.3503
 7291SOL    HW133509   3.857   3.133   1.818 -1.2845  0.9537 -0.8082
 7291SOL    HW233510   3.866   3.274   1.841 -0.6326 -0.4628 -0.5572
 7292SOL     OW33511   2.312   1.718   7.950 -0.0764 -0.3347  0.0208
 7292SOL    HW133512   2.241   1.741   7.890  1.1480  1.1606 -0.8582
 7292SOL    HW233513   2.340   1.633   7.913 -0.2608 -1.3256  2.1812
 7293SOL     OW33514   3.117   0.833   6.196  0.1002  0.2753  0.0921
 7293SOL    HW133515   3.099   0.787   6.114 -2.2426  0.6363  0.3980
 7293SOL    HW233516   3.153   0.916   6.164 -0.9715  1.0283  0.8520
 7294SOL     OW33517   4.647   1.436   6.020  0.3370  0.4816  0.1905
 7294SOL    HW133518   4.569   1.381   6.029  1.7855 -1.1110  3.1400
 7294SOL    HW233519   4.702   1.374   5.972 -1.2053  1.0115 -2.2264
 7295SOL     OW33520   2.080   0.485   3.071  0.1750  0.2685 -0.0783
 7295SOL    HW133521   2.017   0.548   3.109 -0.3038 -1.0276  1.2841
 7295SOL    HW233522   2.163   0.507   3.114  0.1014 -2.3559  1.4029
 7296SOL     OW33523   2.857   1.598   2.649  0.1079  0.1851  0.1217
 7296SOL    HW133524   2.930   1.543   2.678 -0.3419 -1.4069 -1.7645
 7296SOL    HW233525   2.788   1.533   2.634 -1.3240  1.6298  0.4735
 7297SOL     OW33526   2.393   3.377   5.483 -0.7270 -0.0539  0.6699
 7297SOL    HW133527   2.308   3.335   5.499 -0.1978 -1.0565  0.8249
 7297SOL    HW233528   2.380   3.472   5.492  0.9530  0.3200 -0.9121
 7298SOL     OW33529   2.081   4.127   9.002  0.0346 -0.4230 -0.5783
 7298SOL    HW133530   1.999   4.079   9.007  0.3409 -0.8172  0.6257
 7298SOL    HW233531   2.048   4.217   9.001  0.7278 -0.1625  0.5945
 7299SOL     OW33532   1.114   2.568  10.036  0.2892 -0.5674  0.2910
 7299SOL    HW133533   1.128   2.475  10.020  0.1556 -0.1584 -2.2220
 7299SOL    HW233534   1.149   2.582  10.123  0.9241 -0.2452 -0.0186
 7300SOL     OW33535   2.348   2.883   6.680 -0.3401 -1.0636 -0.1588
 7300SOL    HW133536   2.384   2.907   6.766 -0.1387  0.9975 -0.8394
 7300SOL    HW233537   2.398   2.803   6.665  2.2424  0.3883  0.7441
 7301SOL     OW33538   2.903   2.015   2.269  0.1013  0.0880 -0.1837
 7301SOL    HW133539   2.877   2.095   2.314  3.7973  1.1115  0.0999
 7301SOL    HW233540   2.917   1.962   2.348 -2.2802 -0.5295 -0.1481
 7302SOL     OW33541   4.396   3.956   7.207  0.2705 -0.3366 -0.1626
 7302SOL    HW133542   4.315   3.972   7.255  0.6182  2.2438 -0.4144
 7302SOL    HW233543   4.386   3.871   7.165 -1.2235 -0.2236 -0.0286
 7303SOL     OW33544   3.065   2.292   8.622 -0.3720 -0.1337 -0.1699
 7303SOL    HW133545   3.100   2.298   8.711  0.5122  0.8621 -0.5902
 7303SOL    HW233546   2.972   2.298   8.646 -0.5055  1.2103 -1.0461
 7304SOL     OW33547   3.359   1.352  16.674  0.6191 -0.2731  0.1555
 7304SOL    HW133548   3.316   1.414  16.614 -0.1910 -0.9904 -0.0023
 7304SOL    HW233549   3.446   1.388  16.690  1.7933 -2.6945 -0.9374
 7305SOL     OW33550   4.606   2.279   7.781  0.0492 -0.3315 -0.2965
 7305SOL    HW133551   4.626   2.285   7.688 -0.1157 -1.5365 -0.4077
 7305SOL    HW233552   4.578   2.369   7.799 -0.3023 -0.3118 -0.9469
 7306SOL     OW33553   1.233   4.466   7.634  0.4668  0.3354  0.2243
 7306SOL    HW133554   1.230   4.497   7.724 -0.5857  1.7623 -0.3000
 7306SOL    HW233555   1.223   4.373   7.656 -1.3224  0.4069 -0.2948
 7307SOL     OW33556   2.326   1.772  16.758 -0.7754 -0.1884  0.3342
 7307SOL    HW133557   2.331   1.744  16.849 -0.5447  1.6938  0.9074
 7307SOL    HW233558   2.240   1.812  16.752 -0.2161  0.6691 -1.9149
 7308SOL     OW33559   1.626   0.907  17.147 -0.1460 -0.4807 -0.2347
 7308SOL    HW133560   1.537   0.928  17.116 -0.0224 -1.7209 -1.4412
 7308SOL    HW233561   1.656   0.851  17.076 -0.0654 -0.1422 -0.4669
 7309SOL     OW33562   2.349   2.035   1.840  0.5373 -0.5490  0.5946
 7309SOL    HW133563   2.412   2.107   1.852 -0.5380  0.6294 -0.7711
 7309SOL    HW233564   2.285   2.077   1.782  2.4764  0.8879 -0.5090
 7310SOL     OW33565   3.369   0.037   3.679  0.3748 -0.1702 -0.3183
 7310SOL    HW133566   3.323   0.082   3.750  0.1959  0.5966 -0.9068
 7310SOL    HW233567   3.452   0.011   3.717  0.6914  0.3308 -0.6615
 7311SOL     OW33568   4.241   1.552   6.641 -0.2117  0.1996 -0.1156
 7311SOL    HW133569   4.308   1.597   6.694 -0.3039  0.8433 -0.5500
 7311SOL    HW233570   4.227   1.620   6.575 -0.2567 -2.2572 -2.6060
 7312SOL     OW33571   4.321   2.803   4.580 -0.6795  0.6927 -0.2724
 7312SOL    HW133572   4.287   2.822   4.492 -0.6277 -2.3392 -0.9592
 7312SOL    HW233573   4.406   2.845   4.579 -0.6854  0.6787 -1.1735
 7313SOL     OW33574   3.619   2.613   3.627  0.2557 -0.6225  0.0018
 7313SOL    HW133575   3.633   2.541   3.689  1.8222  0.5834  1.0329
 7313SOL    HW233576   3.562   2.671   3.677 -0.0245 -1.0732  0.2102
 7314SOL     OW33577   4.670   0.866   1.228  0.1203 -0.1433  0.4224
 7314SOL    HW133578   4.700   0.775   1.234  1.3962  0.2491 -0.0161
 7314SOL    HW233579   4.673   0.879   1.133  0.5487  1.5992  0.6782
 7315SOL     OW33580   1.227   3.925   1.269  0.2191 -0.4488 -0.5772
 7315SOL    HW133581   1.260   4.008   1.304 -1.3250  1.3467 -3.4222
 7315SOL    HW233582   1.228   3.937   1.174 -1.5448 -0.7350 -0.6276
 7316SOL     OW33583   3.280   3.531   6.376  0.0245  0.0415 -0.0012
 7316SOL    HW133584   3.188   3.512   6.394  0.9940 -2.8736  1.8203
 7316SOL    HW233585   3.316   3.458   6.427 -3.5738  0.7237  3.4772
 7317SOL     OW33586   3.106   2.658   9.596  0.0195 -0.1984 -0.2843
 7317SOL    HW133587   3.121   2.587   9.534 -1.9917 -3.7138  3.2624
 7317SOL    HW233588   3.043   2.712   9.550 -1.3331  0.0263  1.8280
 7318SOL     OW33589   4.622   3.008   5.365  0.2981 -0.6867  0.2229
 7318SOL    HW133590   4.599   3.097   5.391 -2.4409 -1.5939  0.8749
 7318SOL    HW233591   4.687   3.024   5.296  0.3437  0.1110  0.4522
 7319SOL     OW33592   3.292   0.526  15.493 -0.0820 -0.0525  0.5174
 7319SOL    HW133593   3.369   0.574  15.462  0.7569 -1.3078  0.6483
 7319SOL    HW233594   3.216   0.572  15.458  0.6122  0.9798  0.3797
 7320SOL     OW33595   1.179   0.579   5.277 -0.3000 -0.2332 -0.2445
 7320SOL    HW133596   1.209   0.488   5.285 -2.3196 -0.8387  0.5958
 7320SOL    HW233597   1.202   0.602   5.187  0.8385  3.4104  0.9738
 7321SOL     OW33598   2.640   3.287   7.742 -0.4647 -0.2727 -0.0898
 7321SOL    HW133599   2.574   3.322   7.682 -0.5856  0.0397  0.2255
 7321SOL    HW233600   2.588   3.236   7.804 -0.1935  1.8415  1.8902
 7322SOL     OW33601   2.233   4.304   5.950  1.3791 -0.1089  0.1239
 7322SOL    HW133602   2.219   4.253   6.029 -1.8527 -0.7759 -0.9039
 7322SOL    HW233603   2.253   4.392   5.981  0.6753  0.5949 -1.3911
 7323SOL     OW33604   1.569   0.142   3.237 -0.6753  0.3151  0.1280
 7323SOL    HW133605   1.556   0.204   3.164 -4.1645  0.8551  1.2226
 7323SOL    HW233606   1.553   0.197   3.314  0.4745  0.6285  0.1554
 7324SOL     OW33607   3.370   0.599   7.648 -0.1845 -0.2959  0.4307
 7324SOL    HW133608   3.390   0.641   7.565  0.0308  0.0505  0.6589
 7324SOL    HW233609   3.342   0.513   7.615 -1.0481  1.4827 -3.4491
 7325SOL     OW33610   3.595   3.173  11.046  0.2280 -0.2053 -0.1401
 7325SOL    HW133611   3.690   3.165  11.059  0.2124 -2.2962 -1.3319
 7325SOL    HW233612   3.581   3.132  10.961 -0.2167 -0.1118 -0.1086
 7326SOL     OW33613   4.568   2.047  10.472 -0.0471 -0.1406 -0.2093
 7326SOL    HW133614   4.585   1.953  10.473  3.1964  0.4620 -1.4465
 7326SOL    HW233615   4.654   2.088  10.471  0.0520 -0.2747  2.4565
 7327SOL     OW33616   1.031   3.135  15.746 -0.2247 -0.4300 -0.0190
 7327SOL    HW133617   1.101   3.096  15.692  0.0242 -1.5783  1.1288
 7327SOL    HW233618   1.076   3.216  15.772 -0.0150 -0.5752  0.0688
 7328SOL     OW33619   0.880   0.110  15.601  0.1988 -0.0450  0.0254
 7328SOL    HW133620   0.925   0.098  15.517 -2.2063  0.2632 -1.3087
 7328SOL    HW233621   0.809   0.049  15.579  0.0324  0.5828 -1.1613
 7329SOL     OW33622   1.761   1.659  12.942 -0.1061 -0.1348  0.1236
 7329SOL    HW133623   1.745   1.726  13.009  1.6644  2.0421 -1.6357
 7329SOL    HW233624   1.851   1.683  12.919 -0.0341  0.0733  0.6249
 7330SOL     OW33625   4.729   0.653   9.501  0.3296  0.1667 -0.7317
 7330SOL    HW133626   4.701   0.728   9.553 -2.0883  0.0912 -1.9444
 7330SOL    HW233627   0.074   0.629   9.540 -0.0415 -0.0540 -0.0761
 7331SOL     OW33628   0.627   3.752   0.025  0.0805 -0.3770 -0.1325
 7331SOL    HW133629   0.547   3.797  17.755 -0.0594 -1.6862 -1.9640
 7331SOL    HW233630   0.687   3.788  17.715 -1.8241  2.5199 -0.3231
 7332SOL     OW33631   4.584   4.144   2.335  0.0410  0.0685 -0.2119
 7332SOL    HW133632   4.620   4.120   2.420 -0.0489 -2.0446 -0.7669
 7332SOL    HW233633   4.554   4.235   2.346  0.4586 -0.2892  3.7114
 7333SOL     OW33634   2.343   0.280   2.389 -1.1596  0.2079  0.2227
 7333SOL    HW133635   2.422   0.230   2.409 -1.0832  0.3286  0.2229
 7333SOL    HW233636   2.381   0.349   2.334  1.5887 -2.3827 -1.0931
 7334SOL     OW33637   0.867   2.184   5.171  0.1391 -0.1684 -0.3613
 7334SOL    HW133638   0.947   2.222   5.207  0.2796 -0.0591 -0.8015
 7334SOL    HW233639   0.823   2.154   5.251 -0.9553  0.6509 -0.6429
 7335SOL     OW33640   0.370   2.188   3.051  0.8689  0.4935 -0.4958
 7335SOL    HW133641   0.338   2.180   2.961  0.9269  0.4116 -0.5093
 7335SOL    HW233642   0.462   2.186   3.026  0.9800 -1.0621  0.0584
 7336SOL     OW33643   0.210   1.087   2.338  0.1140  0.4112 -0.0273
 7336SOL    HW133644   0.210   1.053   2.248  0.3523  0.9994 -0.2508
 7336SOL    HW233645   0.254   1.171   2.330 -0.9565  0.9769  0.0815
 7337SOL     OW33646   4.171   1.697   4.411  0.1238 -0.0461  0.8596
 7337SOL    HW133647   4.108   1.689   4.483 -1.5449 -2.1972 -0.8413
 7337SOL    HW233648   4.199   1.606   4.410  1.4633  0.3995 -1.7402
 7338SOL     OW33649   4.679   0.901   9.907  0.0536  0.6123  0.1225
 7338SOL    HW133650   0.021   0.913   9.955  0.0477  1.6293 -0.1072
 7338SOL    HW233651   4.629   0.868   9.981  0.6894 -2.6249 -0.8961
 7339SOL     OW33652   4.398   4.440   8.771 -0.1815  0.0262  0.2688
 7339SOL    HW133653   4.339   4.500   8.725 -0.4646 -0.4124  0.0571
 7339SOL    HW233654   4.466   4.498   8.806  0.3625 -0.1075 -0.5747
 7340SOL     OW33655   0.994   1.593  17.727  0.0230  0.3623 -0.2162
 7340SOL    HW133656   0.900   1.598  17.743 -0.2368 -0.8427 -1.3194
 7340SOL    HW233657   1.021   1.683  17.712  0.8456  0.1390 -0.1070
 7341SOL     OW33658   1.478   4.300  15.207  0.0559  0.0973  0.4279
 7341SOL    HW133659   1.420   4.376  15.213 -1.2364 -0.7972 -0.8307
 7341SOL    HW233660   1.511   4.310  15.297  1.9828 -0.8159 -0.1704
 7342SOL     OW33661   0.865   2.204   2.026 -0.1580 -0.2389  0.1729
 7342SOL    HW133662   0.846   2.217   2.119  0.7286 -0.0150  0.3317
 7342SOL    HW233663   0.825   2.280   1.984 -1.3069 -1.1045 -0.2851
 7343SOL     OW33664   0.114   1.204   8.222 -0.1437 -0.3274  0.6302
 7343SOL    HW133665   0.113   1.109   8.210  1.3898 -0.5467  2.2153
 7343SOL    HW233666   0.090   1.215   8.314 -2.0729 -0.7698  0.1759
 7344SOL     OW33667   4.064   3.817   4.561  0.4349  0.4990  0.0780
 7344SOL    HW133668   4.120   3.860   4.496 -1.3325  1.8292 -0.5601
 7344SOL    HW233669   3.982   3.864   4.544  0.6211  1.5927  2.2063
 7345SOL     OW33670   0.377   4.225   5.181  0.0035  0.7468 -0.0390
 7345SOL    HW133671   0.365   4.319   5.195  2.8440  1.3702 -1.6636
 7345SOL    HW233672   0.454   4.213   5.236  0.4163  1.2317 -0.5126
 7346SOL     OW33673   2.360   3.743   3.413 -0.1745  0.0632  0.1145
 7346SOL    HW133674   2.413   3.671   3.379 -0.7714 -0.1302 -0.4020
 7346SOL    HW233675   2.283   3.689   3.430 -0.5291  0.1214 -1.3831
 7347SOL     OW33676   0.636   4.005   8.712 -0.0122 -1.1526 -0.2522
 7347SOL    HW133677   0.544   3.993   8.736  0.1700  0.0600  1.0038
 7347SOL    HW233678   0.660   4.074   8.773 -1.7198 -2.2922  1.6815
 7348SOL     OW33679   0.145   2.670   3.205  0.0757 -0.1201  0.4644
 7348SOL    HW133680   0.174   2.626   3.126  0.2974 -1.1519  1.1158
 7348SOL    HW233681   0.228   2.678   3.252 -0.8167  4.1178  1.3147
 7349SOL     OW33682   2.082   1.117  10.765  0.1562  0.4554  0.0144
 7349SOL    HW133683   2.155   1.070  10.806 -0.3659 -0.0932  0.3249
 7349SOL    HW233684   2.122   1.186  10.712 -0.7665  0.0334 -1.2305
 7350SOL     OW33685   4.548   1.139   5.125 -0.0631 -0.4047 -0.0133
 7350SOL    HW133686   4.628   1.139   5.072 -0.5335 -1.5375 -0.7149
 7350SOL    HW233687   4.585   1.112   5.208 -0.1783  1.5137  0.6793
 7351SOL     OW33688   1.680   0.651  13.013 -0.4679  0.4038  0.4187
 7351SOL    HW133689   1.744   0.597  12.966 -0.8237 -1.3104  1.8773
 7351SOL    HW233690   1.687   0.626  13.105  0.6219  1.1783  0.5424
 7352SOL     OW33691   2.851   2.183  17.103 -0.4395  0.3969  0.5914
 7352SOL    HW133692   2.836   2.092  17.078 -1.5515  0.3244  1.5496
 7352SOL    HW233693   2.818   2.224  17.023  2.2608 -0.8106 -1.1389
 7353SOL     OW33694   1.042   0.583  15.153 -0.3706 -0.2182 -0.0543
 7353SOL    HW133695   1.074   0.587  15.063  0.5021  1.6362  0.3344
 7353SOL    HW233696   0.950   0.563  15.134 -0.3700  0.4162 -0.7286
 7354SOL     OW33697   2.700   2.663   3.186 -0.7422 -0.0581 -0.0560
 7354SOL    HW133698   2.677   2.586   3.237  1.4061  2.2634  4.4720
 7354SOL    HW233699   2.642   2.729   3.226 -0.3368 -1.2964  2.5525
 7355SOL     OW33700   2.696   0.582   5.377 -0.4773 -0.3356  0.1528
 7355SOL    HW133701   2.665   0.543   5.295  0.1945  1.9040 -1.1729
 7355SOL    HW233702   2.648   0.664   5.386  2.8632  1.4254  1.7557
 7356SOL     OW33703   0.210   4.168   8.930  0.1110 -0.0320  0.0363
 7356SOL    HW133704   0.284   4.128   8.977  0.7961  0.7735 -0.3545
 7356SOL    HW233705   0.133   4.131   8.973 -0.1937 -0.0657 -0.5387
 7357SOL     OW33706   4.228   2.779   4.302 -0.1412 -0.4663  0.1897
 7357SOL    HW133707   4.286   2.705   4.323  1.8699  0.5967 -1.6205
 7357SOL    HW233708   4.163   2.735   4.247 -0.1418 -1.2642  0.8253
 7358SOL     OW33709   4.074   1.287  14.628  0.0834 -0.3268  0.1940
 7358SOL    HW133710   4.125   1.348  14.574  0.7621 -0.4799  0.6563
 7358SOL    HW233711   4.130   1.269  14.704  0.7271  0.9856  0.0353
 7359SOL     OW33712   0.891   1.076  14.439  0.2064  0.1201  0.4687
 7359SOL    HW133713   0.818   1.025  14.404  0.1581  0.4755  0.0466
 7359SOL    HW233714   0.926   1.000  14.485  2.3819  0.5633 -0.4444
 7360SOL     OW33715   2.720   2.634   6.314  0.1474  0.1111 -0.4007
 7360SOL    HW133716   2.736   2.709   6.371 -0.8151  0.2240 -0.2698
 7360SOL    HW233717   2.794   2.654   6.257 -1.2059 -1.2568 -2.6676
 7361SOL     OW33718   3.077   4.457   7.622 -0.1293  0.1030 -0.5804
 7361SOL    HW133719   3.000   4.408   7.650  0.4823 -0.7831 -0.4774
 7361SOL    HW233720   3.034   4.495   7.545 -1.1045 -1.0114 -0.5836
 7362SOL     OW33721   2.529   4.277   4.405 -0.5795 -0.4898  0.5201
 7362SOL    HW133722   2.462   4.220   4.443  0.9910 -2.9454 -0.3400
 7362SOL    HW233723   2.485   4.362   4.412 -0.1152 -0.2497  0.5321
 7363SOL     OW33724   0.839   0.692  14.695 -0.5890 -0.6381  0.7090
 7363SOL    HW133725   0.762   0.734  14.733 -0.7875 -1.1959  0.9254
 7363SOL    HW233726   0.796   0.618  14.652  0.0596  0.9802 -2.6352
 7364SOL     OW33727   1.466   4.739  14.213 -0.0911 -0.0936  0.7927
 7364SOL    HW133728   1.488   4.703  14.127 -1.2045 -0.2247  0.5635
 7364SOL    HW233729   1.419   0.068  14.166 -0.0903  0.3548  1.4495
 7365SOL     OW33730   3.095   2.373  13.683  0.0424 -0.1259 -0.2370
 7365SOL    HW133731   3.085   2.402  13.773  1.4033 -1.2474  0.2846
 7365SOL    HW233732   3.111   2.279  13.679  0.4691 -0.0762  0.4131
 7366SOL     OW33733   4.632   1.567   3.180 -0.0012 -0.1100 -0.5441
 7366SOL    HW133734   4.578   1.639   3.148 -1.9340 -0.5822  1.6964
 7366SOL    HW233735   4.678   1.544   3.098 -1.1204  0.9947 -1.4746
 7367SOL     OW33736   1.100   0.941   6.804 -0.0526  0.3910 -0.1918
 7367SOL    HW133737   1.035   1.001   6.841  0.7944  0.1701  1.6521
 7367SOL    HW233738   1.083   0.857   6.847 -1.6551 -0.0171 -1.6407
 7368SOL     OW33739   3.954   0.982  12.668  0.2048 -0.1133  0.6035
 7368SOL    HW133740   3.994   1.011  12.750 -0.3607  3.1519 -0.2803
 7368SOL    HW233741   3.861   0.966  12.689 -0.1479  0.6607 -0.3722
 7369SOL     OW33742   3.807   4.035   2.007 -0.4158  0.1506 -0.7489
 7369SOL    HW133743   3.790   3.973   1.936 -1.7272 -1.1630  0.7503
 7369SOL    HW233744   3.845   3.976   2.071  0.9536  0.6643 -1.0800
 7370SOL     OW33745   1.112   2.050  15.031  0.2706  0.6372 -0.1948
 7370SOL    HW133746   1.122   1.974  15.088 -1.2283  0.5127 -0.0942
 7370SOL    HW233747   1.123   2.119  15.097  0.3109  1.1338 -0.7226
 7371SOL     OW33748   0.707   2.446   0.874  0.1417 -0.3442  0.3123
 7371SOL    HW133749   0.765   2.514   0.911  0.6471 -1.1275  0.9581
 7371SOL    HW233750   0.633   2.451   0.935  0.2172  1.5453  0.2723
 7372SOL     OW33751   0.177   0.247   4.798 -0.2208  0.5877 -0.1248
 7372SOL    HW133752   0.217   0.305   4.733  0.1394  0.6575  0.1608
 7372SOL    HW233753   0.253   0.199   4.831 -0.9558  0.2858  1.1170
 7373SOL     OW33754   1.570   0.543   9.385 -0.4989  0.2036  0.2338
 7373SOL    HW133755   1.555   0.626   9.338  1.8506  0.3185 -0.3353
 7373SOL    HW233756   1.512   0.482   9.340 -0.2718  1.6085 -2.0100
 7374SOL     OW33757   4.224   1.890   6.126 -0.6033 -0.5710  0.6581
 7374SOL    HW133758   4.153   1.951   6.108  1.6079  1.7114 -0.4331
 7374SOL    HW233759   4.270   1.893   6.042 -1.7833 -1.5659 -0.0153
 7375SOL     OW33760   2.927   1.970   4.202 -0.0542  0.2883 -0.0900
 7375SOL    HW133761   2.898   2.006   4.286  1.4018  0.3403  0.3844
 7375SOL    HW233762   3.017   1.943   4.223 -0.2244  0.7562  1.2466
 7376SOL     OW33763   4.528   4.033  15.281 -0.3855  0.1401  0.4972
 7376SOL    HW133764   4.509   3.943  15.253 -0.5756 -0.1426  1.5635
 7376SOL    HW233765   4.618   4.028  15.313 -0.0175  0.0643 -0.5346
 7377SOL     OW33766   2.662   2.526   1.292  0.3594 -0.4208 -0.1969
 7377SOL    HW133767   2.729   2.586   1.258 -1.2045  1.5163  0.1678
 7377SOL    HW233768   2.605   2.499   1.220  1.4938 -0.8236 -0.9552
 7378SOL     OW33769   1.545   2.036  15.474  0.6093  0.4726  0.4978
 7378SOL    HW133770   1.573   2.065  15.561 -0.6378  0.9926  0.7189
 7378SOL    HW233771   1.629   2.010  15.436 -0.3952 -0.6681 -0.9266
 7379SOL     OW33772   0.725   2.691  12.613  0.4743  0.0065 -0.4718
 7379SOL    HW133773   0.764   2.604  12.600  2.0148  0.6491 -0.0724
 7379SOL    HW233774   0.771   2.747  12.552 -1.5943  1.9157 -0.2787
 7380SOL     OW33775   0.729   4.001  16.756  0.5652 -0.0441 -0.0281
 7380SOL    HW133776   0.734   3.905  16.756  0.2934 -0.0707 -1.9960
 7380SOL    HW233777   0.663   4.012  16.688  1.4675 -0.3863 -0.9687
 7381SOL     OW33778   0.007   4.494  12.244 -0.1874  0.0948 -0.3145
 7381SOL    HW133779   0.046   4.458  12.324 -0.8361  1.3225  0.5484
 7381SOL    HW233780   0.061   4.454  12.176 -0.9031  0.3769 -1.0398
 7382SOL     OW33781   3.475   3.547   9.132 -0.0309 -0.4663 -0.1662
 7382SOL    HW133782   3.548   3.494   9.165 -0.5253  0.6675  2.7773
 7382SOL    HW233783   3.444   3.586   9.214  1.3586 -0.5623  0.4040
 7383SOL     OW33784   4.233   3.528   2.442  0.1057 -0.0223 -0.6384
 7383SOL    HW133785   4.161   3.586   2.467  0.0322 -0.3377 -0.1231
 7383SOL    HW233786   4.299   3.596   2.426  1.1384 -0.7450  0.5373
 7384SOL     OW33787   3.276   1.541  12.050 -0.2640 -0.1835  0.1511
 7384SOL    HW133788   3.228   1.616  12.014  0.7883  0.7286  0.6289
 7384SOL    HW233789   3.358   1.570  12.008 -0.6708 -0.6372 -0.9696
 7385SOL     OW33790   3.162   1.079  10.717 -0.0505  0.2641  0.8106
 7385SOL    HW133791   3.181   1.004  10.660 -1.6745 -0.9477  1.8735
 7385SOL    HW233792   3.248   1.102  10.752  0.2922  1.5756 -0.8527
 7386SOL     OW33793   0.615   0.357   4.607 -0.4613 -0.2892  0.4872
 7386SOL    HW133794   0.614   0.311   4.691  0.2479 -1.4744 -0.1580
 7386SOL    HW233795   0.635   0.288   4.544 -1.9397  0.6490 -1.0119
 7387SOL     OW33796   0.910   2.705   9.528 -0.1508  0.5208  0.6746
 7387SOL    HW133797   0.907   2.786   9.578 -0.3119  0.0136  1.4896
 7387SOL    HW233798   0.983   2.660   9.572 -0.5717 -0.5639  0.2865
 7388SOL     OW33799   3.029   2.165   6.782  0.0886 -0.8974 -0.6089
 7388SOL    HW133800   2.982   2.153   6.699  1.9527  1.1590 -1.9310
 7388SOL    HW233801   2.956   2.179   6.842  0.0200  2.6825 -1.5592
 7389SOL     OW33802   2.208   0.088   1.170  0.2512  0.0887  0.0477
 7389SOL    HW133803   2.171   0.152   1.110  1.0021  0.1686 -0.3173
 7389SOL    HW233804   2.133   0.087   1.230 -0.9390  0.8769 -1.4362
 7390SOL     OW33805   0.227   1.614  11.627  0.0470 -0.0132 -0.0119
 7390SOL    HW133806   0.288   1.682  11.654 -1.0990  0.8505  0.3908
 7390SOL    HW233807   0.176   1.663  11.562 -0.7298  0.9468  1.3455
 7391SOL     OW33808   4.344   3.457  10.249  0.1151 -0.5763  0.1852
 7391SOL    HW133809   4.303   3.450  10.163  0.2659 -3.9192  0.3746
 7391SOL    HW233810   4.397   3.536  10.240 -0.3293 -0.3554 -0.5414
 7392SOL     OW33811   2.132   1.485   4.844 -0.4734 -0.1000 -0.3861
 7392SOL    HW133812   2.055   1.495   4.901 -1.2613 -1.8301 -1.1534
 7392SOL    HW233813   2.155   1.394   4.864 -1.0004 -0.2610 -0.5071
 7393SOL     OW33814   2.560   2.833   8.527 -0.0181 -0.1147  0.2653
 7393SOL    HW133815   2.573   2.739   8.527  0.2524 -0.0792  1.2651
 7393SOL    HW233816   2.597   2.864   8.444  0.1569 -0.9659  0.0230
 7394SOL     OW33817   1.806   4.214  13.609 -0.2039  0.0046  0.4118
 7394SOL    HW133818   1.876   4.191  13.670  1.0584  1.1208 -0.6105
 7394SOL    HW233819   1.855   4.271  13.549 -1.3231  0.2384 -0.2699
 7395SOL     OW33820   4.163   2.640   9.402  0.2199  0.5558 -0.1188
 7395SOL    HW133821   4.159   2.701   9.328  1.1190  1.9928  1.0168
 7395SOL    HW233822   4.183   2.570   9.340  1.5352  1.4967 -0.7497
 7396SOL     OW33823   2.652   4.628   3.530 -0.2228 -0.1356 -0.0432
 7396SOL    HW133824   2.605   4.692   3.477  2.6173  1.5420 -0.5164
 7396SOL    HW233825   2.740   4.661   3.518  0.1839 -1.6663 -1.2897
 7397SOL     OW33826   0.387   1.756   2.783 -0.1286  0.1483  0.2675
 7397SOL    HW133827   0.310   1.726   2.736 -0.5047  1.8242 -0.1967
 7397SOL    HW233828   0.348   1.771   2.869  1.2248 -0.9580  1.0732
 7398SOL     OW33829   1.116   1.733   4.689 -0.2117 -0.4770  0.3468
 7398SOL    HW133830   1.042   1.744   4.749 -1.0730 -2.0375 -0.4120
 7398SOL    HW233831   1.140   1.825   4.687  0.9924 -0.7671  1.6128
 7399SOL     OW33832   3.815   3.914  17.300  0.1971 -0.2135 -0.1866
 7399SOL    HW133833   3.798   4.006  17.279  1.1732 -0.4242 -1.8962
 7399SOL    HW233834   3.731   3.868  17.309 -0.6624  0.7520 -3.0632
 7400SOL     OW33835   2.658   3.684   4.148  0.0326  0.1692  0.3632
 7400SOL    HW133836   2.699   3.770   4.158  0.5852 -0.1465  0.7951
 7400SOL    HW233837   2.694   3.653   4.231  2.6960  1.3695 -0.3581
 7401SOL     OW33838   4.011   1.344   4.342 -0.6866  0.3869 -0.0053
 7401SOL    HW133839   4.105   1.346   4.359  0.2202 -3.3631 -4.4992
 7401SOL    HW233840   3.999   1.254   4.311 -1.4577 -0.1239  1.7993
 7402SOL     OW33841   2.480   1.011   3.686  0.3557  0.2312  0.0039
 7402SOL    HW133842   2.556   1.060   3.653 -1.4285 -0.6627 -5.3284
 7402SOL    HW233843   2.460   0.950   3.615  2.4345 -0.9239  0.3866
 7403SOL     OW33844   4.430   2.800   7.044  0.1381 -0.1035 -0.1895
 7403SOL    HW133845   4.405   2.880   7.090 -2.2577 -1.0743  0.2005
 7403SOL    HW233846   4.347   2.762   7.014  0.2147 -0.8315  0.5088
 7404SOL     OW33847   0.215   1.345   4.179  0.0122 -0.3128  0.4456
 7404SOL    HW133848   0.122   1.320   4.182 -0.3515  0.8226 -1.5542
 7404SOL    HW233849   0.230   1.362   4.086 -0.6675 -2.6410 -0.0837
 7405SOL     OW33850   0.005   0.454   8.575 -0.0134 -0.1691  0.2645
 7405SOL    HW133851   4.687   0.377   8.576 -0.1032 -0.1237 -1.1808
 7405SOL    HW233852   0.070   0.414   8.517 -0.5605  0.3674 -0.7223
 7406SOL     OW33853   2.381   1.714   9.142  0.1579  0.2480 -0.0655
 7406SOL    HW133854   2.428   1.792   9.112  0.7788 -0.6717 -1.4958
 7406SOL    HW233855   2.443   1.685   9.210  2.0292 -0.3078 -2.0073
 7407SOL     OW33856   2.080   3.295  13.908  0.0390 -0.1418 -0.1721
 7407SOL    HW133857   2.070   3.373  13.963  1.4017 -1.5700  2.1268
 7407SOL    HW233858   2.025   3.229  13.950  0.1042  0.7048  1.2540
 7408SOL     OW33859   1.401   4.331   5.321  0.1816 -1.0055  0.2109
 7408SOL    HW133860   1.329   4.376   5.366 -0.3274 -1.5919 -0.0243
 7408SOL    HW233861   1.471   4.343   5.386 -1.1826 -0.7813  1.6419
 7409SOL     OW33862   2.686   3.125   3.981  0.3163  0.2285  0.1639
 7409SOL    HW133863   2.689   3.215   3.948 -0.5289 -0.5208 -1.9748
 7409SOL    HW233864   2.773   3.099   3.952 -0.0675  0.5909 -1.3490
 7410SOL     OW33865   2.300   2.723   8.713 -0.1115 -0.7314  0.3271
 7410SOL    HW133866   2.347   2.684   8.640 -0.5827  1.5878 -1.1887
 7410SOL    HW233867   2.359   2.705   8.787 -1.6497 -2.8066  1.0312
 7411SOL     OW33868   2.441   2.214   8.472 -0.3212  0.1256  0.0027
 7411SOL    HW133869   2.432   2.152   8.400 -0.9143 -1.3322  1.3409
 7411SOL    HW233870   2.504   2.275   8.434 -1.6622  1.8854  0.5927
 7412SOL     OW33871   2.024   0.344   5.742 -0.5930  0.7113  0.4164
 7412SOL    HW133872   2.116   0.348   5.769 -0.6037 -1.0114  0.7373
 7412SOL    HW233873   1.980   0.309   5.820 -1.8593  1.3614 -0.0103
 7413SOL     OW33874   1.788   3.761   7.859  0.3850 -0.0286 -0.4438
 7413SOL    HW133875   1.706   3.712   7.865  0.5609 -0.1686  0.6812
 7413SOL    HW233876   1.801   3.811   7.940 -0.5550 -1.3554  0.5307
 7414SOL     OW33877   1.309   2.553  13.711  0.0261 -0.5993  0.0777
 7414SOL    HW133878   1.404   2.547  13.716  0.0111  0.8051  1.8989
 7414SOL    HW233879   1.288   2.470  13.754 -1.1123 -0.9623 -1.1674
 7415SOL     OW33880   3.128   3.393   7.220 -0.0252  0.3911  0.1932
 7415SOL    HW133881   3.096   3.389   7.310 -0.4363 -0.9155 -0.0109
 7415SOL    HW233882   3.218   3.424   7.226 -0.6916  2.4587 -0.6127
 7416SOL     OW33883   2.283   4.729   4.881 -0.1838 -0.8964  0.0468
 7416SOL    HW133884   2.356   4.738   4.942 -0.4697  2.5676 -0.1038
 7416SOL    HW233885   2.328   0.038   4.812 -0.4648  3.1391  2.6683
 7417SOL     OW33886   1.846   2.879   7.871  0.2037 -0.9278  0.0254
 7417SOL    HW133887   1.908   2.853   7.939 -0.8540 -0.2561  1.2590
 7417SOL    HW233888   1.768   2.855   7.921  0.3924  1.6182  1.5117
 7418SOL     OW33889   2.994   3.203  11.292 -0.5104 -0.0836  0.3916
 7418SOL    HW133890   2.945   3.137  11.244 -1.1629  0.8899 -0.2977
 7418SOL    HW233891   2.944   3.280  11.262  0.0418  0.5342  1.0433
 7419SOL     OW33892   4.138   1.478   8.460  0.4932 -1.0078  0.2731
 7419SOL    HW133893   4.147   1.528   8.541 -1.2210 -1.9658  1.0661
 7419SOL    HW233894   4.217   1.508   8.415  0.8844 -3.4697 -0.6740
 7420SOL     OW33895   3.896   4.284   4.598 -0.0021 -0.1000 -0.5694
 7420SOL    HW133896   3.835   4.218   4.632 -0.3050  0.3281 -0.2824
 7420SOL    HW233897   3.955   4.220   4.558  1.2389  1.0053 -0.4997
 7421SOL     OW33898   1.463   1.071   4.924  0.3087 -0.3130 -0.5624
 7421SOL    HW133899   1.368   1.066   4.926  0.3227 -0.4232 -0.2569
 7421SOL    HW233900   1.477   0.984   4.961 -0.6837  1.4209  3.8967
 7422SOL     OW33901   0.859   3.110   0.511  0.0627 -0.2699  0.2308
 7422SOL    HW133902   0.932   3.058   0.542  0.6043 -0.3687 -1.1909
 7422SOL    HW233903   0.841   3.054   0.435 -0.8902 -0.4622  0.5983
 7423SOL     OW33904   2.764   4.676   2.549 -0.1497  0.0097  0.0508
 7423SOL    HW133905   2.859   4.689   2.546  0.0149 -0.9120  1.5942
 7423SOL    HW233906   2.745   0.014   2.603 -3.8064  0.0755 -1.3052
 7424SOL     OW33907   3.611   0.856   8.658  0.1123  0.0264 -0.1399
 7424SOL    HW133908   3.539   0.855   8.722 -1.5698 -0.1096 -2.0649
 7424SOL    HW233909   3.640   0.765   8.661 -1.5507 -0.5173 -0.5631
 7425SOL     OW33910   2.577   0.395   5.614 -0.0864  0.1792 -0.1001
 7425SOL    HW133911   2.494   0.443   5.613  0.6484  1.4080 -1.2154
 7425SOL    HW233912   2.637   0.454   5.568 -0.2200  0.2923 -0.1297
 7426SOL     OW33913   1.659   2.941  13.397 -0.1506 -0.0947 -0.0418
 7426SOL    HW133914   1.570   2.976  13.407 -1.2357 -2.8586  0.0103
 7426SOL    HW233915   1.677   2.978  13.311  0.4295 -0.7586 -0.2099
 7427SOL     OW33916   3.778   2.949   0.873  0.5601  0.2467  0.2650
 7427SOL    HW133917   3.688   2.979   0.882  0.5697  0.5570 -0.6295
 7427SOL    HW233918   3.828   3.024   0.843  0.8309  0.5321  1.4614
 7428SOL     OW33919   2.627   3.037   6.250  0.3503 -0.2637  0.3589
 7428SOL    HW133920   2.642   3.021   6.157 -0.5885 -0.4393  0.2290
 7428SOL    HW233921   2.573   2.962   6.277 -2.2414  0.7396 -2.0464
 7429SOL     OW33922   0.917   0.850  13.573 -0.1561  0.1077  0.0820
 7429SOL    HW133923   0.831   0.816  13.548  1.3163 -2.4758 -1.4525
 7429SOL    HW233924   0.945   0.908  13.502  2.1046  1.4870  2.1132
 7430SOL     OW33925   3.178   2.962  14.313 -0.6718  0.1546  0.1188
 7430SOL    HW133926   3.162   2.955  14.408 -1.6755 -1.0539 -0.1268
 7430SOL    HW233927   3.152   3.051  14.292  2.8784  0.3909 -3.1996
 7431SOL     OW33928   2.061   0.471  14.264  0.0426 -0.0543 -0.0802
 7431SOL    HW133929   2.153   0.446  14.270  0.4143  1.1128 -0.9510
 7431SOL    HW233930   2.026   0.461  14.353  1.3051  0.7414  0.5106
 7432SOL     OW33931   0.516   3.924   7.091  0.2262 -0.2283  0.0447
 7432SOL    HW133932   0.426   3.922   7.124 -1.0331 -3.3197 -3.6765
 7432SOL    HW233933   0.516   4.020   7.096 -1.3736 -0.2731  0.7263
 7433SOL     OW33934   1.353   3.815   1.487  0.2718  0.5615  0.0044
 7433SOL    HW133935   1.353   3.722   1.463 -0.3790  0.7187 -0.6008
 7433SOL    HW233936   1.292   3.854   1.425  0.9849  0.9717 -0.4426
 7434SOL     OW33937   1.330   2.545   2.097  0.2000 -0.0988 -0.0693
 7434SOL    HW133938   1.242   2.534   2.061 -0.3144 -0.6138  1.3202
 7434SOL    HW233939   1.370   2.601   2.031  1.3975 -0.7513  0.1034
 7435SOL     OW33940   4.151   4.015   1.889 -0.1520 -0.5207  0.0868
 7435SOL    HW133941   4.243   3.988   1.893  0.7688  2.3077 -1.7467
 7435SOL    HW233942   4.104   3.934   1.872 -1.7033  0.6495 -1.2521
 7436SOL     OW33943   3.065   0.089   3.625  0.1214 -0.1086 -0.1895
 7436SOL    HW133944   3.128   0.077   3.553  0.2113  1.0927 -0.3166
 7436SOL    HW233945   3.027   0.001   3.625  1.0940 -0.5338 -1.0749
 7437SOL     OW33946   1.997   0.675   8.294 -0.5202 -0.3405  0.2320
 7437SOL    HW133947   1.964   0.759   8.325 -1.6709 -1.5241  2.2280
 7437SOL    HW233948   1.925   0.617   8.318 -0.8692  0.3886  0.9517
 7438SOL     OW33949   4.528   1.947   8.850  0.5259 -0.1748 -0.5195
 7438SOL    HW133950   4.560   2.034   8.827 -0.3759  1.1682  3.3354
 7438SOL    HW233951   4.529   1.949   8.945  0.5144  0.6682 -0.5447
 7439SOL     OW33952   4.548   4.620  16.760  0.5736 -0.1417  0.1899
 7439SOL    HW133953   4.479   4.559  16.787  0.4679  0.5943  1.5892
 7439SOL    HW233954   4.488   4.677  16.711  2.0632 -1.4537 -3.1895
 7440SOL     OW33955   4.723   1.698   3.392 -0.3454  0.2710 -0.4735
 7440SOL    HW133956   4.687   1.656   3.315  1.1399 -0.9523 -0.5043
 7440SOL    HW233957   0.071   1.663   3.411 -0.5599 -0.7950 -1.4902
 7441SOL     OW33958   3.381   3.605  15.945  0.5830  0.3681  0.3262
 7441SOL    HW133959   3.361   3.692  15.977 -1.2352  0.7207 -1.7327
 7441SOL    HW233960   3.438   3.633  15.873 -0.2530  0.6815 -0.2134
 7442SOL     OW33961   3.829   0.483   1.277 -0.2288 -0.1800  0.1613
 7442SOL    HW133962   3.892   0.482   1.205 -0.4168  1.0334 -0.0248
 7442SOL    HW233963   3.772   0.410   1.255 -0.2544  0.4029 -1.6375
 7443SOL     OW33964   3.068   2.250   9.796 -0.5546 -0.5405  0.0174
 7443SOL    HW133965   3.128   2.322   9.817  0.1042 -1.1538  0.2186
 7443SOL    HW233966   2.990   2.288   9.836  0.4203 -0.5584  1.9076
 7444SOL     OW33967   2.102   3.314   4.986  0.0377  0.3272 -0.0901
 7444SOL    HW133968   2.128   3.345   5.073 -0.5216  1.1254 -0.2088
 7444SOL    HW233969   2.030   3.376   4.976 -0.7600 -0.6299 -0.1973
 7445SOL     OW33970   2.067   3.791   4.905  0.4690  0.1051 -0.2499
 7445SOL    HW133971   2.126   3.846   4.853  0.9911 -0.8148 -0.6154
 7445SOL    HW233972   2.055   3.711   4.855  2.2483 -0.6806  0.5991
 7446SOL     OW33973   1.194   0.182   7.511 -0.1455  0.5017  0.2194
 7446SOL    HW133974   1.274   0.224   7.481  0.1166 -0.8048 -0.8948
 7446SOL    HW233975   1.163   0.127   7.440 -2.3081 -0.9690  2.2810
 7447SOL     OW33976   3.209   3.759   4.798 -0.1272  0.0591  0.0534
 7447SOL    HW133977   3.115   3.744   4.791  0.0178 -1.5688  1.6821
 7447SOL    HW233978   3.212   3.799   4.885  1.6426 -0.7750  0.3603
 7448SOL     OW33979   3.978   2.377   8.467 -0.5573  0.3436  0.0839
 7448SOL    HW133980   3.929   2.295   8.470 -0.0874  0.0900  1.2244
 7448SOL    HW233981   3.954   2.422   8.387 -1.5395 -2.8040 -1.3684
 7449SOL     OW33982   2.251   3.811   5.115 -0.3163  0.5440 -0.3958
 7449SOL    HW133983   2.175   3.829   5.058  0.6109  1.3298 -1.3840
 7449SOL    HW233984   2.252   3.878   5.184  0.0069  0.0548  0.0742
 7450SOL     OW33985   4.023   0.462  14.357  0.2751 -0.5849  0.5300
 7450SOL    HW133986   3.966   0.453  14.434  1.2735 -0.0777  1.3193
 7450SOL    HW233987   4.062   0.377  14.339  2.4427  0.4532  0.2925
 7451SOL     OW33988   2.543   4.615   2.408 -0.1537  0.7426  0.1022
 7451SOL    HW133989   2.619   4.667   2.436 -2.4525  3.3342  1.5540
 7451SOL    HW233990   2.583   4.549   2.352  1.3719  1.4320  0.3454
 7452SOL     OW33991   0.387   3.145   5.704  0.2739  0.5042  0.1803
 7452SOL    HW133992   0.440   3.117   5.629 -1.3311 -2.0091  0.0031
 7452SOL    HW233993   0.316   3.082   5.692  0.9023 -0.2709  0.4999
 7453SOL     OW33994   3.410   2.764   7.247 -0.2152  0.2890 -0.3781
 7453SOL    HW133995   3.328   2.719   7.225 -0.2636 -0.3842  1.1522
 7453SOL    HW233996   3.474   2.693   7.251 -0.6331 -0.0964 -0.5491
 7454SOL     OW33997   2.821   3.389  14.145 -0.1819 -0.1150  0.1493
 7454SOL    HW133998   2.883   3.324  14.111 -0.7373 -0.7873  0.4191
 7454SOL    HW233999   2.756   3.383  14.074  0.7193  3.5572 -0.9537
 7455SOL     OW34000   3.975   2.125   3.765  0.2345  0.1444  0.3324
 7455SOL    HW134001   4.021   2.206   3.786 -0.7269  0.9641 -0.6799
 7455SOL    HW234002   4.002   2.074   3.841 -2.3508  2.3243  2.6834
 7456SOL     OW34003   2.550   1.350   1.805 -0.2476  0.7212 -0.0788
 7456SOL    HW134004   2.524   1.381   1.892  0.8607  1.1250  0.1021
 7456SOL    HW234005   2.527   1.424   1.749 -0.9715  0.0780 -0.6313
 7457SOL     OW34006   4.122   4.122   0.838 -0.1664 -0.0077  0.3838
 7457SOL    HW134007   4.091   4.199   0.886 -0.1811  0.1116  0.1826
 7457SOL    HW234008   4.045   4.100   0.786  2.0300  0.0610 -2.8679
 7458SOL     OW34009   4.304   3.460   1.635  0.4399 -0.2919 -0.1398
 7458SOL    HW134010   4.311   3.542   1.684  1.0607 -0.7631  0.5545
 7458SOL    HW234011   4.271   3.404   1.704  1.4228 -3.1736 -1.9760
 7459SOL     OW34012   1.435   4.491   6.817  0.2594 -0.4672 -0.0903
 7459SOL    HW134013   1.399   4.409   6.849 -0.2228 -0.7671 -1.4084
 7459SOL    HW234014   1.494   4.463   6.747  1.8955  4.2244 -0.6252
 7460SOL     OW34015   2.298   2.382   2.998  0.6152  0.3644 -0.6245
 7460SOL    HW134016   2.234   2.436   3.045  0.5878  0.8834 -1.2489
 7460SOL    HW234017   2.343   2.330   3.064 -1.0485  1.1356  1.1363
 7461SOL     OW34018   4.062   0.349   6.939  0.1053  0.3222  0.3932
 7461SOL    HW134019   4.089   0.422   6.995  4.2482  0.5692 -1.8956
 7461SOL    HW234020   3.980   0.326   6.981 -0.3088  1.4050  0.1888
 7462SOL     OW34021   0.377   0.154   8.053 -0.5640  0.0426  0.3224
 7462SOL    HW134022   0.358   0.169   8.146 -0.4034  1.0524  0.1943
 7462SOL    HW234023   0.469   0.127   8.061 -0.9165 -1.0806  0.5160
 7463SOL     OW34024   4.590   0.670   2.946  0.4552  0.0352  0.0123
 7463SOL    HW134025   4.634   0.677   3.030  0.1406 -1.1615  0.2700
 7463SOL    HW234026   4.507   0.716   2.958 -0.9338 -2.8563  1.3363
 7464SOL     OW34027   2.695   0.761   2.069 -0.0089  0.0025 -0.2374
 7464SOL    HW134028   2.785   0.794   2.073 -0.3577  1.0229 -0.5900
 7464SOL    HW234029   2.706   0.674   2.033  0.8847 -0.6746  1.6408
 7465SOL     OW34030   0.938   1.674   5.154  0.0057  0.2447  0.2724
 7465SOL    HW134031   0.962   1.666   5.246 -0.8008  0.2802  0.4855
 7465SOL    HW234032   0.857   1.724   5.148  1.0466  2.1150  1.7574
 7466SOL     OW34033   0.696   4.547   3.733  0.3506  0.5224 -0.4570
 7466SOL    HW134034   0.771   4.498   3.767  1.4965  0.3970 -3.1231
 7466SOL    HW234035   0.629   4.482   3.755  0.9303  0.5340  1.3721
 7467SOL     OW34036   4.152   1.323   2.752  0.6406 -0.9563  0.0959
 7467SOL    HW134037   4.207   1.297   2.678  2.1924 -1.3305  1.3909
 7467SOL    HW234038   4.129   1.413   2.726  1.2683 -0.5064  1.1249
 7468SOL     OW34039   1.224   4.327   6.574 -0.0661 -0.2323  0.3511
 7468SOL    HW134040   1.183   4.367   6.497  1.2294 -0.2615 -0.3613
 7468SOL    HW234041   1.313   4.360   6.571 -0.7327  1.4144 -1.2429
 7469SOL     OW34042   3.460   1.349   2.493 -0.5295  0.5702 -0.2872
 7469SOL    HW134043   3.474   1.328   2.400 -1.5385 -0.5441 -0.1817
 7469SOL    HW234044   3.420   1.270   2.528  0.5187  0.6504  1.0868
 7470SOL     OW34045   4.391   4.166   6.244  0.1797 -0.2854  0.3701
 7470SOL    HW134046   4.468   4.189   6.192 -0.4954 -0.4193 -0.6862
 7470SOL    HW234047   4.418   4.201   6.329  0.7780  1.2230 -0.4328
 7471SOL     OW34048   1.917   3.399   9.552 -0.0286  0.0304  0.5529
 7471SOL    HW134049   1.999   3.364   9.585  0.5367  0.6820 -0.1630
 7471SOL    HW234050   1.912   3.355   9.467  1.7533  0.6959  0.1116
 7472SOL     OW34051   4.594   4.506   4.982  0.4121 -0.2676 -0.0407
 7472SOL    HW134052   4.632   4.423   5.011  0.5838 -0.9968 -2.3503
 7472SOL    HW234053   4.603   4.540   5.071  2.2137 -0.4999 -0.1307
 7473SOL     OW34054   3.325   2.482   9.245  0.5034  0.2521 -0.0327
 7473SOL    HW134055   3.313   2.521   9.159 -0.1542  0.1708  0.0265
 7473SOL    HW234056   3.333   2.554   9.308  1.3161 -1.3056  1.6713
 7474SOL     OW34057   1.738   1.147  16.232 -0.6231  0.3385 -0.0016
 7474SOL    HW134058   1.705   1.198  16.158 -0.3026 -0.5678 -0.7665
 7474SOL    HW234059   1.828   1.176  16.243 -0.6759  1.2542 -2.0793
 7475SOL     OW34060   3.130   0.146   8.422 -0.0003 -0.3938  0.2730
 7475SOL    HW134061   3.172   0.189   8.496  0.6249  1.6044 -1.2584
 7475SOL    HW234062   3.038   0.166   8.440 -0.6233 -2.8223 -0.2243
 7476SOL     OW34063   3.181   1.296   3.884  0.0430  0.0943  0.5193
 7476SOL    HW134064   3.154   1.218   3.933 -1.3638  0.7447  0.7521
 7476SOL    HW234065   3.237   1.351   3.940 -1.0802  3.0716 -1.3057
 7477SOL     OW34066   0.178   3.288   8.881  0.2051 -0.0433  0.5660
 7477SOL    HW134067   0.192   3.316   8.971  0.3342  2.5279 -0.2401
 7477SOL    HW234068   0.189   3.193   8.885  0.9562  0.0405  0.4394
 7478SOL     OW34069   2.568   2.412   8.288  0.9779 -0.3382  0.2022
 7478SOL    HW134070   2.629   2.448   8.225  0.4448 -1.0657 -0.7187
 7478SOL    HW234071   2.605   2.442   8.372 -0.0843 -0.0239  0.5602
 7479SOL     OW34072   3.933   0.147   0.299  0.1797  0.0959  0.4746
 7479SOL    HW134073   3.950   0.241   0.292 -0.3354  0.1146 -0.5015
 7479SOL    HW234074   3.839   0.152   0.313 -0.4370 -2.5203 -2.7360
 7480SOL     OW34075   3.632   3.218   7.257  0.0269  0.5057  0.3003
 7480SOL    HW134076   3.608   3.132   7.222 -1.0526  0.2681  1.6188
 7480SOL    HW234077   3.622   3.202   7.351  0.2928  0.2806  0.2919
 7481SOL     OW34078   3.873   2.552   7.294 -0.6545 -0.2978  0.5645
 7481SOL    HW134079   3.854   2.624   7.354  0.7359 -0.4316  1.1832
 7481SOL    HW234080   3.880   2.473   7.349 -0.6343 -1.2246 -0.7651
 7482SOL     OW34081   4.124   3.888  10.235  0.6735  0.8351  0.3463
 7482SOL    HW134082   4.168   3.972  10.242  0.5794  1.1455 -2.7939
 7482SOL    HW234083   4.153   3.870  10.145 -2.6367 -0.2544 -0.5379
 7483SOL     OW34084   3.771   3.202   2.222 -0.4998 -0.3665  0.0512
 7483SOL    HW134085   3.783   3.252   2.302  0.2658  1.0554 -0.9484
 7483SOL    HW234086   3.836   3.134   2.238  1.0856  0.9980 -0.5780
 7484SOL     OW34087   3.778   0.516   3.573 -0.0884 -0.2786  0.0359
 7484SOL    HW134088   3.763   0.522   3.667  0.4605 -0.6673  0.1474
 7484SOL    HW234089   3.745   0.427   3.560 -0.8511  0.1417 -0.8968
 7485SOL     OW34090   2.827   0.453  12.037 -0.0577 -0.3761  0.2556
 7485SOL    HW134091   2.897   0.388  12.030  0.3769  0.0209  0.9704
 7485SOL    HW234092   2.868   0.510  12.101 -2.0565  2.2199 -0.7872
 7486SOL     OW34093   3.988   4.082   4.403  0.1037 -0.5635 -0.5380
 7486SOL    HW134094   3.973   4.149   4.336  0.6868 -1.9427 -2.0377
 7486SOL    HW234095   4.066   4.050   4.359  1.1105  0.6190  0.3904
 7487SOL     OW34096   2.579   4.381  17.127 -0.7914 -0.2776  0.0871
 7487SOL    HW134097   2.542   4.443  17.191  1.8327 -0.0119  1.3567
 7487SOL    HW234098   2.666   4.422  17.130 -0.5020 -0.8596 -0.3736
 7488SOL     OW34099   0.205   1.516   0.991  0.5585  0.3221 -0.0714
 7488SOL    HW134100   0.282   1.460   0.996  0.4566  0.0488 -1.7278
 7488SOL    HW234101   0.209   1.538   0.898  2.6010 -0.3964 -0.1524
 7489SOL     OW34102   0.837   0.760   2.972  0.5870  0.4950  0.5576
 7489SOL    HW134103   0.772   0.780   2.905 -1.1899  0.4309  2.2468
 7489SOL    HW234104   0.814   0.670   2.991 -0.5675  0.6222 -0.2575
 7490SOL     OW34105   2.467   4.677   8.494  0.2577  0.2522  0.5966
 7490SOL    HW134106   2.501   4.603   8.544  0.3955  0.6709  1.1204
 7490SOL    HW234107   2.409   4.640   8.427  1.9257 -0.4356 -0.4644
 7491SOL     OW34108   0.110   2.657   2.489  0.2011 -0.0164  0.1069
 7491SOL    HW134109   0.017   2.677   2.487  0.6604  2.1161 -1.1681
 7491SOL    HW234110   0.123   2.665   2.583  2.2912 -2.7174  0.0423
 7492SOL     OW34111   3.844   3.869   2.812  0.1132  0.7141 -0.1387
 7492SOL    HW134112   3.803   3.838   2.893 -0.3326  1.9556  0.1133
 7492SOL    HW234113   3.933   3.835   2.815 -0.8486 -1.7879 -0.4018
 7493SOL     OW34114   4.201   0.251   0.806  0.1685 -0.2844  0.4790
 7493SOL    HW134115   4.112   0.224   0.829  1.2016 -2.8365  1.4433
 7493SOL    HW234116   4.257   0.192   0.856 -0.4440 -0.7374  0.6395
 7494SOL     OW34117   3.257   1.426  14.674  0.1506  0.2801 -0.1890
 7494SOL    HW134118   3.282   1.471  14.755  1.3573  2.3807 -1.7152
 7494SOL    HW234119   3.190   1.482  14.634  0.8081  1.4701  0.3647
 7495SOL     OW34120   1.961   0.401  11.921 -0.6174  0.2390 -0.1122
 7495SOL    HW134121   1.904   0.476  11.906 -0.5927  0.1084 -0.8502
 7495SOL    HW234122   2.038   0.445  11.885 -0.1022  0.1809  0.9340
 7496SOL     OW34123   2.646   2.746   6.815  0.0910  0.1515  0.6320
 7496SOL    HW134124   2.671   2.832   6.849 -0.0543 -0.2448  1.7354
 7496SOL    HW234125   2.578   2.717   6.875  1.9016 -2.6228  1.3071
 7497SOL     OW34126   0.451   2.754   5.988  0.2335  0.0400  0.3325
 7497SOL    HW134127   0.388   2.684   5.974  0.1845 -0.3997  2.7115
 7497SOL    HW234128   0.509   2.710   6.050  1.8544  0.1933 -1.0788
 7498SOL     OW34129   2.710   1.645   1.492  0.3420 -0.0913  0.3493
 7498SOL    HW134130   2.742   1.731   1.466  2.7043 -0.9839  0.2605
 7498SOL    HW234131   2.751   1.597   1.419  0.7168  2.1763 -0.9231
 7499SOL     OW34132   0.385   0.661  16.630  0.0840 -0.3179  0.1393
 7499SOL    HW134133   0.434   0.676  16.712  0.4400 -2.5191  0.3489
 7499SOL    HW234134   0.299   0.663  16.672  0.7782  2.5221  1.4353
 7500SOL     OW34135   4.364   2.944   5.275  0.0096  0.0029 -0.6761
 7500SOL    HW134136   4.296   2.955   5.341 -1.1941  0.1850 -1.9408
 7500SOL    HW234137   4.449   2.966   5.312 -0.0713 -0.4550 -0.2238
 7501SOL     OW34138   2.612   2.579  16.503 -0.6656  0.3869 -0.0671
 7501SOL    HW134139   2.623   2.661  16.552  2.2996 -1.3082  2.0783
 7501SOL    HW234140   2.682   2.530  16.546 -0.9283  0.9515  1.0169
 7502SOL     OW34141   2.573   4.444   8.693  0.0219 -0.0650 -0.3531
 7502SOL    HW134142   2.556   4.353   8.667 -0.8201  0.5605 -2.0229
 7502SOL    HW234143   2.498   4.444   8.753  0.2297 -0.0431 -0.0962
 7503SOL     OW34144   2.320   4.576   0.994 -0.6827  0.2018 -0.2340
 7503SOL    HW134145   2.291   4.662   1.024 -2.1400 -0.7600  1.0838
 7503SOL    HW234146   2.339   4.531   1.076  0.1620 -2.9236 -2.1485
 7504SOL     OW34147   2.598   0.658  13.122 -0.4870 -0.0232 -0.1835
 7504SOL    HW134148   2.598   0.753  13.139 -1.0681  0.2698 -1.7666
 7504SOL    HW234149   2.513   0.634  13.160 -1.5178  1.0739 -1.7546
 7505SOL     OW34150   4.544   2.608   3.726  0.0351  0.1994 -0.0925
 7505SOL    HW134151   4.582   2.645   3.647  1.7554 -0.0934  0.6054
 7505SOL    HW234152   4.449   2.605   3.711  0.3194 -1.2581 -1.5806
 7506SOL     OW34153   2.012   4.028  12.091  0.2190 -0.3896 -0.0847
 7506SOL    HW134154   2.006   3.943  12.048 -1.0915  0.0809 -0.8371
 7506SOL    HW234155   2.002   4.092  12.020  1.0187  1.6501  1.6340
 7507SOL     OW34156   3.967   2.169   2.342  0.3073  0.3108  0.4713
 7507SOL    HW134157   3.951   2.235   2.409 -0.9259 -0.0845  0.5563
 7507SOL    HW234158   3.891   2.176   2.285  2.1246  1.4376 -1.8317
 7508SOL     OW34159   0.801   3.550  12.045 -0.1363  0.1686  0.1268
 7508SOL    HW134160   0.863   3.623  12.054  0.4443 -0.5177  1.5895
 7508SOL    HW234161   0.847   3.494  11.983  2.1168  0.3272  1.6406
 7509SOL     OW34162   3.157   0.572   4.599  0.0134 -0.0897  0.0002
 7509SOL    HW134163   3.214   0.641   4.632  1.9741 -1.1541 -1.2135
 7509SOL    HW234164   3.111   0.638   4.548  0.6418  0.6574  0.4058
 7510SOL     OW34165   2.554   2.753   5.551  0.6546 -0.6862 -0.3841
 7510SOL    HW134166   2.587   2.840   5.575 -2.4672  0.0247  1.3327
 7510SOL    HW234167   2.600   2.740   5.468 -1.6295 -1.0605 -1.5941
 7511SOL     OW34168   1.388   4.370  10.525 -0.1142  0.2797 -0.9065
 7511SOL    HW134169   1.318   4.400  10.467  0.9119 -0.0663 -2.3261
 7511SOL    HW234170   1.350   4.366  10.613  2.2807 -1.3365  0.0792
 7512SOL     OW34171   2.260   4.050   8.625 -0.2568  0.5147 -0.2998
 7512SOL    HW134172   2.264   4.145   8.617 -1.2479  0.6346  0.6078
 7512SOL    HW234173   2.183   4.022   8.576 -1.1265 -0.9333  1.8825
 7513SOL     OW34174   0.796   1.420   5.942 -0.5853 -0.0838  0.3255
 7513SOL    HW134175   0.786   1.400   6.035  0.4376 -2.4150 -0.0556
 7513SOL    HW234176   0.724   1.369   5.906  0.6029 -2.4082  1.2307
 7514SOL     OW34177   2.263   4.188   4.989 -0.2244  0.1943  0.7348
 7514SOL    HW134178   2.167   4.194   4.991 -0.2723 -0.0414 -0.8666
 7514SOL    HW234179   2.279   4.182   5.083 -2.5875 -1.1060  1.0490
 7515SOL     OW34180   3.217   0.568   1.233  0.7575 -0.7802  0.0535
 7515SOL    HW134181   3.291   0.619   1.201  2.0135 -0.8071  2.8895
 7515SOL    HW234182   3.168   0.639   1.275 -1.0391 -1.6192 -0.6278
 7516SOL     OW34183   4.706   0.320  12.788 -0.1312 -0.1104  0.2773
 7516SOL    HW134184   4.620   0.301  12.826  0.9807 -1.9136  1.8494
 7516SOL    HW234185   0.021   0.242  12.783  2.1594  1.5077 -0.3553
 7517SOL     OW34186   3.407   4.059   5.206  0.3129 -0.5093  0.3744
 7517SOL    HW134187   3.499   4.080   5.189 -0.0759  0.5824 -0.4430
 7517SOL    HW234188   3.417   3.975   5.250 -0.6938 -1.1955 -0.6887
 7518SOL     OW34189   3.977   2.887   1.821 -0.7931  0.1189  0.0578
 7518SOL    HW134190   4.019   2.870   1.736  0.3843 -0.4245  0.7491
 7518SOL    HW234191   4.042   2.864   1.888 -0.4657 -0.1914 -0.3686
 7519SOL     OW34192   1.208   4.314   2.734 -0.2627 -0.1584 -0.3080
 7519SOL    HW134193   1.173   4.323   2.645 -0.7143 -0.9811 -0.2212
 7519SOL    HW234194   1.153   4.251   2.782 -0.0129 -0.7272 -0.7677
 7520SOL     OW34195   2.673   0.625   7.818 -0.1775  0.5451 -0.1826
 7520SOL    HW134196   2.703   0.549   7.868 -1.8290  0.5885  0.8632
 7520SOL    HW234197   2.718   0.610   7.735 -1.5953 -3.5627 -0.1900
 7521SOL     OW34198   3.459   4.498   2.649  0.5778 -0.3768  0.1697
 7521SOL    HW134199   3.423   4.540   2.728 -0.0757  1.8034 -1.3045
 7521SOL    HW234200   3.378   4.455   2.621  1.1894 -0.2221 -1.8127
 7522SOL     OW34201   4.005   4.739   8.764 -0.2164  0.3137 -0.1590
 7522SOL    HW134202   3.983   4.671   8.827  0.4123 -0.0197 -0.3054
 7522SOL    HW234203   4.036   0.058   8.832  0.4461  0.7346 -0.8168
 7523SOL     OW34204   0.882   4.095   9.898  0.3150  0.3576 -0.0136
 7523SOL    HW134205   0.826   4.085   9.821 -0.7208  0.1890  0.7573
 7523SOL    HW234206   0.819   4.093   9.970  1.7805  0.0817  1.2732
 7524SOL     OW34207   1.272   0.674   7.250 -0.0561 -0.5732  0.4362
 7524SOL    HW134208   1.322   0.616   7.307  1.3317  1.1780  1.0111
 7524SOL    HW234209   1.252   0.613   7.179 -1.1816 -1.8067  1.7991
 7525SOL     OW34210   3.328   4.679   2.206  0.0325  0.9304  0.4557
 7525SOL    HW134211   3.309   0.024   2.165  0.2486  1.0768  0.6559
 7525SOL    HW234212   3.340   4.693   2.300 -0.7970 -2.0456  1.0227
 7526SOL     OW34213   0.708   3.473   8.274  0.7898 -0.5510 -0.1201
 7526SOL    HW134214   0.716   3.502   8.365  1.4487  2.9398 -1.2882
 7526SOL    HW234215   0.742   3.385   8.292  2.5919  0.4800  1.6140
 7527SOL     OW34216   0.476   1.541   2.558  0.2363  0.8496 -0.1322
 7527SOL    HW134217   0.441   1.624   2.527 -0.3816  0.1583 -1.2826
 7527SOL    HW234218   0.534   1.534   2.482 -1.1191 -2.9894 -0.8448
 7528SOL     OW34219   0.284   2.272   9.250  0.0291 -0.3103  0.0663
 7528SOL    HW134220   0.306   2.281   9.157  0.2718 -0.9202  0.0624
 7528SOL    HW234221   0.315   2.352   9.292 -0.9082 -0.5397  1.1904
 7529SOL     OW34222   1.701   3.880   0.615  0.2070  0.0069  0.0018
 7529SOL    HW134223   1.711   3.974   0.595  2.4116 -0.3308 -0.4632
 7529SOL    HW234224   1.605   3.874   0.619  0.1823 -0.6128 -1.3353
 7530SOL     OW34225   0.465   3.791  16.983 -0.4882 -0.5284 -0.1320
 7530SOL    HW134226   0.436   3.797  16.892 -0.6280  0.0047 -0.0521
 7530SOL    HW234227   0.438   3.701  17.001 -2.4662  0.1268  0.2028
 7531SOL     OW34228   0.521   2.808   7.290  0.3019 -0.7103  0.8137
 7531SOL    HW134229   0.472   2.783   7.211 -0.3195  0.1082  0.9474
 7531SOL    HW234230   0.488   2.893   7.316 -0.9648 -0.8583 -0.2830
 7532SOL     OW34231   3.977   4.702   7.037  0.5029 -0.0779 -0.3054
 7532SOL    HW134232   3.964   0.033   7.101  2.7287 -1.0135  1.1715
 7532SOL    HW234233   3.961   0.014   6.958 -0.5728  1.3147  0.8110
 7533SOL     OW34234   3.218   4.076   1.954 -0.0956  0.6186 -0.0198
 7533SOL    HW134235   3.286   4.117   2.008  0.6997 -0.6223 -0.0730
 7533SOL    HW234236   3.267   4.002   1.919 -0.8284 -0.4083  1.1091
 7534SOL     OW34237   0.694   4.109   5.808  0.0906  0.2418  0.2183
 7534SOL    HW134238   0.726   4.044   5.746  3.0595  3.0873 -1.2270
 7534SOL    HW234239   0.764   4.093   5.872  0.5550  1.4769  0.0285
 7535SOL     OW34240   2.655   2.086   5.355  0.0825  0.0679  0.3369
 7535SOL    HW134241   2.694   2.115   5.437  0.6524 -0.1417  0.1356
 7535SOL    HW234242   2.566   2.063   5.381  0.4800  0.2853  1.8611
 7536SOL     OW34243   3.060   2.586   8.518 -0.1126 -0.2292  0.0924
 7536SOL    HW134244   3.070   2.545   8.432 -0.9017  1.5916 -0.8508
 7536SOL    HW234245   3.050   2.504   8.568  0.6995  0.4183  1.2965
 7537SOL     OW34246   0.231   2.618   5.448 -0.0647  0.0548 -0.5351
 7537SOL    HW134247   0.145   2.659   5.453  1.1477  2.5644 -0.7099
 7537SOL    HW234248   0.250   2.612   5.354  1.9553 -0.2661 -0.1064
 7538SOL     OW34249   0.756   4.095   1.792  0.0047  0.1550 -0.1512
 7538SOL    HW134250   0.839   4.097   1.840  0.4385 -1.7120 -0.8406
 7538SOL    HW234251   0.759   4.188   1.770  0.7723  0.0384 -0.5566
 7539SOL     OW34252   3.552   2.943   5.664 -0.3335  0.3345 -0.2445
 7539SOL    HW134253   3.596   2.999   5.600 -1.7285  1.6115 -0.0875
 7539SOL    HW234254   3.622   2.882   5.687  0.8824  1.0686 -2.0304
 7540SOL     OW34255   3.752   0.887   4.724 -0.0588  0.1744 -0.1674
 7540SOL    HW134256   3.760   0.968   4.775 -1.7702 -0.0214  0.4092
 7540SOL    HW234257   3.802   0.826   4.778  1.9621  2.5854  0.7386
 7541SOL     OW34258   0.669   1.283  15.804  0.1830 -0.0470 -0.8754
 7541SOL    HW134259   0.617   1.302  15.726  0.4801  1.1808 -0.7659
 7541SOL    HW234260   0.697   1.193  15.788  1.5526  0.7995 -3.1659
 7542SOL     OW34261   0.061   2.718   7.381  0.3374 -0.4485 -0.9075
 7542SOL    HW134262   0.065   2.624   7.365 -0.5735 -0.4118 -1.3950
 7542SOL    HW234263   4.712   2.735   7.348  0.1958 -1.1084 -0.8560
 7543SOL     OW34264   4.249   4.533  12.919 -0.3521  0.3783  0.2230
 7543SOL    HW134265   4.254   4.439  12.938  0.3995  0.4547  0.3941
 7543SOL    HW234266   4.342   4.556  12.920  0.1566 -1.6352  1.1835
 7544SOL     OW34267   2.880   3.959   4.842 -0.2594 -0.0012  0.3415
 7544SOL    HW134268   2.967   3.992   4.820  0.7269 -2.7500  0.1753
 7544SOL    HW234269   2.891   3.880   4.789  1.3659 -0.1225  0.8672
 7545SOL     OW34270   2.557   0.071   3.888  0.3855 -0.3243 -0.0653
 7545SOL    HW134271   2.572   0.164   3.875 -0.2139 -0.1206  0.7146
 7545SOL    HW234272   2.636   0.035   3.848  0.4708  0.1351 -0.3039
 7546SOL     OW34273   3.482   3.349  15.856 -0.0232  1.1183 -0.6672
 7546SOL    HW134274   3.417   3.418  15.844 -1.9350 -0.4653  0.5843
 7546SOL    HW234275   3.432   3.277  15.895 -0.0827  1.8199  0.5375
 7547SOL     OW34276   2.636   2.571   4.678 -0.3446 -0.0617 -0.0971
 7547SOL    HW134277   2.697   2.643   4.691  1.1385 -0.9633 -2.0126
 7547SOL    HW234278   2.695   2.509   4.635  0.6956  1.7503 -1.3019
 7548SOL     OW34279   2.249   3.883   6.668  0.9369 -0.2746  0.5521
 7548SOL    HW134280   2.283   3.823   6.735  0.7861  0.8159  1.6186
 7548SOL    HW234281   2.293   3.962   6.701  0.3140  0.1740  0.3001
 7549SOL     OW34282   4.092   0.975   5.383 -0.2292  0.6301 -0.0647
 7549SOL    HW134283   4.038   1.045   5.345 -0.7703  0.2024 -0.0986
 7549SOL    HW234284   4.173   0.988   5.334  0.8201  1.5959  1.9376
 7550SOL     OW34285   0.280   0.857   8.369 -0.1481  0.2983  0.5127
 7550SOL    HW134286   0.254   0.928   8.428 -3.1721  0.3062 -0.8146
 7550SOL    HW234287   0.229   0.871   8.289  2.0291  0.5119 -0.8350
 7551SOL     OW34288   1.918   0.309   5.031  0.1357 -0.7514  0.0411
 7551SOL    HW134289   1.885   0.220   5.018  0.3136 -0.8540  0.2835
 7551SOL    HW234290   1.886   0.337   5.116  0.3191  0.5429 -0.3187
 7552SOL     OW34291   2.642   2.708  13.727  0.5370 -0.5005  0.1202
 7552SOL    HW134292   2.574   2.707  13.660  1.1820  1.3221 -0.5791
 7552SOL    HW234293   2.591   2.770  13.780 -1.8139 -1.1311 -1.4413
 7553SOL     OW34294   0.982   3.034   8.886 -0.0958 -0.0465  0.2105
 7553SOL    HW134295   1.077   3.044   8.892 -0.1866 -0.3827  2.4686
 7553SOL    HW234296   0.961   2.965   8.949 -1.5310  0.5405  0.3678
 7554SOL     OW34297   1.876   3.299   7.508 -0.1312  0.1435 -0.2040
 7554SOL    HW134298   1.924   3.362   7.562 -1.2135 -0.8720  1.9592
 7554SOL    HW234299   1.880   3.221   7.564  0.8594  0.1369 -0.2867
 7555SOL     OW34300   4.638   3.146  10.866 -0.2552  0.4004  0.0455
 7555SOL    HW134301   4.652   3.234  10.899 -2.8068  1.3280 -1.3244
 7555SOL    HW234302   4.653   3.152  10.772  0.2322 -0.2087  0.0833
 7556SOL     OW34303   2.094   3.857  10.649 -0.4261  0.4243 -0.2681
 7556SOL    HW134304   2.051   3.890  10.728 -1.9598 -0.8644 -0.5723
 7556SOL    HW234305   2.112   3.767  10.676  0.6413  0.4416 -0.9305
 7557SOL     OW34306   3.338   4.344   2.949  0.6093 -0.2883 -0.3180
 7557SOL    HW134307   3.354   4.309   3.037 -0.2369 -1.2968 -0.5674
 7557SOL    HW234308   3.283   4.275   2.911  2.0817 -1.2869 -0.6272
 7558SOL     OW34309   0.522   4.455   2.801  0.2569 -0.1607 -0.3073
 7558SOL    HW134310   0.542   4.370   2.762  0.6827 -0.0504 -0.3380
 7558SOL    HW234311   0.428   4.468   2.790 -0.2254 -3.2952 -0.0797
 7559SOL     OW34312   4.730   0.889   9.638  0.1935 -0.3814 -0.1008
 7559SOL    HW134313   4.697   0.889   9.728  1.4660  1.2200  0.3771
 7559SOL    HW234314   0.067   0.947   9.647  1.6252 -2.1402 -0.8211
 7560SOL     OW34315   4.090   1.699   2.396  0.4709 -0.2889 -0.6355
 7560SOL    HW134316   4.084   1.659   2.310 -0.1727 -1.3034 -0.1191
 7560SOL    HW234317   4.007   1.745   2.410 -0.0855 -1.0976 -1.2830
 7561SOL     OW34318   3.874   4.035   8.039  0.0701 -0.1565 -0.4362
 7561SOL    HW134319   3.851   4.079   8.121 -0.6676  0.8645 -1.1913
 7561SOL    HW234320   3.963   4.008   8.061  0.3253  1.5915  0.6939
 7562SOL     OW34321   1.970   1.148   7.594 -0.4925 -0.3757 -0.4942
 7562SOL    HW134322   1.918   1.225   7.573 -0.4172 -0.1857  0.0153
 7562SOL    HW234323   1.914   1.080   7.558 -0.3337 -1.9018  2.1171
 7563SOL     OW34324   2.080   0.185   2.233 -0.4674 -0.2998  0.3547
 7563SOL    HW134325   2.159   0.233   2.211 -0.7422  0.6135  1.4016
 7563SOL    HW234326   2.035   0.241   2.296 -2.4043  0.3160 -1.5680
 7564SOL     OW34327   3.282   0.896   7.355 -0.2043  0.7744 -1.0408
 7564SOL    HW134328   3.342   0.822   7.346  0.7919  1.5590 -0.8215
 7564SOL    HW234329   3.215   0.883   7.288 -2.2163  2.2297  0.6835
 7565SOL     OW34330   3.354   4.065   4.521 -0.8952  0.2371 -0.4609
 7565SOL    HW134331   3.289   4.023   4.466 -1.5683  2.0741 -1.0432
 7565SOL    HW234332   3.362   4.145   4.470 -0.3555  0.4770 -0.0076
 7566SOL     OW34333   0.670   1.967   3.872 -0.0110 -0.6802 -0.0489
 7566SOL    HW134334   0.722   2.041   3.840  1.5849 -0.8447  2.1610
 7566SOL    HW234335   0.612   1.951   3.797  1.0899  1.5200 -1.4170
 7567SOL     OW34336   1.171   3.959   6.379  0.5808  0.0113  0.7484
 7567SOL    HW134337   1.233   3.920   6.441  0.3911 -2.4012 -0.5834
 7567SOL    HW234338   1.123   3.882   6.348 -1.0158  0.6454  1.6457
 7568SOL     OW34339   2.160   4.738  12.580 -0.2016 -0.5163  0.0468
 7568SOL    HW134340   2.245   4.739  12.536 -0.5718 -0.7690 -0.6726
 7568SOL    HW234341   2.118   0.075  12.541  1.3972  1.2253  1.7096
 7569SOL     OW34342   4.010   4.364   8.519 -0.5376  0.4263 -0.1685
 7569SOL    HW134343   4.089   4.401   8.479  0.3917  0.7231  1.9198
 7569SOL    HW234344   4.040   4.349   8.609 -1.0201  1.5868  0.1926
 7570SOL     OW34345   0.420   2.768  11.583 -0.4033 -0.0188 -0.3926
 7570SOL    HW134346   0.462   2.849  11.612 -0.6195 -0.1471  0.2815
 7570SOL    HW234347   0.361   2.805  11.518  0.1214  0.9911 -0.2939
 7571SOL     OW34348   2.246   3.621   7.653  0.2741  0.1048  0.4047
 7571SOL    HW134349   2.315   3.589   7.711 -0.4852 -1.7564  0.2875
 7571SOL    HW234350   2.207   3.674   7.723 -0.0550  1.4561 -0.8006
 7572SOL     OW34351   3.564   2.254   9.086  0.5186 -0.7656 -0.0835
 7572SOL    HW134352   3.652   2.224   9.064 -0.3057 -2.0967 -1.5241
 7572SOL    HW234353   3.594   2.331   9.136 -2.8717  0.3387  0.2065
 7573SOL     OW34354   1.752   3.996   7.058 -0.0981 -0.6350 -0.1819
 7573SOL    HW134355   1.750   3.904   7.085  1.3320 -0.4332  0.6201
 7573SOL    HW234356   1.660   4.005   7.033  0.3586  0.6807 -1.3743
 7574SOL     OW34357   3.860   3.705   9.267 -0.3057 -0.8659 -0.4191
 7574SOL    HW134358   3.809   3.729   9.189  0.0033 -0.3747 -0.4635
 7574SOL    HW234359   3.944   3.700   9.221 -0.2812  1.2653 -0.5805
 7575SOL     OW34360   0.061   2.943   9.254  0.4496 -0.0896  0.7892
 7575SOL    HW134361   0.073   2.849   9.271  0.1811 -0.4377 -0.9435
 7575SOL    HW234362   4.736   2.961   9.323  0.9608  3.5331  0.3019
 7576SOL     OW34363   4.509   0.486   6.786  0.4367 -0.1169  0.0240
 7576SOL    HW134364   4.488   0.543   6.712  0.2003  0.4306  0.5104
 7576SOL    HW234365   4.536   0.546   6.856  1.2331 -2.6498  1.9099
 7577SOL     OW34366   2.301   1.489  10.921  0.5147  0.4415 -0.4064
 7577SOL    HW134367   2.294   1.569  10.868  1.6366  1.1512  0.4991
 7577SOL    HW234368   2.376   1.517  10.973  0.4661  0.3595 -0.2924
 7578SOL     OW34369   4.403   1.144   8.159 -0.0397 -0.1795  0.9738
 7578SOL    HW134370   4.322   1.177   8.119 -0.6410  0.5294  2.8080
 7578SOL    HW234371   4.411   1.056   8.122  0.5939 -0.4144  1.6862
 7579SOL     OW34372   0.262   1.066   7.117 -0.0475  0.8859  0.1953
 7579SOL    HW134373   0.180   1.055   7.069 -0.7236 -1.5415  1.9147
 7579SOL    HW234374   0.252   1.139   7.178  0.1684  1.0444  0.0399
 7580SOL     OW34375   3.770   0.332   5.115 -0.3092 -0.1740  0.2350
 7580SOL    HW134376   3.680   0.347   5.143  0.0002  1.3241  0.4389
 7580SOL    HW234377   3.808   0.300   5.197 -1.5454 -2.4592 -0.0775
 7581SOL     OW34378   2.235   0.841  12.966 -0.1976 -0.7500 -0.6514
 7581SOL    HW134379   2.151   0.834  13.011 -1.7131  0.0126 -3.3431
 7581SOL    HW234380   2.279   0.772  13.016  1.3770  2.0939  1.9269
 7582SOL     OW34381   4.237   3.610   8.879  0.0779 -0.0276 -0.9692
 7582SOL    HW134382   4.288   3.585   8.956 -2.3540  0.7520  0.8707
 7582SOL    HW234383   4.228   3.529   8.829 -1.9020 -0.6448  0.4001
 7583SOL     OW34384   3.587   2.062   3.492  0.3917  0.6213 -0.5225
 7583SOL    HW134385   3.564   2.021   3.575  2.1328  2.2888  0.7847
 7583SOL    HW234386   3.650   1.996   3.461  2.8775  2.1839  1.1836
 7584SOL     OW34387   4.081   0.174  12.279  0.0344  0.0108 -0.5979
 7584SOL    HW134388   4.107   0.236  12.212  1.1844  0.9314  0.7102
 7584SOL    HW234389   4.077   0.097  12.223  0.1043 -0.5187  0.1183
 7585SOL     OW34390   1.318   2.500   9.197 -0.0695  0.8422  0.4482
 7585SOL    HW134391   1.392   2.455   9.156 -2.6091 -1.1419 -2.0154
 7585SOL    HW234392   1.267   2.427   9.231  0.9470  1.5421  3.4430
 7586SOL     OW34393   3.337   1.201   3.020 -0.3008  0.0452  0.9629
 7586SOL    HW134394   3.301   1.236   2.939  1.7573  3.2155  1.4357
 7586SOL    HW234395   3.335   1.275   3.080  0.4581  1.1170 -0.3346
 7587SOL     OW34396   2.407   3.346   7.582  0.2683  0.1685  0.1435
 7587SOL    HW134397   2.413   3.358   7.487 -1.7566 -2.9988 -0.3665
 7587SOL    HW234398   2.320   3.373   7.610  0.0313 -1.1421  0.6632
 7588SOL     OW34399   2.978   3.220   8.821  0.5829 -0.5307 -0.1871
 7588SOL    HW134400   2.910   3.288   8.828  3.7612  2.4149  1.8288
 7588SOL    HW234401   3.058   3.270   8.815  1.6567 -2.2234 -0.0366
 7589SOL     OW34402   0.628   1.295   6.711 -0.1745  0.0040 -0.1623
 7589SOL    HW134403   0.628   1.319   6.804 -4.9097 -0.4989 -0.0448
 7589SOL    HW234404   0.609   1.202   6.727 -0.6560  0.5286  2.3514
 7590SOL     OW34405   3.632   0.104   3.108 -0.6008  0.6715  0.0866
 7590SOL    HW134406   3.650   0.062   3.024 -1.4121  0.2644  0.1141
 7590SOL    HW234407   3.568   0.042   3.142 -0.0174  1.1841  2.1375
 7591SOL     OW34408   3.457   4.477  10.717  0.0133 -0.6706  0.4631
 7591SOL    HW134409   3.400   4.549  10.687 -0.7929 -0.7868  1.6985
 7591SOL    HW234410   3.543   4.517  10.707 -0.9295  1.6412  1.5282
 7592SOL     OW34411   2.787   3.236   9.724 -0.3554  0.4595  0.0186
 7592SOL    HW134412   2.729   3.301   9.685  0.8078  1.3502 -0.2006
 7592SOL    HW234413   2.739   3.158   9.695  1.9269 -0.5150 -1.1594
 7593SOL     OW34414   4.542   1.776   7.120  0.0046  0.1108  0.0605
 7593SOL    HW134415   4.511   1.686   7.127 -1.8207  0.8711  1.5439
 7593SOL    HW234416   4.476   1.806   7.058  0.8118 -0.7012 -1.1951
 7594SOL     OW34417   1.007   3.541  17.003  0.7364 -0.0417 -0.0596
 7594SOL    HW134418   1.057   3.480  17.057 -1.7419 -2.5206 -0.5974
 7594SOL    HW234419   0.920   3.550  17.040  0.4757 -1.4184 -0.3670
 7595SOL     OW34420   1.449   3.321   5.133 -0.7013  0.3033  0.4071
 7595SOL    HW134421   1.461   3.322   5.228 -1.0132 -2.3660  0.4862
 7595SOL    HW234422   1.355   3.325   5.115 -0.6875  1.4972  0.6378
 7596SOL     OW34423   3.557   0.347   6.444  0.9780 -0.2599 -0.1479
 7596SOL    HW134424   3.487   0.317   6.502  1.2349 -0.0177  0.2865
 7596SOL    HW234425   3.603   0.412   6.496  1.1509 -1.9943  1.8431
 7597SOL     OW34426   0.103   1.572   8.738 -0.4376 -0.1217 -0.2773
 7597SOL    HW134427   0.056   1.585   8.821  1.2752  0.3965  0.6322
 7597SOL    HW234428   0.131   1.661   8.716 -0.8622  0.6309  2.1527
 7598SOL     OW34429   2.322   2.001   3.746  0.1597 -0.7214 -0.3900
 7598SOL    HW134430   2.289   2.081   3.787  0.4897 -1.5153  1.3858
 7598SOL    HW234431   2.403   1.990   3.796 -0.0330 -0.1423  0.0511
 7599SOL     OW34432   2.349   1.347  12.813  0.1832  0.0422  0.0861
 7599SOL    HW134433   2.370   1.259  12.844  2.6467  1.1089  1.3860
 7599SOL    HW234434   2.435   1.380  12.788 -0.2365  0.4052 -0.8793
 7600SOL     OW34435   1.596   2.083   9.426 -0.1556  0.2199 -0.0447
 7600SOL    HW134436   1.661   2.061   9.359 -0.5992 -3.3712  0.7066
 7600SOL    HW234437   1.624   2.172   9.447  2.6201 -0.8981  0.9838
 7601SOL     OW34438   1.100   4.421   7.372 -0.1336  0.2846  0.2697
 7601SOL    HW134439   1.007   4.407   7.358  0.0255  1.7219 -2.2275
 7601SOL    HW234440   1.108   4.437   7.466  0.6418  1.1142  0.0750
 7602SOL     OW34441   1.481   3.713   7.510  0.7001  0.1171 -0.1326
 7602SOL    HW134442   1.412   3.666   7.556  0.6085 -0.3374 -0.7440
 7602SOL    HW234443   1.541   3.640   7.494 -2.4761 -2.2089 -1.3732
 7603SOL     OW34444   0.874   1.562  15.646 -0.0161  0.0625 -0.3282
 7603SOL    HW134445   0.790   1.551  15.600 -1.2903  1.3048  1.7223
 7603SOL    HW234446   0.894   1.649  15.613 -0.3644  0.6825  1.1445
 7604SOL     OW34447   1.661   1.551   2.624  0.4991  0.6361  0.1545
 7604SOL    HW134448   1.586   1.497   2.649  0.0032  0.5856 -1.4240
 7604SOL    HW234449   1.622   1.589   2.546 -2.7575 -1.6177  0.7062
 7605SOL     OW34450   1.794   3.041  13.627  0.2562 -0.4992  0.2457
 7605SOL    HW134451   1.720   3.101  13.619  0.7688  0.2941  1.4262
 7605SOL    HW234452   1.760   2.956  13.598  0.2260 -1.5461  3.3612
 7606SOL     OW34453   0.470   0.918   2.205  0.5046  0.1094 -0.2969
 7606SOL    HW134454   0.447   0.873   2.124 -3.7661  1.0724  0.4009
 7606SOL    HW234455   0.550   0.869   2.224  1.1732  1.4464  0.3450
 7607SOL     OW34456   3.285   0.675   8.717  0.0899  0.4711  0.4532
 7607SOL    HW134457   3.210   0.731   8.735  0.2752  1.0500 -0.5748
 7607SOL    HW234458   3.354   0.704   8.777  1.0671 -1.8810  0.4782
 7608SOL     OW34459   0.646   2.516   8.145  0.5062 -0.0335  0.2952
 7608SOL    HW134460   0.726   2.567   8.147 -0.0395  0.8402 -0.3266
 7608SOL    HW234461   0.576   2.581   8.154  0.6833 -0.0398  1.7899
 7609SOL     OW34462   4.233   1.177   7.780  0.0131  0.7765 -0.3303
 7609SOL    HW134463   4.175   1.209   7.712 -0.9735  2.5412  1.3527
 7609SOL    HW234464   4.291   1.253   7.787 -0.0139  0.7672 -0.0123
 7610SOL     OW34465   0.523   1.690   6.067  0.5025 -0.6063  0.6048
 7610SOL    HW134466   0.499   1.597   6.060 -0.8036 -0.1581 -0.9288
 7610SOL    HW234467   0.520   1.722   5.977  1.2754 -2.7744 -0.1749
 7611SOL     OW34468   3.682   1.412   7.269  0.1693 -0.2130 -0.5268
 7611SOL    HW134469   3.776   1.403   7.287  0.0962 -0.3909 -0.2332
 7611SOL    HW234470   3.657   1.366   7.349  3.7688 -0.7197  0.3319
 7612SOL     OW34471   2.790   2.267   5.238 -0.5195  0.1574  0.0039
 7612SOL    HW134472   2.880   2.262   5.269 -0.1969  2.0438 -0.6078
 7612SOL    HW234473   2.737   2.201   5.283 -1.8435  1.3630  0.2211
 7613SOL     OW34474   2.798   4.270   3.193  0.0918  0.2201 -0.6847
 7613SOL    HW134475   2.743   4.226   3.128  0.1185 -2.1159  0.8840
 7613SOL    HW234476   2.725   4.320   3.229  0.5228  1.0955 -1.0305
 7614SOL     OW34477   2.138   1.956   7.088  0.5768  0.3533  0.1493
 7614SOL    HW134478   2.064   2.008   7.057 -1.1167 -1.1827  1.6097
 7614SOL    HW234479   2.137   1.978   7.181  0.3394  0.8136  0.0376
 7615SOL     OW34480   3.241   3.542   5.744  0.4452  0.2409 -0.0143
 7615SOL    HW134481   3.260   3.564   5.653 -2.7631 -0.9174 -0.9722
 7615SOL    HW234482   3.250   3.447   5.731 -1.3088  0.3397 -1.9150
 7616SOL     OW34483   3.736   1.860   7.580 -0.7271  0.0372 -0.2243
 7616SOL    HW134484   3.766   1.903   7.500  0.0417 -0.5356 -0.2474
 7616SOL    HW234485   3.813   1.863   7.636 -1.3893 -0.3853  0.7132
 7617SOL     OW34486   1.095   2.337   3.571 -0.4792  0.3881  0.4179
 7617SOL    HW134487   1.188   2.336   3.549 -0.6617 -1.6140 -0.2069
 7617SOL    HW234488   1.098   2.277   3.645 -1.6305  2.4077  2.1399
 7618SOL     OW34489   1.740   2.376  12.813 -0.1155  0.2208  0.1042
 7618SOL    HW134490   1.799   2.333  12.751  0.1174  2.0286 -0.9077
 7618SOL    HW234491   1.713   2.299  12.863  1.3190  0.0515  0.6246
 7619SOL     OW34492   3.626   3.585   8.861  0.1341  0.0527 -0.1314
 7619SOL    HW134493   3.567   3.517   8.896  0.1645  0.2951  0.3887
 7619SOL    HW234494   3.573   3.610   8.786  0.6083  1.1758 -0.0784
 7620SOL     OW34495   0.245   0.438  12.919  0.0325  0.3906  0.0849
 7620SOL    HW134496   0.333   0.473  12.935  0.6049  0.5089 -3.2558
 7620SOL    HW234497   0.229   0.380  12.992 -1.7125  1.6064  0.6652
 7621SOL     OW34498   0.728   0.946  13.091 -0.0444  0.8025  0.4776
 7621SOL    HW134499   0.812   0.980  13.122 -0.5542  2.4771  0.0637
 7621SOL    HW234500   0.745   0.929  12.999 -2.0923 -2.9757  0.8133
 7622SOL     OW34501   3.891   4.249   6.843 -0.1752  0.1118  0.0968
 7622SOL    HW134502   3.810   4.282   6.803 -0.3390 -1.9474 -1.2889
 7622SOL    HW234503   3.908   4.316   6.908 -0.5782  0.5915 -0.2856
 7623SOL     OW34504   1.799   0.571  10.392  0.3595 -0.0347  0.0767
 7623SOL    HW134505   1.823   0.664  10.391 -1.2667  0.3970  2.6602
 7623SOL    HW234506   1.723   0.575  10.334  0.1196 -3.2945  0.1986
 7624SOL     OW34507   2.374   1.726  10.051  0.0334 -0.2947 -0.5057
 7624SOL    HW134508   2.287   1.733  10.012  0.9799  2.1464 -2.1614
 7624SOL    HW234509   2.360   1.689  10.138 -0.5645 -2.7072 -1.6302
 7625SOL     OW34510   0.677   2.827   9.920 -0.8250 -0.1810 -0.0218
 7625SOL    HW134511   0.628   2.889   9.866 -0.4939 -1.4636 -1.7883
 7625SOL    HW234512   0.764   2.818   9.880 -0.2888 -0.5385  1.2247
 7626SOL     OW34513   2.719   1.514  17.506 -0.6160 -0.1740  0.2042
 7626SOL    HW134514   2.670   1.571  17.565 -0.8247  0.0530 -0.1865
 7626SOL    HW234515   2.734   1.438  17.562  2.2925  0.4352  0.2696
 7627SOL     OW34516   1.278   2.951  14.644  0.2764 -0.2134  0.3254
 7627SOL    HW134517   1.189   2.937  14.610 -0.3902  2.1890  1.0958
 7627SOL    HW234518   1.287   2.875  14.701 -0.6253 -0.8550 -0.3956
 7628SOL     OW34519   4.212   3.437   4.072  0.2050  0.3747  0.3855
 7628SOL    HW134520   4.183   3.490   3.999  0.2346  1.4481  1.1535
 7628SOL    HW234521   4.129   3.395   4.096 -0.3636  1.0338 -0.4571
 7629SOL     OW34522   3.492   3.332  11.241 -0.7158  0.2281 -0.3761
 7629SOL    HW134523   3.585   3.353  11.243 -0.2598 -1.9345  1.3259
 7629SOL    HW234524   3.498   3.268  11.171 -0.3790  0.4422 -0.5436
 7630SOL     OW34525   1.589   2.011   6.475  0.1660 -0.0843  0.0755
 7630SOL    HW134526   1.554   2.093   6.440 -0.0313 -0.3474 -0.3538
 7630SOL    HW234527   1.622   1.966   6.397  1.2498  1.1434 -0.1714
 7631SOL     OW34528   1.439   3.828   9.955  0.5900  0.2570  0.7032
 7631SOL    HW134529   1.472   3.768   9.889  2.0360  0.5093  1.1929
 7631SOL    HW234530   1.344   3.828   9.939  0.9674 -2.5461 -1.6596
 7632SOL     OW34531   3.827   0.993  17.154 -0.4501 -0.2994  0.2887
 7632SOL    HW134532   3.794   1.079  17.125 -2.3847 -1.2272 -0.2389
 7632SOL    HW234533   3.809   1.005  17.247 -0.5978  0.2750  0.1898
 7633SOL     OW34534   3.382   2.836  13.332 -0.0760  1.1964 -0.8015
 7633SOL    HW134535   3.450   2.770  13.323 -1.3509 -0.3854  1.1134
 7633SOL    HW234536   3.345   2.814  13.418  0.0853 -0.5041 -1.1617
 7634SOL     OW34537   4.738   3.951  13.560 -0.3415 -1.1925 -0.8486
 7634SOL    HW134538   0.001   3.877  13.621  2.3955  0.0458  0.5261
 7634SOL    HW234539   0.044   4.017  13.612 -1.4741 -0.5721 -0.6432
 7635SOL     OW34540   0.754   1.788   4.088 -0.4828 -0.2385  0.1606
 7635SOL    HW134541   0.670   1.771   4.129 -1.3545  0.9858 -1.1100
 7635SOL    HW234542   0.723   1.847   4.019 -1.6072 -1.1489 -0.0989
 7636SOL     OW34543   1.889   3.939  10.793 -0.1624  0.1522  0.5740
 7636SOL    HW134544   1.794   3.953  10.798 -0.2487 -0.1651 -0.2619
 7636SOL    HW234545   1.915   4.012  10.737 -0.5973  1.0325  1.5044
 7637SOL     OW34546   3.203   2.720   3.173  0.2671 -0.0532  0.1173
 7637SOL    HW134547   3.201   2.626   3.158  0.9965  0.5775 -3.7936
 7637SOL    HW234548   3.296   2.740   3.163  0.2358 -0.7361 -1.5704
 7638SOL     OW34549   1.557   2.429  15.758  0.3832  0.1413 -0.2384
 7638SOL    HW134550   1.604   2.354  15.796  0.5604  0.4117  0.0706
 7638SOL    HW234551   1.551   2.490  15.831  0.5819  2.3581 -2.1032
 7639SOL     OW34552   0.633   2.520   4.665  0.4182  0.1893 -0.1408
 7639SOL    HW134553   0.637   2.493   4.573  0.5462 -2.7129  0.7204
 7639SOL    HW234554   0.605   2.441   4.710 -1.7944  0.9547 -0.1820
 7640SOL     OW34555   0.309   2.621  14.764 -0.3303  0.0986 -0.2706
 7640SOL    HW134556   0.343   2.532  14.777 -1.6336 -0.2990  0.4669
 7640SOL    HW234557   0.221   2.602  14.731 -0.0499 -0.0588 -0.9266
 7641SOL     OW34558   4.444   2.662   8.785 -0.1051 -0.1991 -0.1210
 7641SOL    HW134559   4.486   2.629   8.865 -0.9112 -0.1591  0.3280
 7641SOL    HW234560   4.413   2.577   8.754  1.0504 -0.6752  0.0316
 7642SOL     OW34561   1.286   1.632   4.320  0.1016  0.4234 -0.5799
 7642SOL    HW134562   1.353   1.637   4.252  0.9786  1.3895  0.3677
 7642SOL    HW234563   1.211   1.660   4.268 -0.4212 -1.8564 -1.0649
 7643SOL     OW34564   3.594   2.917  16.412 -0.1780  0.0385 -0.2351
 7643SOL    HW134565   3.662   2.966  16.459  0.1607 -0.3339 -0.3393
 7643SOL    HW234566   3.638   2.868  16.343  1.4305  0.5468  0.4316
 7644SOL     OW34567   3.383   0.316   2.302 -0.2673 -0.0933 -0.9481
 7644SOL    HW134568   3.443   0.345   2.371 -2.0872 -0.0725  0.6120
 7644SOL    HW234569   3.442   0.279   2.236 -0.8362 -0.6625 -1.1401
 7645SOL     OW34570   0.283   0.297   7.844  0.1743  0.1207  0.4011
 7645SOL    HW134571   0.295   0.245   7.924 -0.5996 -1.3532 -0.4338
 7645SOL    HW234572   0.209   0.349   7.876  0.1422 -0.5666  1.4645
 7646SOL     OW34573   3.695   3.677   5.291  0.1802  0.2930  0.2488
 7646SOL    HW134574   3.761   3.608   5.286  2.1566  2.0665  1.8072
 7646SOL    HW234575   3.744   3.755   5.314  0.3185  0.4280 -0.5182
 7647SOL     OW34576   2.872   2.068   4.445 -0.6844 -0.2013  0.1478
 7647SOL    HW134577   2.956   2.106   4.470 -0.0810 -0.6095 -1.2489
 7647SOL    HW234578   2.829   2.063   4.530 -0.2573 -0.9846  0.3200
 7648SOL     OW34579   4.404   2.250  16.325 -0.1226  0.4579  0.0185
 7648SOL    HW134580   4.478   2.253  16.385 -0.5292 -2.2209  0.6571
 7648SOL    HW234581   4.327   2.273  16.376  0.8898 -1.0273  2.2457
 7649SOL     OW34582   1.114   0.955  14.121  0.1419  0.3045  0.4029
 7649SOL    HW134583   1.083   1.019  14.185  1.5248  1.2341  0.1641
 7649SOL    HW234584   1.033   0.909  14.102  0.9502  0.2059 -2.8306
 7650SOL     OW34585   0.574   1.620   4.318  0.3431  0.3214 -0.3250
 7650SOL    HW134586   0.551   1.616   4.225  0.4833  1.4032 -0.4089
 7650SOL    HW234587   0.632   1.544   4.319 -1.0914 -0.7118  2.2609
 7651SOL     OW34588   0.653   3.138  11.953 -0.3846  0.2643 -0.5933
 7651SOL    HW134589   0.625   3.049  11.971 -1.1585  0.3214 -1.5522
 7651SOL    HW234590   0.590   3.164  11.886 -0.9409 -2.9606 -1.3123
 7652SOL     OW34591   3.584   1.855  12.811  0.5432 -0.3323  0.2231
 7652SOL    HW134592   3.494   1.857  12.842  0.0092  0.6466 -1.3997
 7652SOL    HW234593   3.583   1.787  12.743  1.2453 -0.0514 -0.0713
 7653SOL     OW34594   0.128   0.144   7.307 -0.4641 -0.2492 -0.1777
 7653SOL    HW134595   0.068   0.084   7.264 -1.5612 -0.0132  1.0106
 7653SOL    HW234596   0.189   0.074   7.332 -1.8427 -1.7964 -1.1586
 7654SOL     OW34597   3.046   0.577   2.337 -0.2347 -0.1910  0.1226
 7654SOL    HW134598   2.971   0.548   2.388  0.7869 -0.1730  1.6541
 7654SOL    HW234599   3.111   0.596   2.406  0.4972  2.7901 -1.3811
 7655SOL     OW34600   0.776   2.226   3.781  0.7414  0.2346  0.0562
 7655SOL    HW134601   0.846   2.242   3.845 -0.3613 -1.5719  1.7059
 7655SOL    HW234602   0.805   2.170   3.709 -1.9400  1.0792 -1.6563
 7656SOL     OW34603   4.233   3.437   4.884 -0.4365  0.9069 -0.2874
 7656SOL    HW134604   4.234   3.441   4.788  0.7518  1.8820 -0.2293
 7656SOL    HW234605   4.238   3.531   4.899 -1.0720  1.2419 -2.2201
 7657SOL     OW34606   0.540   1.621  16.198 -0.6630 -0.6918  0.7805
 7657SOL    HW134607   0.518   1.705  16.158  0.5820 -1.4484 -1.5053
 7657SOL    HW234608   0.635   1.621  16.204 -0.5731  0.9301 -0.4791
 7658SOL     OW34609   4.559   2.487   3.033  0.4813  1.0264 -0.4090
 7658SOL    HW134610   4.640   2.533   3.011 -0.0117  0.6257 -3.0652
 7658SOL    HW234611   4.550   2.502   3.127 -0.1685  1.7757 -0.5936
 7659SOL     OW34612   2.820   4.161   8.903  0.0868  0.0279  0.2905
 7659SOL    HW134613   2.887   4.115   8.953  1.4302  2.0372  0.3475
 7659SOL    HW234614   2.750   4.099   8.923  0.2796 -0.2747  0.0173
 7660SOL     OW34615   2.858   2.124  13.882 -0.0856  1.0189  0.3963
 7660SOL    HW134616   2.843   2.181  13.957 -1.6497 -0.0280  0.8851
 7660SOL    HW234617   2.949   2.098  13.893 -0.2505 -0.2074 -1.0485
 7661SOL     OW34618   3.971   4.068   0.455 -0.5137 -0.3252  0.2158
 7661SOL    HW134619   3.879   4.079   0.430 -0.4443  1.1887  0.6544
 7661SOL    HW234620   3.992   3.989   0.405 -1.4660 -0.5642  0.1870
 7662SOL     OW34621   0.588   3.212   9.894 -0.0540 -0.5001  0.0955
 7662SOL    HW134622   0.518   3.274   9.873  0.1368 -0.7548 -1.2469
 7662SOL    HW234623   0.569   3.205   9.988 -0.3386  0.1171  0.0855
 7663SOL     OW34624   2.498   2.557   5.107  0.1270  0.0353  0.2690
 7663SOL    HW134625   2.459   2.492   5.165 -2.5174 -0.1744 -1.7806
 7663SOL    HW234626   2.514   2.496   5.034  1.6279  2.3245 -1.3022
 7664SOL     OW34627   1.614   1.288   4.089 -0.3851 -0.0392 -0.4057
 7664SOL    HW134628   1.642   1.333   4.169  1.4589 -0.8186 -0.6159
 7664SOL    HW234629   1.651   1.201   4.105 -0.4273 -0.1576 -0.9523
 7665SOL     OW34630   0.013   3.242   2.907  0.5129 -0.3238 -0.2834
 7665SOL    HW134631   0.019   3.334   2.884  1.5012 -0.9429 -2.4421
 7665SOL    HW234632   4.683   3.245   2.974  0.6431 -0.8667 -0.1181
 7666SOL     OW34633   0.662   4.409   2.109  0.1819 -0.1588  0.0681
 7666SOL    HW134634   0.700   4.352   2.176 -0.6476 -0.9622 -0.1516
 7666SOL    HW234635   0.740   4.427   2.056 -0.5892  1.3831 -0.5513
 7667SOL     OW34636   0.302   0.916   8.014 -0.6418 -0.7542 -0.4537
 7667SOL    HW134637   0.296   1.008   7.988  0.8165 -0.2967  0.8518
 7667SOL    HW234638   0.380   0.880   7.972 -0.2391 -1.0991  0.6048
 7668SOL     OW34639   0.186   0.260  15.868  0.4635  0.3973  0.8030
 7668SOL    HW134640   0.163   0.332  15.808 -3.3911 -1.9170 -0.5301
 7668SOL    HW234641   0.254   0.216  15.818  0.7295  1.1545  0.4895
 7669SOL     OW34642   0.851   0.570   8.466  0.0203  0.2370  0.3291
 7669SOL    HW134643   0.811   0.569   8.554  1.8784 -0.5134  1.1780
 7669SOL    HW234644   0.935   0.610   8.487  1.5829 -3.4693  1.3210
 7670SOL     OW34645   2.074   1.902   2.251 -0.0335 -0.5545 -0.1139
 7670SOL    HW134646   2.077   1.919   2.345 -0.9155  0.3648 -0.2620
 7670SOL    HW234647   2.055   1.809   2.261  0.0313 -0.8517 -2.5566
 7671SOL     OW34648   0.694   0.748   6.244  0.0001 -0.3817 -0.0398
 7671SOL    HW134649   0.719   0.681   6.308  2.3174 -0.5558 -1.0911
 7671SOL    HW234650   0.763   0.732   6.180 -0.9966 -3.6180 -0.3067
 7672SOL     OW34651   3.078   3.877   5.940  0.0648  0.1822  0.2537
 7672SOL    HW134652   3.105   3.871   6.031  0.4912 -1.6469  0.0176
 7672SOL    HW234653   3.068   3.968   5.912  2.1037  0.2925 -0.1680
 7673SOL     OW34654   0.088   2.200   7.946 -0.0043  0.0772  0.2569
 7673SOL    HW134655   0.002   2.218   7.909  0.3996 -1.5248 -1.4356
 7673SOL    HW234656   0.137   2.230   7.870  1.5547 -0.7526  0.9279
 7674SOL     OW34657   3.449   1.081   6.500  0.3602  0.3352 -0.0717
 7674SOL    HW134658   3.481   1.171   6.497 -0.2735  0.5760  0.5089
 7674SOL    HW234659   3.358   1.080   6.471  0.3309  1.4466 -0.0095
 7675SOL     OW34660   3.703   4.601   1.466 -0.8488  0.3255 -0.5339
 7675SOL    HW134661   3.672   4.521   1.509  1.9651 -1.6363 -2.1167
 7675SOL    HW234662   3.794   4.600   1.497 -0.2725 -0.8279 -2.2793
 7676SOL     OW34663   0.966   3.538   7.688 -0.4297 -0.4237  0.1290
 7676SOL    HW134664   0.947   3.530   7.782  0.5255 -1.2095  0.2608
 7676SOL    HW234665   0.980   3.633   7.686  5.1809 -1.2223 -0.0771
 7677SOL     OW34666   0.820   1.974  15.271 -0.2244 -0.2384 -0.0971
 7677SOL    HW134667   0.786   1.998  15.357  2.1410  0.2466  0.6974
 7677SOL    HW234668   0.738   1.970  15.221  2.3930 -0.2846 -4.4271
 7678SOL     OW34669   0.243   0.313   6.501 -0.1870 -0.4659 -0.1603
 7678SOL    HW134670   0.306   0.307   6.573  0.0147 -1.3994 -0.4251
 7678SOL    HW234671   0.310   0.344   6.440 -1.7735 -1.5377 -2.4180
 7679SOL     OW34672   1.806   2.233   3.746  1.0107 -0.1920 -0.1432
 7679SOL    HW134673   1.735   2.297   3.751  1.8779  0.7477 -0.0053
 7679SOL    HW234674   1.851   2.270   3.670  0.8887 -1.4928 -0.8498
 7680SOL     OW34675   4.134   0.276   8.497 -0.4476 -0.5533  0.6800
 7680SOL    HW134676   4.156   0.366   8.473 -1.1229 -1.2157 -2.4734
 7680SOL    HW234677   4.043   0.294   8.517 -0.9697 -1.7677 -0.5967
 7681SOL     OW34678   4.391   0.840  16.674 -0.1230  0.1978 -0.4108
 7681SOL    HW134679   4.383   0.850  16.769  0.9298  0.5384 -0.3690
 7681SOL    HW234680   4.486   0.831  16.671 -0.2060 -1.4295  1.0745
 7682SOL     OW34681   0.644   1.053   1.178  0.4076  0.0561 -0.1949
 7682SOL    HW134682   0.680   1.071   1.091  0.6800  1.5086  0.2304
 7682SOL    HW234683   0.647   0.958   1.169  1.2748  0.0569  0.0784
 7683SOL     OW34684   1.439   1.471  12.035  0.1363 -0.2019 -0.0917
 7683SOL    HW134685   1.430   1.463  12.130  0.8078  0.1430  0.0066
 7683SOL    HW234686   1.527   1.434  12.022 -0.5836 -0.5291 -3.8764
 7684SOL     OW34687   0.412   0.845   6.275  0.6324 -0.1687  0.4851
 7684SOL    HW134688   0.373   0.820   6.191  0.7193 -1.2465  0.7686
 7684SOL    HW234689   0.501   0.812   6.271 -0.0585 -1.9304 -0.4737
 7685SOL     OW34690   3.055   4.271   2.187  0.3400 -0.1524 -0.3424
 7685SOL    HW134691   3.010   4.333   2.245 -0.5123 -0.3596 -0.7835
 7685SOL    HW234692   3.104   4.224   2.254  1.7561  3.1484  0.9396
 7686SOL     OW34693   2.397   0.293  16.905  0.2408  0.2212  0.5464
 7686SOL    HW134694   2.313   0.279  16.949 -1.1939  1.3082 -1.7985
 7686SOL    HW234695   2.423   0.375  16.947  1.0291 -0.2762  1.0254
 7687SOL     OW34696   2.612   1.031   7.271 -0.3497 -0.0420 -0.7118
 7687SOL    HW134697   2.665   1.021   7.192 -2.3624  0.1881 -2.0980
 7687SOL    HW234698   2.536   1.073   7.231  0.6333  2.4938  0.0636
 7688SOL     OW34699   4.582   1.017   5.353 -0.4453 -0.1251  0.0028
 7688SOL    HW134700   4.505   0.983   5.398 -0.0766 -0.7407  0.1722
 7688SOL    HW234701   4.629   0.933   5.360 -0.7829 -0.1513  1.8186
 7689SOL     OW34702   1.122   1.489   3.383  0.0743  0.2702 -0.0314
 7689SOL    HW134703   1.189   1.420   3.380 -0.6925 -0.4295 -1.0276
 7689SOL    HW234704   1.059   1.443   3.437  0.1446 -0.2145 -0.3652
 7690SOL     OW34705   0.901   0.672   8.802  0.6658 -0.9030  0.1650
 7690SOL    HW134706   0.820   0.661   8.852  1.2838 -1.6401  1.0125
 7690SOL    HW234707   0.945   0.601   8.851 -1.1499 -2.5405 -0.5690
 7691SOL     OW34708   1.250   1.990   0.198  0.2853  0.0956  0.4730
 7691SOL    HW134709   1.276   2.064   0.251  0.8246 -0.7701  1.4094
 7691SOL    HW234710   1.331   1.967   0.151  0.1648  2.5974 -0.9591
 7692SOL     OW34711   4.048   4.025  11.181 -0.1373 -0.1083  0.2381
 7692SOL    HW134712   4.075   4.115  11.195 -0.8191  0.0855  0.3307
 7692SOL    HW234713   4.072   3.997  11.269  1.6899  2.6349  0.6002
 7693SOL     OW34714   0.022   1.706   4.865  0.0389 -0.2206 -0.1534
 7693SOL    HW134715   4.704   1.770   4.906  1.5252 -0.3175  2.0398
 7693SOL    HW234716   4.731   1.626   4.907  0.3871 -0.3221 -0.0975
 7694SOL     OW34717   0.139   4.090   6.899 -0.0555  0.1630 -0.5412
 7694SOL    HW134718   0.198   4.053   6.965  0.2167 -0.2899 -1.0432
 7694SOL    HW234719   0.093   4.152   6.957 -0.6782 -1.4723  0.7259
 7695SOL     OW34720   0.688   0.470   8.664  0.0842 -0.2695  0.5133
 7695SOL    HW134721   0.748   0.396   8.675  2.0777  0.7352 -3.6725
 7695SOL    HW234722   0.665   0.492   8.755  0.6301  1.4131  0.2436
 7696SOL     OW34723   0.427   1.382   8.203 -0.5755  0.0277  0.3352
 7696SOL    HW134724   0.470   1.353   8.284  0.4152  0.4062 -0.0476
 7696SOL    HW234725   0.484   1.340   8.138 -2.0418 -0.9892 -0.2800
 7697SOL     OW34726   0.022   3.189   8.047  0.0992  0.1023 -0.0563
 7697SOL    HW134727   0.108   3.228   8.063 -0.6704  2.3477 -1.3797
 7697SOL    HW234728   0.012   3.124   8.117  1.0638 -0.9650 -0.9277
 7698SOL     OW34729   3.465   2.932   6.409  0.1572 -0.6499 -0.7091
 7698SOL    HW134730   3.407   2.857   6.400  0.9020 -1.4172  0.8757
 7698SOL    HW234731   3.399   2.989   6.369  1.5033  1.1240 -0.4143
 7699SOL     OW34732   0.791   3.896   2.498 -0.0488 -0.3064 -0.3508
 7699SOL    HW134733   0.837   3.870   2.417  0.3522  0.0663 -0.2404
 7699SOL    HW234734   0.805   3.816   2.549 -0.3418  1.8699  3.1347
 7700SOL     OW34735   1.079   1.780   2.398  0.1540  0.0356 -0.2233
 7700SOL    HW134736   0.998   1.820   2.367  0.0988  0.9664  1.0793
 7700SOL    HW234737   1.069   1.791   2.493 -2.0174  0.5465 -0.5161
 7701SOL     OW34738   3.295   0.088   4.794 -0.2083 -0.3052  0.0350
 7701SOL    HW134739   3.200   0.085   4.811 -0.3416 -0.9534 -0.8566
 7701SOL    HW234740   3.314   0.174   4.832  2.1301 -0.7444 -0.1450
 7702SOL     OW34741   1.411   3.167  15.341 -0.0836 -0.0443 -0.3108
 7702SOL    HW134742   1.410   3.114  15.261 -0.4564  1.5478 -1.3537
 7702SOL    HW234743   1.462   3.241  15.308 -0.8854  1.0062  0.7968
 7703SOL     OW34744   0.649   1.218   5.501 -0.4366  0.6724 -0.5646
 7703SOL    HW134745   0.636   1.269   5.421  0.3586  1.6323 -0.0901
 7703SOL    HW234746   0.649   1.129   5.466  1.1617  0.9303 -1.2061
 7704SOL     OW34747   4.350   3.998   6.830 -0.6007 -0.0683 -0.2840
 7704SOL    HW134748   4.266   4.045   6.838 -0.3967  0.5318 -1.5587
 7704SOL    HW234749   4.337   3.917   6.879 -1.8680 -0.3520 -1.0926
 7705SOL     OW34750   3.310   2.680   3.941  0.1959 -0.3850 -0.2586
 7705SOL    HW134751   3.356   2.597   3.935  0.7989  0.0063 -1.1052
 7705SOL    HW234752   3.348   2.714   3.859  2.0327 -1.7648  0.0308
 7706SOL     OW34753   0.987   4.097   1.926 -0.3383  0.2089 -0.9830
 7706SOL    HW134754   1.030   4.014   1.949 -1.6946 -0.6147 -1.3984
 7706SOL    HW234755   1.053   4.163   1.944  2.0452 -1.9109 -1.9471
 7707SOL     OW34756   2.115   2.092   3.086  0.2007 -0.3397 -0.2749
 7707SOL    HW134757   2.158   2.008   3.104 -2.0537 -1.1957  1.1510
 7707SOL    HW234758   2.153   2.128   3.006 -0.8921 -0.1220 -0.6967
 7708SOL     OW34759   4.167   1.166   8.513  0.8097 -0.0856  0.7022
 7708SOL    HW134760   4.260   1.185   8.501  0.6892 -0.4135 -0.7911
 7708SOL    HW234761   4.121   1.250   8.503  1.1256 -0.1531 -1.3603
 7709SOL     OW34762   1.456   2.779   9.987  0.0656  0.1134  0.4685
 7709SOL    HW134763   1.551   2.787   9.979 -0.2081  3.4691  0.5640
 7709SOL    HW234764   1.447   2.684   9.998  3.0391 -0.3669 -1.2207
 7710SOL     OW34765   0.096   0.131   5.247 -0.7493 -0.4617 -0.6290
 7710SOL    HW134766   0.157   0.060   5.225  0.7325  1.0662 -1.3773
 7710SOL    HW234767   0.149   0.208   5.227 -1.2053 -0.2555 -1.0473
 7711SOL     OW34768   3.267   0.534   3.501 -0.1814  0.0928  0.2708
 7711SOL    HW134769   3.252   0.473   3.573  2.2040 -0.2243  0.5006
 7711SOL    HW234770   3.295   0.612   3.547 -1.9606  1.1541 -0.4386
 7712SOL     OW34771   1.886   3.700   7.113 -0.2456 -0.3158  0.3573
 7712SOL    HW134772   1.812   3.641   7.121  0.5395 -1.0890  2.0828
 7712SOL    HW234773   1.899   3.706   7.018  1.5848  1.2122  0.7039
 7713SOL     OW34774   4.733   2.054  16.747 -0.8352 -0.1771  0.0445
 7713SOL    HW134775   4.722   1.963  16.719  0.2769 -0.4978  0.6619
 7713SOL    HW234776   0.073   2.083  16.703 -0.7785 -1.2217 -0.5418
 7714SOL     OW34777   3.235   2.860   8.107 -0.1475  0.3092 -0.1682
 7714SOL    HW134778   3.150   2.902   8.118  0.3558  1.5393 -0.9416
 7714SOL    HW234779   3.234   2.811   8.189 -0.7291  0.0107 -0.3544
 7715SOL     OW34780   3.237   2.900   9.431  0.7181 -0.1140  0.1502
 7715SOL    HW134781   3.142   2.908   9.445  0.9770  1.5893  0.9401
 7715SOL    HW234782   3.256   2.971   9.370 -0.3711 -0.8192 -1.0244
 7716SOL     OW34783   0.369   1.703   7.339 -0.0376 -0.0221  0.5488
 7716SOL    HW134784   0.438   1.697   7.405 -0.0844  1.8784  0.7646
 7716SOL    HW234785   0.405   1.639   7.278 -0.8836 -0.5869  0.6389
 7717SOL     OW34786   4.643   0.304   3.657  0.4955  0.3729  0.2017
 7717SOL    HW134787   4.596   0.380   3.691  0.2863 -0.2355  1.2780
 7717SOL    HW234788   4.625   0.326   3.566 -0.5610 -1.1424  0.0571
 7718SOL     OW34789   1.776   2.306   7.037  0.1171 -0.5531  0.6880
 7718SOL    HW134790   1.751   2.245   7.106 -0.3420 -0.3174  0.7277
 7718SOL    HW234791   1.712   2.377   7.046 -0.0971 -0.9359  2.1577
 7719SOL     OW34792   1.043   0.581   1.570 -0.1684  0.5749  0.0203
 7719SOL    HW134793   1.091   0.585   1.487  0.0416  0.3542  0.1343
 7719SOL    HW234794   1.102   0.544   1.635 -1.0479 -1.7117 -0.5017
 7720SOL     OW34795   4.540   0.574   7.923 -0.2780 -0.4582 -0.7412
 7720SOL    HW134796   4.540   0.573   8.019  0.7416 -0.6089 -0.7338
 7720SOL    HW234797   4.523   0.668   7.919  3.0385  0.3154  3.3056
 7721SOL     OW34798   3.078   0.370  13.533 -0.6871  0.4373  0.2342
 7721SOL    HW134799   3.117   0.452  13.565  3.9836 -1.0435 -1.7050
 7721SOL    HW234800   3.112   0.321  13.607  0.0885  2.5634  1.2827
 7722SOL     OW34801   0.232   2.934   4.649 -0.0763  0.2119  0.8564
 7722SOL    HW134802   0.155   2.991   4.647 -0.4146 -0.3654 -2.7061
 7722SOL    HW234803   0.247   2.940   4.555 -1.3178  0.8399  0.6871
 7723SOL     OW34804   4.739   4.153   5.467  0.1024  0.0754 -0.4502
 7723SOL    HW134805   0.075   4.161   5.410 -0.2378 -0.8498 -1.0354
 7723SOL    HW234806   4.725   4.058   5.469  2.3729 -0.2456 -0.5748
 7724SOL     OW34807   0.027   3.267   1.403 -0.0807  0.3402 -0.4326
 7724SOL    HW134808   0.055   3.305   1.486  0.5083 -1.2958  0.1270
 7724SOL    HW234809   0.094   3.304   1.346 -0.9254  1.7553 -0.5125
 7725SOL     OW34810   2.424   0.470   8.919 -0.0140  0.0264  0.9382
 7725SOL    HW134811   2.377   0.552   8.931  0.0169  0.3085 -0.8713
 7725SOL    HW234812   2.401   0.447   8.829  0.8733 -0.8377  0.9314
 7726SOL     OW34813   3.757   2.949   8.865  0.5011  0.7698  0.5406
 7726SOL    HW134814   3.834   2.899   8.837 -0.3060 -1.6125  2.5577
 7726SOL    HW234815   3.705   2.935   8.786  1.6095 -1.9176  0.2559
 7727SOL     OW34816   1.022   0.848  12.079  0.2442  0.4344 -0.1890
 7727SOL    HW134817   1.016   0.829  11.985  0.8274 -2.1431  0.2864
 7727SOL    HW234818   0.964   0.779  12.111  0.4934  0.4550  0.3110
 7728SOL     OW34819   0.917   1.113   5.520 -0.1590 -0.2128 -0.2355
 7728SOL    HW134820   0.890   1.203   5.537 -1.5491 -0.5578 -0.6157
 7728SOL    HW234821   0.829   1.077   5.512 -1.7266  3.2624  1.4421
 7729SOL     OW34822   2.540   2.863   7.657 -0.6169 -0.1224  0.3819
 7729SOL    HW134823   2.536   2.781   7.608 -1.2574 -0.6099  1.2314
 7729SOL    HW234824   2.490   2.835   7.734 -1.4338 -2.2789 -0.9176
 7730SOL     OW34825   2.070   4.496   2.062 -0.5212 -0.4485  0.7891
 7730SOL    HW134826   2.092   4.464   2.149  0.4614  0.5709  0.9201
 7730SOL    HW234827   1.985   4.537   2.079  0.0195  1.3211 -0.7148
 7731SOL     OW34828   0.193   1.837   1.923 -0.4901 -0.3128 -0.0712
 7731SOL    HW134829   0.286   1.824   1.944 -0.3655 -0.2344 -0.5824
 7731SOL    HW234830   0.164   1.867   2.010  0.6076 -1.4484  0.6854
 7732SOL     OW34831   3.525   2.703  16.560 -0.3994 -0.0027 -0.2173
 7732SOL    HW134832   3.500   2.753  16.638 -0.4566  1.2427 -1.0493
 7732SOL    HW234833   3.557   2.776  16.508  0.2710 -1.9189 -2.4686
 7733SOL     OW34834   3.800   4.052  12.350  0.4091 -0.3158 -0.0738
 7733SOL    HW134835   3.707   4.035  12.333 -0.1485  0.5119  2.1973
 7733SOL    HW234836   3.811   4.019  12.439  0.0504 -0.8567 -0.2266
 7734SOL     OW34837   3.098   0.247   4.919  0.1456  0.1904  0.0716
 7734SOL    HW134838   3.148   0.299   4.855 -1.7905  0.7568 -1.0012
 7734SOL    HW234839   3.013   0.275   4.886  0.3331  0.1441 -0.4623
 7735SOL     OW34840   0.503   3.108   6.350  0.5694  0.1809 -0.3244
 7735SOL    HW134841   0.424   3.069   6.311  1.2120 -1.8556  0.4348
 7735SOL    HW234842   0.533   3.167   6.281  2.1415  0.5059  0.6404
 7736SOL     OW34843   1.856   4.653   5.858  0.0882 -0.0134 -0.0061
 7736SOL    HW134844   1.854   4.639   5.952  1.3438 -1.0804 -0.1349
 7736SOL    HW234845   1.949   4.642   5.839  0.3850  1.2263  0.7897
 7737SOL     OW34846   3.398   1.383   7.648 -0.0319  0.1868 -0.4670
 7737SOL    HW134847   3.408   1.445   7.720  0.4927 -2.9232  2.1005
 7737SOL    HW234848   3.351   1.305   7.679  1.4070 -1.3396 -2.1248
 7738SOL     OW34849   2.174   1.060   8.584 -0.2336 -0.5341  0.7215
 7738SOL    HW134850   2.104   1.120   8.611 -2.8530 -3.4233  0.4315
 7738SOL    HW234851   2.147   0.973   8.613 -2.5159  0.1290  0.6419
 7739SOL     OW34852   0.621   1.679   3.531  0.2676 -0.2252  0.7531
 7739SOL    HW134853   0.590   1.764   3.500 -2.2565 -0.8362  1.6076
 7739SOL    HW234854   0.690   1.697   3.594  0.0192 -1.3800  1.3395
 7740SOL     OW34855   1.193   1.093   4.960 -0.4004  0.7785 -0.3225
 7740SOL    HW134856   1.206   1.176   5.006 -1.2485 -0.4557  2.1395
 7740SOL    HW234857   1.148   1.043   5.028  0.4426 -2.3726 -2.0916
 7741SOL     OW34858   2.327   0.124   4.617 -0.4025  1.0175 -0.3609
 7741SOL    HW134859   2.340   0.089   4.529  0.9277 -2.8642  1.4225
 7741SOL    HW234860   2.246   0.176   4.613 -0.9851  0.2003  0.9630
 7742SOL     OW34861   0.034   2.089   5.045  0.2597  0.1255 -0.2113
 7742SOL    HW134862   0.093   2.095   4.970 -0.2768  0.0106 -0.6383
 7742SOL    HW234863   0.086   2.112   5.122 -2.5790 -1.7975  2.2915
 7743SOL     OW34864   0.632   3.316   1.976 -0.4348  0.4049 -0.5891
 7743SOL    HW134865   0.676   3.356   1.901 -0.4274 -1.1073 -1.4020
 7743SOL    HW234866   0.686   3.238   1.993 -1.6194  0.4250  3.2766
 7744SOL     OW34867   2.247   1.030   7.592 -0.2888  0.1903 -0.4534
 7744SOL    HW134868   2.227   0.954   7.646  1.1692  2.2609  2.9764
 7744SOL    HW234869   2.157   1.059   7.582 -0.1702  1.1439  1.2844
 7745SOL     OW34870   0.259   0.325   6.960  0.1035 -0.5922  0.3614
 7745SOL    HW134871   0.265   0.382   7.037  0.9572 -0.1171 -0.0512
 7745SOL    HW234872   0.165   0.316   6.946  0.2530  0.2266 -1.1987
 7746SOL     OW34873   1.393   2.760   7.128  0.3548  0.4957 -0.2717
 7746SOL    HW134874   1.337   2.775   7.051 -1.1339  2.4005  1.2006
 7746SOL    HW234875   1.448   2.837   7.114 -0.4617  0.8349 -1.6675
 7747SOL     OW34876   2.888   0.470   2.543  0.3314 -0.0081 -0.0961
 7747SOL    HW134877   2.894   0.524   2.622 -0.3031  0.4660 -0.3656
 7747SOL    HW234878   2.796   0.490   2.528  0.3143  0.6174  0.7977
 7748SOL     OW34879   0.310   2.491  13.795  0.5920 -0.3203  0.5710
 7748SOL    HW134880   0.293   2.503  13.701  1.0409  0.6165  0.6080
 7748SOL    HW234881   0.396   2.453  13.776  1.9285  1.7072  2.6384
 7749SOL     OW34882   4.313   1.171   2.907  0.0680 -0.2631  0.1512
 7749SOL    HW134883   4.351   1.220   2.981 -1.6633 -0.5298  1.2200
 7749SOL    HW234884   4.251   1.231   2.866  1.8762  1.8928  0.5827
 7750SOL     OW34885   3.403   4.018   2.380 -0.3974  0.2921 -0.4344
 7750SOL    HW134886   3.437   3.931   2.361 -2.5830 -0.7100  0.2109
 7750SOL    HW234887   3.478   4.061   2.419 -0.2777  0.3012 -0.6768
 7751SOL     OW34888   0.789   1.010   4.683  0.2851  0.0303  0.2406
 7751SOL    HW134889   0.809   1.100   4.660  1.1220 -0.3874 -0.6397
 7751SOL    HW234890   0.760   0.975   4.599  0.8479  0.4823 -0.1296
 7752SOL     OW34891   1.519   1.404   6.213 -0.4691 -0.3191  0.0077
 7752SOL    HW134892   1.566   1.476   6.170 -2.2650  1.0818  0.4066
 7752SOL    HW234893   1.582   1.356   6.267  0.7889  0.1014 -1.0683
 7753SOL     OW34894   1.142   2.473   6.081  0.6004 -0.2089 -0.0638
 7753SOL    HW134895   1.199   2.524   6.138  1.4687 -1.6190  0.3265
 7753SOL    HW234896   1.132   2.535   6.009  0.7352 -0.3207 -0.1782
 7754SOL     OW34897   2.865   4.085   5.742  0.4547 -0.5283 -0.2300
 7754SOL    HW134898   2.807   4.074   5.818 -1.5378  0.3436 -1.6581
 7754SOL    HW234899   2.850   4.178   5.727 -2.0440 -0.8475  0.3106
 7755SOL     OW34900   1.811   2.335   3.109 -0.6560  0.2141 -0.0897
 7755SOL    HW134901   1.846   2.393   3.042 -1.2556 -0.5542 -1.0680
 7755SOL    HW234902   1.889   2.289   3.140  0.7490  1.7017 -1.4124
 7756SOL     OW34903   1.700   1.052   5.858 -0.0963 -0.2899 -0.3548
 7756SOL    HW134904   1.700   0.986   5.789  1.5562 -0.1092 -0.5214
 7756SOL    HW234905   1.788   1.045   5.895 -0.3779 -0.8799  0.2163
 7757SOL     OW34906   3.627   4.244   0.872 -0.0433  0.0677  0.2130
 7757SOL    HW134907   3.534   4.239   0.848 -0.1793  0.3483  0.6659
 7757SOL    HW234908   3.673   4.280   0.797  0.5906  0.3017  0.7137
 7758SOL     OW34909   0.508   3.303  11.717 -0.3665  0.0035 -0.4181
 7758SOL    HW134910   0.565   3.376  11.693 -0.3564 -0.4460 -1.7781
 7758SOL    HW234911   0.428   3.351  11.695 -1.6831 -2.9812 -2.1367
 7759SOL     OW34912   2.444   4.429  13.203  0.6955 -0.6505  0.0212
 7759SOL    HW134913   2.514   4.368  13.223 -0.6934 -2.2084  0.1045
 7759SOL    HW234914   2.459   4.435  13.109 -0.6812 -0.9545 -0.2270
 7760SOL     OW34915   1.289   0.079  15.302 -0.3712  0.5164 -0.0583
 7760SOL    HW134916   1.250   0.164  15.282 -1.1473  0.1393 -0.1808
 7760SOL    HW234917   1.257   0.067  15.391 -2.8893 -0.6395 -1.1018
 7761SOL     OW34918   4.389   3.046   6.371  0.2874  0.0412 -0.3255
 7761SOL    HW134919   4.303   3.046   6.328 -0.3513 -0.8199  0.9503
 7761SOL    HW234920   4.446   3.018   6.299 -0.0176 -0.7810 -0.2509
 7762SOL     OW34921   3.683   0.751   7.443 -0.5299  0.1877  0.1023
 7762SOL    HW134922   3.644   0.839   7.447 -2.8489 -0.7983 -0.6678
 7762SOL    HW234923   3.731   0.747   7.526  0.2358  0.1527 -0.3514
 7763SOL     OW34924   2.356   2.939   6.949 -0.0848  0.2221  0.0422
 7763SOL    HW134925   2.325   3.024   6.918  1.3530  0.5243 -0.5411
 7763SOL    HW234926   2.376   2.964   7.039  0.9965 -0.4153 -0.0165
 7764SOL     OW34927   0.182   1.834  14.180 -0.0356  0.2301 -0.2741
 7764SOL    HW134928   0.235   1.764  14.142 -4.0172 -1.8265 -2.0125
 7764SOL    HW234929   0.110   1.844  14.118 -1.0517  3.2955  1.4357
 7765SOL     OW34930   0.534   1.680   1.025  0.1821  0.1379  0.1483
 7765SOL    HW134931   0.589   1.716   1.095  1.0325 -1.5502  0.3555
 7765SOL    HW234932   0.471   1.751   1.018 -0.2244 -0.2055  0.3746
 7766SOL     OW34933   4.014   1.173   6.876  0.7221 -0.6164  0.1744
 7766SOL    HW134934   4.002   1.245   6.814 -0.8628  0.9101  2.2410
 7766SOL    HW234935   4.104   1.152   6.850  1.0148  0.5442  0.2409
 7767SOL     OW34936   1.263   3.159   7.883 -0.1985 -0.2946 -1.5927
 7767SOL    HW134937   1.273   3.188   7.792  2.5457 -0.1465 -1.2609
 7767SOL    HW234938   1.248   3.244   7.924 -1.3735 -0.3661 -1.8746
 7768SOL     OW34939   2.994   1.650   1.946 -0.1859 -0.1819 -0.1289
 7768SOL    HW134940   2.949   1.597   2.012  0.2479  1.6975  1.6790
 7768SOL    HW234941   2.962   1.737   1.973  0.7613 -0.7704  2.8527
 7769SOL     OW34942   4.659   2.015   6.096 -0.8348 -0.3753  0.5959
 7769SOL    HW134943   4.734   2.009   6.155 -1.7723  1.5110  1.9553
 7769SOL    HW234944   4.632   1.923   6.090 -4.1038  0.6538 -0.5405
 7770SOL     OW34945   0.651   0.995   8.474  0.9204 -0.4755  0.1883
 7770SOL    HW134946   0.714   0.946   8.526  0.7626 -1.2302 -0.3256
 7770SOL    HW234947   0.608   0.927   8.421  0.6603 -1.0849  1.1906
 7771SOL     OW34948   3.510   1.832   4.569  0.5309 -0.3376  0.6289
 7771SOL    HW134949   3.461   1.849   4.649 -0.4211 -1.4963  0.2767
 7771SOL    HW234950   3.558   1.913   4.552 -0.6411  0.1767 -0.2564
 7772SOL     OW34951   2.201   0.828  17.323  0.2344 -0.2071  0.3163
 7772SOL    HW134952   2.122   0.798  17.279  0.6442 -2.1013  0.8806
 7772SOL    HW234953   2.267   0.780  17.273  0.6197  0.3383  0.2995
 7773SOL     OW34954   4.226   4.149  16.727 -0.2280  0.6428 -0.2130
 7773SOL    HW134955   4.169   4.140  16.651 -0.1828 -1.2545 -0.0363
 7773SOL    HW234956   4.163   4.110  16.788  1.0073  0.8589  1.2072
 7774SOL     OW34957   3.204   4.001  12.935 -0.3557  0.2083  0.5332
 7774SOL    HW134958   3.189   3.915  12.973  1.5354  0.3427  1.5826
 7774SOL    HW234959   3.297   4.015  12.952 -1.0987  2.7107  2.5541
 7775SOL     OW34960   3.673   1.511   0.274  0.0181 -0.1964 -0.3906
 7775SOL    HW134961   3.592   1.485   0.230 -1.1969  2.7152  0.1761
 7775SOL    HW234962   3.650   1.510   0.367 -1.9773 -0.8407 -0.8862
 7776SOL     OW34963   2.282   1.720  16.002 -0.0918  0.1200 -0.1594
 7776SOL    HW134964   2.290   1.816  16.000  0.4522  0.0957  0.5853
 7776SOL    HW234965   2.333   1.704  16.082 -3.5977  3.1780  2.7044
 7777SOL     OW34966   4.387   4.284   2.717 -0.5639 -0.4081 -0.1390
 7777SOL    HW134967   4.436   4.260   2.795 -1.0448 -0.8740  0.0254
 7777SOL    HW234968   4.327   4.347   2.757  0.9733  0.6784  0.4097
 7778SOL     OW34969   0.062   0.224  14.318  0.4599  0.3489  0.5818
 7778SOL    HW134970   0.041   0.159  14.251 -0.0992  1.9147 -0.7540
 7778SOL    HW234971   0.125   0.276  14.269  0.3680 -0.8177 -0.7729
 7779SOL     OW34972   0.166   1.698  10.446 -0.1126  0.6716 -0.6553
 7779SOL    HW134973   0.164   1.603  10.448 -1.5444  0.7232  0.2698
 7779SOL    HW234974   0.261   1.700  10.442 -0.0296 -0.0949  0.9720
 7780SOL     OW34975   3.315   3.557   8.498  0.1549  0.9081  0.7427
 7780SOL    HW134976   3.325   3.512   8.414 -1.5797 -0.5954  1.3316
 7780SOL    HW234977   3.353   3.484   8.548 -2.9326 -0.2911  1.3099
 7781SOL     OW34978   2.328   2.359   8.763 -0.5629  0.2628 -0.5201
 7781SOL    HW134979   2.281   2.276   8.761 -1.2967  0.6106  1.8090
 7781SOL    HW234980   2.267   2.432   8.772  0.6354  1.2385 -0.1597
 7782SOL     OW34981   2.330   3.118   5.491 -0.6596  0.0036 -0.1372
 7782SOL    HW134982   2.345   3.063   5.568  0.3942  0.2196 -0.1861
 7782SOL    HW234983   2.394   3.189   5.500  1.1744 -1.4033 -1.8378
 7783SOL     OW34984   1.296   0.118   6.574 -0.0202 -0.4192  0.3906
 7783SOL    HW134985   1.340   0.070   6.645 -0.6144 -1.0318  0.3423
 7783SOL    HW234986   1.365   0.163   6.525 -0.0719 -1.6146 -0.7931
 7784SOL     OW34987   1.845   1.145  13.548  0.1567 -0.2895  0.3802
 7784SOL    HW134988   1.926   1.194  13.561 -1.0738  1.9762 -0.4299
 7784SOL    HW234989   1.830   1.112  13.636  0.2358 -1.0799  0.1017
 7785SOL     OW34990   2.361   3.917  11.363 -0.4365 -0.0567 -0.7876
 7785SOL    HW134991   2.326   3.862  11.433 -1.3298  2.6445  0.8597
 7785SOL    HW234992   2.335   3.861  11.289 -2.1357 -0.3292  0.0133
 7786SOL     OW34993   4.693   1.051   3.384 -0.3033 -0.4583 -0.2147
 7786SOL    HW134994   0.010   1.108   3.331 -0.4094 -0.8882 -0.7918
 7786SOL    HW234995   4.658   1.114   3.448 -0.0103  2.4292 -2.8733
 7787SOL     OW34996   1.912   4.571   6.744 -0.4709  0.3924  0.6056
 7787SOL    HW134997   1.885   4.647   6.796 -1.1687  1.0086 -0.6569
 7787SOL    HW234998   1.869   4.499   6.791 -1.3189 -0.6384 -1.7290
 7788SOL     OW34999   4.572   0.312  15.670  0.5392  0.1417 -0.1783
 7788SOL    HW135000   4.549   0.311  15.763  0.5590  2.9667 -0.1398
 7788SOL    HW235001   4.547   0.220  15.661  1.0304 -0.1863  1.9086
 7789SOL     OW35002   2.729   2.101   5.640  0.2871  0.1585  0.1286
 7789SOL    HW135003   2.646   2.114   5.687 -0.9894 -0.2719 -2.0266
 7789SOL    HW235004   2.787   2.140   5.706  0.4984 -0.5393  0.3545
 7790SOL     OW35005   0.503   1.224   0.924 -0.3936  0.3415 -0.2491
 7790SOL    HW135006   0.463   1.164   0.860 -2.0051 -0.7469  1.7657
 7790SOL    HW235007   0.484   1.309   0.885  1.2174  0.7177 -0.2046
 7791SOL     OW35008   4.129   0.467   2.738 -0.6266  0.1816 -0.5135
 7791SOL    HW135009   4.135   0.434   2.649 -0.8211 -0.0046 -0.4580
 7791SOL    HW235010   4.126   0.380   2.778  1.6867  0.3753  0.0990
 7792SOL     OW35011   3.907   2.547  10.159 -0.3068 -0.0295  0.5206
 7792SOL    HW135012   3.821   2.539  10.200  0.3420  0.1567  1.9249
 7792SOL    HW235013   3.945   2.613  10.217 -0.9153 -0.3346  1.2605
 7793SOL     OW35014   2.917   1.275   2.275  0.6212  0.3444 -0.1893
 7793SOL    HW135015   2.843   1.215   2.262  1.4075 -0.6253 -0.2076
 7793SOL    HW235016   2.901   1.287   2.368  1.4494  0.2313 -0.0388
 7794SOL     OW35017   3.523   4.220   3.325  0.4169 -0.1930 -0.1811
 7794SOL    HW135018   3.527   4.147   3.387 -0.3576  1.5055  1.8516
 7794SOL    HW235019   3.593   4.206   3.261  1.0641 -0.5125  0.6036
 7795SOL     OW35020   2.524   0.359   5.994  0.1777 -0.0341 -0.1146
 7795SOL    HW135021   2.478   0.439   5.969 -1.3771 -0.9882 -0.2673
 7795SOL    HW235022   2.590   0.346   5.925  0.3081 -1.0093  0.1994
 7796SOL     OW35023   4.390   0.507   6.348 -0.0056  0.3421 -0.5774
 7796SOL    HW135024   4.323   0.498   6.416  2.9800  0.8553  2.4109
 7796SOL    HW235025   4.344   0.526   6.266  1.2514  0.2895 -1.2843
 7797SOL     OW35026   0.160   3.384  14.478  0.9170 -0.1393  0.2934
 7797SOL    HW135027   0.226   3.314  14.483  0.5735 -0.3374  2.0309
 7797SOL    HW235028   0.118   3.365  14.394 -1.6176  0.3159  1.4714
 7798SOL     OW35029   4.696   3.835   6.893 -0.0158  0.1526  0.3658
 7798SOL    HW135030   0.019   3.809   6.825 -0.3105  1.6097 -0.4742
 7798SOL    HW235031   4.706   3.930   6.884 -0.7438 -0.0013 -2.1580
 7799SOL     OW35032   4.448   3.278   3.395 -0.2867  0.2410 -0.2294
 7799SOL    HW135033   4.532   3.236   3.410  0.3464  2.2036  1.6978
 7799SOL    HW235034   4.468   3.332   3.319  2.6934  1.1649  1.2096
 7800SOL     OW35035   1.315   0.562  15.994  0.1549 -0.6267 -0.8794
 7800SOL    HW135036   1.242   0.623  15.988 -0.3867 -1.3590 -1.5961
 7800SOL    HW235037   1.377   0.622  15.952 -1.3840  0.9857 -0.8527
 7801SOL     OW35038   0.135   4.251   3.954  0.0711  0.2607 -0.6370
 7801SOL    HW135039   0.136   4.325   3.893 -2.3342  2.6129  2.1707
 7801SOL    HW235040   0.148   4.174   3.898  2.4875  0.2127 -0.0091
 7802SOL     OW35041   1.909   2.803   1.929  0.1455  0.2127 -0.0282
 7802SOL    HW135042   1.977   2.839   1.985 -0.7595  2.2950 -0.2669
 7802SOL    HW235043   1.953   2.744   1.867 -1.1195 -1.1480  0.3597
 7803SOL     OW35044   4.730   0.100   1.066  0.9950 -0.1846 -0.4254
 7803SOL    HW135045   4.652   0.044   1.064  0.6538  0.3352 -1.7074
 7803SOL    HW235046   0.023   0.100   0.976  2.0646 -0.6092 -0.0406
 7804SOL     OW35047   0.747   3.580  17.090  0.3543  0.5857  0.2320
 7804SOL    HW135048   0.735   3.675  17.078 -1.7527  0.2754 -0.1321
 7804SOL    HW235049   0.675   3.534  17.047  0.1198  2.1303 -1.0497
 7805SOL     OW35050   1.966   1.061   4.712 -0.1174 -0.5874 -0.0163
 7805SOL    HW135051   2.056   1.034   4.733  0.6472  0.7270 -1.5502
 7805SOL    HW235052   1.975   1.154   4.731  1.2110 -0.5651 -0.7579
 7806SOL     OW35053   0.032   4.738  17.359 -0.3171 -0.0062 -0.0653
 7806SOL    HW135054   0.077   0.076  17.326 -1.3546 -0.4888 -2.5376
 7806SOL    HW235055   4.702   0.028  17.418 -0.9603  2.5525 -2.1129
 7807SOL     OW35056   0.841   0.269  13.747 -0.4637 -0.5033  0.4835
 7807SOL    HW135057   0.810   0.347  13.700  0.1920  0.5794  1.8276
 7807SOL    HW235058   0.875   0.207  13.683  0.3543  0.5450 -0.1048
 7808SOL     OW35059   2.920   1.300   2.561  0.1781  0.1629 -0.0528
 7808SOL    HW135060   2.981   1.228   2.548 -0.2205  0.1074 -1.7133
 7808SOL    HW235061   2.984   1.363   2.593 -0.0549  0.9317 -1.0571
 7809SOL     OW35062   1.001   0.340   4.429  0.6534  0.3713 -0.1358
 7809SOL    HW135063   1.063   0.267   4.429 -0.7543 -0.8059  0.5984
 7809SOL    HW235064   0.927   0.307   4.378  2.3940 -1.9396 -1.1757
 7810SOL     OW35065   2.735   3.145   7.165 -0.3943 -0.3429  0.3455
 7810SOL    HW135066   2.699   3.215   7.220  2.3759  0.7235  0.7877
 7810SOL    HW235067   2.812   3.121   7.216  1.4888  2.6641 -1.1030
 7811SOL     OW35068   1.118   2.357  16.584 -0.4180  0.1800 -0.3301
 7811SOL    HW135069   1.157   2.443  16.574  0.3511 -0.2869 -1.3735
 7811SOL    HW235070   1.125   2.335  16.491  1.2231  0.3180 -0.2399
 7812SOL     OW35071   2.605   0.564   3.221 -0.2210 -0.0601 -0.0672
 7812SOL    HW135072   2.653   0.581   3.302 -1.7749  2.1844  0.3838
 7812SOL    HW235073   2.650   0.616   3.155 -0.0995  0.4456  0.4126
 7813SOL     OW35074   0.409   3.936   5.727 -0.3703 -0.4372  0.3433
 7813SOL    HW135075   0.336   3.910   5.784 -0.9055 -1.0224 -0.6141
 7813SOL    HW235076   0.468   3.982   5.786 -0.1741 -1.9053  1.3000
 7814SOL     OW35077   4.548   4.394  17.023  0.2960 -0.0671 -0.0330
 7814SOL    HW135078   4.538   4.478  17.069 -1.8734 -0.4618  0.2095
 7814SOL    HW235079   4.477   4.401  16.960 -0.4599 -3.6858  0.4315
 7815SOL     OW35080   3.899   0.204   2.407  0.2637 -0.6575  0.0225
 7815SOL    HW135081   3.930   0.124   2.364 -0.5103 -1.4308  0.9086
 7815SOL    HW235082   3.811   0.179   2.435  0.2555 -1.5242 -0.7718
 7816SOL     OW35083   0.565   1.531   4.047  0.2618 -0.1589 -0.2106
 7816SOL    HW135084   0.652   1.524   4.008  0.6787 -0.2153  0.7443
 7816SOL    HW235085   0.507   1.547   3.972 -0.2003 -2.1694 -0.2781
 7817SOL     OW35086   3.694   2.198   2.802 -0.4872  0.2080 -0.0960
 7817SOL    HW135087   3.612   2.194   2.753 -1.9569  1.5086  2.2741
 7817SOL    HW235088   3.736   2.117   2.775  0.4223  0.2635  1.1367
 7818SOL     OW35089   4.636   2.574   6.618  0.9523  0.3455  0.2551
 7818SOL    HW135090   4.691   2.587   6.695 -1.2133 -0.0715  1.8694
 7818SOL    HW235091   4.697   2.522   6.566  0.7349 -1.7743  2.1095
 7819SOL     OW35092   1.359   0.225  10.887 -0.4257 -0.2063 -0.1940
 7819SOL    HW135093   1.444   0.260  10.861 -1.1955  0.6485 -1.5064
 7819SOL    HW235094   1.354   0.140  10.842  1.8519 -0.2380 -0.4017
 7820SOL     OW35095   0.922   0.060  13.608 -0.4967  0.4392 -0.3599
 7820SOL    HW135096   0.978   4.721  13.606  2.5325  2.5921 -0.3378
 7820SOL    HW235097   0.841   0.009  13.610 -0.6728  0.5706 -4.4623
 7821SOL     OW35098   2.789   2.498   7.630  0.2810  0.2687 -0.5558
 7821SOL    HW135099   2.818   2.479   7.541  3.0142 -0.3752  0.4803
 7821SOL    HW235100   2.862   2.456   7.676 -1.0289 -0.6374  0.7357
 7822SOL     OW35101   3.782   4.427   5.413 -0.1566  0.1512 -0.2243
 7822SOL    HW135102   3.815   4.517   5.404  0.8312 -0.4770 -3.1262
 7822SOL    HW235103   3.723   4.422   5.338  1.8040  0.5338 -1.8153
 7823SOL     OW35104   3.916   2.563   3.482  0.1543 -0.1917 -0.1329
 7823SOL    HW135105   3.825   2.580   3.460  0.0844 -0.5536 -0.1219
 7823SOL    HW235106   3.942   2.475   3.454 -1.1568 -0.4191 -0.6138
 7824SOL     OW35107   2.848   1.807   6.016  0.0597 -0.1684  0.1191
 7824SOL    HW135108   2.943   1.805   6.006  0.0349  1.2057 -0.3904
 7824SOL    HW235109   2.834   1.896   5.983  0.5055  0.0454  0.4973
 7825SOL     OW35110   0.633   3.227  13.355 -0.1101  0.1933 -0.1016
 7825SOL    HW135111   0.644   3.295  13.288 -0.1647 -2.7642 -3.0981
 7825SOL    HW235112   0.556   3.187  13.315 -0.5756  0.3837  0.6193
 7826SOL     OW35113   3.745   4.577  10.602 -0.2805  0.2553 -0.3979
 7826SOL    HW135114   3.676   4.641  10.616  0.1227  1.2170 -2.7740
 7826SOL    HW235115   3.753   4.590  10.507  0.2705  1.7414 -0.1452
 7827SOL     OW35116   3.661   0.134   2.498 -0.2962  0.2204 -0.3638
 7827SOL    HW135117   3.679   0.051   2.543  1.5066  0.3940 -0.7483
 7827SOL    HW235118   3.612   0.115   2.418  0.5800  1.8135 -1.2707
 7828SOL     OW35119   2.141   0.299  17.023  0.2808  0.4333  0.1005
 7828SOL    HW135120   2.051   0.281  16.997  0.5747 -2.5039  1.1025
 7828SOL    HW235121   2.143   0.254  17.107  0.1062 -0.2146 -0.2477
 7829SOL     OW35122   2.958   0.636   8.110  0.1152  0.0814 -0.0436
 7829SOL    HW135123   3.048   0.639   8.078  0.3253 -0.2047  0.5293
 7829SOL    HW235124   2.930   0.564   8.054  0.3040  0.6147 -0.8297
 7830SOL     OW35125   2.697   1.646   6.326  0.5393 -0.3707  0.1526
 7830SOL    HW135126   2.691   1.551   6.338 -1.9366  0.0490  2.1188
 7830SOL    HW235127   2.665   1.672   6.412 -3.0458 -1.1296 -0.9295
 7831SOL     OW35128   3.570   2.849   2.066 -0.0092  0.4546  0.0682
 7831SOL    HW135129   3.624   2.876   1.992 -3.0192 -0.9041 -2.6224
 7831SOL    HW235130   3.498   2.912   2.059 -1.1737 -1.3176 -4.0060
 7832SOL     OW35131   0.971   2.467   6.881  0.1024 -0.0480  0.3495
 7832SOL    HW135132   0.980   2.424   6.796  1.3783  2.8168 -0.9745
 7832SOL    HW235133   1.061   2.494   6.899 -0.0104  0.4228  0.2105
 7833SOL     OW35134   0.314   1.712   2.443 -0.6882  0.0498  0.0064
 7833SOL    HW135135   0.278   1.631   2.408  0.0324 -0.0696 -0.4470
 7833SOL    HW235136   0.232   1.750   2.477 -1.0162  0.6030 -1.3860
 7834SOL     OW35137   3.369   4.408   2.179 -0.2639 -0.0735  0.4310
 7834SOL    HW135138   3.355   4.502   2.193 -1.5126 -0.3210  0.8972
 7834SOL    HW235139   3.359   4.403   2.084  0.2545  2.5441  0.2468
 7835SOL     OW35140   0.888   2.635   4.558  1.2468  0.0136 -0.1557
 7835SOL    HW135141   0.799   2.620   4.588  1.0934 -0.5999 -0.9257
 7835SOL    HW235142   0.869   2.662   4.468  1.4050 -0.3915 -0.3121
 7836SOL     OW35143   3.478   4.097   6.026 -0.4849 -0.0362 -0.1253
 7836SOL    HW135144   3.560   4.111   6.075  1.8610 -0.6143 -3.9119
 7836SOL    HW235145   3.489   4.017   5.976 -0.7930  0.9964 -1.8289
 7837SOL     OW35146   1.499   2.565   7.985  0.7596 -0.1930 -0.4266
 7837SOL    HW135147   1.561   2.526   7.924  0.2833 -0.9182 -0.4533
 7837SOL    HW235148   1.413   2.533   7.957  0.0495  1.7372 -0.4597
 7838SOL     OW35149   3.946   1.716  13.221 -0.1792 -0.3326 -0.3740
 7838SOL    HW135150   3.932   1.769  13.142  1.5232 -0.6623 -0.8887
 7838SOL    HW235151   3.980   1.776  13.287  0.1137 -1.2821  0.3257
 7839SOL     OW35152   0.137   4.084   7.400  0.0421  0.3053 -0.3443
 7839SOL    HW135153   0.143   4.179   7.407 -0.5918  0.2522  0.9756
 7839SOL    HW235154   0.050   4.069   7.439  0.4729 -0.5780  0.2818
 7840SOL     OW35155   1.091   3.429   3.053 -0.1465  0.5313  0.3165
 7840SOL    HW135156   1.046   3.353   3.089  0.2705  0.7329  1.2588
 7840SOL    HW235157   1.116   3.483   3.128  0.6411 -1.6359  1.6145
 7841SOL     OW35158   3.660   2.989   4.258 -0.3494 -0.6841 -0.4016
 7841SOL    HW135159   3.602   2.926   4.214 -1.3466  0.4502 -0.7257
 7841SOL    HW235160   3.704   2.932   4.321 -0.4422  1.2570  1.4306
 7842SOL     OW35161   0.639   0.881   4.974 -0.1586 -0.1053  0.0057
 7842SOL    HW135162   0.602   0.961   4.938 -0.3433 -0.5597 -0.8012
 7842SOL    HW235163   0.720   0.878   4.923 -0.0391 -0.1741  0.1964
 7843SOL     OW35164   4.099   2.518   7.585 -0.0057  0.4624  0.2362
 7843SOL    HW135165   4.044   2.460   7.639  1.2178 -3.1526 -2.4151
 7843SOL    HW235166   4.111   2.598   7.637  2.5556  1.1632 -1.4535
 7844SOL     OW35167   0.402   4.370   4.716  0.2928 -0.2182 -0.6372
 7844SOL    HW135168   0.432   4.313   4.646 -0.5544 -0.5918 -0.7007
 7844SOL    HW235169   0.418   4.316   4.793 -0.1916  1.9186  0.9572
 7845SOL     OW35170   2.840   0.386   7.115  0.8466  0.4485 -0.1878
 7845SOL    HW135171   2.836   0.291   7.101 -1.6426  0.4253  0.5564
 7845SOL    HW235172   2.746   0.404   7.120  0.7324  0.1618 -1.5625
 7846SOL     OW35173   0.601   2.182   7.318 -0.3778 -0.1138 -0.1774
 7846SOL    HW135174   0.512   2.156   7.293  1.5234 -4.3269 -2.5147
 7846SOL    HW235175   0.657   2.108   7.294 -1.7952 -2.1854  2.8993
 7847SOL     OW35176   2.223   1.313   2.754  0.6314 -0.6667 -0.1054
 7847SOL    HW135177   2.156   1.244   2.757 -0.3564  0.3083  0.1481
 7847SOL    HW235178   2.247   1.314   2.847 -1.4785  0.8851  0.4162
 7848SOL     OW35179   2.530   2.926  13.868 -0.1283 -0.3405  0.1713
 7848SOL    HW135180   2.440   2.944  13.843 -0.3271  0.5723  1.5359
 7848SOL    HW235181   2.523   2.923  13.963  1.2348 -4.0586  0.1616
 7849SOL     OW35182   2.690   3.660   7.080 -0.0229 -0.2674  0.1620
 7849SOL    HW135183   2.735   3.585   7.119 -0.6553  0.0262  1.4389
 7849SOL    HW235184   2.635   3.678   7.156 -1.2821  2.0702 -1.2973
 7850SOL     OW35185   0.960   2.538   5.556  0.4049 -0.6143  0.5452
 7850SOL    HW135186   1.006   2.455   5.571  1.0502  0.1374  2.7730
 7850SOL    HW235187   1.033   2.594   5.581  0.1429 -0.4269  0.8935
 7851SOL     OW35188   0.954   4.589  15.312 -0.1159  0.1237 -0.1957
 7851SOL    HW135189   0.976   4.598  15.219  0.7767  1.0153  0.1039
 7851SOL    HW235190   0.961   4.684  15.323  1.1250 -0.0203  0.1486
 7852SOL     OW35191   3.573   0.802  17.398 -0.0244 -0.4875 -0.2793
 7852SOL    HW135192   3.662   0.813  17.431 -0.2968  2.0589 -0.4062
 7852SOL    HW235193   3.542   0.746  17.469  1.4531 -0.9665 -0.0063
 7853SOL     OW35194   3.698   2.766   9.188  0.0157 -0.4056  0.4198
 7853SOL    HW135195   3.757   2.691   9.191 -0.6840 -1.0153 -1.5610
 7853SOL    HW235196   3.744   2.830   9.134  2.7869  0.1377  3.3691
 7854SOL     OW35197   3.591   0.081  14.885  0.2312 -0.3214 -0.7721
 7854SOL    HW135198   3.601   0.032  14.967 -1.5985 -0.7110 -0.7887
 7854SOL    HW235199   3.642   0.158  14.913 -1.2053  1.4677 -3.1078
 7855SOL     OW35200   2.783   3.367  15.727  0.3707  0.4401  0.0778
 7855SOL    HW135201   2.779   3.424  15.804  0.5387  0.5234  0.0236
 7855SOL    HW235202   2.701   3.317  15.731 -0.1294  1.3650  1.8881
 7856SOL     OW35203   1.095   2.582   1.707 -0.6295  0.3324  0.5635
 7856SOL    HW135204   1.001   2.599   1.703 -0.7232 -0.5317 -0.9473
 7856SOL    HW235205   1.098   2.494   1.744  0.4048  0.4806  0.8248
 7857SOL     OW35206   1.132   2.353   7.154 -0.2658 -0.0731 -0.6715
 7857SOL    HW135207   1.179   2.362   7.071 -0.0597 -0.3602 -0.5848
 7857SOL    HW235208   1.114   2.260   7.144  1.0059 -0.3240 -0.6247
 7858SOL     OW35209   2.526   0.782   4.763  0.2948  0.4151  0.5626
 7858SOL    HW135210   2.504   0.808   4.852  0.6258 -1.0130  1.0619
 7858SOL    HW235211   2.466   0.834   4.710  1.2620 -0.5227 -1.4580
 7859SOL     OW35212   0.044   2.752   8.416 -0.1563 -0.7429 -0.3414
 7859SOL    HW135213   0.002   2.787   8.495 -1.2666  0.9206 -1.6453
 7859SOL    HW235214   0.135   2.767   8.442 -0.1316  0.5825 -1.1858
 7860SOL     OW35215   2.434   0.165  11.851  0.2104  0.0007 -0.1591
 7860SOL    HW135216   2.466   0.192  11.765 -0.1603 -0.6122 -0.4872
 7860SOL    HW235217   2.517   0.175  11.897  0.2902 -0.4339 -0.2099
 7861SOL     OW35218   3.655   3.809   6.116 -0.0439 -0.4655 -0.7862
 7861SOL    HW135219   3.689   3.735   6.167  2.4032  1.1489 -0.0823
 7861SOL    HW235220   3.592   3.773   6.053 -0.5286 -0.7366 -0.1549
 7862SOL     OW35221   3.930   2.559   1.218 -0.4762 -0.5968 -0.4161
 7862SOL    HW135222   3.856   2.601   1.263 -0.6733 -0.5832 -0.7534
 7862SOL    HW235223   3.906   2.575   1.127  0.0856  0.3937 -0.3895
 7863SOL     OW35224   3.975   4.739   0.736  0.4373  0.0025 -0.2089
 7863SOL    HW135225   3.900   0.009   0.677  0.8778 -1.6054 -1.0237
 7863SOL    HW235226   3.928   0.012   0.819 -0.2021 -0.1414 -0.5484
 7864SOL     OW35227   0.179   1.434  10.478 -0.3569 -0.6363 -0.8158
 7864SOL    HW135228   0.197   1.362  10.418  1.8475  1.3501 -2.5410
 7864SOL    HW235229   0.136   1.385  10.548 -1.3407  1.1579 -0.1616
 7865SOL     OW35230   1.850   1.605  17.350 -0.2755  0.0622 -0.1013
 7865SOL    HW135231   1.926   1.656  17.324  0.0916 -0.6913 -0.4979
 7865SOL    HW235232   1.884   1.518  17.331  0.1970  0.5806 -1.6376
 7866SOL     OW35233   3.152   1.869   6.266  0.1470  0.2840 -0.3424
 7866SOL    HW135234   3.101   1.833   6.338  0.2513 -2.0714 -1.4565
 7866SOL    HW235235   3.212   1.797   6.246 -1.3859 -0.8939 -0.7301
 7867SOL     OW35236   4.266   2.244   5.935  0.3164 -0.6923 -0.3542
 7867SOL    HW135237   4.350   2.217   5.971 -2.0340 -2.7666  3.6509
 7867SOL    HW235238   4.296   2.293   5.859 -1.9212 -1.3274 -1.6335
 7868SOL     OW35239   4.260   0.174   6.991  0.1108  0.3145  0.0456
 7868SOL    HW135240   4.218   0.154   7.075 -3.7535 -0.2524 -2.0232
 7868SOL    HW235241   4.209   0.248   6.958 -1.3027 -0.5164  0.3910
 7869SOL     OW35242   2.789   4.720   6.235 -0.2030  0.3518 -0.2115
 7869SOL    HW135243   2.807   4.628   6.255  1.7211  0.8431  0.3224
 7869SOL    HW235244   2.745   4.734   6.318  0.1687  0.2491  0.0043
 7870SOL     OW35245   4.027   3.519   7.125 -0.3915 -0.6208  0.0828
 7870SOL    HW135246   4.096   3.543   7.187  0.2524  0.4371 -1.0568
 7870SOL    HW235247   3.964   3.586   7.151  1.5695  1.2794 -0.1171
 7871SOL     OW35248   2.556   4.104  10.198 -0.2716 -0.2697  0.1962
 7871SOL    HW135249   2.606   4.042  10.146  0.6952  0.5154  0.1786
 7871SOL    HW235250   2.564   4.184  10.147  1.7317 -0.8392 -0.4067
 7872SOL     OW35251   0.431   3.056   6.957  0.1844  0.0953  0.6989
 7872SOL    HW135252   0.504   3.007   6.919  1.3530  2.5144 -0.1776
 7872SOL    HW235253   0.364   2.989   6.975 -0.4530  0.1498 -1.3932
 7873SOL     OW35254   3.286   2.377   1.518  0.7231  0.0377  0.2887
 7873SOL    HW135255   3.211   2.350   1.571  0.5683 -1.8907 -0.9097
 7873SOL    HW235256   3.347   2.396   1.590  0.1070 -4.7976  2.0912
 7874SOL     OW35257   0.965   2.678   4.087 -0.2518 -0.0566 -0.2534
 7874SOL    HW135258   0.952   2.593   4.045  0.5858 -0.4279  0.2651
 7874SOL    HW235259   1.060   2.683   4.076 -0.5850  0.4025 -3.0100
 7875SOL     OW35260   4.010   2.991   4.213  0.0602 -0.2091 -0.1630
 7875SOL    HW135261   4.055   2.908   4.230 -0.1999 -0.2604  0.2874
 7875SOL    HW235262   3.950   2.965   4.143 -2.5806  0.7405  1.7676
 7876SOL     OW35263   0.539   0.290  10.852 -0.3382  0.2337  0.0626
 7876SOL    HW135264   0.575   0.235  10.782  2.7153  1.6576  0.5418
 7876SOL    HW235265   0.512   0.227  10.919 -1.6280  1.4470  0.6941
 7877SOL     OW35266   3.361   0.794   1.191 -0.5207  0.2502  0.0511
 7877SOL    HW135267   3.413   0.868   1.158  1.9582 -0.9977  1.2072
 7877SOL    HW235268   3.339   0.830   1.277  2.1448  1.8330  0.0687
 7878SOL     OW35269   2.864   1.890   2.028  0.6956 -0.1649 -0.2722
 7878SOL    HW135270   2.782   1.852   2.058 -0.7264  3.7560  0.9019
 7878SOL    HW235271   2.895   1.935   2.107 -0.9672  0.8088 -0.1769
 7879SOL     OW35272   1.746   1.709   9.210  0.1776 -0.0201  0.2481
 7879SOL    HW135273   1.686   1.639   9.185  1.6355 -0.6476 -1.4443
 7879SOL    HW235274   1.748   1.756   9.127  1.0640  2.3199  1.6104
 7880SOL     OW35275   4.370   1.000   6.064 -0.0354  0.7777  0.1631
 7880SOL    HW135276   4.403   0.919   6.023  0.7784  1.9896 -1.5819
 7880SOL    HW235277   4.449   1.027   6.110  1.7771 -0.6721 -2.0399
 7881SOL     OW35278   1.719   0.975   9.291  0.1827  0.5754 -0.1408
 7881SOL    HW135279   1.725   0.978   9.386  0.3189 -0.5888 -0.1091
 7881SOL    HW235280   1.662   0.901   9.271  1.3860 -0.9578  2.1367
 7882SOL     OW35281   3.834   0.425   7.826  0.3517 -0.2758 -0.1770
 7882SOL    HW135282   3.802   0.425   7.916 -0.1797 -0.3190 -0.3683
 7882SOL    HW235283   3.751   0.407   7.782  0.8171 -0.7933 -0.8441
 7883SOL     OW35284   2.016   3.847   1.706 -0.8737  0.6342 -0.1163
 7883SOL    HW135285   1.949   3.809   1.762 -0.2594 -1.6332 -0.9339
 7883SOL    HW235286   2.076   3.883   1.771  1.1742 -1.2592 -0.9562
 7884SOL     OW35287   4.664   4.665   0.290 -0.1818  0.3165  0.0605
 7884SOL    HW135288   4.670   0.004   0.235 -1.2280  0.1592 -0.2842
 7884SOL    HW235289   4.575   4.655   0.325 -1.2332  2.8002 -1.9133
 7885SOL     OW35290   2.068   0.288   3.849 -0.1785 -0.5682  0.3501
 7885SOL    HW135291   2.103   0.237   3.921 -0.4418  0.1722  1.0012
 7885SOL    HW235292   2.149   0.295   3.798 -0.8736 -2.1364 -0.9762
 7886SOL     OW35293   2.462   4.326   4.862 -0.5240  0.5742  0.4047
 7886SOL    HW135294   2.390   4.368   4.814 -0.5852  0.0242  0.0135
 7886SOL    HW235295   2.417   4.265   4.919 -1.2094  0.6242 -0.0811
 7887SOL     OW35296   3.342   1.057   2.384 -0.1601  0.1504 -0.1175
 7887SOL    HW135297   3.298   1.115   2.321 -2.4031  0.7114  1.9725
 7887SOL    HW235298   3.407   1.011   2.331  0.0206  0.5779 -0.2722
 7888SOL     OW35299   0.047   0.802   2.255  0.2214  0.1169  0.0260
 7888SOL    HW135300   4.716   0.763   2.204  1.3538 -1.6501 -0.1888
 7888SOL    HW235301   0.052   0.891   2.221  0.3669 -0.2933 -1.0405
 7889SOL     OW35302   3.987   0.306   3.354  0.0747 -0.6169  0.3870
 7889SOL    HW135303   3.997   0.226   3.406 -1.6215 -0.3312  1.1483
 7889SOL    HW235304   3.895   0.299   3.329  0.5209  0.2992 -1.4674
 7890SOL     OW35305   1.489   3.876   7.297 -0.0899  0.0973 -0.4002
 7890SOL    HW135306   1.462   3.817   7.367  3.3524 -1.0932 -0.0875
 7890SOL    HW235307   1.533   3.812   7.242 -0.2495  0.0436 -0.4675
 7891SOL     OW35308   2.190   4.678   7.736  0.0544  0.3639 -0.4677
 7891SOL    HW135309   2.135   4.726   7.798  0.3470 -1.2682  1.0496
 7891SOL    HW235310   2.190   4.734   7.658  1.3707  0.9049 -0.0858
 7892SOL     OW35311   1.899   0.508   7.027 -0.0851  0.3496  0.3795
 7892SOL    HW135312   1.904   0.512   7.122  0.5831 -1.9028  0.4427
 7892SOL    HW235313   1.870   0.593   6.995  0.1330  0.2357 -0.1251
 7893SOL     OW35314   1.298   3.886   3.174  0.3015  0.2667  0.5546
 7893SOL    HW135315   1.342   3.921   3.097  0.3958 -0.3169  0.3459
 7893SOL    HW235316   1.373   3.832   3.198 -1.1498 -1.9519  0.0795
 7894SOL     OW35317   4.125   2.741   7.713 -0.1919 -0.3961 -0.5982
 7894SOL    HW135318   4.066   2.785   7.774  0.4379  1.1882 -1.1386
 7894SOL    HW235319   4.212   2.778   7.729 -1.3417  0.8724  2.8086
 7895SOL     OW35320   2.306   2.094   1.298 -0.4913  0.3426  0.3552
 7895SOL    HW135321   2.400   2.095   1.314 -0.4273 -0.2661 -0.0024
 7895SOL    HW235322   2.294   2.150   1.222 -1.0667 -1.0353 -0.5772
 7896SOL     OW35323   4.737   4.044   1.356  0.0575  0.9034  0.5406
 7896SOL    HW135324   0.036   4.019   1.272 -0.2108 -1.0214  0.9782
 7896SOL    HW235325   0.081   4.050   1.403  0.9069 -0.9025 -0.7439
 7897SOL     OW35326   3.017   4.483  12.709 -0.4391 -0.3552  0.1647
 7897SOL    HW135327   3.049   4.545  12.644  2.5852 -0.2349  1.7928
 7897SOL    HW235328   3.053   4.402  12.673  1.0359  0.3471  0.0792
 7898SOL     OW35329   3.762   4.381  10.233  0.3025 -0.3457  0.2142
 7898SOL    HW135330   3.830   4.387  10.167  0.2581 -0.1448  0.1854
 7898SOL    HW235331   3.760   4.295  10.275 -0.4688 -0.5081 -0.1623
 7899SOL     OW35332   0.166   3.663  17.139  0.1793  0.0075  0.2655
 7899SOL    HW135333   0.130   3.580  17.111 -0.5621  0.9571 -1.5749
 7899SOL    HW235334   0.202   3.699  17.058  0.4697  0.4756  0.5949
 7900SOL     OW35335   0.925   0.100   4.015 -0.3613  0.6235  0.3929
 7900SOL    HW135336   0.850   0.102   3.955  0.3675  0.4136 -0.5316
 7900SOL    HW235337   0.896   0.045   4.087  0.0619 -0.8795 -0.5842
 7901SOL     OW35338   4.418   0.990   5.581 -0.2932  0.2945  0.0290
 7901SOL    HW135339   4.348   1.048   5.611 -0.3893 -0.4548  1.2624
 7901SOL    HW235340   4.363   0.913   5.595  0.5447 -0.9271 -3.2949
 7902SOL     OW35341   4.694   4.401   0.571 -0.8908 -0.2961 -0.1993
 7902SOL    HW135342   4.599   4.410   0.579 -1.0782  0.4034 -3.3544
 7902SOL    HW235343   4.696   4.305   0.570 -0.4238 -0.2878  0.1578
 7903SOL     OW35344   3.794   1.986   6.152  0.0894 -0.0551 -0.2489
 7903SOL    HW135345   3.729   2.049   6.183  0.8532  1.3381 -1.4482
 7903SOL    HW235346   3.874   2.037   6.136 -0.3903  0.8176  0.0990
 7904SOL     OW35347   2.757   2.284   4.804  0.7953 -0.1516 -0.4249
 7904SOL    HW135348   2.740   2.347   4.874  1.1759 -2.2441  1.5447
 7904SOL    HW235349   2.671   2.278   4.763  0.1959  0.1153  0.7871
 7905SOL     OW35350   1.136   1.120   2.962  0.3370 -0.0686  0.3543
 7905SOL    HW135351   1.095   1.042   3.000 -0.1091  0.1803  0.3769
 7905SOL    HW235352   1.106   1.114   2.871 -2.0397  0.3660  1.1047
 7906SOL     OW35353   0.990   3.039   7.882  0.1662  0.0809 -0.3519
 7906SOL    HW135354   1.028   3.028   7.969 -0.9243 -0.3208  0.0690
 7906SOL    HW235355   1.054   3.094   7.836  3.2001 -3.9974 -1.0581
 7907SOL     OW35356   4.385   4.097   2.968 -0.6868 -0.6212 -0.4499
 7907SOL    HW135357   4.302   4.077   2.924 -1.2612  1.0073 -0.1045
 7907SOL    HW235358   4.360   4.102   3.061  1.2390  0.7134 -0.0036
 7908SOL     OW35359   1.948   0.110   6.228 -0.6192 -0.2276 -0.0103
 7908SOL    HW135360   1.890   0.041   6.197  0.5973 -1.4960  0.5662
 7908SOL    HW235361   2.035   0.086   6.193 -0.4987 -0.4187  0.4278
 7909SOL     OW35362   1.959   4.083   2.189  0.0619 -0.3845  0.2894
 7909SOL    HW135363   1.906   4.057   2.264  0.9937 -1.3999  0.5953
 7909SOL    HW235364   1.954   4.003   2.137 -0.4013  0.6876 -1.3111
 7910SOL     OW35365   3.051   3.027   4.248 -0.1354 -0.7034  0.1723
 7910SOL    HW135366   3.139   3.058   4.225 -0.3719 -0.4004 -0.3228
 7910SOL    HW235367   3.009   3.052   4.166 -1.2280  1.1310  1.2903
 7911SOL     OW35368   3.358   0.053   7.824 -0.3874 -0.3453  0.1043
 7911SOL    HW135369   3.334   0.144   7.846  2.6460  0.4090  0.3204
 7911SOL    HW235370   3.374   0.065   7.731  0.8891 -1.7785  0.1458
 7912SOL     OW35371   4.439   0.926   3.218 -0.3927 -0.1543 -0.4189
 7912SOL    HW135372   4.521   0.944   3.263 -0.7348  0.2516  0.0398
 7912SOL    HW235373   4.380   0.993   3.253 -1.0961 -1.9181  1.7765
 7913SOL     OW35374   4.027   0.029   3.420 -0.0698 -0.4630  0.1722
 7913SOL    HW135375   3.974   4.726   3.487  0.0449 -1.7715 -0.5586
 7913SOL    HW235376   4.045   4.705   3.351  1.2723 -0.0092  0.0986
 7914SOL     OW35377   3.709   0.400   9.185 -0.1327 -0.2152 -0.1180
 7914SOL    HW135378   3.679   0.404   9.276 -0.2342  0.8751 -0.1966
 7914SOL    HW235379   3.781   0.462   9.181 -0.0985 -0.2069  0.6014
 7915SOL     OW35380   3.700   1.202   1.427  0.4913 -0.5998  0.5107
 7915SOL    HW135381   3.734   1.132   1.372  4.1132  2.4722 -1.1411
 7915SOL    HW235382   3.775   1.209   1.485  0.1728 -2.3026  1.1298
 7916SOL     OW35383   1.019   1.878  13.234 -0.2454  0.4956 -0.5555
 7916SOL    HW135384   0.953   1.878  13.164  1.2521  2.4149 -1.9618
 7916SOL    HW235385   1.028   1.973  13.244  1.0846  0.1670  1.2414
 7917SOL     OW35386   4.542   0.973  16.915  0.0755 -0.2685  0.1604
 7917SOL    HW135387   4.597   1.029  16.970 -1.0525  1.2250 -0.2434
 7917SOL    HW235388   4.606   0.910  16.882 -0.7221  0.4044 -2.6878
 7918SOL     OW35389   4.321   2.873   3.665  0.3923  0.0088 -0.0244
 7918SOL    HW135390   4.321   2.947   3.604 -0.6502  0.3405  0.3765
 7918SOL    HW235391   4.312   2.807   3.597  1.2548  0.8724 -0.9757
 7919SOL     OW35392   2.421   2.415  13.123 -0.0738 -0.0283 -0.1156
 7919SOL    HW135393   2.354   2.351  13.147 -1.0155  0.2867 -1.9130
 7919SOL    HW235394   2.425   2.401  13.028  1.3544 -1.2545  0.1274
 7920SOL     OW35395   4.149   4.408   5.885 -0.4248  0.1895  0.1055
 7920SOL    HW135396   4.080   4.468   5.859 -0.1007 -0.1067 -1.4136
 7920SOL    HW235397   4.146   4.394   5.980  2.0011  0.0405  0.1820
 7921SOL     OW35398   3.740   0.106   5.950  0.0583  0.0508 -1.0282
 7921SOL    HW135399   3.718   0.014   5.936  0.2435 -0.6170  2.9212
 7921SOL    HW235400   3.686   0.123   6.028  1.4735  1.3805 -0.3353
 7922SOL     OW35401   3.837   3.612   8.027 -0.2949  0.3894  0.4814
 7922SOL    HW135402   3.753   3.607   8.072 -0.3236 -1.1439  0.2654
 7922SOL    HW235403   3.896   3.584   8.098 -2.1780  0.3113  2.0008
 7923SOL     OW35404   2.683   3.558   4.987  0.3988 -0.1430 -0.0790
 7923SOL    HW135405   2.678   3.492   5.056 -2.0938  1.3244  1.1204
 7923SOL    HW235406   2.606   3.613   5.001 -0.0534 -1.2187  1.6575
 7924SOL     OW35407   1.582   3.547   7.830  0.3487 -0.5987  0.3576
 7924SOL    HW135408   1.587   3.457   7.862 -2.9725 -0.5628  1.0363
 7924SOL    HW235409   1.486   3.544   7.826  0.3068  2.4677 -0.9491
 7925SOL     OW35410   3.864   1.689   6.740  0.0568 -0.0457  0.1889
 7925SOL    HW135411   3.909   1.698   6.824 -0.8845  0.1668  0.6740
 7925SOL    HW235412   3.783   1.739   6.744 -0.5320 -0.9824 -0.1167
 7926SOL     OW35413   4.262   3.396   7.772  0.4359  0.3537  0.8434
 7926SOL    HW135414   4.190   3.443   7.732  0.0223 -1.7642 -0.9086
 7926SOL    HW235415   4.340   3.451   7.760  0.4697 -0.6797 -3.5634
 7927SOL     OW35416   3.197   4.073   7.846 -0.5290  0.1823 -0.2529
 7927SOL    HW135417   3.148   4.059   7.928  0.0269 -0.8578 -0.0997
 7927SOL    HW235418   3.231   4.162   7.854 -0.9126  0.2213  0.9576
 7928SOL     OW35419   2.974   2.185   2.036 -0.8602  0.2583  0.0081
 7928SOL    HW135420   2.916   2.113   2.060 -0.6317 -0.6614 -2.2295
 7928SOL    HW235421   3.031   2.182   2.113  0.9962  2.7545 -1.2944
 7929SOL     OW35422   3.824   2.229   9.049  0.2043  0.3469 -0.3234
 7929SOL    HW135423   3.884   2.300   9.070 -0.0481  0.7996 -1.1274
 7929SOL    HW235424   3.871   2.186   8.978  1.7183  3.3707 -1.1441
 7930SOL     OW35425   3.480   4.060  12.539  0.4286  0.2141 -0.2735
 7930SOL    HW135426   3.526   4.143  12.553  2.2188 -0.8241  0.0332
 7930SOL    HW235427   3.507   4.037  12.450  2.4078  0.3950  0.2826
 7931SOL     OW35428   0.810   3.586   4.989  0.0158 -0.4229  0.0954
 7931SOL    HW135429   0.845   3.574   4.901 -1.1368 -0.0768 -0.4049
 7931SOL    HW235430   0.773   3.499   5.006 -0.6734  0.0812  1.1996
 7932SOL     OW35431   2.977   1.722   4.850  0.0012 -0.6302  0.5417
 7932SOL    HW135432   2.943   1.651   4.905 -0.8562 -0.3024  0.4253
 7932SOL    HW235433   2.963   1.798   4.907  0.9796  0.9023 -1.2806
 7933SOL     OW35434   3.239   3.150   9.257 -0.1310  0.4483  0.5047
 7933SOL    HW135435   3.334   3.161   9.261 -0.0245 -0.0228 -0.9573
 7933SOL    HW235436   3.206   3.235   9.288 -1.8360 -0.0269 -0.0687
 7934SOL     OW35437   4.096   2.081  16.074  0.3204  0.1102  0.5649
 7934SOL    HW135438   4.044   2.022  16.020  1.6008 -2.1149  1.7680
 7934SOL    HW235439   4.025   2.143  16.092 -1.1246 -0.7251 -2.2583
 7935SOL     OW35440   2.378   0.135  16.193 -0.1560 -0.0616  0.2626
 7935SOL    HW135441   2.401   0.228  16.194  2.3019 -0.6259 -1.2461
 7935SOL    HW235442   2.370   0.110  16.101 -1.1381  0.9643  0.0817
 7936SOL     OW35443   4.504   0.386  14.619 -0.1269 -0.3597 -0.6528
 7936SOL    HW135444   4.553   0.454  14.665 -0.1987 -1.0700  0.4580
 7936SOL    HW235445   4.450   0.352  14.690 -0.6809 -0.6991 -1.2372
 7937SOL     OW35446   3.649   0.655   2.459 -0.4045  0.0302 -0.0325
 7937SOL    HW135447   3.611   0.669   2.546 -0.8980 -2.6867  0.1893
 7937SOL    HW235448   3.738   0.622   2.474  0.1397  0.5032 -2.2983
 7938SOL     OW35449   0.708   2.349   5.593  0.0614 -0.8188  0.2179
 7938SOL    HW135450   0.711   2.401   5.673 -3.2498  1.7720 -1.3358
 7938SOL    HW235451   0.671   2.405   5.525  0.4065 -0.2363  0.5158
 7939SOL     OW35452   2.379   0.931   4.602  0.3095 -0.3563 -0.0776
 7939SOL    HW135453   2.333   0.902   4.523 -0.0830  2.0979 -0.7521
 7939SOL    HW235454   2.456   0.978   4.569 -0.9901  0.4056 -1.9795
 7940SOL     OW35455   4.637   1.046   7.071 -0.7722  0.3803  0.3262
 7940SOL    HW135456   4.643   0.963   7.118  1.2449 -0.7963 -2.0400
 7940SOL    HW235457   4.548   1.081   7.078 -0.7722  0.3778  0.3399
 7941SOL     OW35458   2.768   0.206  13.834  0.4875  0.6448 -0.3448
 7941SOL    HW135459   2.800   0.126  13.875 -1.0706 -0.6073 -1.5905
 7941SOL    HW235460   2.782   0.274  13.900 -0.5227  1.7959 -1.2946
 7942SOL     OW35461   2.976   1.096   6.064 -0.8421  0.6381  0.0895
 7942SOL    HW135462   3.072   1.097   6.067 -0.9867  3.3972  3.3423
 7942SOL    HW235463   2.975   1.154   5.988  1.2322  1.0278  0.3420
 7943SOL     OW35464   1.186   2.195  13.682 -0.6942 -0.3920 -0.0923
 7943SOL    HW135465   1.208   2.257  13.612  1.3071 -1.9379 -0.8369
 7943SOL    HW235466   1.174   2.255  13.756 -0.5133  0.7534 -0.9964
 7944SOL     OW35467   0.645   2.565  17.340 -0.1165 -0.2562 -0.5439
 7944SOL    HW135468   0.646   2.471  17.359  1.2245 -0.0563  0.3906
 7944SOL    HW235469   0.721   2.563  17.282  0.3650 -1.5335  0.1229
 7945SOL     OW35470   3.370   4.392   3.866  0.0187 -0.1058 -0.1061
 7945SOL    HW135471   3.439   4.389   3.800 -1.1414 -1.3642 -1.2593
 7945SOL    HW235472   3.373   4.483   3.897  1.3807  0.7684 -2.8490
 7946SOL     OW35473   0.352   2.544  15.412 -0.1585  0.3216 -0.3620
 7946SOL    HW135474   0.334   2.451  15.395  0.4202  0.2437 -0.5236
 7946SOL    HW235475   0.415   2.569  15.345  1.0938 -1.1266  0.2860
 7947SOL     OW35476   0.179   0.780  14.960 -0.6118 -0.6618  0.1747
 7947SOL    HW135477   0.174   0.687  14.942 -0.4356 -0.2365 -2.1176
 7947SOL    HW235478   0.116   0.805  15.028 -2.1076 -1.0573 -1.0785
 7948SOL     OW35479   0.524   3.508   7.796  0.3871 -0.5891 -0.3004
 7948SOL    HW135480   0.428   3.504   7.791  0.4258  0.5882 -1.8846
 7948SOL    HW235481   0.527   3.486   7.889  2.5037 -3.0366 -0.9484
 7949SOL     OW35482   4.588   0.630   5.835 -0.0162  0.1378 -0.0844
 7949SOL    HW135483   4.493   0.635   5.838 -0.0451  0.0397 -1.0033
 7949SOL    HW235484   4.608   0.565   5.903 -0.8017 -0.9353 -0.9028
 7950SOL     OW35485   1.104   3.661   9.039  0.4494 -0.0579 -0.3730
 7950SOL    HW135486   1.041   3.634   9.105  1.5016  1.7778  1.3899
 7950SOL    HW235487   1.044   3.695   8.972  0.6267 -0.7863 -0.9015
 7951SOL     OW35488   0.233   2.277  12.301  0.1147  0.4019  0.4589
 7951SOL    HW135489   0.227   2.187  12.269 -0.8781  0.6565 -0.0866
 7951SOL    HW235490   0.172   2.326  12.246 -0.7185 -0.6663  0.4147
 7952SOL     OW35491   3.033   0.149   1.943 -0.7735  0.3861 -0.1493
 7952SOL    HW135492   2.971   0.097   1.892  0.0365  0.5843 -1.3321
 7952SOL    HW235493   3.020   0.240   1.916  0.4206  0.4292 -0.5720
 7953SOL     OW35494   1.456   2.818   3.791  0.3508  0.2473  0.0476
 7953SOL    HW135495   1.389   2.833   3.724 -1.3833  1.7990  2.1434
 7953SOL    HW235496   1.410   2.774   3.862  0.0539 -0.3059 -0.4852
 7954SOL     OW35497   1.467   3.250   6.737  0.4994 -0.0319  0.7225
 7954SOL    HW135498   1.499   3.324   6.789  0.0107 -0.6950  1.9618
 7954SOL    HW235499   1.372   3.255   6.748  0.5114 -0.3305  0.9435
 7955SOL     OW35500   4.149   1.623   0.097  0.2881  0.7060  0.1112
 7955SOL    HW135501   4.136   1.585   0.184  2.9152  0.4874  0.4036
 7955SOL    HW235502   4.071   1.585   0.056 -0.2954  2.0456 -0.0168
 7956SOL     OW35503   2.588   1.335   9.614 -0.2741  0.2769  0.3048
 7956SOL    HW135504   2.654   1.297   9.671 -0.2948  0.1917  0.2724
 7956SOL    HW235505   2.596   1.428   9.635  0.6126 -0.2362  2.1421
 7957SOL     OW35506   1.573   0.120   9.400 -0.0402 -0.5714 -0.4874
 7957SOL    HW135507   1.637   0.190   9.413  0.0046 -0.0939 -3.2356
 7957SOL    HW235508   1.629   0.045   9.420  1.0528  0.1218 -0.8953
 7958SOL     OW35509   3.298   1.970   2.383 -0.3001  1.0784 -0.3184
 7958SOL    HW135510   3.276   2.023   2.459 -0.7782 -0.7729  0.8292
 7958SOL    HW235511   3.224   1.915   2.357 -0.6985  0.4503  2.1864
 7959SOL     OW35512   2.494   2.984   3.390  0.0575  0.2749  0.1221
 7959SOL    HW135513   2.563   3.017   3.332  0.5937  0.2303  0.7306
 7959SOL    HW235514   2.525   3.012   3.477 -0.7260 -0.9941  0.8133
 7960SOL     OW35515   2.560   3.030   2.265  0.0185 -0.6799 -0.0895
 7960SOL    HW135516   2.599   3.117   2.259 -2.2586  0.2546 -1.1561
 7960SOL    HW235517   2.596   2.986   2.187  1.2785 -0.0844  0.1458
 7961SOL     OW35518   3.738   1.666   9.900  0.7542  0.3521 -0.1212
 7961SOL    HW135519   3.683   1.614   9.958 -0.5066  3.1839  1.2514
 7961SOL    HW235520   3.676   1.736   9.877  2.2159  1.2462 -1.3361
 7962SOL     OW35521   2.967   3.563   9.433  0.9185  0.6339 -0.2188
 7962SOL    HW135522   2.925   3.511   9.501 -0.7612  1.8701 -0.3378
 7962SOL    HW235523   2.977   3.646   9.479  1.7622  1.1088 -1.2346
 7963SOL     OW35524   0.084   3.688   6.700 -0.3630  0.1304  0.4490
 7963SOL    HW135525   0.019   3.663   6.634  1.0746 -0.6285 -0.6529
 7963SOL    HW235526   0.167   3.686   6.653 -1.0119  0.6523 -0.7290
 7964SOL     OW35527   0.547   4.208   0.725  0.0033  0.0373  0.6311
 7964SOL    HW135528   0.547   4.224   0.820  0.8812  1.4050  0.3922
 7964SOL    HW235529   0.461   4.245   0.705  0.9809  1.3098 -1.1642
 7965SOL     OW35530   0.574   2.780   2.445  0.5651  0.4216  0.0798
 7965SOL    HW135531   0.648   2.841   2.449  1.7969 -1.1532  1.9848
 7965SOL    HW235532   0.610   2.717   2.508 -3.3009 -1.1259  0.7744
 7966SOL     OW35533   0.498   3.979  16.584  0.2833  0.0627 -0.0276
 7966SOL    HW135534   0.480   3.898  16.536 -0.0247  0.2223 -0.1802
 7966SOL    HW235535   0.412   3.992  16.624 -0.6491 -2.4949 -1.1526
 7967SOL     OW35536   2.057   1.657   0.885 -0.1556  0.1461 -0.1161
 7967SOL    HW135537   2.081   1.679   0.795 -0.1690 -0.2962 -0.2262
 7967SOL    HW235538   2.009   1.575   0.873 -0.7916  0.2999  1.4176
 7968SOL     OW35539   0.783   2.317   0.477  0.0715  0.2338  0.0039
 7968SOL    HW135540   0.784   2.285   0.567 -1.1592 -3.6379 -1.3761
 7968SOL    HW235541   0.838   2.252   0.433  0.7535 -0.1213  1.4010
 7969SOL     OW35542   2.831   2.193  14.551  0.3239 -0.4684  0.0727
 7969SOL    HW135543   2.831   2.205  14.646 -3.2978  1.0321 -0.1354
 7969SOL    HW235544   2.785   2.109  14.544 -1.0934  0.3638 -0.5906
 7970SOL     OW35545   2.110   1.728  15.764 -0.4709 -0.0546  0.3295
 7970SOL    HW135546   2.102   1.642  15.723  0.3338 -0.7482  1.6401
 7970SOL    HW235547   2.191   1.718  15.813  0.7607 -0.4629 -1.7695
 7971SOL     OW35548   2.345   2.771   7.252  0.4033 -0.4185 -0.5064
 7971SOL    HW135549   2.360   2.866   7.242 -0.8843 -0.1498  0.1948
 7971SOL    HW235550   2.298   2.755   7.333  0.9740  0.4688  0.0055
 7972SOL     OW35551   1.470   2.309   2.224 -0.0180  0.0671  0.0072
 7972SOL    HW135552   1.449   2.383   2.168 -1.5903 -0.4572 -0.0862
 7972SOL    HW235553   1.561   2.288   2.204 -0.4050 -0.8597 -0.7882
 7973SOL     OW35554   4.420   3.557   6.509  0.2427  0.0734  0.2073
 7973SOL    HW135555   4.403   3.465   6.487 -0.1994  0.0223  0.7259
 7973SOL    HW235556   4.385   3.577   6.596  1.0367  1.1910  0.2551
 7974SOL     OW35557   4.295   0.731   5.583  0.5297  0.0096  0.0240
 7974SOL    HW135558   4.241   0.653   5.591 -0.4380  0.5861 -0.9914
 7974SOL    HW235559   4.326   0.724   5.493 -0.4436 -0.6295 -0.2557
 7975SOL     OW35560   2.592   0.228  11.627  0.3477  0.2033  0.0959
 7975SOL    HW135561   2.618   0.320  11.618  1.7880  0.2323  4.4246
 7975SOL    HW235562   2.598   0.199  11.536  0.6554 -2.6738  1.0356
 7976SOL     OW35563   0.851   0.537  12.800  0.2595  0.3850  0.4957
 7976SOL    HW135564   0.869   0.554  12.708  0.7993  0.7788  0.6756
 7976SOL    HW235565   0.831   0.443  12.791 -2.6655  1.1396 -0.7530
 7977SOL     OW35566   3.118   4.053   4.774  0.4070 -0.3514 -0.0054
 7977SOL    HW135567   3.162   4.040   4.690  2.3230 -0.5684  1.0225
 7977SOL    HW235568   3.172   4.115   4.823  1.9259 -0.4574 -1.5709
 7978SOL     OW35569   1.762   0.512   5.867  0.6692  0.1528  0.2645
 7978SOL    HW135570   1.690   0.472   5.818 -0.0868 -0.7580  2.1191
 7978SOL    HW235571   1.824   0.440   5.884 -0.8125 -0.7298  2.0039
 7979SOL     OW35572   2.884   4.431   6.251 -0.8732 -0.1840  0.1418
 7979SOL    HW135573   2.968   4.410   6.292 -0.6666  1.9016  0.7629
 7979SOL    HW235574   2.889   4.359   6.188 -2.0092  0.5884 -0.8370
 7980SOL     OW35575   0.801   1.118  11.840  0.8136 -0.1045 -0.0425
 7980SOL    HW135576   0.741   1.074  11.780  1.1282  1.6492 -1.6129
 7980SOL    HW235577   0.742   1.133  11.915  0.6790 -0.5970 -0.0483
 7981SOL     OW35578   4.000   0.627   8.608  0.1139  0.1855  0.0099
 7981SOL    HW135579   4.070   0.606   8.670  0.2652  0.6527 -0.0067
 7981SOL    HW235580   4.043   0.695   8.556 -1.6332  1.4535  0.2261
 7982SOL     OW35581   0.319   3.691   7.503  0.5921  0.6066  0.1874
 7982SOL    HW135582   0.331   3.597   7.487 -0.9471  0.2526  1.1328
 7982SOL    HW235583   0.332   3.722   7.413 -1.1693  0.1892 -0.2005
 7983SOL     OW35584   0.251   2.358   3.242 -0.2655 -0.3796  0.5854
 7983SOL    HW135585   0.296   2.300   3.182 -1.6950 -1.6770  0.7554
 7983SOL    HW235586   0.222   2.295   3.308 -0.2086 -1.0431 -0.0216
 7984SOL     OW35587   2.737   2.205   9.462 -0.0175  0.1959  0.0418
 7984SOL    HW135588   2.818   2.177   9.502 -1.3115 -1.6874  1.3388
 7984SOL    HW235589   2.772   2.224   9.375 -1.5703 -0.8597 -0.8236
 7985SOL     OW35590   2.994   3.616   5.882 -0.3201  0.1693 -0.2672
 7985SOL    HW135591   3.068   3.569   5.843 -0.8750 -2.6829  2.1135
 7985SOL    HW235592   3.020   3.707   5.896 -0.1878  0.1214 -0.2015
 7986SOL     OW35593   3.276   3.722   3.222  0.1333  0.3391 -0.3432
 7986SOL    HW135594   3.282   3.670   3.301 -1.6224  0.9186  0.1555
 7986SOL    HW235595   3.314   3.804   3.254 -0.6086 -0.1930  1.8737
 7987SOL     OW35596   0.651   1.323   4.331  0.2396 -0.5353 -0.0523
 7987SOL    HW135597   0.559   1.344   4.350  0.5076  1.0931 -0.4882
 7987SOL    HW235598   0.661   1.233   4.362 -0.4798 -0.3306  0.7655
 7988SOL     OW35599   0.574   2.719   5.671  0.0086  0.2109  0.0247
 7988SOL    HW135600   0.669   2.722   5.680  0.0390 -0.7417  0.0302
 7988SOL    HW235601   0.555   2.792   5.730  1.9544  0.2343  0.6150
 7989SOL     OW35602   2.349   1.636  12.918  0.2164  0.2969 -0.7012
 7989SOL    HW135603   2.350   1.618  13.012  2.2300 -3.0249 -1.3581
 7989SOL    HW235604   2.381   1.554  12.880  0.6198  0.2672 -0.2937
 7990SOL     OW35605   1.550   1.358   3.829 -0.7209 -0.9046  0.1192
 7990SOL    HW135606   1.633   1.406   3.827 -1.1929  0.0361  2.8348
 7990SOL    HW235607   1.559   1.326   3.918  0.8732 -2.6509 -0.6893
 7991SOL     OW35608   3.202   2.746   2.172  0.2914  0.3592  0.7518
 7991SOL    HW135609   3.248   2.825   2.143  0.4004 -0.0234 -0.1229
 7991SOL    HW235610   3.227   2.744   2.264  1.5378 -1.5710  0.3775
 7992SOL     OW35611   3.501   2.802   4.524 -0.9941  0.0516 -0.1316
 7992SOL    HW135612   3.585   2.823   4.483  1.7831 -2.9915  3.9699
 7992SOL    HW235613   3.508   2.859   4.602 -0.7496  1.6969 -1.3581
 7993SOL     OW35614   0.641   0.765   2.745  0.6850 -0.1759  0.4443
 7993SOL    HW135615   0.670   0.836   2.689  0.1760  0.0493  0.4708
 7993SOL    HW235616   0.590   0.718   2.678  1.2373  0.2591 -0.2727
 7994SOL     OW35617   3.475   0.407   7.198  0.4766  0.2351  0.5029
 7994SOL    HW135618   3.556   0.418   7.148  0.2723  1.3295  0.4072
 7994SOL    HW235619   3.467   0.312   7.204 -1.5864  0.5028  2.2261
 7995SOL     OW35620   1.205   2.785  11.856 -0.1125  0.5932 -0.3958
 7995SOL    HW135621   1.279   2.742  11.813 -0.9343 -0.2687 -0.9391
 7995SOL    HW235622   1.243   2.781  11.944 -0.0149 -0.1652 -0.4724
 7996SOL     OW35623   0.835   1.824   8.350  1.0445 -0.7801  0.5030
 7996SOL    HW135624   0.849   1.748   8.294 -2.8929 -0.9684 -0.2168
 7996SOL    HW235625   0.818   1.897   8.290 -0.5281 -0.8744  0.8426
 7997SOL     OW35626   4.153   2.733   3.487  0.2271  0.1754  0.0616
 7997SOL    HW135627   4.068   2.777   3.481 -0.5878 -1.1618  2.2654
 7997SOL    HW235628   4.124   2.643   3.485 -0.2940  0.4020 -3.5837
 7998SOL     OW35629   0.820   4.641   8.498 -0.0950  0.0201  0.4208
 7998SOL    HW135630   0.880   4.610   8.566 -1.4018  1.2633  2.1555
 7998SOL    HW235631   0.884   4.664   8.430 -0.4433 -1.5188 -0.4377
 7999SOL     OW35632   3.725   0.564   2.848 -0.0485 -0.0380 -0.4019
 7999SOL    HW135633   3.674   0.498   2.894 -0.0218  2.8529  3.7768
 7999SOL    HW235634   3.809   0.549   2.890 -0.5408  0.5126  0.7828
 8000SOL     OW35635   3.597   3.380  10.813 -0.3316  0.6997  0.2103
 8000SOL    HW135636   3.599   3.475  10.797  0.8027  0.6736  0.1564
 8000SOL    HW235637   3.645   3.379  10.896  2.5562  1.5631 -1.4284
 8001SOL     OW35638   2.862   3.187   7.586  0.2287  0.1603  0.6045
 8001SOL    HW135639   2.853   3.106   7.636  3.7505 -0.1611  0.7061
 8001SOL    HW235640   2.790   3.240   7.623 -2.0294 -2.4413 -0.0464
 8002SOL     OW35641   4.624   3.771   3.109  0.4441 -0.4972 -0.0529
 8002SOL    HW135642   4.569   3.693   3.121 -0.8787  0.4736  0.1617
 8002SOL    HW235643   4.615   3.820   3.190  1.9094 -1.5572  0.7644
 8003SOL     OW35644   0.442   0.971  11.326 -0.8799  0.2562  0.3977
 8003SOL    HW135645   0.353   0.942  11.347 -0.6414 -2.1216 -1.7935
 8003SOL    HW235646   0.453   1.040  11.391 -1.6442  0.9006 -0.1529
 8004SOL     OW35647   4.550   3.545   9.975 -0.3819  0.0051 -0.0589
 8004SOL    HW135648   4.553   3.456  10.008  0.0749  1.3348  3.4855
 8004SOL    HW235649   4.539   3.586  10.061  0.6688  1.2341 -0.4997
 8005SOL     OW35650   2.158   2.090   8.440  0.0068 -0.5597 -0.9654
 8005SOL    HW135651   2.246   2.077   8.404  1.3794  2.6637  1.1829
 8005SOL    HW235652   2.127   2.000   8.439 -0.8895 -0.2834  4.6072
 8006SOL     OW35653   3.902   2.963   6.765  0.2202 -0.0378  0.4386
 8006SOL    HW135654   3.859   2.942   6.849  0.7292 -1.1282  0.4272
 8006SOL    HW235655   3.873   3.053   6.750 -0.9660 -0.8200 -2.0302
 8007SOL     OW35656   0.364   2.548  11.407 -0.4312 -0.1112 -0.1901
 8007SOL    HW135657   0.434   2.483  11.398 -1.3459 -0.9349 -1.2977
 8007SOL    HW235658   0.394   2.599  11.482 -0.6595 -1.5012  0.8279
 8008SOL     OW35659   1.110   0.032  16.475  0.5681  0.3539  0.2714
 8008SOL    HW135660   1.197   0.060  16.446  0.5489  1.2040  1.0759
 8008SOL    HW235661   1.124   4.724  16.557  2.3728 -0.4662 -0.4893
 8009SOL     OW35662   0.553   2.494  16.106  0.4881  0.5292 -0.4931
 8009SOL    HW135663   0.507   2.577  16.090 -0.7744 -0.0253  0.2857
 8009SOL    HW235664   0.627   2.518  16.051 -1.7936  0.9119 -3.3839
 8010SOL     OW35665   1.859   3.851   4.039  0.3838 -0.5485  0.0281
 8010SOL    HW135666   1.836   3.775   4.093  1.6421 -0.6677  0.4095
 8010SOL    HW235667   1.915   3.807   3.974  0.3262  1.1447 -1.1511
 8011SOL     OW35668   3.480   4.115  17.465  0.3813 -0.1249  0.6902
 8011SOL    HW135669   3.421   4.093  17.537  0.9015 -1.5645  0.6866
 8011SOL    HW235670   3.566   4.107  17.505  1.4359 -0.0427 -1.5713
 8012SOL     OW35671   1.842   0.066   4.920 -0.8448 -0.3956 -0.1843
 8012SOL    HW135672   1.770   0.009   4.894 -1.4528  0.0862  0.4433
 8012SOL    HW235673   1.914   0.011   4.951  1.1198  0.3645 -3.3627
 8013SOL     OW35674   1.964   0.655   0.684 -0.3497  0.6097  0.3706
 8013SOL    HW135675   2.003   0.627   0.601 -2.0389  0.8082 -0.4946
 8013SOL    HW235676   1.899   0.585   0.691  0.3200 -0.0011  0.4736
 8014SOL     OW35677   0.001   0.035   9.097  0.0109 -0.1487  0.1285
 8014SOL    HW135678   0.025   0.124   9.122 -0.6704  0.7602 -2.4300
 8014SOL    HW235679   4.711   4.738   9.181 -0.7785 -1.3770 -0.6727
 8015SOL     OW35680   1.423   1.375  11.493  0.3510  0.5843  0.2465
 8015SOL    HW135681   1.368   1.389  11.417 -0.0428  2.6772  0.9307
 8015SOL    HW235682   1.377   1.419  11.564 -1.9593 -0.1033 -0.8351
 8016SOL     OW35683   2.629   0.484   4.117 -0.6124 -0.2236  0.0731
 8016SOL    HW135684   2.639   0.534   4.197 -0.4357  1.7767 -1.2040
 8016SOL    HW235685   2.547   0.515   4.078 -0.3504  1.9050  1.2830
 8017SOL     OW35686   3.113   1.340   4.459  0.4320 -0.0273  0.0659
 8017SOL    HW135687   3.176   1.391   4.510  0.8727  0.0147 -0.5167
 8017SOL    HW235688   3.139   1.252   4.486  1.5382 -0.2555 -1.7225
 8018SOL     OW35689   4.553   4.223   4.686  0.2031 -0.1215 -0.8180
 8018SOL    HW135690   4.564   4.184   4.599 -1.4729 -1.8960 -0.2279
 8018SOL    HW235691   4.481   4.285   4.674  1.6265  2.3452  3.4542
 8019SOL     OW35692   1.687   3.076   2.354 -0.4777  0.3392  0.3910
 8019SOL    HW135693   1.780   3.077   2.330 -0.6368 -0.4351 -0.2883
 8019SOL    HW235694   1.673   3.132   2.429  0.6651  0.0194  0.8444
 8020SOL     OW35695   4.303   3.865   6.397 -0.3795 -0.4822 -0.3549
 8020SOL    HW135696   4.253   3.891   6.474 -2.1050 -0.1133 -1.5935
 8020SOL    HW235697   4.276   3.931   6.333  2.1337  0.2093 -0.6853
 8021SOL     OW35698   0.547   0.281   8.512  0.3383 -0.1543 -0.1490
 8021SOL    HW135699   0.610   0.210   8.523  1.3520  0.6517 -0.7603
 8021SOL    HW235700   0.585   0.347   8.569 -0.7550  0.0357  0.3463
 8022SOL     OW35701   1.420   1.458   2.721  0.1098  0.0994 -0.2536
 8022SOL    HW135702   1.348   1.513   2.751 -0.4871  1.1933 -3.6885
 8022SOL    HW235703   1.456   1.411   2.796 -0.9724 -3.2015 -1.7893
 8023SOL     OW35704   3.423   4.125   2.127  0.3408  0.0613 -0.3262
 8023SOL    HW135705   3.402   4.213   2.160 -1.8194 -0.0155 -1.4915
 8023SOL    HW235706   3.406   4.079   2.208  3.4474 -1.7059 -0.6992
 8024SOL     OW35707   3.787   3.068   2.533  0.5905  0.5802 -0.1298
 8024SOL    HW135708   3.808   3.159   2.511 -0.9009  1.2395  1.1889
 8024SOL    HW235709   3.821   3.029   2.453  0.4383  0.3802 -0.0957
 8025SOL     OW35710   1.744   1.931   7.422 -0.4323 -0.3698  0.2932
 8025SOL    HW135711   1.773   2.015   7.458  1.7471 -0.2217 -1.7994
 8025SOL    HW235712   1.825   1.887   7.395 -0.0077 -0.2963  1.4598
 8026SOL     OW35713   3.043   4.067  16.058  0.1627 -0.2165  0.5938
 8026SOL    HW135714   2.960   4.100  16.024  0.6507 -0.1893 -0.5963
 8026SOL    HW235715   3.009   4.005  16.123  3.7244 -1.9480  0.7943
 8027SOL     OW35716   3.560   0.438   7.782  0.3927  0.7397 -0.1459
 8027SOL    HW135717   3.494   0.397   7.838 -0.6066 -0.6910 -2.3404
 8027SOL    HW235718   3.524   0.519   7.745  0.4698  0.3653 -1.0508
 8028SOL     OW35719   4.430   1.603   9.148  0.6295 -0.0048 -0.4445
 8028SOL    HW135720   4.347   1.593   9.195 -0.1759  1.7153 -1.5027
 8028SOL    HW235721   4.457   1.512   9.137  0.7117 -0.4882  4.0124
 8029SOL     OW35722   1.722   0.483   5.236 -0.1853  0.2299 -0.1457
 8029SOL    HW135723   1.653   0.515   5.295  1.3402  0.9276  1.2927
 8029SOL    HW235724   1.676   0.487   5.153  1.2071 -0.4226 -0.9495
 8030SOL     OW35725   3.535   1.971  10.340  0.4251  0.2438  0.4509
 8030SOL    HW135726   3.622   1.930  10.343 -0.0346 -0.9289 -1.8066
 8030SOL    HW235727   3.506   1.984  10.249  1.2320  1.3059  0.3527
 8031SOL     OW35728   4.579   3.958  17.056 -0.4857  0.4687  0.3933
 8031SOL    HW135729   4.529   4.013  16.995 -2.1422 -2.5543 -0.9841
 8031SOL    HW235730   4.515   3.956  17.128 -2.8649 -1.4097 -1.7809
 8032SOL     OW35731   1.914   0.024   3.715 -0.4304  0.0714  0.2019
 8032SOL    HW135732   1.935   0.086   3.784  1.4861 -1.1190  0.6918
 8032SOL    HW235733   1.905   0.074   3.633  0.4614  0.2368  0.2059
 8033SOL     OW35734   3.040   3.908  11.940  0.2350  0.6361  0.5278
 8033SOL    HW135735   3.060   3.874  11.853 -0.4700  0.1330  0.5715
 8033SOL    HW235736   3.069   4.000  11.941 -2.3874  1.4587 -0.0344
 8034SOL     OW35737   0.585   1.125   4.029 -0.2059  0.4371  0.9945
 8034SOL    HW135738   0.585   1.148   3.936  0.0559  1.3628  1.2251
 8034SOL    HW235739   0.609   1.208   4.070  0.8946  0.7319 -0.2561
 8035SOL     OW35740   2.118   0.866   0.467 -0.5394 -0.6245 -0.6318
 8035SOL    HW135741   2.080   0.785   0.432 -0.7059 -1.2711  1.0469
 8035SOL    HW235742   2.097   0.853   0.560  2.2441  1.6223  0.3144
 8036SOL     OW35743   1.475   1.549   7.545 -0.0210  0.0093  0.4675
 8036SOL    HW135744   1.530   1.614   7.500  0.3716 -1.0472 -0.5871
 8036SOL    HW235745   1.532   1.524   7.618 -1.9448 -1.7731  1.3361
 8037SOL     OW35746   2.652   2.907   8.762  0.2808 -0.5131  0.5239
 8037SOL    HW135747   2.652   2.840   8.830 -1.7518 -2.3205 -1.2308
 8037SOL    HW235748   2.627   2.853   8.687 -0.9151 -1.9628  1.9552
 8038SOL     OW35749   4.218   2.672   6.108 -0.0996 -0.2199  0.0253
 8038SOL    HW135750   4.291   2.615   6.131  1.3043  1.5649  0.0437
 8038SOL    HW235751   4.155   2.613   6.068 -0.3762  0.0872  0.0028
 8039SOL     OW35752   0.525   1.882   7.614  0.1966 -0.2806 -0.3013
 8039SOL    HW135753   0.445   1.905   7.565 -1.4391 -2.2091  1.4839
 8039SOL    HW235754   0.568   1.808   7.572  1.5709 -0.2467  1.0505
 8040SOL     OW35755   1.789   4.466   4.492  0.2740  0.4060 -0.3000
 8040SOL    HW135756   1.871   4.461   4.444 -0.1104  0.4885 -0.9607
 8040SOL    HW235757   1.823   4.479   4.581 -4.5504 -0.5866  1.7011
 8041SOL     OW35758   2.452   4.402   6.778  0.3230  0.1421 -0.2557
 8041SOL    HW135759   2.433   4.495   6.785 -0.9737 -0.2198  0.9534
 8041SOL    HW235760   2.431   4.386   6.870 -1.8108 -1.7086 -1.0578
 8042SOL     OW35761   2.154   1.647   9.029  0.9322  0.0364 -0.1867
 8042SOL    HW135762   2.111   1.610   9.106  3.2174 -2.7165 -0.2488
 8042SOL    HW235763   2.242   1.663   9.063  0.7876 -0.7664  0.5571
 8043SOL     OW35764   2.620   1.312   7.479 -0.1094 -0.6332  0.2113
 8043SOL    HW135765   2.657   1.352   7.400 -2.4848  0.3107 -0.4160
 8043SOL    HW235766   2.664   1.229   7.460 -0.5948 -0.9261  0.3656
 8044SOL     OW35767   3.743   4.177  17.252 -0.3946  0.2771 -0.3630
 8044SOL    HW135768   3.722   4.240  17.321 -0.4835 -0.6784  0.4728
 8044SOL    HW235769   3.655   4.178  17.215  0.3971  1.9195 -2.2537
 8045SOL     OW35770   4.020   1.312  17.412  0.5407  0.3490  0.2546
 8045SOL    HW135771   4.013   1.401  17.445 -0.6058  0.8113 -1.2449
 8045SOL    HW235772   4.031   1.336  17.320  1.4595  0.9882  0.5269
 8046SOL     OW35773   1.031   2.316   8.218  0.3871  0.4976  0.1676
 8046SOL    HW135774   1.040   2.381   8.148  1.6011  0.8821  0.6806
 8046SOL    HW235775   1.076   2.241   8.178 -0.8386  0.0722 -0.3955
 8047SOL     OW35776   0.913   4.047   9.072 -0.5480  0.0519 -0.1698
 8047SOL    HW135777   0.821   4.020   9.066  0.3895 -2.7103 -2.2717
 8047SOL    HW235778   0.952   3.999   8.999  0.2284  0.8555 -0.2781
 8048SOL     OW35779   4.276   2.130   3.157  0.2242  0.0701  0.1808
 8048SOL    HW135780   4.368   2.107   3.142 -0.0188 -1.5934  1.1972
 8048SOL    HW235781   4.245   2.119   3.067 -0.2182 -0.0375  0.3453
 8049SOL     OW35782   4.258   2.835   1.830 -0.4463 -0.3483 -0.7142
 8049SOL    HW135783   4.298   2.892   1.895 -0.0491  1.1145 -2.2246
 8049SOL    HW235784   4.276   2.889   1.753  2.1532  2.6940  2.0223
 8050SOL     OW35785   2.742   4.637   2.882  0.5554 -0.5505  0.4082
 8050SOL    HW135786   2.688   4.575   2.931  0.9778 -0.6679  0.7249
 8050SOL    HW235787   2.776   4.569   2.823  4.3492  1.0966  0.7250
 8051SOL     OW35788   1.571   4.398   5.527 -0.2408  0.4855  0.0925
 8051SOL    HW135789   1.663   4.422   5.538  0.1375  0.7955 -3.7051
 8051SOL    HW235790   1.530   4.454   5.593 -0.1323  1.1529 -0.3973
 8052SOL     OW35791   2.021   3.774  17.073  0.6431 -0.7667  0.7718
 8052SOL    HW135792   2.083   3.798  17.004  0.9365 -0.6056  1.0936
 8052SOL    HW235793   1.991   3.691  17.034 -1.8766  0.1333  0.7848
 8053SOL     OW35794   0.062   2.552  14.123 -0.0759 -0.2805 -0.0813
 8053SOL    HW135795   4.733   2.525  14.061 -0.0143 -0.0662 -0.2432
 8053SOL    HW235796   0.033   2.642  14.140  1.1133  0.0632  0.0745
 8054SOL     OW35797   1.259   1.937  13.605  0.1054 -0.1762  0.5976
 8054SOL    HW135798   1.235   2.024  13.635 -2.2262  0.5954 -3.4634
 8054SOL    HW235799   1.258   1.950  13.510 -1.3339 -1.5305  0.4205
 8055SOL     OW35800   1.613   3.838  10.612  0.6612  0.1929  0.0409
 8055SOL    HW135801   1.642   3.755  10.652 -1.6214 -1.3798 -1.5473
 8055SOL    HW235802   1.518   3.832  10.624  0.5900 -1.6535 -1.3482
 8056SOL     OW35803   1.747   3.400   2.198 -0.8370 -0.4572  0.0292
 8056SOL    HW135804   1.691   3.436   2.268 -1.9179  2.4655 -2.3184
 8056SOL    HW235805   1.735   3.460   2.125  1.3886 -0.4300 -0.2987
 8057SOL     OW35806   0.268   0.924  16.583  0.2872  0.1418 -0.5286
 8057SOL    HW135807   0.331   0.858  16.553  1.4170  0.8183  0.3403
 8057SOL    HW235808   0.252   0.961  16.496 -1.0798 -0.0185 -0.3502
 8058SOL     OW35809   2.291   3.343   4.803 -0.1075  0.1496 -0.0333
 8058SOL    HW135810   2.313   3.269   4.859  3.9285  0.6326 -0.9257
 8058SOL    HW235811   2.204   3.351   4.842  0.3248 -0.0228  0.9540
 8059SOL     OW35812   2.045   2.782   9.062  0.1622 -0.3585 -0.7267
 8059SOL    HW135813   2.038   2.794   8.967  0.4552  0.1593 -0.6880
 8059SOL    HW235814   2.132   2.821   9.077 -0.2914  0.4583 -0.2358
 8060SOL     OW35815   4.653   4.400   5.324 -0.5446 -0.2082  0.7811
 8060SOL    HW135816   4.650   4.493   5.302  1.2309 -0.3956 -0.2184
 8060SOL    HW235817   4.727   4.387   5.382  0.5114  0.1725 -0.4978
 8061SOL     OW35818   1.510   0.880   1.248  0.2738 -0.1624 -0.1227
 8061SOL    HW135819   1.605   0.881   1.260  0.4115 -3.9340 -0.8553
 8061SOL    HW235820   1.476   0.828   1.321 -0.7279  3.5087  2.0313
 8062SOL     OW35821   1.850   2.752   6.486 -0.2384  0.6993 -0.3038
 8062SOL    HW135822   1.882   2.680   6.432  0.6461  1.0028 -0.1851
 8062SOL    HW235823   1.928   2.765   6.540  0.5145  0.8129 -1.4147
 8063SOL     OW35824   1.412   3.670   5.541  0.1879 -0.2942  0.5535
 8063SOL    HW135825   1.395   3.764   5.532  3.7529  0.4396  1.5269
 8063SOL    HW235826   1.402   3.647   5.449 -2.7914 -0.9421  1.0389
 8064SOL     OW35827   1.235   0.539   2.519  0.1546  0.5239 -0.2540
 8064SOL    HW135828   1.193   0.457   2.496  0.9267 -0.0963  0.5422
 8064SOL    HW235829   1.223   0.570   2.430  0.4154  1.8592  0.1745
 8065SOL     OW35830   3.979   0.987  14.297 -0.4668 -0.0629  0.3573
 8065SOL    HW135831   4.023   0.932  14.362  0.0820 -0.1833 -0.1132
 8065SOL    HW235832   3.964   1.054  14.363 -1.8003 -0.5083  0.4954
 8066SOL     OW35833   1.876   0.058   8.352 -0.1428  0.1138 -0.1926
 8066SOL    HW135834   1.969   0.036   8.347  0.3974  2.2890  0.6069
 8066SOL    HW235835   1.855   0.051   8.259  0.7263 -3.7517 -0.1165
 8067SOL     OW35836   3.372   3.661   0.954 -0.4572  0.3291  0.0163
 8067SOL    HW135837   3.445   3.670   1.016 -0.1596  2.7710 -0.6901
 8067SOL    HW235838   3.373   3.744   0.908 -1.4582  0.3188 -0.0082
 8068SOL     OW35839   3.786   0.609   4.514  0.4894  0.0992 -0.5517
 8068SOL    HW135840   3.720   0.677   4.499  0.5014  0.3425  0.4843
 8068SOL    HW235841   3.751   0.556   4.586 -0.2338  0.5186 -0.5842
 8069SOL     OW35842   4.449   1.683  10.182 -0.5294  0.2029  0.2959
 8069SOL    HW135843   4.482   1.661  10.095 -0.1285  2.4940 -0.1375
 8069SOL    HW235844   4.360   1.709  10.157 -0.4159 -0.6044 -0.8976
 8070SOL     OW35845   4.072   0.361   3.940 -0.6978  0.3670 -0.2566
 8070SOL    HW135846   3.982   0.391   3.948 -0.0080  1.9669  1.6293
 8070SOL    HW235847   4.076   0.356   3.845 -0.8867  1.1666 -0.3029
 8071SOL     OW35848   1.760   4.341   6.809 -0.1157  0.2888  0.1832
 8071SOL    HW135849   1.812   4.267   6.777 -0.9076 -0.0244 -0.3880
 8071SOL    HW235850   1.683   4.341   6.752  0.0428 -0.4577 -0.0265
 8072SOL     OW35851   4.318   1.120   3.380 -0.4788  0.3853 -0.0788
 8072SOL    HW135852   4.233   1.097   3.416 -0.9223  0.4873 -1.0634
 8072SOL    HW235853   4.363   1.153   3.457  3.5384 -0.6800 -1.9469
 8073SOL     OW35854   2.581   2.000   2.230 -0.1488 -0.2931 -0.2354
 8073SOL    HW135855   2.497   2.017   2.187  0.0450 -0.0493 -0.5194
 8073SOL    HW235856   2.604   1.915   2.192 -0.6759  0.1912 -1.6549
 8074SOL     OW35857   2.614   4.400   1.753 -0.1670  0.5149 -0.2075
 8074SOL    HW135858   2.557   4.441   1.688  0.3299 -0.5692 -1.3206
 8074SOL    HW235859   2.621   4.313   1.714  1.3530 -0.4761  2.3046
 8075SOL     OW35860   3.402   2.962   7.935 -0.3138  0.3916 -0.0289
 8075SOL    HW135861   3.468   3.020   7.973  0.1238 -0.0583 -0.0891
 8075SOL    HW235862   3.358   2.936   8.015  2.0869 -1.1756  0.7928
 8076SOL     OW35863   4.649   4.126   4.450 -0.1112  0.4448  0.5837
 8076SOL    HW135864   4.679   4.188   4.384 -0.7681 -1.7146 -1.7297
 8076SOL    HW235865   4.715   4.060   4.428 -2.7241 -1.5443 -1.3375
 8077SOL     OW35866   4.028   2.068  15.232 -0.1660 -0.3827 -0.3163
 8077SOL    HW135867   3.958   2.021  15.187 -1.1898 -0.2056  1.0958
 8077SOL    HW235868   4.057   1.990  15.280 -0.0207  0.1828  0.5127
 8078SOL     OW35869   2.288   1.476   2.008 -0.0418  0.1395  0.4302
 8078SOL    HW135870   2.284   1.456   2.101  2.4515  0.4972  0.6084
 8078SOL    HW235871   2.201   1.447   1.979 -0.1713 -0.0898  1.0409
 8079SOL     OW35872   2.312   0.593   5.198 -0.0553  0.2962  0.0069
 8079SOL    HW135873   2.293   0.515   5.146 -0.8545  1.4610 -1.4486
 8079SOL    HW235874   2.240   0.599   5.260 -1.0247 -2.1006 -0.8512
 8080SOL     OW35875   1.246   4.014   4.624  0.2705  0.3394  0.0823
 8080SOL    HW135876   1.261   3.998   4.530 -1.9724  0.6099 -0.3065
 8080SOL    HW235877   1.272   3.934   4.670  2.9879  1.0454 -0.2170
 8081SOL     OW35878   3.079   2.082   8.438  0.5284 -0.1139 -0.2021
 8081SOL    HW135879   3.075   2.163   8.489 -0.8779 -0.6462  0.5374
 8081SOL    HW235880   3.002   2.033   8.470  1.4178 -0.4086  1.4635
 8082SOL     OW35881   3.221   1.275   8.512  0.4131  0.1287 -0.3756
 8082SOL    HW135882   3.144   1.244   8.464  0.1208  1.4914 -0.7807
 8082SOL    HW235883   3.272   1.195   8.526 -0.4294 -0.3533 -0.0541
 8083SOL     OW35884   2.459   0.583  16.941  0.5394  0.3085  0.1754
 8083SOL    HW135885   2.514   0.656  16.913  0.9133  0.0187  0.1501
 8083SOL    HW235886   2.401   0.583  16.865  1.0084 -2.5533 -0.1692
 8084SOL     OW35887   3.799   0.745   8.418 -0.4107  0.5147  0.3463
 8084SOL    HW135888   3.758   0.720   8.500 -0.6331  0.2841  0.1660
 8084SOL    HW235889   3.889   0.747   8.449  0.2071 -0.5523 -1.3391
 8085SOL     OW35890   3.860   0.014   4.813  0.2559 -0.3290 -0.3074
 8085SOL    HW135891   3.786   0.073   4.833 -0.0850 -0.8749  0.0263
 8085SOL    HW235892   3.905   0.073   4.752  2.9157 -1.8645  0.1775
 8086SOL     OW35893   3.577   0.647   5.433 -0.7517  0.0635 -0.3288
 8086SOL    HW135894   3.595   0.553   5.436  2.2471  0.7067  1.3835
 8086SOL    HW235895   3.619   0.686   5.509  1.9104 -0.7950 -1.3529
 8087SOL     OW35896   4.628   3.624   8.595 -0.1543  0.5355  0.1790
 8087SOL    HW135897   4.590   3.606   8.509  0.7265  0.7594 -0.2637
 8087SOL    HW235898   4.557   3.662   8.646 -1.2123  1.8258 -2.2533
 8088SOL     OW35899   3.182   2.398   7.384 -0.8093  0.6178 -0.2010
 8088SOL    HW135900   3.195   2.477   7.438 -1.2467 -1.2769  2.7108
 8088SOL    HW235901   3.274   2.376   7.367 -0.7545  0.9107 -0.2748
 8089SOL     OW35902   2.594   0.137   6.657 -0.2481  0.4692  0.0233
 8089SOL    HW135903   2.522   0.089   6.696  0.2482  0.2859  0.7265
 8089SOL    HW235904   2.592   0.213   6.715  1.7893  0.2463  0.3913
 8090SOL     OW35905   0.773   0.017  11.663  0.7521 -0.0093 -0.0610
 8090SOL    HW135906   0.776   4.702  11.741  1.0576  1.0311  0.6505
 8090SOL    HW235907   0.709   0.084  11.685  1.4977 -0.1236  2.4136
 8091SOL     OW35908   0.346   3.287  10.510  0.5742 -0.5023 -0.4435
 8091SOL    HW135909   0.335   3.202  10.467 -1.9175 -0.6153  0.3992
 8091SOL    HW235910   0.322   3.267  10.601  1.9566 -0.3266 -0.0497
 8092SOL     OW35911   2.330   1.521   7.142 -0.0181  0.2890  1.0770
 8092SOL    HW135912   2.264   1.522   7.211 -0.9793  0.0998  0.1654
 8092SOL    HW235913   2.316   1.604   7.096  0.0784 -2.0025 -3.1748
 8093SOL     OW35914   1.047   3.535   4.059 -0.7489  0.3870  0.2518
 8093SOL    HW135915   1.124   3.591   4.049 -1.1950  0.9135 -0.2371
 8093SOL    HW235916   1.059   3.454   4.009  2.5025 -0.4369  2.4141
 8094SOL     OW35917   1.142   4.156  16.545 -0.3655 -0.0856 -0.3475
 8094SOL    HW135918   1.069   4.112  16.502 -1.7297  0.5688  1.3074
 8094SOL    HW235919   1.213   4.132  16.485 -0.9625 -0.0949 -1.0485
 8095SOL     OW35920   2.135   3.895  11.178  0.7769  0.6512 -0.4703
 8095SOL    HW135921   2.110   3.947  11.101  0.3132  0.1044 -0.6833
 8095SOL    HW235922   2.075   3.821  11.171 -1.8097  2.7470 -0.3193
 8096SOL     OW35923   3.791   0.910   2.954 -0.5158 -0.0178 -0.2349
 8096SOL    HW135924   3.718   0.972   2.946  0.8220  1.5619 -0.1955
 8096SOL    HW235925   3.854   0.976   2.926 -1.2515  0.3290 -1.0729
 8097SOL     OW35926   2.552   1.529   3.805 -0.0468 -0.0519  0.1340
 8097SOL    HW135927   2.531   1.549   3.896  0.0117  1.5630 -0.2135
 8097SOL    HW235928   2.618   1.460   3.810  2.3411  2.2614  0.8916
 8098SOL     OW35929   1.945   1.296   6.395 -0.0664 -0.0630 -0.0802
 8098SOL    HW135930   2.001   1.230   6.437  2.7986  2.0668 -0.5083
 8098SOL    HW235931   1.935   1.361   6.464  1.7362  1.2048 -0.9965
 8099SOL     OW35932   4.069   4.658   0.371  0.2829 -0.1924 -0.0147
 8099SOL    HW135933   4.013   4.598   0.323  1.7467 -0.5248 -1.3085
 8099SOL    HW235934   4.029   0.004   0.353 -0.2456 -0.4653 -0.1019
 8100SOL     OW35935   4.491   2.553   7.782  0.4195  0.4092 -0.1063
 8100SOL    HW135936   4.417   2.496   7.804  0.6259  0.5866  1.0594
 8100SOL    HW235937   4.481   2.617   7.852 -1.0655  1.0959 -0.9428
 8101SOL     OW35938   3.415   1.758   2.152 -0.7261  0.8049 -0.5682
 8101SOL    HW135939   3.369   1.720   2.077  0.5173  2.1686 -2.0112
 8101SOL    HW235940   3.338   1.774   2.207 -1.6304 -3.4744 -0.5468
 8102SOL     OW35941   0.686   3.667   2.117  0.1445 -0.3898  0.2192
 8102SOL    HW135942   0.672   3.583   2.161 -0.2398  0.6062  1.9975
 8102SOL    HW235943   0.767   3.691   2.163  1.9806 -1.0591 -2.6292
 8103SOL     OW35944   3.071   2.271   4.528 -0.9173  0.1946  0.3268
 8103SOL    HW135945   3.066   2.281   4.623 -2.2131  0.3946  0.2385
 8103SOL    HW235946   3.146   2.325   4.504  0.6561 -3.2742 -2.6331
 8104SOL     OW35947   1.726   2.749  10.153 -0.1257 -0.3888 -0.6758
 8104SOL    HW135948   1.667   2.686  10.194 -1.4239 -0.7167 -3.0448
 8104SOL    HW235949   1.748   2.806  10.226  0.5568 -0.5524 -0.7532
 8105SOL     OW35950   2.912   1.273   6.835 -0.9355  0.3092  0.0041
 8105SOL    HW135951   2.988   1.330   6.828  0.5845 -1.7542 -0.5152
 8105SOL    HW235952   2.839   1.324   6.801 -0.8010 -0.1904 -1.0360
 8106SOL     OW35953   3.302   2.803  14.987  0.1448 -0.3085  0.0235
 8106SOL    HW135954   3.209   2.816  14.966  0.3362  0.9039 -0.0850
 8106SOL    HW235955   3.293   2.712  15.014 -0.4561  0.0825  1.1461
 8107SOL     OW35956   3.269   3.687   9.562 -0.1010  0.4527  0.4967
 8107SOL    HW135957   3.359   3.711   9.584  0.4904 -1.3162  0.0433
 8107SOL    HW235958   3.244   3.640   9.642 -0.3159 -0.0676  0.1261
 8108SOL     OW35959   0.513   4.605  10.770  0.3294  0.2775 -0.0968
 8108SOL    HW135960   0.495   4.550  10.846  0.1044 -1.8586 -1.6849
 8108SOL    HW235961   0.579   4.555  10.722  1.1096  1.7887 -0.6221
 8109SOL     OW35962   0.112   0.628  16.631  0.0999 -0.2697  0.0061
 8109SOL    HW135963   0.094   0.583  16.548 -1.5606 -2.4982  1.5768
 8109SOL    HW235964   0.089   0.548  16.680 -1.8330  0.0654 -0.3376
 8110SOL     OW35965   4.200   4.542   1.932  0.0939  0.0634  0.4085
 8110SOL    HW135966   4.190   4.635   1.912 -1.9007 -0.2531 -0.1190
 8110SOL    HW235967   4.272   4.524   1.872  0.1875  1.6577  0.0204
 8111SOL     OW35968   4.080   1.803   4.171  0.6343  0.2336  0.0932
 8111SOL    HW135969   4.167   1.791   4.132  1.2825  2.5329  0.8475
 8111SOL    HW235970   4.091   1.756   4.253 -0.4534 -1.1210 -0.5278
 8112SOL     OW35971   4.173   2.808   9.178 -0.0539  0.3667  0.1822
 8112SOL    HW135972   4.149   2.738   9.117 -1.7497  1.1745 -0.0718
 8112SOL    HW235973   4.209   2.882   9.130  0.1020 -0.7584 -1.4658
 8113SOL     OW35974   2.595   3.061   7.437 -0.5060 -0.0551  0.3925
 8113SOL    HW135975   2.554   3.046   7.523 -1.4815  0.3075 -0.0034
 8113SOL    HW235976   2.614   3.153   7.454 -2.3404  0.5889 -1.0203
 8114SOL     OW35977   2.128   2.182   7.576  0.3010 -0.6402  0.1423
 8114SOL    HW135978   2.034   2.162   7.567  0.2242  0.5586 -1.8171
 8114SOL    HW235979   2.161   2.192   7.486 -0.4389 -1.6738 -0.2466
 8115SOL     OW35980   3.354   0.039  10.952 -0.8657  0.0085 -0.3649
 8115SOL    HW135981   3.290   0.035  10.881 -0.0130 -1.0226 -1.0780
 8115SOL    HW235982   3.348   4.693  10.995  1.6330 -0.2793 -0.5475
 8116SOL     OW35983   3.194   3.713  12.211 -0.0464  0.4461 -0.0881
 8116SOL    HW135984   3.102   3.698  12.231 -0.0694 -0.7523 -1.0526
 8116SOL    HW235985   3.236   3.629  12.191  1.7790  2.4814 -4.8821
 8117SOL     OW35986   1.051   2.692   6.587  1.0490 -0.7902  0.2186
 8117SOL    HW135987   0.991   2.617   6.590  0.8276 -0.5419  2.1858
 8117SOL    HW235988   0.998   2.752   6.536  0.5926 -1.3379  0.0469
 8118SOL     OW35989   4.735   1.558   3.867  0.1809  0.3903  0.0445
 8118SOL    HW135990   4.719   1.650   3.889  0.1113 -0.1533  2.2684
 8118SOL    HW235991   0.002   1.557   3.772  0.8504  2.1331  0.0763
 8119SOL     OW35992   1.109   3.283  11.398 -0.3964 -0.0480 -0.7348
 8119SOL    HW135993   1.155   3.249  11.322  0.2591 -3.8152  1.3123
 8119SOL    HW235994   1.115   3.378  11.387  0.0047  0.3256  2.7139
 8120SOL     OW35995   0.380   0.331   0.018 -0.0897 -0.2652 -0.3239
 8120SOL    HW135996   0.344   0.266   0.078 -1.7764 -1.8408 -2.9883
 8120SOL    HW235997   0.338   0.289  17.698 -2.8978  0.4100  0.8476
 8121SOL     OW35998   1.222   2.972   2.697 -0.9414 -0.2547 -0.4339
 8121SOL    HW135999   1.208   2.932   2.783 -0.3707 -0.5844 -0.4929
 8121SOL    HW236000   1.305   2.933   2.670 -1.0979 -1.7280  1.1538
 8122SOL     OW36001   1.936   1.718   3.748  0.1499 -0.1820  0.5101
 8122SOL    HW136002   1.859   1.675   3.785 -0.7669  0.6896 -0.3731
 8122SOL    HW236003   1.896   1.802   3.725 -0.2170 -0.3587  0.4995
 8123SOL     OW36004   0.858   4.480  11.837  0.2973  0.2182  0.2888
 8123SOL    HW136005   0.942   4.483  11.790  0.5376  1.2816  0.7787
 8123SOL    HW236006   0.863   4.568  11.874 -0.8081  0.3775  0.0466
 8124SOL     OW36007   0.584   0.495  11.686 -0.2503  0.9822  0.3948
 8124SOL    HW136008   0.679   0.505  11.690 -0.1012 -0.3619 -0.0438
 8124SOL    HW236009   0.565   0.588  11.673  1.0298  0.9018 -1.9689
 8125SOL     OW36010   2.712   0.224  10.896 -0.4473  0.2911 -0.3120
 8125SOL    HW136011   2.797   0.265  10.885  0.4334 -2.1170 -2.2512
 8125SOL    HW236012   2.697   0.240  10.990 -0.0503 -0.4121 -0.1295
 8126SOL     OW36013   0.930   4.388   4.272 -0.5811 -0.0146 -0.2960
 8126SOL    HW136014   0.888   4.308   4.239 -0.1111 -0.6842  0.7170
 8126SOL    HW236015   0.913   4.392   4.366 -2.8750 -2.1671 -0.6342
 8127SOL     OW36016   4.029   0.796   4.600 -0.0767 -0.1044  0.1871
 8127SOL    HW136017   4.046   0.761   4.687 -0.9974  0.0195  0.4135
 8127SOL    HW236018   3.988   0.879   4.626 -2.0863 -1.0137 -0.1395
 8128SOL     OW36019   1.906   1.640   8.127 -0.3297  0.1665  0.2130
 8128SOL    HW136020   1.981   1.588   8.156  0.7688  1.2982 -0.6145
 8128SOL    HW236021   1.863   1.652   8.212  0.3198  0.5060  0.4986
 8129SOL     OW36022   3.020   2.945   7.866  0.0259  0.2174  0.3340
 8129SOL    HW136023   2.954   2.934   7.798  0.3921  2.9468 -0.4428
 8129SOL    HW236024   3.074   2.875   7.829 -1.3048 -0.4967 -0.2791
 8130SOL     OW36025   1.624   3.950  12.982 -0.3641  0.3339  0.0062
 8130SOL    HW136026   1.554   4.000  13.025  0.4908  0.7407  0.9170
 8130SOL    HW236027   1.626   3.891  13.058 -0.7301  0.4816  0.1312
 8131SOL     OW36028   1.000   2.398   6.603  0.0358 -0.5228  0.2641
 8131SOL    HW136029   1.013   2.303   6.611  0.4202 -0.5420 -0.6817
 8131SOL    HW236030   0.928   2.397   6.540  0.3993  0.6926 -0.1685
 8132SOL     OW36031   1.324   1.299   4.157  0.1201  0.2313  0.5638
 8132SOL    HW136032   1.351   1.298   4.249  1.0151 -1.2277  0.2810
 8132SOL    HW236033   1.410   1.285   4.118 -0.6423  0.1428 -1.1000
 8133SOL     OW36034   2.461   2.848   4.331  0.4080 -0.1778 -0.2402
 8133SOL    HW136035   2.508   2.923   4.295  0.5286  0.7007  1.7135
 8133SOL    HW236036   2.531   2.804   4.379  2.4955  1.7208 -1.5202
 8134SOL     OW36037   2.289   0.483  10.002  0.0577  0.6112 -0.0091
 8134SOL    HW136038   2.245   0.558  10.042  1.4452  0.5145  1.7134
 8134SOL    HW236039   2.274   0.505   9.910 -1.2195 -1.1696 -0.2120
 8135SOL     OW36040   4.706   2.882   2.235 -0.2303  0.1541  0.1726
 8135SOL    HW136041   0.028   2.901   2.164 -1.4931 -0.1589 -1.0027
 8135SOL    HW236042   0.022   2.820   2.282 -0.6523 -0.6990 -0.4744
 8136SOL     OW36043   2.947   1.128  14.455  0.2036  0.2015 -0.3801
 8136SOL    HW136044   3.015   1.194  14.440  0.0026  0.1490 -1.5688
 8136SOL    HW236045   2.914   1.161  14.539  0.0588 -1.4377  0.1961
 8137SOL     OW36046   2.586   0.541   3.479  0.0412 -0.5806 -0.1722
 8137SOL    HW136047   2.585   0.463   3.536  0.1120 -0.0359  0.5811
 8137SOL    HW236048   2.493   0.540   3.456  0.0217  0.1010 -0.1067
 8138SOL     OW36049   4.322   1.742  15.290  0.1689 -0.6786 -0.4846
 8138SOL    HW136050   4.361   1.728  15.204  1.0079 -2.2557  0.1463
 8138SOL    HW236051   4.392   1.733  15.355 -1.2978 -0.7862  1.0720
 8139SOL     OW36052   0.283   4.197   4.171  0.2662 -0.8704  0.0363
 8139SOL    HW136053   0.348   4.266   4.185 -0.3871 -0.6233  1.8311
 8139SOL    HW236054   0.216   4.225   4.108  0.0104  1.2836  1.2980
 8140SOL     OW36055   1.992   4.538   9.435 -0.2109 -0.0719 -0.0856
 8140SOL    HW136056   2.076   4.494   9.444  0.3507  1.1052  0.4516
 8140SOL    HW236057   1.990   4.582   9.520  0.6617 -0.3681  0.0866
 8141SOL     OW36058   3.446   2.155   2.683  0.0214  0.2105 -0.0401
 8141SOL    HW136059   3.411   2.167   2.771  2.0650  1.6789  0.5399
 8141SOL    HW236060   3.372   2.111   2.640 -0.8204  1.3019  0.3202
 8142SOL     OW36061   3.917   1.879  14.182  0.4812  0.4354 -0.3637
 8142SOL    HW136062   3.996   1.920  14.218 -0.3039  0.2478  1.5921
 8142SOL    HW236063   3.887   1.956  14.133 -0.4660  1.1893  1.3974
 8143SOL     OW36064   2.223   0.553  10.277 -0.8199  0.0990 -0.0594
 8143SOL    HW136065   2.220   0.508  10.361 -0.1991  1.1413  0.5286
 8143SOL    HW236066   2.280   0.500  10.220  1.4636 -1.6779  3.9108
 8144SOL     OW36067   4.078   1.466   3.501 -0.0073  0.6108 -0.0293
 8144SOL    HW136068   4.144   1.472   3.570  0.2751 -1.6252 -0.0953
 8144SOL    HW236069   4.002   1.521   3.521 -0.6196 -0.7133  1.2620
 8145SOL     OW36070   3.348   3.241   3.436  0.0352 -0.1249 -0.2421
 8145SOL    HW136071   3.258   3.226   3.464  0.6856  0.1090  1.9299
 8145SOL    HW236072   3.349   3.162   3.381 -2.0299 -0.2218 -0.1299
 8146SOL     OW36073   4.436   1.613  14.829 -0.7589 -0.3261  0.5069
 8146SOL    HW136074   4.518   1.646  14.793 -1.1438  0.4986  0.4039
 8146SOL    HW236075   4.454   1.619  14.923 -1.2402  3.8771  0.3356
 8147SOL     OW36076   0.000   4.344   6.361  0.0146  0.0050 -0.0679
 8147SOL    HW136077   4.707   4.332   6.450  0.1319  0.5416  0.0421
 8147SOL    HW236078   4.661   4.382   6.322 -0.6560 -1.5621 -0.2609
 8148SOL     OW36079   3.282   4.216   7.079 -0.3910  0.4066 -0.1088
 8148SOL    HW136080   3.257   4.308   7.076 -1.4433  0.0744 -1.2121
 8148SOL    HW236081   3.367   4.235   7.120 -0.8489  2.0924  0.0640
 8149SOL     OW36082   1.873   3.618  14.822  0.3260  0.0200  0.0531
 8149SOL    HW136083   1.910   3.532  14.842 -0.5989 -0.3397  0.2224
 8149SOL    HW236084   1.954   3.669  14.825 -0.4774  1.3556 -1.1270
 8150SOL     OW36085   1.957   1.260   4.343  0.1306  0.0159  0.0855
 8150SOL    HW136086   1.879   1.224   4.385 -0.0478  1.0878  0.6681
 8150SOL    HW236087   2.011   1.181   4.351 -0.1505 -0.4057 -2.1161
 8151SOL     OW36088   1.977   1.989   9.392 -0.0904  0.5664  0.2254
 8151SOL    HW136089   2.028   1.997   9.472  0.6040 -1.6283 -0.0072
 8151SOL    HW236090   1.962   2.081   9.372  1.1857  0.8346  0.5397
 8152SOL     OW36091   3.844   2.329   7.442  0.4211 -0.0336 -0.5639
 8152SOL    HW136092   3.857   2.317   7.536  0.0403 -0.4233 -0.5598
 8152SOL    HW236093   3.756   2.295   7.426 -0.4511  1.7145  0.5645
 8153SOL     OW36094   2.389   2.593   5.717  0.0918 -0.0191 -0.2395
 8153SOL    HW136095   2.446   2.656   5.674  1.3447 -1.0669 -0.0880
 8153SOL    HW236096   2.465   2.548   5.754 -0.9746 -2.2418 -0.7402
 8154SOL     OW36097   1.782   1.962   5.158  0.1422  0.5902  0.3475
 8154SOL    HW136098   1.722   1.903   5.113 -1.3506  1.2699  1.4822
 8154SOL    HW236099   1.721   2.021   5.201 -1.2148 -1.6474  1.5087
 8155SOL     OW36100   0.204   2.964   4.093  0.1082 -0.0403  0.7026
 8155SOL    HW136101   0.115   2.931   4.081  0.4556 -0.6546 -0.2082
 8155SOL    HW236102   0.188   3.058   4.104 -1.5730 -0.2512  0.1057
 8156SOL     OW36103   4.253   1.812   7.071 -0.1005  0.0191 -0.3090
 8156SOL    HW136104   4.262   1.899   7.109  0.9635  0.2166 -1.0264
 8156SOL    HW236105   4.173   1.778   7.111 -0.8174  2.0519 -0.0579
 8157SOL     OW36106   2.897   3.818   3.849  0.1100  0.1596 -0.4264
 8157SOL    HW136107   2.969   3.796   3.909 -1.2085 -1.6069  0.5019
 8157SOL    HW236108   2.872   3.908   3.869  1.3949  0.9762 -2.4795
 8158SOL     OW36109   1.750   0.832   0.742  0.0842 -0.6240  1.0106
 8158SOL    HW136110   1.705   0.793   0.667  2.4760 -0.6105 -0.4154
 8158SOL    HW236111   1.836   0.793   0.730  0.2855 -0.2058  1.0758
 8159SOL     OW36112   2.661   4.366   3.642 -0.0644 -0.1233  0.5286
 8159SOL    HW136113   2.659   4.454   3.605 -1.4065 -0.8399 -1.0672
 8159SOL    HW236114   2.569   4.341   3.634 -0.0172  0.1145 -0.6600
 8160SOL     OW36115   2.081   0.605   0.405 -0.1228  0.2574 -0.0722
 8160SOL    HW136116   2.144   0.544   0.443 -0.8535 -0.0116  0.7345
 8160SOL    HW236117   2.113   0.597   0.316 -0.3215  0.6177 -0.1780
 8161SOL     OW36118   3.534   3.855   9.289  0.5384  0.2310  0.0299
 8161SOL    HW136119   3.458   3.799   9.273  0.1346  0.7786  0.0276
 8161SOL    HW236120   3.604   3.830   9.229 -0.0325  0.9971 -0.9347
 8162SOL     OW36121   1.455   1.223   9.245  0.3126  0.4290 -0.3876
 8162SOL    HW136122   1.448   1.222   9.340 -2.0307 -3.5467 -0.6053
 8162SOL    HW236123   1.449   1.130   9.225  0.2884  0.7621 -1.9288
 8163SOL     OW36124   0.609   0.572   9.205  0.0046  0.0801 -0.1392
 8163SOL    HW136125   0.541   0.634   9.180  2.1616  3.0951  1.5112
 8163SOL    HW236126   0.663   0.626   9.262 -1.3348  2.6178 -1.2728
 8164SOL     OW36127   4.200   2.132   4.817 -0.7006  0.2808 -0.1619
 8164SOL    HW136128   4.280   2.084   4.842 -2.0787 -0.7180  2.2970
 8164SOL    HW236129   4.227   2.176   4.736 -0.1940 -0.8757 -0.6299
 8165SOL     OW36130   2.581   2.670   3.880  0.0111 -0.1647 -0.2305
 8165SOL    HW136131   2.637   2.714   3.944  0.4037 -2.7424  1.2113
 8165SOL    HW236132   2.650   2.625   3.830  0.5809  0.1902  0.2331
 8166SOL     OW36133   2.237   3.957   4.778 -0.0271 -0.0580 -0.2795
 8166SOL    HW136134   2.296   4.008   4.834  0.2867 -0.9548  0.2192
 8166SOL    HW236135   2.259   3.981   4.688  1.0340 -2.7420 -0.7562
 8167SOL     OW36136   4.414   1.423  13.328  0.2206 -0.1014  0.1278
 8167SOL    HW136137   4.466   1.408  13.407  2.5702 -2.3846 -1.8570
 8167SOL    HW236138   4.332   1.463  13.356 -1.0219 -1.7530 -1.1388
 8168SOL     OW36139   1.636   2.321   8.163  0.2252 -0.3987  0.1035
 8168SOL    HW136140   1.582   2.351   8.089  1.3309 -1.2281 -1.0308
 8168SOL    HW236141   1.694   2.393   8.188 -0.8233 -0.0826  1.6445
 8169SOL     OW36142   3.020   0.122   4.525 -0.0228 -0.3844 -0.0190
 8169SOL    HW136143   2.962   0.090   4.595  0.1330 -1.0526 -0.1952
 8169SOL    HW236144   2.957   0.158   4.462  0.4546  0.2335 -0.1396
 8170SOL     OW36145   3.518   4.304  17.106 -0.5680 -0.1054 -0.4523
 8170SOL    HW136146   3.423   4.297  17.116 -0.4435 -0.4732  0.5272
 8170SOL    HW236147   3.530   4.394  17.077  1.2250  0.0313  0.6663
 8171SOL     OW36148   0.208   0.673  14.197  0.0253 -0.1335 -0.3132
 8171SOL    HW136149   0.122   0.715  14.207 -0.5673 -0.9373 -1.9685
 8171SOL    HW236150   0.208   0.648  14.104 -0.0569 -0.1390 -0.3121
 8172SOL     OW36151   1.403   1.050   6.474  0.5742 -0.1243 -0.5796
 8172SOL    HW136152   1.396   0.958   6.449 -0.4230  0.2219 -1.5987
 8172SOL    HW236153   1.421   1.079   6.384 -0.5421  1.4620 -0.2928
 8173SOL     OW36154   0.546   2.715   6.497  0.2309 -0.0957 -0.6878
 8173SOL    HW136155   0.631   2.735   6.536  0.9849 -2.8770 -0.9038
 8173SOL    HW236156   0.497   2.793   6.525 -0.1388 -1.5185  2.6872
 8174SOL     OW36157   1.106   2.329   5.258 -0.0658 -0.3320  0.0549
 8174SOL    HW136158   1.147   2.408   5.224  0.9619 -1.0919 -0.4793
 8174SOL    HW236159   1.178   2.268   5.279 -0.0949 -0.6601 -0.8192
 8175SOL     OW36160   1.872   3.424  12.198 -0.3747  0.6685  0.5538
 8175SOL    HW136161   1.854   3.455  12.109  0.5626 -0.5098 -0.0573
 8175SOL    HW236162   1.876   3.328  12.196 -1.5641  0.6279  0.1860
 8176SOL     OW36163   0.640   0.987  13.643 -0.0426  0.0937 -0.0017
 8176SOL    HW136164   0.655   0.950  13.556 -0.2919 -0.3787  0.1564
 8176SOL    HW236165   0.582   1.061  13.627  0.1475  0.1752 -0.3163
 8177SOL     OW36166   0.360   3.264   1.971  0.4741  0.2553  0.3126
 8177SOL    HW136167   0.350   3.198   2.039 -3.3327  0.5452  0.0531
 8177SOL    HW236168   0.450   3.245   1.946  0.7854 -0.1405  1.7132
 8178SOL     OW36169   1.848   0.944  10.821  0.3292  0.3916  0.4700
 8178SOL    HW136170   1.840   0.897  10.738 -2.1925 -0.1974  1.0306
 8178SOL    HW236171   1.932   0.989  10.812  0.0829  1.0919  1.6152
 8179SOL     OW36172   1.953   2.484  12.460 -0.1215  0.2662 -0.0920
 8179SOL    HW136173   1.977   2.569  12.497  1.1313  0.9839 -2.5632
 8179SOL    HW236174   1.908   2.448  12.537  2.1538 -2.5684 -0.1212
 8180SOL     OW36175   3.021   2.187   9.545 -0.1298 -0.7239 -1.0256
 8180SOL    HW136176   3.030   2.214   9.637  0.2051 -0.0593 -1.2556
 8180SOL    HW236177   3.086   2.116   9.541 -1.7365 -2.2528 -0.4043
 8181SOL     OW36178   2.697   0.787  11.469  0.0995  0.1534 -0.4142
 8181SOL    HW136179   2.742   0.789  11.385  1.9211 -1.5854  0.4990
 8181SOL    HW236180   2.768   0.818  11.525  0.9196  0.0447 -1.3898
 8182SOL     OW36181   2.168   0.172   4.054 -0.1426 -0.5171  0.7401
 8182SOL    HW136182   2.262   0.159   4.068 -0.5548 -2.2882  1.8532
 8182SOL    HW236183   2.136   0.212   4.135  0.1593 -2.3158  1.7387
 8183SOL     OW36184   1.496   2.754   6.435  0.3659  0.1718  0.1727
 8183SOL    HW136185   1.436   2.683   6.457 -1.0901  0.9225 -1.3115
 8183SOL    HW236186   1.550   2.715   6.367 -2.1874  0.1107 -1.8225
 8184SOL     OW36187   2.996   3.008   6.596  0.4914  0.4021 -0.2950
 8184SOL    HW136188   3.052   3.081   6.571 -1.3412  2.4313  1.6014
 8184SOL    HW236189   2.989   3.019   6.691  1.1462  0.5185 -0.2632
 8185SOL     OW36190   2.670   4.013   6.478  0.5062 -0.6521  0.1937
 8185SOL    HW136191   2.634   4.070   6.545  2.5498  1.1532 -0.2501
 8185SOL    HW236192   2.762   4.036   6.466  1.1170 -2.5704  1.2435
 8186SOL     OW36193   3.447   1.166   8.291  0.0468  0.8131 -0.0994
 8186SOL    HW136194   3.538   1.135   8.291 -0.9940 -2.2144  2.4290
 8186SOL    HW236195   3.402   1.104   8.348 -2.6540  0.9557 -2.0660
 8187SOL     OW36196   3.017   0.776   5.922  0.2372 -0.1095 -0.4903
 8187SOL    HW136197   2.925   0.765   5.900  0.1957  3.4103 -2.1032
 8187SOL    HW236198   3.046   0.807   5.836 -3.8141  2.9527 -0.7508
 8188SOL     OW36199   3.009   2.435   1.963 -0.4582 -0.0523  0.2887
 8188SOL    HW136200   2.956   2.487   2.024 -0.9872  1.0680 -1.1430
 8188SOL    HW236201   3.003   2.349   2.006  0.2120  0.0580  0.5978
 8189SOL     OW36202   0.339   3.349   7.071 -0.6813  0.1095  0.3853
 8189SOL    HW136203   0.251   3.310   7.073 -0.1546 -1.1427 -0.8257
 8189SOL    HW236204   0.388   3.295   7.009 -0.2856  0.3697  0.4713
 8190SOL     OW36205   4.126   2.748   2.356 -0.7421 -0.3265  0.3505
 8190SOL    HW136206   4.042   2.711   2.333  0.8984 -2.5996 -1.9305
 8190SOL    HW236207   4.158   2.798   2.281  0.3185  0.0556  1.0485
 8191SOL     OW36208   0.320   3.844   2.681  0.3274 -0.4494  0.1930
 8191SOL    HW136209   0.315   3.879   2.592  0.9926 -1.5438 -0.2694
 8191SOL    HW236210   0.415   3.840   2.688  0.1432 -0.5782  2.5538
 8192SOL     OW36211   2.719   2.444   1.535  0.0845  0.1843 -0.5793
 8192SOL    HW136212   2.803   2.490   1.529 -0.8851  1.8261 -1.4771
 8192SOL    HW236213   2.679   2.482   1.457 -0.0529  0.4144 -0.3963
 8193SOL     OW36214   1.432   4.611  14.670 -0.4811  0.5540 -0.4472
 8193SOL    HW136215   1.392   4.639  14.588 -0.4362  2.2217  0.1093
 8193SOL    HW236216   1.517   4.578  14.642 -1.0026  1.2201 -2.7450
 8194SOL     OW36217   2.691   3.598   5.328  0.7550 -0.1384  0.1969
 8194SOL    HW136218   2.681   3.518   5.276  1.9225  0.6950 -1.2994
 8194SOL    HW236219   2.627   3.660   5.294 -0.1276 -0.6287  0.9510
 8195SOL     OW36220   3.617   1.886   2.331  0.6299 -0.6611 -0.0180
 8195SOL    HW136221   3.608   1.977   2.300  3.3637 -0.2439  0.4583
 8195SOL    HW236222   3.531   1.851   2.306 -0.5880  1.8387  0.6270
 8196SOL     OW36223   2.221   1.076   6.059 -0.1853  0.0421  0.4381
 8196SOL    HW136224   2.162   1.067   5.984 -1.3003  0.7535  1.2412
 8196SOL    HW236225   2.301   1.042   6.019 -0.7028 -0.4419 -0.1877
 8197SOL     OW36226   2.649   2.514  13.918 -0.0930 -0.1947  0.2331
 8197SOL    HW136227   2.620   2.561  13.840 -0.2333 -1.0944 -0.2576
 8197SOL    HW236228   2.695   2.439  13.880  1.3482  1.4239 -1.1807
 8198SOL     OW36229   3.358   3.826   1.802 -0.7645 -0.8532  0.2588
 8198SOL    HW136230   3.393   3.760   1.742 -0.9111 -2.0381  1.4745
 8198SOL    HW236231   3.263   3.818   1.796 -1.1216  2.3283  1.5357
 8199SOL     OW36232   3.029   3.775   8.271 -0.4415  0.0830  0.2776
 8199SOL    HW136233   3.011   3.833   8.197 -0.8047 -0.2831  0.0774
 8199SOL    HW236234   2.946   3.727   8.280  0.6518 -1.4835  2.1466
 8200SOL     OW36235   1.209   1.102   1.781  0.5771 -0.0762  0.2916
 8200SOL    HW136236   1.230   1.128   1.691 -1.3370  0.9406  0.1339
 8200SOL    HW236237   1.163   1.022   1.758 -0.0053  0.5730 -0.8286
 8201SOL     OW36238   2.059   1.428   8.115 -0.2454 -0.1019 -0.2378
 8201SOL    HW136239   2.075   1.350   8.062  1.3821 -1.2320  1.9649
 8201SOL    HW236240   2.129   1.418   8.179 -0.8351 -5.2912 -0.4721
 8202SOL     OW36241   2.448   0.413   7.809  0.1092 -0.7264 -0.1859
 8202SOL    HW136242   2.503   0.422   7.731  0.3165 -0.0856  0.0300
 8202SOL    HW236243   2.517   0.406   7.875 -0.5515 -0.7183  0.5135
 8203SOL     OW36244   3.734   4.077   2.404  0.5268 -0.1175 -0.4722
 8203SOL    HW136245   3.744   4.152   2.464  1.3737  0.5657 -1.4819
 8203SOL    HW236246   3.727   4.130   2.325  0.4632  0.9610  0.2551
 8204SOL     OW36247   3.569   0.557   4.012 -0.5013 -0.6317  0.1286
 8204SOL    HW136248   3.595   0.648   4.027 -1.0988 -0.8059  2.2092
 8204SOL    HW236249   3.550   0.522   4.099 -0.6186 -2.9034 -0.8115
 8205SOL     OW36250   2.661   3.742   2.319  0.2356  0.3594  0.0321
 8205SOL    HW136251   2.748   3.730   2.281 -1.3806 -0.4573 -3.4075
 8205SOL    HW236252   2.624   3.796   2.249  1.4974  1.3020  0.0938
 8206SOL     OW36253   1.491   1.768   1.521  0.2359 -0.1620 -0.0465
 8206SOL    HW136254   1.539   1.732   1.446 -1.7202 -1.1592 -0.8279
 8206SOL    HW236255   1.514   1.861   1.528  1.2608 -0.4767  0.7310
 8207SOL     OW36256   0.042   1.833   8.209 -0.0774 -0.1116 -0.4039
 8207SOL    HW136257   0.071   1.924   8.197  0.6761 -0.3573 -0.4440
 8207SOL    HW236258   0.101   1.817   8.283  0.1131 -0.8638 -0.7230
 8208SOL     OW36259   0.579   0.082  12.026 -0.1307 -0.4343  0.0009
 8208SOL    HW136260   0.492   0.109  11.997  0.6744  2.2300  0.1253
 8208SOL    HW236261   0.593   0.150  12.091 -0.1689  1.6984 -2.1941
 8209SOL     OW36262   2.200   0.994   2.953 -0.2565  0.3806  0.1457
 8209SOL    HW136263   2.258   0.980   2.879 -0.8734 -1.9793  0.1281
 8209SOL    HW236264   2.219   1.085   2.975  1.5638 -0.4243  1.9199
 8210SOL     OW36265   3.672   2.329   3.469 -0.2107 -0.3312 -0.2630
 8210SOL    HW136266   3.678   2.234   3.460 -1.4482 -0.3602 -0.7843
 8210SOL    HW236267   3.686   2.349   3.376  0.4723 -0.4274 -0.1866
 8211SOL     OW36268   4.405   3.401   9.790 -0.1787 -0.2427 -0.0902
 8211SOL    HW136269   4.477   3.405   9.853  1.3554  2.4185 -2.0383
 8211SOL    HW236270   4.336   3.387   9.855 -0.7898  1.8585 -0.2729
 8212SOL     OW36271   3.366   2.391  11.864 -0.3375 -0.0318  0.5803
 8212SOL    HW136272   3.286   2.387  11.917 -0.6605  0.0811  0.1005
 8212SOL    HW236273   3.343   2.357  11.778 -1.3231  1.1019  0.3954
 8213SOL     OW36274   2.162   1.317   5.419 -0.0015  0.4794 -0.5166
 8213SOL    HW136275   2.200   1.304   5.506  2.4467  2.8654 -1.2377
 8213SOL    HW236276   2.069   1.300   5.431 -0.1605  2.0820  0.5233
 8214SOL     OW36277   1.005   1.420   8.044 -0.4347  0.4678  0.5288
 8214SOL    HW136278   1.081   1.366   8.027 -2.0083 -1.6376  0.1466
 8214SOL    HW236279   1.003   1.461   7.958  0.6108  1.0222  0.7757
 8215SOL     OW36280   1.854   1.904   6.045 -0.2074  0.4925  0.1539
 8215SOL    HW136281   1.928   1.963   6.059  0.4429 -0.3658  0.3552
 8215SOL    HW236282   1.878   1.822   6.088 -0.8990  1.0453  1.5892
 8216SOL     OW36283   3.718   0.039   3.550 -0.2741  0.6357  1.1136
 8216SOL    HW136284   3.684   4.737   3.629 -2.1135  0.3805  0.1921
 8216SOL    HW236285   3.663   0.117   3.554 -0.3951  0.5981  0.1727
 8217SOL     OW36286   0.091   2.016  10.469  0.3030  0.5479 -0.5436
 8217SOL    HW136287   0.112   1.925  10.490  1.0269  0.3838 -1.9302
 8217SOL    HW236288   0.103   2.021  10.374 -0.1665  2.4508 -0.5065
 8218SOL     OW36289   4.150   4.008   2.845  0.9288 -0.4760  0.2675
 8218SOL    HW136290   4.126   3.916   2.845  0.4672 -0.3537 -0.7748
 8218SOL    HW236291   4.157   4.028   2.752 -1.8103 -0.2743  0.1146
 8219SOL     OW36292   0.349   3.301  10.794 -0.1644 -0.2835 -0.2671
 8219SOL    HW136293   0.440   3.292  10.822 -1.3799 -3.5108  2.6231
 8219SOL    HW236294   0.345   3.397  10.794 -0.6077 -0.3000 -0.4609
 8220SOL     OW36295   1.357   3.792  12.134  0.2603  0.2049 -0.1618
 8220SOL    HW136296   1.274   3.753  12.105  1.5036 -1.7303 -1.1379
 8220SOL    HW236297   1.392   3.716  12.181 -0.1636  0.6258  0.8222
 8221SOL     OW36298   2.358   0.794  12.266 -0.0829  0.0281  0.0868
 8221SOL    HW136299   2.380   0.758  12.352  0.8648  1.4266  0.4218
 8221SOL    HW236300   2.276   0.747  12.253 -0.8101  1.4497 -0.4693
 8222SOL     OW36301   2.405   3.341   3.134 -0.1991 -0.1186 -0.0696
 8222SOL    HW136302   2.488   3.356   3.178 -0.6467 -2.3541  1.5282
 8222SOL    HW236303   2.384   3.250   3.154  0.4694 -0.3719 -0.5317
 8223SOL     OW36304   1.845   3.418   0.840 -0.8555 -0.2436  0.6831
 8223SOL    HW136305   1.816   3.509   0.834  0.4825  0.1761  0.4378
 8223SOL    HW236306   1.879   3.431   0.929 -0.4526  0.2573  0.4530
 8224SOL     OW36307   4.312   4.332   5.062 -0.0354 -0.5132 -0.4046
 8224SOL    HW136308   4.352   4.296   5.141  1.3875 -0.6629 -1.1917
 8224SOL    HW236309   4.370   4.296   4.995  0.7226  0.0063 -0.0248
 8225SOL     OW36310   4.523   1.291  14.779  0.2304  0.0604 -0.0548
 8225SOL    HW136311   4.519   1.274  14.685 -2.4057 -1.1012  0.2743
 8225SOL    HW236312   4.516   1.387  14.775 -0.5828 -0.0309 -0.6868
 8226SOL     OW36313   2.391   0.221  12.334  0.2921 -0.2349  0.4817
 8226SOL    HW136314   2.298   0.199  12.334  0.1551  0.3553  0.1685
 8226SOL    HW236315   2.407   0.246  12.425  1.4466 -1.0005  0.4839
 8227SOL     OW36316   2.406   3.483   6.758  0.4198  0.2450 -0.1883
 8227SOL    HW136317   2.440   3.563   6.798  0.5061 -0.0819  0.3982
 8227SOL    HW236318   2.418   3.507   6.666 -0.8126  0.6517 -0.2365
 8228SOL     OW36319   1.705   1.053   9.027  0.2575  0.4685  0.7206
 8228SOL    HW136320   1.694   0.992   9.100  0.5508  1.1246  1.3026
 8228SOL    HW236321   1.725   1.136   9.069  0.4587  0.6800  0.2163
 8229SOL     OW36322   1.481   3.296   1.357  0.1666 -0.4141  0.0855
 8229SOL    HW136323   1.419   3.235   1.317  2.2788 -2.5688  0.0726
 8229SOL    HW236324   1.518   3.245   1.429  2.0911  1.8595  0.6992
 8230SOL     OW36325   3.295   0.383  13.059 -0.4008  0.0855  0.1928
 8230SOL    HW136326   3.231   0.324  13.098  0.1080 -1.2585 -1.0102
 8230SOL    HW236327   3.258   0.388  12.970 -1.3406 -0.4711  0.5511
 8231SOL     OW36328   3.439   0.137   0.254  0.5459  0.0523  0.1168
 8231SOL    HW136329   3.367   0.195   0.277 -0.4393 -0.7115 -1.0284
 8231SOL    HW236330   3.452   0.162   0.163  0.0904 -0.2864 -0.0473
 8232SOL     OW36331   1.652   1.793   4.988 -0.3126 -0.4321 -0.2107
 8232SOL    HW136332   1.611   1.721   5.036 -0.5849 -1.2782 -1.6889
 8232SOL    HW236333   1.610   1.771   4.905 -2.2165  0.0895  0.6232
 8233SOL     OW36334   0.187   1.466   0.234  0.4519  0.1585  0.2710
 8233SOL    HW136335   0.160   1.518   0.158  1.7326 -1.6696 -1.4041
 8233SOL    HW236336   0.172   1.375   0.209  0.4515  0.6588 -1.5019
 8234SOL     OW36337   3.783   1.830  10.324 -0.0150 -0.3632  0.1558
 8234SOL    HW136338   3.832   1.804  10.402  0.5844 -1.3234 -0.5424
 8234SOL    HW236339   3.724   1.757  10.307 -0.1790 -0.2644  0.2968
 8235SOL     OW36340   2.889   4.633  11.938  0.3294  0.0269  0.0536
 8235SOL    HW136341   2.897   4.538  11.950  1.3198 -0.1760 -2.0874
 8235SOL    HW236342   2.880   4.664  12.028  0.2939  0.1360  0.0119
 8236SOL     OW36343   0.688   3.172  13.607  0.4759 -0.1798 -0.1128
 8236SOL    HW136344   0.610   3.207  13.650 -0.5784 -1.1349 -1.2202
 8236SOL    HW236345   0.667   3.178  13.514 -0.5057 -1.5197  0.0078
 8237SOL     OW36346   1.617   0.387   7.739  0.5011 -0.4909  0.6714
 8237SOL    HW136347   1.610   0.301   7.780 -0.9169 -1.6801 -2.0606
 8237SOL    HW236348   1.525   0.411   7.748  0.4333  0.2558 -2.0239
 8238SOL     OW36349   1.656   2.064   8.507 -0.0420 -0.2299 -0.2150
 8238SOL    HW136350   1.572   2.100   8.480 -0.7327  0.1408  2.4545
 8238SOL    HW236351   1.675   2.004   8.434  0.0056 -0.0754 -0.3298
 8239SOL     OW36352   3.052   4.373   0.922  0.1977 -0.6009  0.0560
 8239SOL    HW136353   3.120   4.440   0.919 -0.5727  0.1006 -1.7816
 8239SOL    HW236354   2.983   4.423   0.880 -1.0079 -0.0368  2.7174
 8240SOL     OW36355   1.797   2.970  12.791 -0.4111  0.1713  0.0209
 8240SOL    HW136356   1.827   2.910  12.723 -1.3932  0.7326 -0.9104
 8240SOL    HW236357   1.726   2.931  12.842  0.6850  0.0265  1.4518
 8241SOL     OW36358   3.520   1.251   4.668  0.5616  0.0994 -0.8723
 8241SOL    HW136359   3.477   1.189   4.727  1.5392  1.2099  1.0051
 8241SOL    HW236360   3.570   1.305   4.730  1.5162 -0.7365 -0.9232
 8242SOL     OW36361   3.869   0.233  14.753 -0.0685 -0.5149  0.8077
 8242SOL    HW136362   3.908   0.301  14.809 -0.9978 -0.9342  1.9573
 8242SOL    HW236363   3.826   0.296  14.695  1.1291  1.7912  2.3989
 8243SOL     OW36364   4.461   3.394   2.463 -0.2252 -0.6832 -0.1978
 8243SOL    HW136365   4.495   3.411   2.376  0.4493 -1.7955 -0.1379
 8243SOL    HW236366   4.373   3.433   2.457 -0.1096 -0.2103  1.0861
 8244SOL     OW36367   3.785   2.291   9.408  0.3905  0.2442 -0.0386
 8244SOL    HW136368   3.706   2.328   9.370  1.2695 -1.0701 -3.1299
 8244SOL    HW236369   3.857   2.324   9.354 -0.4733  0.0457 -1.3079
 8245SOL     OW36370   3.248   1.941   3.660 -0.3013 -0.4468  0.5028
 8245SOL    HW136371   3.333   1.962   3.697 -0.1538 -1.7383  0.9067
 8245SOL    HW236372   3.254   1.976   3.571  1.6731  1.4624  1.4045
 8246SOL     OW36373   2.624   1.383   7.752 -0.3016 -0.4716 -0.1912
 8246SOL    HW136374   2.617   1.361   7.659  1.8297 -1.7076 -0.0558
 8246SOL    HW236375   2.674   1.310   7.788 -1.9358 -0.9093  1.1665
 8247SOL     OW36376   1.195   0.249   4.782 -0.0321  0.2068  0.3281
 8247SOL    HW136377   1.217   0.166   4.824 -0.5267 -0.2212 -0.2568
 8247SOL    HW236378   1.100   0.246   4.796 -0.1708 -1.0430 -0.9756
 8248SOL     OW36379   3.977   1.376   2.169  0.2741  0.1137 -0.6779
 8248SOL    HW136380   3.957   1.323   2.246 -1.9331  1.8905 -0.0425
 8248SOL    HW236381   3.902   1.354   2.115  0.1512 -1.4744  0.1683
 8249SOL     OW36382   4.098   1.836   5.086 -0.8817  0.0253 -0.1281
 8249SOL    HW136383   4.063   1.908   5.033 -1.1212 -0.9195 -1.2588
 8249SOL    HW236384   4.181   1.872   5.117 -0.6530  0.4001 -1.1740
 8250SOL     OW36385   2.582   2.310  12.121  0.2324  0.0133  0.6732
 8250SOL    HW136386   2.491   2.303  12.093  0.4035 -1.1078  0.3867
 8250SOL    HW236387   2.634   2.284  12.045  0.4121  1.0675  0.4477
 8251SOL     OW36388   3.804   1.227   4.523 -0.4190 -0.6339  0.3398
 8251SOL    HW136389   3.731   1.235   4.585 -0.4506  0.0361  0.2068
 8251SOL    HW236390   3.824   1.320   4.517 -1.7342 -0.4943 -1.9575
 8252SOL     OW36391   1.289   2.844   2.385 -0.1973 -0.0249 -0.1753
 8252SOL    HW136392   1.315   2.824   2.475 -2.3136  0.2547  0.4784
 8252SOL    HW236393   1.375   2.866   2.347  0.7103  0.3565  2.1123
 8253SOL     OW36394   3.337   2.166   3.842  0.0810  0.4737  0.0095
 8253SOL    HW136395   3.282   2.128   3.910  0.9917  0.7612  0.9078
 8253SOL    HW236396   3.401   2.209   3.899 -0.5694  1.0966  0.2687
 8254SOL     OW36397   2.017   4.041  16.213  0.4271 -0.5383  0.0537
 8254SOL    HW136398   2.012   3.949  16.238 -0.1607 -0.4246  0.3591
 8254SOL    HW236399   2.018   4.029  16.118  1.5976 -1.7730  0.2146
 8255SOL     OW36400   2.673   1.941   2.526  0.0657  0.6364 -0.0008
 8255SOL    HW136401   2.619   2.015   2.551  0.8088  1.0289  0.4565
 8255SOL    HW236402   2.650   1.942   2.433  0.8455 -0.8744 -0.2173
 8256SOL     OW36403   3.639   1.025   5.940 -0.9920  0.0171 -0.0217
 8256SOL    HW136404   3.677   0.938   5.926 -0.3449  0.0803  1.3471
 8256SOL    HW236405   3.699   1.067   6.002 -3.2259  1.0646  1.4021
 8257SOL     OW36406   0.313   0.037   5.675  0.1218  0.5901  0.7022
 8257SOL    HW136407   0.270   0.121   5.659 -0.2360  0.7321  2.3399
 8257SOL    HW236408   0.327   0.042   5.770 -2.8421  1.4935  1.0821
 8258SOL     OW36409   4.667   1.992   4.219 -0.2020 -0.6125 -0.2890
 8258SOL    HW136410   4.633   2.021   4.304 -2.0007  1.7347 -1.8152
 8258SOL    HW236411   0.007   2.045   4.212 -1.1529  0.6498 -1.3777
 8259SOL     OW36412   0.995   0.751   5.031 -0.2635  0.0797  0.0050
 8259SOL    HW136413   0.993   0.658   5.012 -1.7171  0.4815 -1.8866
 8259SOL    HW236414   1.007   0.786   4.943 -1.5607 -0.9206 -0.5688
 8260SOL     OW36415   1.800   3.184  17.580  0.3563 -0.1168  0.5258
 8260SOL    HW136416   1.877   3.132  17.558 -0.1378 -0.4801 -0.3556
 8260SOL    HW236417   1.831   3.271  17.557 -0.5588  0.3213  0.9462
 8261SOL     OW36418   2.827   2.659   1.789 -0.5077  0.3394 -0.1039
 8261SOL    HW136419   2.896   2.712   1.827  0.9008  0.1605 -2.4175
 8261SOL    HW236420   2.877   2.622   1.716  1.3495 -0.3652  1.5535
 8262SOL     OW36421   0.494   1.176  13.492  0.3375 -0.0500 -0.5167
 8262SOL    HW136422   0.426   1.146  13.433  2.1514 -0.3169 -2.4554
 8262SOL    HW236423   0.506   1.269  13.470 -3.7888  0.7864  0.7173
 8263SOL     OW36424   3.382   1.970   4.773 -0.3328  0.1500  0.1113
 8263SOL    HW136425   3.397   2.064   4.762 -0.5843  0.6548  4.1089
 8263SOL    HW236426   3.287   1.961   4.765 -0.2973 -2.1563  2.0958
 8264SOL     OW36427   0.775   0.230   5.724  0.3682  0.2774  0.4752
 8264SOL    HW136428   0.688   0.259   5.698  0.4916 -1.0649 -1.4361
 8264SOL    HW236429   0.755   0.172   5.797  1.1849 -0.2803  0.2550
 8265SOL     OW36430   2.649   0.379   2.875 -0.1958  0.2883  0.0967
 8265SOL    HW136431   2.606   0.395   2.791 -2.1640 -0.1071  1.0164
 8265SOL    HW236432   2.673   0.469   2.899  0.6774 -0.0964  0.6575
 8266SOL     OW36433   0.591   1.918  15.434  0.4636 -0.1466 -0.3927
 8266SOL    HW136434   0.549   1.852  15.378 -1.3274  2.5776 -2.3024
 8266SOL    HW236435   0.516   1.943  15.488  1.3917 -1.0877  1.3149
 8267SOL     OW36436   0.549   0.963  16.460 -0.4202  0.0562 -0.1029
 8267SOL    HW136437   0.514   1.011  16.535 -2.4403 -0.1160 -0.9462
 8267SOL    HW236438   0.601   0.898  16.508 -1.9987 -1.3122 -0.2347
 8268SOL     OW36439   1.892   4.248  17.569  0.5711  0.0593  0.5088
 8268SOL    HW136440   1.912   4.164  17.612 -1.2527 -1.1090 -0.9147
 8268SOL    HW236441   1.844   4.222  17.490 -2.5338  1.7652  1.8604
 8269SOL     OW36442   3.130   4.130   2.427 -0.1480 -0.2797  0.1551
 8269SOL    HW136443   3.212   4.080   2.428  0.8431  1.3046 -1.5694
 8269SOL    HW236444   3.106   4.130   2.520 -0.2455  2.3954  0.1362
 8270SOL     OW36445   3.953   0.455   9.365 -0.3752  0.6215 -0.3909
 8270SOL    HW136446   3.959   0.549   9.350  2.8433  0.7770  1.8977
 8270SOL    HW236447   3.978   0.439   9.456 -1.4269 -0.6347 -0.3200
 8271SOL     OW36448   0.599   0.018   2.458 -0.3295  0.0323  0.0474
 8271SOL    HW136449   0.616   4.720   2.545 -0.4585  0.5263  0.2871
 8271SOL    HW236450   0.580   4.685   2.398  0.0053  0.7956 -0.9840
 8272SOL     OW36451   4.048   4.255   3.967  0.4919  0.6978 -0.0311
 8272SOL    HW136452   4.049   4.328   3.905  3.3700  0.2032 -0.5673
 8272SOL    HW236453   4.135   4.216   3.975  0.0925 -0.5024 -1.7898
 8273SOL     OW36454   1.134   0.706   7.632 -0.6394 -0.0902 -0.5027
 8273SOL    HW136455   1.106   0.645   7.700 -0.7019 -0.1011 -0.5384
 8273SOL    HW236456   1.117   0.787   7.681 -0.2734 -1.0666  1.2247
 8274SOL     OW36457   2.449   1.928  16.281  0.0615  0.7798  0.5539
 8274SOL    HW136458   2.521   1.958  16.337 -0.5240 -1.1190  2.3226
 8274SOL    HW236459   2.457   1.833  16.273  0.4502  0.6599  2.3584
 8275SOL     OW36460   1.476   4.337  15.504 -0.3294 -0.0531 -0.3339
 8275SOL    HW136461   1.414   4.267  15.485  0.0458 -0.8278  1.2663
 8275SOL    HW236462   1.428   4.393  15.564 -0.3351  0.7596 -1.0928
 8276SOL     OW36463   0.582   3.981  17.141 -0.3721  0.6655 -0.1859
 8276SOL    HW136464   0.504   4.012  17.185 -0.1873  1.7217 -0.6000
 8276SOL    HW236465   0.552   3.907  17.089  1.7566 -1.1803  1.2044
 8277SOL     OW36466   1.617   4.164   4.975  0.3395  0.1551 -0.5508
 8277SOL    HW136467   1.682   4.221   4.935 -0.0148  1.9008  1.3174
 8277SOL    HW236468   1.541   4.184   4.921 -0.2406  0.2105  0.2803
 8278SOL     OW36469   2.592   3.648   8.335  0.6252  0.0449 -0.3942
 8278SOL    HW136470   2.647   3.613   8.265 -1.1313 -1.3059 -1.0859
 8278SOL    HW236471   2.603   3.579   8.401 -2.0099 -0.2065 -0.2073
 8279SOL     OW36472   4.438   0.861   3.749  0.4758 -0.8080 -0.2075
 8279SOL    HW136473   4.398   0.776   3.733  0.7378 -0.7640 -1.1039
 8279SOL    HW236474   4.364   0.915   3.777  1.2187 -0.2897  0.7808
 8280SOL     OW36475   2.621   3.212  15.189  0.3269  0.1003  0.4197
 8280SOL    HW136476   2.657   3.216  15.277 -2.9622  0.3938  1.7565
 8280SOL    HW236477   2.700   3.217  15.135  1.3309 -0.0950  1.8713
 8281SOL     OW36478   2.400   3.037   7.203 -0.2062 -0.5212  0.7418
 8281SOL    HW136479   2.337   3.109   7.198 -0.5132 -0.7589  1.2197
 8281SOL    HW236480   2.468   3.074   7.260  0.8788  0.3512 -1.1275
 8282SOL     OW36481   3.657   2.923   4.724 -0.4180  0.2389 -0.3684
 8282SOL    HW136482   3.642   2.971   4.805  0.5527  1.1077 -0.7063
 8282SOL    HW236483   3.715   2.854   4.754 -0.8146 -0.7142 -1.7852
 8283SOL     OW36484   3.026   3.052  14.937 -0.0025 -0.2255 -0.1389
 8283SOL    HW136485   3.115   3.077  14.961  0.7805 -2.0708 -1.1532
 8283SOL    HW236486   3.040   2.958  14.949 -0.7308 -0.2041  0.8287
 8284SOL     OW36487   3.141   1.812   5.938  0.5829  0.5333 -0.2655
 8284SOL    HW136488   3.146   1.904   5.964 -1.1710  0.4528  0.3231
 8284SOL    HW236489   3.192   1.795   5.859 -1.3892  1.3937 -1.7219
 8285SOL     OW36490   3.789   0.444   9.635 -0.4421 -0.0480  0.3220
 8285SOL    HW136491   3.749   0.403   9.559  0.5981  0.1362 -0.3159
 8285SOL    HW236492   3.723   0.502   9.674  1.0385  2.1675 -0.5055
 8286SOL     OW36493   1.632   2.419   1.977 -0.4756 -0.3362  0.0788
 8286SOL    HW136494   1.562   2.372   1.931 -0.7514 -0.6075  0.7809
 8286SOL    HW236495   1.697   2.427   1.907 -2.8950  0.3624 -2.1040
 8287SOL     OW36496   2.057   4.095  17.224  0.8154 -0.1244 -1.0827
 8287SOL    HW136497   1.969   4.082  17.188  0.2064 -1.2993  0.8057
 8287SOL    HW236498   2.109   4.056  17.154  0.4150 -0.4222 -1.2169
 8288SOL     OW36499   3.049   3.798   4.083 -0.0178  0.0037 -0.6032
 8288SOL    HW136500   3.048   3.715   4.130 -1.8186  1.6072  2.1931
 8288SOL    HW236501   3.140   3.827   4.096 -0.3500  0.6362  0.2972
 8289SOL     OW36502   4.095   4.370   2.609  0.6412  0.2461  0.5808
 8289SOL    HW136503   4.082   4.429   2.534  1.6450 -0.2570  0.0199
 8289SOL    HW236504   4.107   4.282   2.574  1.4672  0.1224  1.1870
 8290SOL     OW36505   1.628   3.300   7.927 -0.3444 -0.0242 -0.4927
 8290SOL    HW136506   1.678   3.337   8.000 -1.1335 -2.0950  1.1047
 8290SOL    HW236507   1.619   3.210   7.957 -0.2839 -0.9534 -3.3145
 8291SOL     OW36508   2.541   2.292  17.394  0.0110 -0.0024 -0.3408
 8291SOL    HW136509   2.551   2.300  17.489 -2.0242  0.7991 -0.1928
 8291SOL    HW236510   2.568   2.201  17.382 -1.1804 -0.4266  0.1077
 8292SOL     OW36511   4.108   3.160  15.565  0.4482  0.2214 -0.1724
 8292SOL    HW136512   4.168   3.231  15.544  2.5990 -1.2341  0.9848
 8292SOL    HW236513   4.159   3.082  15.587 -2.1216 -1.4555 -0.0999
 8293SOL     OW36514   2.200   1.308  15.492  0.0769  0.1577 -0.1129
 8293SOL    HW136515   2.278   1.295  15.546 -0.4291 -0.6299  0.4180
 8293SOL    HW236516   2.182   1.223  15.451 -0.2376  1.1709 -2.1089
 8294SOL     OW36517   3.681   0.893  12.692  0.0968  0.7772 -0.4260
 8294SOL    HW136518   3.650   0.969  12.644  0.5570  1.0427 -0.3031
 8294SOL    HW236519   3.667   0.826  12.624 -0.5647  1.3806 -0.8850
 8295SOL     OW36520   0.529   0.174   5.068  0.4075 -0.0552  0.2566
 8295SOL    HW136521   0.487   0.258   5.049  0.3701 -0.5775 -1.9791
 8295SOL    HW236522   0.465   0.116   5.108  1.7896 -1.3414  0.6260
 8296SOL     OW36523   4.039   0.067   0.069 -0.3913 -0.6388 -0.0887
 8296SOL    HW136524   3.991   0.102   0.145 -0.1172  0.3329 -0.3617
 8296SOL    HW236525   4.122   0.052   0.114 -0.3398 -1.6924 -0.5564
 8297SOL     OW36526   3.500   2.494   3.928 -0.1539  0.4613  0.2063
 8297SOL    HW136527   3.447   2.429   3.975 -1.2012  1.5317  0.4743
 8297SOL    HW236528   3.542   2.432   3.868  0.6006  0.9344  0.2481
 8298SOL     OW36529   0.343   0.730  13.727  0.5741  0.1303 -0.1250
 8298SOL    HW136530   0.310   0.714  13.639 -0.1704  1.0094 -0.0022
 8298SOL    HW236531   0.309   0.819  13.734  3.0892  1.2018 -1.6226
 8299SOL     OW36532   2.149   2.616   2.552 -0.0738  0.0771  0.3022
 8299SOL    HW136533   2.074   2.632   2.610  0.6556 -0.6854  1.4407
 8299SOL    HW236534   2.104   2.632   2.469 -1.5977  0.4267  1.1984
 8300SOL     OW36535   0.807   3.108   1.993  0.2793  0.3300 -0.7145
 8300SOL    HW136536   0.845   3.133   2.077  0.6073  0.0446 -0.7798
 8300SOL    HW236537   0.808   3.012   1.991  0.9856  0.3022  2.1364
 8301SOL     OW36538   4.691   1.230   3.117 -0.2815  0.1209 -0.3622
 8301SOL    HW136539   4.598   1.238   3.139 -0.1947 -0.4505  0.2362
 8301SOL    HW236540   4.705   1.299   3.053  4.1632 -0.3105  0.0923
 8302SOL     OW36541   4.566   3.252   5.487  0.4233  0.0483  0.3987
 8302SOL    HW136542   4.640   3.281   5.541  0.3801  0.0129  0.4761
 8302SOL    HW236543   4.496   3.300   5.533 -0.2888 -2.1502  1.5740
 8303SOL     OW36544   0.919   1.190   6.273  0.9367 -0.2057 -0.5094
 8303SOL    HW136545   0.873   1.273   6.261 -0.7356 -0.9580  0.5802
 8303SOL    HW236546   0.839   1.138   6.282  0.2934  0.7899 -0.4814
 8304SOL     OW36547   0.569   2.500   2.907  0.0210 -0.3501  0.2320
 8304SOL    HW136548   0.544   2.579   2.956  1.1579  0.6149 -0.7428
 8304SOL    HW236549   0.661   2.521   2.895 -0.0334 -0.3957 -0.2833
 8305SOL     OW36550   3.255   1.082   0.300 -1.0422  0.3273  0.1901
 8305SOL    HW136551   3.187   1.050   0.241 -0.2746 -3.5011  1.3499
 8305SOL    HW236552   3.202   1.102   0.377 -0.7557 -1.0170  0.7418
 8306SOL     OW36553   2.705   3.171   1.833 -0.3939 -0.2789  0.1362
 8306SOL    HW136554   2.704   3.088   1.785  1.7864 -0.7798  0.9438
 8306SOL    HW236555   2.616   3.181   1.869 -0.5681 -1.3134 -0.0138
 8307SOL     OW36556   3.513   0.313   3.891 -0.1057 -0.4038 -0.1977
 8307SOL    HW136557   3.543   0.404   3.895 -0.4323 -0.3674  1.3367
 8307SOL    HW236558   3.594   0.269   3.865  1.7522  0.4305  4.1982
 8308SOL     OW36559   1.332   3.492   5.725 -0.1678  0.1849  0.4502
 8308SOL    HW136560   1.388   3.416   5.711 -0.7776  0.0197 -1.1877
 8308SOL    HW236561   1.360   3.552   5.656  0.9900 -0.4596  0.3582
 8309SOL     OW36562   1.331   4.481  13.991 -0.3521 -0.1536  0.0238
 8309SOL    HW136563   1.404   4.539  14.015  0.1965 -0.6283 -0.5311
 8309SOL    HW236564   1.376   4.436  13.920 -1.1411 -1.4600  0.3712
 8310SOL     OW36565   2.591   1.841   7.966  0.1529 -0.0046  1.1207
 8310SOL    HW136566   2.497   1.850   7.956  0.3066 -2.9665 -2.8968
 8310SOL    HW236567   2.616   1.785   7.892  2.0467  0.3794  1.4537
 8311SOL     OW36568   0.184   3.202   0.530 -0.6291  0.8126 -0.2891
 8311SOL    HW136569   0.202   3.109   0.535  1.0101  1.2225  1.0661
 8311SOL    HW236570   0.268   3.242   0.510 -0.0265 -0.2504  0.1458
 8312SOL     OW36571   1.644   0.718   1.642 -0.2631 -0.0014  0.2508
 8312SOL    HW136572   1.618   0.809   1.660  2.2732  1.1361 -1.8668
 8312SOL    HW236573   1.560   0.678   1.620  1.3140 -1.8685 -2.3433
 8313SOL     OW36574   1.192   2.178  12.965 -0.0992 -0.2656 -0.0244
 8313SOL    HW136575   1.106   2.196  12.929  0.5367  0.8128 -0.9875
 8313SOL    HW236576   1.201   2.245  13.033 -0.3124  0.4127 -0.6706
 8314SOL     OW36577   3.998   2.596   3.754  0.6540 -0.3192  0.6484
 8314SOL    HW136578   3.943   2.567   3.681  2.4038 -0.7713 -0.4967
 8314SOL    HW236579   3.977   2.690   3.752  1.0771 -0.2171  1.0029
 8315SOL     OW36580   3.504   1.776  13.236 -0.4545  0.2546  0.0674
 8315SOL    HW136581   3.461   1.739  13.159 -0.6925 -0.6902  0.6485
 8315SOL    HW236582   3.587   1.809  13.201 -0.1936 -1.0853 -0.5676
 8316SOL     OW36583   1.170   1.116  13.669  0.0324 -0.5493 -0.0358
 8316SOL    HW136584   1.092   1.131  13.723  0.3253 -0.3447  0.3313
 8316SOL    HW236585   1.152   1.182  13.602  1.4893  0.3788  0.4907
 8317SOL     OW36586   0.366   1.880   7.950  0.0593  0.3399  0.0331
 8317SOL    HW136587   0.402   1.792   7.961 -0.6750  0.0863  0.4129
 8317SOL    HW236588   0.306   1.858   7.878  2.4425  0.1511 -1.9413
 8318SOL     OW36589   2.540   3.103   8.362 -0.7057  0.1615 -0.0684
 8318SOL    HW136590   2.470   3.092   8.426  0.6840 -0.1495  1.3931
 8318SOL    HW236591   2.615   3.099   8.421 -0.7834 -0.1280  0.0075
 8319SOL     OW36592   0.255   2.085   3.427  0.3048 -0.0437  0.1354
 8319SOL    HW136593   0.267   1.999   3.468 -2.0640 -0.4885 -0.0782
 8319SOL    HW236594   0.345   2.103   3.399  0.4218  0.6104  0.9261
 8320SOL     OW36595   0.217   4.336   3.627 -0.5080 -0.0887 -0.1763
 8320SOL    HW136596   0.142   4.309   3.574  0.2762 -0.3815 -1.1571
 8320SOL    HW236597   0.177   4.394   3.691  1.4268 -0.3788  1.3071
 8321SOL     OW36598   0.047   2.483   5.149  0.0714 -0.2505  0.0100
 8321SOL    HW136599   0.056   2.547   5.078  0.7222 -1.5180 -1.0593
 8321SOL    HW236600   0.139   2.455   5.143  0.7858  2.2675 -0.8403
 8322SOL     OW36601   1.245   4.314   4.352  0.8388  0.4700 -0.1521
 8322SOL    HW136602   1.245   4.386   4.289 -0.3091  0.0926 -0.5883
 8322SOL    HW236603   1.157   4.275   4.353  1.7691 -1.6251 -0.1415
 8323SOL     OW36604   4.154   1.031   3.688  0.0935 -0.4675  0.2890
 8323SOL    HW136605   4.101   1.077   3.623  0.3652 -2.6257 -1.4356
 8323SOL    HW236606   4.151   0.941   3.657  0.4264 -1.3597  2.8773
 8324SOL     OW36607   0.144   0.912   4.414 -0.1843  1.0303  0.1738
 8324SOL    HW136608   0.154   0.824   4.451 -0.3071  0.4165 -1.2331
 8324SOL    HW236609   0.217   0.914   4.352 -0.0867 -0.6861  0.2342
 8325SOL     OW36610   4.659   0.690   0.034 -0.5463  0.0372  0.2056
 8325SOL    HW136611   4.576   0.709  17.745  0.2888  0.8006 -1.0130
 8325SOL    HW236612   4.717   0.677  17.715 -1.1813  0.5057 -0.3670
 8326SOL     OW36613   4.056   3.857   7.138 -0.0415 -0.0663  0.6416
 8326SOL    HW136614   4.013   3.873   7.054  0.8978 -0.0949  0.1578
 8326SOL    HW236615   4.135   3.810   7.114  1.5836  2.1115  1.7345
 8327SOL     OW36616   4.474   2.077   3.503 -0.0618  0.4937 -0.0554
 8327SOL    HW136617   4.389   2.040   3.527  0.2167  0.9972  1.6825
 8327SOL    HW236618   4.530   2.053   3.576  0.5450  0.6784 -0.4609
 8328SOL     OW36619   2.888   0.424   2.087  0.3386  0.5388  0.5432
 8328SOL    HW136620   2.963   0.426   2.147 -0.4846  5.7604  1.3849
 8328SOL    HW236621   2.914   0.479   2.014 -1.3495  0.1139 -0.3852
 8329SOL     OW36622   2.823   4.355   7.660 -0.4995 -0.4607  0.2307
 8329SOL    HW136623   2.795   4.265   7.643  2.6702 -1.3319 -0.3008
 8329SOL    HW236624   2.777   4.373   7.742 -0.5660 -0.2122  0.1391
 8330SOL     OW36625   2.873   4.345  15.969 -0.0085  0.5639 -0.0435
 8330SOL    HW136626   2.849   4.261  15.928 -0.0248  0.1461  0.8198
 8330SOL    HW236627   2.962   4.371  15.944  0.6933 -1.5073  0.2544
 8331SOL     OW36628   4.526   1.496  11.339  0.5189 -0.1110 -0.0140
 8331SOL    HW136629   4.490   1.541  11.415 -0.8384  0.4827 -1.0095
 8331SOL    HW236630   4.620   1.492  11.360  1.0894  1.1653 -2.2377
 8332SOL     OW36631   1.409   3.813   8.374  0.5692 -0.0178  0.1300
 8332SOL    HW136632   1.416   3.814   8.279  0.2079 -0.3616  0.0992
 8332SOL    HW236633   1.478   3.875   8.398 -0.8764  0.9675  1.7229
 8333SOL     OW36634   4.597   3.295   1.969 -0.1044 -0.2325 -0.3206
 8333SOL    HW136635   4.611   3.342   1.887 -0.9951  1.5721  0.5546
 8333SOL    HW236636   4.674   3.237   1.966  0.9801  1.1605  1.0598
 8334SOL     OW36637   1.014   4.638   4.203 -0.4264 -0.7886  0.3858
 8334SOL    HW136638   0.986   4.550   4.229 -1.7996 -0.2526  0.7048
 8334SOL    HW236639   0.985   4.691   4.277  1.3133 -0.3013  0.7210
 8335SOL     OW36640   1.749   2.799   7.028  0.4086  0.0333  0.3776
 8335SOL    HW136641   1.746   2.721   6.973 -1.9666 -0.1380  0.7247
 8335SOL    HW236642   1.836   2.789   7.065  0.3919 -0.5199  0.2605
 8336SOL     OW36643   2.580   1.322   2.196 -0.4878 -0.1587 -0.2075
 8336SOL    HW136644   2.623   1.330   2.281 -2.0139  0.1782  0.5435
 8336SOL    HW236645   2.625   1.251   2.150  2.1486  0.7695  0.9573
 8337SOL     OW36646   2.684   3.265   2.268  0.7655 -0.8692  0.1646
 8337SOL    HW136647   2.705   3.226   2.353 -3.5549  0.4647  1.8571
 8337SOL    HW236648   2.656   3.354   2.291 -1.9599 -2.1972  1.9740
 8338SOL     OW36649   0.108   3.445   6.897  0.0807 -0.5513 -0.1980
 8338SOL    HW136650   0.130   3.368   6.844  0.6428 -0.3127 -0.3108
 8338SOL    HW236651   0.154   3.506   6.839 -0.4020  0.7415  0.7809
 8339SOL     OW36652   2.546   4.556   4.419  0.4168 -0.3509  0.6301
 8339SOL    HW136653   2.477   4.617   4.390  0.7233 -1.6576 -2.8848
 8339SOL    HW236654   2.553   4.570   4.513 -0.8320  0.1211  0.6595
 8340SOL     OW36655   2.080   2.008  15.130  0.1223  0.0050  0.0856
 8340SOL    HW136656   2.111   1.938  15.074  2.2792  2.0703 -1.3010
 8340SOL    HW236657   2.019   1.952  15.178 -0.4151  0.9096  0.4736
 8341SOL     OW36658   2.176   3.215   4.584  0.2948 -0.2619 -0.1194
 8341SOL    HW136659   2.254   3.159   4.580  0.4397 -0.0624 -0.0968
 8341SOL    HW236660   2.208   3.291   4.632  0.2387 -0.6181  0.4726
 8342SOL     OW36661   4.141   3.171   9.384 -0.2039 -0.2750  0.1299
 8342SOL    HW136662   4.067   3.197   9.328 -1.6000  0.6029  2.4029
 8342SOL    HW236663   4.101   3.107   9.442 -1.3115  0.6544  0.3867
 8343SOL     OW36664   2.928   0.229  11.457  0.0537 -0.8534 -0.3422
 8343SOL    HW136665   2.835   0.214  11.440 -0.2369  1.7585 -1.0434
 8343SOL    HW236666   2.924   0.309  11.510  1.3147 -1.8796  1.3188
 8344SOL     OW36667   3.221   4.057   8.680  0.5536  0.7761 -0.4316
 8344SOL    HW136668   3.131   4.026   8.687  1.1376 -0.3912  1.9661
 8344SOL    HW236669   3.256   3.968   8.670  1.9898  1.4427 -1.4232
 8345SOL     OW36670   3.805   3.476   2.135 -0.0313 -0.1632  0.3073
 8345SOL    HW136671   3.815   3.536   2.209  0.6159  1.1423 -0.8496
 8345SOL    HW236672   3.798   3.389   2.174 -1.3264  0.3612  1.2413
 8346SOL     OW36673   0.920   4.105   0.859 -0.1019 -0.1097 -0.1790
 8346SOL    HW136674   0.888   4.064   0.779  1.3396 -2.0716  0.2570
 8346SOL    HW236675   1.012   4.115   0.836 -0.3798 -0.8182 -1.6033
 8347SOL     OW36676   4.477   0.835   4.674 -0.2676  0.1970 -0.0744
 8347SOL    HW136677   4.482   0.899   4.603 -0.6451 -0.6118 -0.8391
 8347SOL    HW236678   4.500   0.749   4.639 -1.8813 -1.4729  2.9972
 8348SOL     OW36679   0.382   2.480   5.043 -0.4278 -0.0366 -0.0414
 8348SOL    HW136680   0.443   2.419   5.002 -0.0152  1.3104 -1.4444
 8348SOL    HW236681   0.440   2.556   5.055  1.2410 -1.6850  2.2773
 8349SOL     OW36682   0.366   0.624   6.576  0.5273  0.2198  0.6966
 8349SOL    HW136683   0.272   0.618   6.597  0.4482 -0.2016  0.2350
 8349SOL    HW236684   0.393   0.535   6.600  1.7217  0.4488  0.1903
 8350SOL     OW36685   4.377   4.067   0.829  0.0152 -0.2647 -0.4252
 8350SOL    HW136686   4.284   4.088   0.832  0.7661  2.7954  1.0387
 8350SOL    HW236687   4.408   4.144   0.877  1.4044 -1.1494  0.0958
 8351SOL     OW36688   2.629   4.105   2.321 -0.0979  0.0631  0.5127
 8351SOL    HW136689   2.706   4.074   2.367 -2.6324 -2.6770  2.9262
 8351SOL    HW236690   2.616   4.046   2.247 -0.6966 -1.2005  1.6157
 8352SOL     OW36691   1.971   0.261   7.819 -0.1427  0.4193 -0.1750
 8352SOL    HW136692   1.980   0.312   7.738  1.5968 -1.2964 -1.0531
 8352SOL    HW236693   2.063   0.237   7.826 -0.3813 -0.3322  0.3910
 8353SOL     OW36694   2.026   0.316   6.822 -0.1477  0.1865 -0.1709
 8353SOL    HW136695   2.085   0.372   6.872 -0.3108  0.6038 -0.4456
 8353SOL    HW236696   1.950   0.374   6.826 -0.7938 -0.7350  0.7753
 8354SOL     OW36697   2.168   3.134   8.275 -0.2264 -0.0544  0.2623
 8354SOL    HW136698   2.249   3.085   8.262 -1.3097 -1.9982  0.8868
 8354SOL    HW236699   2.157   3.157   8.183  0.7204 -0.2557  0.1042
 8355SOL     OW36700   0.228   0.190   0.189  0.6682 -0.2073 -0.4201
 8355SOL    HW136701   0.231   0.218   0.281 -0.9583 -1.3089 -0.0288
 8355SOL    HW236702   0.137   0.171   0.166 -0.1818  2.6918  0.5984
 8356SOL     OW36703   0.390   4.234   4.467 -0.5192 -0.3219  0.0023
 8356SOL    HW136704   0.299   4.249   4.492 -0.0540 -0.1781  1.6226
 8356SOL    HW236705   0.392   4.263   4.376  0.3659  1.0439  0.4541
 8357SOL     OW36706   2.340   2.256   9.642  0.2015 -0.3774 -0.1573
 8357SOL    HW136707   2.293   2.335   9.669 -1.9832 -1.7616  0.1113
 8357SOL    HW236708   2.385   2.298   9.568  1.1581 -1.5054 -0.2188
 8358SOL     OW36709   1.859   3.379   6.941  0.8044  0.1265 -0.3383
 8358SOL    HW136710   1.769   3.347   6.927  0.1736  2.0747 -0.6747
 8358SOL    HW236711   1.843   3.472   6.925 -0.1046  0.0962  0.3371
 8359SOL     OW36712   2.832   0.865   4.172  0.5199 -0.5281 -0.1406
 8359SOL    HW136713   2.904   0.811   4.139  0.9790  0.0018 -0.0144
 8359SOL    HW236714   2.783   0.804   4.226  1.5579 -1.2915 -0.0470
 8360SOL     OW36715   0.751   3.697   5.264 -0.4730 -0.0484  0.0995
 8360SOL    HW136716   0.758   3.691   5.169 -0.9448  0.8737  0.0041
 8360SOL    HW236717   0.838   3.731   5.286  0.6996 -4.0654  1.6600
 8361SOL     OW36718   2.933   4.600   3.616  0.3430 -0.4626 -0.0935
 8361SOL    HW136719   2.916   4.537   3.547  0.7861 -0.8666  0.1663
 8361SOL    HW236720   3.004   4.556   3.662 -1.0298 -0.0806  2.3853
 8362SOL     OW36721   1.428   2.253   1.888  0.1386 -0.0014  0.2127
 8362SOL    HW136722   1.387   2.285   1.807  0.6957  0.7995  0.2482
 8362SOL    HW236723   1.348   2.221   1.928 -1.6927 -0.3061 -3.6480
 8363SOL     OW36724   2.946   2.995   1.219 -0.4234 -0.1803  0.9829
 8363SOL    HW136725   2.943   3.004   1.314 -0.2247 -1.4914  1.1218
 8363SOL    HW236726   2.926   3.085   1.193 -0.9368 -1.1142 -1.8815
 8364SOL     OW36727   1.250   3.235  11.185 -0.1348 -0.1458  0.4998
 8364SOL    HW136728   1.313   3.305  11.170  1.2609 -1.7398 -1.0388
 8364SOL    HW236729   1.248   3.197  11.097  1.5419 -2.8123  1.6181
 8365SOL     OW36730   3.058   0.243   8.681 -0.0776  0.1726 -0.4377
 8365SOL    HW136731   2.978   0.294   8.669 -1.2343 -1.7978 -1.1931
 8365SOL    HW236732   3.105   0.306   8.735  1.2199  1.6328 -3.2599
 8366SOL     OW36733   0.250   1.248  15.341 -0.6050 -0.1436 -0.1537
 8366SOL    HW136734   0.181   1.186  15.320 -1.6800  1.4758 -1.4583
 8366SOL    HW236735   0.326   1.196  15.316  0.7378  0.9644  1.5758
 8367SOL     OW36736   2.860   4.191   5.305  0.6847  0.3469  0.5077
 8367SOL    HW136737   2.772   4.219   5.280  0.0444 -0.5989  1.7116
 8367SOL    HW236738   2.846   4.207   5.398  0.7884 -0.6521  0.6982
 8368SOL     OW36739   2.729   2.839   3.603 -0.0122 -0.6184  0.3622
 8368SOL    HW136740   2.804   2.842   3.662 -1.6640 -0.2661  2.4383
 8368SOL    HW236741   2.768   2.873   3.523 -0.7059  0.2950  0.4123
 8369SOL     OW36742   0.157   4.006   4.331 -0.5574  0.1653 -0.5710
 8369SOL    HW136743   0.230   3.958   4.369 -1.8446 -2.1990 -1.1061
 8369SOL    HW236744   0.190   4.090   4.298 -2.6850  0.5658 -1.6865
 8370SOL     OW36745   3.860   3.153  11.120 -0.4280 -0.5040 -0.0847
 8370SOL    HW136746   3.876   3.246  11.103 -0.0738 -0.4687  0.4484
 8370SOL    HW236747   3.872   3.159  11.215 -2.2788  2.8326 -0.0379
 8371SOL     OW36748   0.783   1.931   7.148  0.0861  0.5111  0.5478
 8371SOL    HW136749   0.696   1.947   7.113  1.3043 -0.7923 -3.0700
 8371SOL    HW236750   0.812   1.864   7.086 -0.2302 -2.1908  3.2879
 8372SOL     OW36751   3.741   4.520   6.927 -0.1877  0.5223  0.3303
 8372SOL    HW136752   3.822   4.570   6.921 -0.2198  0.7244  1.6832
 8372SOL    HW236753   3.717   4.511   6.834  1.9202  2.5218 -0.3925
 8373SOL     OW36754   2.362   1.374   5.257  0.1416  0.0211 -0.0746
 8373SOL    HW136755   2.290   1.347   5.313 -0.6398  0.1666 -1.0183
 8373SOL    HW236756   2.415   1.295   5.247 -0.2286 -0.2509  0.1334
 8374SOL     OW36757   4.461   4.533   6.727  0.2842  0.5449 -0.0677
 8374SOL    HW136758   4.380   4.577   6.755 -0.6246 -0.3899 -1.2392
 8374SOL    HW236759   4.533   4.593   6.710  0.6985  0.4235  1.2084
 8375SOL     OW36760   3.727   3.124   3.867 -0.0708 -0.7770 -0.5884
 8375SOL    HW136761   3.726   3.210   3.908 -2.3621 -1.9547  1.8301
 8375SOL    HW236762   3.815   3.120   3.830 -0.5142  1.1166 -1.8376
 8376SOL     OW36763   3.360   3.086   3.749 -0.2234 -0.1734  0.0123
 8376SOL    HW136764   3.286   3.127   3.705 -2.1840 -0.7594  2.7122
 8376SOL    HW236765   3.401   3.166   3.782 -1.2489  0.0803  0.6726
 8377SOL     OW36766   1.113   2.568  12.610 -0.1920 -0.2680 -0.3588
 8377SOL    HW136767   1.102   2.625  12.686  0.2804 -0.7959  0.1102
 8377SOL    HW236768   1.031   2.520  12.598 -0.0958 -0.5506  0.1103
 8378SOL     OW36769   3.210   2.406   8.845 -0.0699 -0.1110 -0.4711
 8378SOL    HW136770   3.240   2.334   8.900 -0.5644  0.7770  0.9907
 8378SOL    HW236771   3.284   2.426   8.789 -0.6575 -0.5579 -1.3995
 8379SOL     OW36772   2.181   1.416   8.819 -0.4236  0.1026 -0.0768
 8379SOL    HW136773   2.153   1.476   8.888  0.2962 -1.0567  1.2525
 8379SOL    HW236774   2.121   1.345   8.844  0.9308 -1.0374 -0.0621
 8380SOL     OW36775   3.423   3.113   5.861  0.6651 -0.2134  0.1409
 8380SOL    HW136776   3.385   3.181   5.805  1.9003 -0.4202 -0.9401
 8380SOL    HW236777   3.468   3.064   5.793  3.4769  2.7659 -0.1799
 8381SOL     OW36778   2.133   3.844   2.755  0.7664 -0.7331  0.6752
 8381SOL    HW136779   2.226   3.862   2.750  0.7473 -0.5469  0.9496
 8381SOL    HW236780   2.118   3.823   2.848 -1.7777 -0.2286  0.3850
 8382SOL     OW36781   4.728   0.912   7.410 -0.7005  0.3125  0.3479
 8382SOL    HW136782   4.687   0.989   7.449 -0.4821  1.3411 -1.4348
 8382SOL    HW236783   0.064   0.912   7.468 -0.1165  0.2240 -0.4166
 8383SOL     OW36784   4.303   2.263   6.795 -0.2942 -0.2762 -0.5264
 8383SOL    HW136785   4.357   2.341   6.806 -1.0165  0.1093  0.2601
 8383SOL    HW236786   4.362   2.195   6.827 -0.3820  0.1555  0.5305
 8384SOL     OW36787   0.226   4.275  11.064 -0.0444 -0.5073  0.1290
 8384SOL    HW136788   0.274   4.191  11.062 -0.4204 -0.7533  2.1605
 8384SOL    HW236789   0.192   4.278  10.974 -2.5127 -2.0578  1.0024
 8385SOL     OW36790   3.070   2.303   5.316  0.2612 -0.1484 -0.1595
 8385SOL    HW136791   3.042   2.325   5.405  0.3406 -0.3089 -0.0952
 8385SOL    HW236792   3.148   2.252   5.336  1.8757  2.2835 -0.3082
 8386SOL     OW36793   2.650   3.030   4.262 -1.0743  0.5131  0.1756
 8386SOL    HW136794   2.669   3.041   4.169 -0.6654 -0.1684  0.1796
 8386SOL    HW236795   2.656   3.118   4.300 -0.9933  0.8205 -0.5428
 8387SOL     OW36796   1.764   1.833   0.468 -0.1949  0.3615 -0.0094
 8387SOL    HW136797   1.847   1.875   0.488  0.9184 -0.7079 -2.4662
 8387SOL    HW236798   1.745   1.857   0.377 -0.4143 -2.2008 -0.6444
 8388SOL     OW36799   3.537   2.894  16.766 -0.3348  0.2957 -0.4783
 8388SOL    HW136800   3.484   2.897  16.845 -1.0187  0.1450 -0.9334
 8388SOL    HW236801   3.528   2.986  16.740 -0.4378  1.3965  3.4688
 8389SOL     OW36802   0.296   1.155   3.851  0.5091 -0.0963 -0.4892
 8389SOL    HW136803   0.202   1.141   3.834  0.2029  2.4978 -0.9159
 8389SOL    HW236804   0.305   1.069   3.892 -0.5245  0.0575  0.0638
 8390SOL     OW36805   1.439   2.176   7.931 -0.4698  0.1150 -0.4916
 8390SOL    HW136806   1.380   2.244   7.899  1.0745  1.4259 -0.5856
 8390SOL    HW236807   1.411   2.149   8.019 -0.2162  0.0109 -0.4426
 8391SOL     OW36808   1.717   2.369   9.190 -0.4565 -0.5846 -0.0900
 8391SOL    HW136809   1.697   2.461   9.207 -1.2295 -0.9075  0.7584
 8391SOL    HW236810   1.758   2.383   9.105  0.1674 -0.9734  0.1463
 8392SOL     OW36811   3.161   4.499   3.250  0.0417 -0.1086  0.2248
 8392SOL    HW136812   3.182   4.406   3.257  3.9183  0.6394 -2.0204
 8392SOL    HW236813   3.242   4.541   3.278 -0.6415  1.4156 -0.0503
 8393SOL     OW36814   0.715   0.215   1.908  0.6932 -0.2467 -0.3354
 8393SOL    HW136815   0.779   0.172   1.851  0.4782 -2.1717  0.8719
 8393SOL    HW236816   0.731   0.309   1.904  0.9258 -0.2835 -0.2691
 8394SOL     OW36817   1.283   3.544   9.730  0.2358  0.8515  0.2230
 8394SOL    HW136818   1.261   3.451   9.722 -0.2867  0.8080  2.1502
 8394SOL    HW236819   1.257   3.575   9.643 -1.1422  1.6335  0.9283
 8395SOL     OW36820   2.820   1.690   7.448 -0.1250 -0.2437 -0.4245
 8395SOL    HW136821   2.749   1.744   7.413 -2.1232 -2.8094 -0.2735
 8395SOL    HW236822   2.894   1.712   7.391 -0.1892 -0.9534 -0.7720
 8396SOL     OW36823   0.215   1.501   2.291 -0.4738 -0.0361 -0.1030
 8396SOL    HW136824   0.291   1.526   2.239 -0.8934 -0.1525 -0.7642
 8396SOL    HW236825   0.144   1.510   2.227 -0.4484 -0.9572 -0.2606
 8397SOL     OW36826   2.455   4.249   8.947  0.4224 -0.3120 -0.1865
 8397SOL    HW136827   2.428   4.332   8.908  1.1756  0.0669  0.0842
 8397SOL    HW236828   2.497   4.204   8.874  1.3164  1.1419 -0.5854
 8398SOL     OW36829   0.935   1.253   1.761 -0.1077  0.7427 -0.0882
 8398SOL    HW136830   0.852   1.274   1.803  0.9583  0.6084  2.1031
 8398SOL    HW236831   0.918   1.160   1.745  0.6053  0.3377  1.5190
 8399SOL     OW36832   4.030   2.382   3.304  0.4119 -0.7280 -0.5973
 8399SOL    HW136833   4.103   2.425   3.258 -1.6540  0.9741 -2.2655
 8399SOL    HW236834   4.069   2.315   3.360  0.8483  0.6044  0.7041
 8400SOL     OW36835   4.258   0.147   7.964  0.1310 -0.1876 -0.2667
 8400SOL    HW136836   4.178   0.095   7.971  0.6269 -1.1052 -1.4357
 8400SOL    HW236837   4.209   0.226   7.987 -1.3084 -1.2947  0.4009
 8401SOL     OW36838   0.994   3.238   0.178 -0.2444  0.7445 -0.3117
 8401SOL    HW136839   1.037   3.316   0.144 -2.0737  2.5372  1.5287
 8401SOL    HW236840   0.941   3.271   0.250  0.3686  0.1653  0.4069
 8402SOL     OW36841   3.530   0.824   2.277 -0.1771 -0.0615  0.3837
 8402SOL    HW136842   3.447   0.782   2.256 -0.4695  1.3524 -1.2812
 8402SOL    HW236843   3.563   0.767   2.347  2.0975  1.3373  0.4581
 8403SOL     OW36844   0.562   2.074   5.709 -0.0296  0.2201  0.5325
 8403SOL    HW136845   0.526   2.162   5.721  0.0852  0.2947  0.3201
 8403SOL    HW236846   0.548   2.061   5.615 -1.6496  2.1241  0.5049
 8404SOL     OW36847   0.129   0.163   8.735  0.2495 -0.3847 -0.9623
 8404SOL    HW136848   0.169   0.100   8.676  1.2946 -0.5150 -0.1084
 8404SOL    HW236849   0.206   0.211   8.765  0.4435 -1.3614  0.1079
 8405SOL     OW36850   3.926   4.005   6.043  0.6473 -0.7003  0.2655
 8405SOL    HW136851   3.901   4.017   5.951  0.8120  0.2160  0.3452
 8405SOL    HW236852   4.008   4.054   6.046  1.5423 -2.1934 -0.0245
 8406SOL     OW36853   0.455   0.134   6.070  0.4597 -0.0966  0.1862
 8406SOL    HW136854   0.506   0.191   6.128 -0.6114  1.2003 -0.1526
 8406SOL    HW236855   0.449   0.193   5.995 -2.2689 -0.7193 -0.0969
 8407SOL     OW36856   3.050   1.586   6.915  0.2991  0.0497  0.5659
 8407SOL    HW136857   3.024   1.654   6.852  0.2656  0.5670  1.1381
 8407SOL    HW236858   3.094   1.520   6.863 -1.5219 -0.4175 -0.4102
 8408SOL     OW36859   0.309   3.718   9.547  0.4291  0.2721  0.3411
 8408SOL    HW136860   0.365   3.661   9.495 -1.0671 -1.6829  0.8658
 8408SOL    HW236861   0.268   3.653   9.605  0.2255 -0.5358 -0.7257
 8409SOL     OW36862   4.084   0.300   4.378  0.0482 -0.2031 -0.4635
 8409SOL    HW136863   4.072   0.246   4.456 -2.4792  0.1043 -0.6542
 8409SOL    HW236864   4.151   0.365   4.401 -0.1095  0.0127 -0.6099
 8410SOL     OW36865   2.541   0.891   8.926 -0.2545  0.7038 -0.0780
 8410SOL    HW136866   2.500   0.974   8.901  0.6649  1.1660 -0.0425
 8410SOL    HW236867   2.608   0.873   8.860 -0.3507 -2.5592  0.7349
 8411SOL     OW36868   2.762   0.862   3.501  0.0730  0.2231  0.0263
 8411SOL    HW136869   2.743   0.904   3.585  1.8489 -2.6166  1.8262
 8411SOL    HW236870   2.782   0.773   3.528  1.9742  0.3825 -0.8159
 8412SOL     OW36871   1.575   0.963   2.333  0.3943 -0.5776  0.4408
 8412SOL    HW136872   1.492   1.011   2.331  0.4696 -0.5498 -1.8965
 8412SOL    HW236873   1.576   0.931   2.243 -1.7707  0.1051  0.1637
 8413SOL     OW36874   1.295   1.927  12.138 -0.4245  0.0210  0.4310
 8413SOL    HW136875   1.305   2.014  12.099  1.2957 -0.1725  0.4418
 8413SOL    HW236876   1.374   1.919  12.193  0.3997  3.3499 -0.2498
 8414SOL     OW36877   1.823   3.763   1.873  0.6070  0.0305 -0.1353
 8414SOL    HW136878   1.793   3.787   1.960  1.1672  1.4503 -0.3373
 8414SOL    HW236879   1.735   3.742   1.841  0.2798 -0.8775  1.3712
 8415SOL     OW36880   2.380   2.068   8.265 -0.6676  0.5995  0.2118
 8415SOL    HW136881   2.469   2.049   8.233 -1.6665 -1.8687 -1.0645
 8415SOL    HW236882   2.325   1.999   8.229  1.9364 -1.8229  0.8906
 8416SOL     OW36883   3.650   0.341  10.225  0.2269  0.0326  1.2086
 8416SOL    HW136884   3.663   0.434  10.247  0.9336 -0.2775  2.1188
 8416SOL    HW236885   3.694   0.334  10.141 -1.2083 -1.7045  0.6214
 8417SOL     OW36886   2.219   1.681  14.659 -0.0818  0.0831  0.3430
 8417SOL    HW136887   2.220   1.612  14.593  1.8666  1.2036 -0.7632
 8417SOL    HW236888   2.237   1.755  14.602 -1.3458  0.1571  0.0308
 8418SOL     OW36889   3.423   3.706   2.716 -0.0737  0.0298  0.1456
 8418SOL    HW136890   3.428   3.693   2.811  0.9391  1.6555  0.3027
 8418SOL    HW236891   3.401   3.614   2.699  0.0181 -0.3622  2.1401
 8419SOL     OW36892   2.438   1.980  15.858  0.1263 -0.1887 -0.0596
 8419SOL    HW136893   2.383   1.997  15.935  1.5279 -0.7448  1.0536
 8419SOL    HW236894   2.372   2.000  15.791  0.1711  0.4669  0.0892
 8420SOL     OW36895   4.725   1.096   4.899  0.1992  0.5509 -0.0797
 8420SOL    HW136896   4.676   1.114   4.819 -0.1203 -0.0776 -0.0264
 8420SOL    HW236897   0.069   1.097   4.853 -0.5280  1.7766 -1.3765
 8421SOL     OW36898   3.798   1.348   5.988 -0.0481  0.0874 -0.1217
 8421SOL    HW136899   3.833   1.272   6.035  0.1469  1.5383  2.0761
 8421SOL    HW236900   3.764   1.305   5.910  0.0513  0.2139 -0.2356
 8422SOL     OW36901   2.357   1.808   4.997  0.0524 -0.3956 -0.4582
 8422SOL    HW136902   2.314   1.740   5.049  0.6874 -0.4837 -0.0494
 8422SOL    HW236903   2.324   1.785   4.910  0.0772  0.3353 -0.6626
 8423SOL     OW36904   1.506   2.397   7.226 -0.4590  0.1837  1.1230
 8423SOL    HW136905   1.425   2.402   7.277 -0.2614  0.1085  1.4411
 8423SOL    HW236906   1.558   2.348   7.288  0.6425  1.8397  1.5121
 8424SOL     OW36907   1.683   0.186   4.534  0.0790  0.0566 -0.2231
 8424SOL    HW136908   1.601   0.228   4.558 -0.1406 -1.1838  1.2352
 8424SOL    HW236909   1.647   0.104   4.500  1.1015 -1.0831  1.4021
 8425SOL     OW36910   1.361   4.704   0.979  0.2442 -0.3375 -0.0188
 8425SOL    HW136911   1.407   4.738   1.056 -0.8645 -2.9021  1.7638
 8425SOL    HW236912   1.436   4.700   0.920  1.0664  0.7428  0.9335
 8426SOL     OW36913   1.451   3.152  14.696  0.2927 -0.2503  0.4218
 8426SOL    HW136914   1.380   3.196  14.743  0.0439 -0.3500  0.1447
 8426SOL    HW236915   1.400   3.075  14.672  0.8918 -1.0176  1.6631
 8427SOL     OW36916   4.102   1.376  10.675 -0.6978 -0.0504 -0.0352
 8427SOL    HW136917   4.122   1.356  10.767  0.9019 -2.6690 -0.9579
 8427SOL    HW236918   4.122   1.298  10.624 -0.1101  0.9805 -1.3891
 8428SOL     OW36919   0.227   3.274   2.416 -0.4306 -0.0634 -0.4041
 8428SOL    HW136920   0.208   3.217   2.342  1.0620 -0.2370 -0.6567
 8428SOL    HW236921   0.195   3.216   2.486  0.7908  1.0516  1.0822
 8429SOL     OW36922   4.622   4.195   6.124 -0.0236  0.5514  0.0063
 8429SOL    HW136923   4.615   4.282   6.086  2.1943  0.7011 -0.0333
 8429SOL    HW236924   4.716   4.183   6.111 -0.2362 -1.3561  0.2774
 8430SOL     OW36925   1.557   1.832   2.254 -0.4517  0.4852  0.3777
 8430SOL    HW136926   1.624   1.893   2.222 -1.3608  1.0320 -0.4918
 8430SOL    HW236927   1.476   1.870   2.219  0.5331  0.2959 -2.1364
 8431SOL     OW36928   3.169   4.161  16.429 -0.0929 -0.2895 -0.4407
 8431SOL    HW136929   3.228   4.161  16.354  1.1555 -1.3261  0.5296
 8431SOL    HW236930   3.094   4.195  16.381  0.0162 -1.2011 -1.2526
 8432SOL     OW36931   3.304   0.938   2.980  0.0694 -0.3482 -0.1943
 8432SOL    HW136932   3.327   1.031   2.971 -1.7747  0.1185 -0.0169
 8432SOL    HW236933   3.349   0.902   3.057 -1.6528  1.6292  1.7177
 8433SOL     OW36934   0.702   3.136   7.681 -0.0375 -0.3881  1.0830
 8433SOL    HW136935   0.709   3.223   7.640  0.1480  0.1758  2.3144
 8433SOL    HW236936   0.736   3.084   7.608  2.4600 -0.7924  2.5232
 8434SOL     OW36937   2.819   2.303   8.734  0.3134  0.5173  0.0476
 8434SOL    HW136938   2.740   2.255   8.713 -0.1261  1.1287  0.2903
 8434SOL    HW236939   2.785   2.378   8.783 -1.7946 -0.2709 -0.2542
 8435SOL     OW36940   3.211   2.095   1.858  0.3306  1.2277  0.1970
 8435SOL    HW136941   3.126   2.093   1.901 -0.8667  0.2067 -2.1955
 8435SOL    HW236942   3.205   2.019   1.800  1.9069  0.6222  0.8347
 8436SOL     OW36943   3.169   3.654   5.212  0.3530 -0.7261 -0.4653
 8436SOL    HW136944   3.195   3.731   5.162  1.6783  0.0442  1.4009
 8436SOL    HW236945   3.090   3.630   5.163 -1.7860  1.9127  1.6582
 8437SOL     OW36946   0.009   3.505   8.075 -0.0838  0.0577 -0.3122
 8437SOL    HW136947   0.063   3.463   8.141 -0.6198  1.5357  1.0520
 8437SOL    HW236948   0.045   3.594   8.073  0.8669 -0.3071  0.8778
 8438SOL     OW36949   0.502   2.719  12.271 -0.5880  0.0947  0.2991
 8438SOL    HW136950   0.424   2.693  12.319 -0.5697 -3.0420 -1.3616
 8438SOL    HW236951   0.568   2.755  12.330 -1.2892 -1.4840  2.0360
 8439SOL     OW36952   1.873   0.211  16.016  0.2697  0.3350 -0.3494
 8439SOL    HW136953   1.866   0.282  16.080 -0.7427  1.0467 -1.2398
 8439SOL    HW236954   1.948   0.165  16.055 -0.3640  1.0775  1.7850
 8440SOL     OW36955   3.237   0.659   2.542 -0.0323 -0.0940  0.3751
 8440SOL    HW136956   3.222   0.702   2.625  1.1452  1.5712 -0.2766
 8440SOL    HW236957   3.313   0.707   2.508 -0.4418  0.2142 -0.1002
 8441SOL     OW36958   2.815   2.981   3.386 -0.6412 -0.1393 -0.7868
 8441SOL    HW136959   2.856   2.950   3.305  3.3330 -1.2238  1.6199
 8441SOL    HW236960   2.846   3.071   3.392  1.3640 -0.9394  0.7700
 8442SOL     OW36961   4.067   4.293   7.140  0.8494  0.1849  0.1062
 8442SOL    HW136962   4.103   4.340   7.064  0.2885  1.3832  0.5695
 8442SOL    HW236963   4.097   4.353   7.209 -0.8182  0.0323  0.9679
 8443SOL     OW36964   1.857   2.380   7.384 -0.3967  0.1046 -0.5592
 8443SOL    HW136965   1.940   2.412   7.420  0.2785 -3.3308  0.9838
 8443SOL    HW236966   1.810   2.459   7.358  1.4476  1.0485 -1.0255
 8444SOL     OW36967   3.218   4.697   5.468 -0.1176 -0.3848 -0.4840
 8444SOL    HW136968   3.286   4.643   5.509 -1.4812 -1.4480  0.3649
 8444SOL    HW236969   3.190   4.654   5.388 -2.4313  1.3042 -0.5865
 8445SOL     OW36970   0.022   3.722   2.642  0.2388  0.2597 -0.0722
 8445SOL    HW136971   4.735   3.787   2.708  0.8014 -1.2186  1.6273
 8445SOL    HW236972   0.117   3.735   2.648  0.2786  0.3838 -1.0119
 8446SOL     OW36973   0.771   0.550  15.098  0.4522 -0.3893  0.5873
 8446SOL    HW136974   0.711   0.614  15.137 -0.2162 -1.3208  1.1063
 8446SOL    HW236975   0.712   0.479  15.072  1.6176 -0.9609 -0.4961
 8447SOL     OW36976   4.676   3.738   9.115 -0.3779 -0.3211  0.1977
 8447SOL    HW136977   0.031   3.741   9.130  0.0039 -1.8611 -1.8792
 8447SOL    HW236978   4.636   3.677   9.176 -1.3787  0.4086  0.2813
 8448SOL     OW36979   2.177   2.078   9.162  0.0442  0.1391  0.0327
 8448SOL    HW136980   2.112   2.148   9.166 -0.1067  0.0205 -0.2992
 8448SOL    HW236981   2.160   2.041   9.075 -1.7860 -1.5004  1.0844
 8449SOL     OW36982   3.517   1.690   7.606  0.2132  0.4857  0.0244
 8449SOL    HW136983   3.596   1.745   7.605  0.9052 -0.4991  0.3672
 8449SOL    HW236984   3.560   1.613   7.641  0.9951  0.3983 -1.1137
 8450SOL     OW36985   1.033   1.120  12.023  0.0098  0.6993  0.0049
 8450SOL    HW136986   1.050   1.034  12.060  0.9134  1.3097  1.0220
 8450SOL    HW236987   0.944   1.119  11.990  0.2621  2.5229 -0.7221
 8451SOL     OW36988   3.836   0.495   6.796  0.2055 -0.4292 -0.0538
 8451SOL    HW136989   3.766   0.523   6.736 -0.5795 -0.4795  0.8318
 8451SOL    HW236990   3.882   0.435   6.739  0.5529 -0.5716  0.3756
 8452SOL     OW36991   1.167   1.717   3.640  0.6435  0.0839  0.4870
 8452SOL    HW136992   1.185   1.799   3.595 -3.4595  1.2409  0.9572
 8452SOL    HW236993   1.156   1.663   3.561 -0.6692  1.1676 -0.0715
 8453SOL     OW36994   2.919   0.204   3.950  0.0073 -0.3849 -0.0836
 8453SOL    HW136995   2.941   0.187   4.042  0.9341 -0.2165 -0.2730
 8453SOL    HW236996   2.879   0.121   3.925 -2.6599  0.2875  1.9047
 8454SOL     OW36997   3.019   0.408   0.140  0.2766 -0.0428  0.4386
 8454SOL    HW136998   2.924   0.395   0.131  0.2764 -0.8713  1.7464
 8454SOL    HW236999   3.020   0.504   0.133 -0.2399 -0.0777 -0.1095
 8455SOL     OW37000   2.634   1.788   2.068  0.0609 -0.1442  1.1225
 8455SOL    HW137001   2.648   1.700   2.032  1.2856  0.1357  0.9210
 8455SOL    HW237002   2.542   1.795   2.042  0.0371  1.0510  1.5399
 8456SOL     OW37003   0.181   0.092   2.100  0.2185  0.0337  0.9938
 8456SOL    HW137004   0.184   0.162   2.165  0.5707  0.8499  0.0990
 8456SOL    HW237005   0.088   0.068   2.107  0.1565 -0.0007  0.1297
 8457SOL     OW37006   3.580   1.949  14.689 -0.1972 -0.6121  0.1658
 8457SOL    HW137007   3.596   2.042  14.706  3.0017 -1.5394  2.2222
 8457SOL    HW237008   3.655   1.936  14.631  0.7971  0.9722  1.0752
 8458SOL     OW37009   0.171   3.729   7.726 -0.1604  0.5591  0.5637
 8458SOL    HW137010   0.226   3.714   7.649 -0.5291  3.5472 -0.2588
 8458SOL    HW237011   0.177   3.650   7.780  0.5137  0.2859  0.0920
 8459SOL     OW37012   2.434   4.264   2.089 -0.2427  0.2058 -0.2687
 8459SOL    HW137013   2.362   4.238   2.145  0.2592  1.1068  0.8005
 8459SOL    HW237014   2.388   4.273   2.006 -2.0486  2.2049  0.9480
 8460SOL     OW37015   4.455   4.582   4.748  0.0748 -0.2492 -0.1484
 8460SOL    HW137016   4.453   4.552   4.839 -0.0828  0.4837  0.0873
 8460SOL    HW237017   4.542   4.550   4.723  0.2742  1.1424 -1.2221
 8461SOL     OW37018   1.262   2.108   2.575 -0.0686  0.0692  0.3334
 8461SOL    HW137019   1.246   2.127   2.483  4.1209 -3.6177 -1.1801
 8461SOL    HW237020   1.330   2.040   2.576 -0.8196 -0.6864 -0.0292
 8462SOL     OW37021   2.871   2.717   0.258  0.1233 -0.3717  0.2550
 8462SOL    HW137022   2.841   2.804   0.287  0.7165 -1.0009  2.7348
 8462SOL    HW237023   2.963   2.736   0.278  0.7567 -1.9201 -1.2149
 8463SOL     OW37024   1.698   3.490   4.837  0.3175  0.1667  0.6129
 8463SOL    HW137025   1.680   3.399   4.858 -4.3868  1.0084  0.2220
 8463SOL    HW237026   1.656   3.508   4.753  1.4428 -0.2774 -0.0529
 8464SOL     OW37027   3.156   0.804  14.052  0.2609 -0.6040 -0.5792
 8464SOL    HW137028   3.248   0.818  14.077  0.3463  0.2385 -1.3413
 8464SOL    HW237029   3.108   0.875  14.094 -1.2122 -0.2410 -2.8675
 8465SOL     OW37030   3.952   0.172   3.700  1.1780  0.3229 -0.3774
 8465SOL    HW137031   3.952   0.263   3.671 -0.1729 -0.3948 -2.5816
 8465SOL    HW237032   3.930   0.134   3.615  1.2385 -1.0033  0.1972
 8466SOL     OW37033   4.420   1.655  16.858  0.2123  0.2408  0.0496
 8466SOL    HW137034   4.447   1.738  16.895  0.9121 -0.1896  0.4944
 8466SOL    HW237035   4.425   1.676  16.765  0.3472  0.7929  0.1835
 8467SOL     OW37036   4.642   1.782  10.441 -0.1939 -0.3862 -1.0045
 8467SOL    HW137037   4.736   1.769  10.434  0.2042  1.3360  0.9778
 8467SOL    HW237038   4.620   1.697  10.480 -1.0650  2.3150  4.3377
 8468SOL     OW37039   0.219   3.885   5.920 -0.3473  0.4969 -0.2275
 8468SOL    HW137040   0.193   3.793   5.927  0.3824  0.3012 -0.1746
 8468SOL    HW237041   0.180   3.914   6.003  0.6160 -0.6438  0.6169
 8469SOL     OW37042   1.615   4.658   3.959 -0.4940  0.3580  0.1516
 8469SOL    HW137043   1.521   4.647   3.950 -0.4133 -0.3346  0.1475
 8469SOL    HW237044   1.648   4.639   3.871  0.4595 -0.8960  0.7790
 8470SOL     OW37045   3.960   1.135  15.911 -0.3518  0.1562  0.2369
 8470SOL    HW137046   3.899   1.096  15.848  0.7447 -1.1089 -0.0234
 8470SOL    HW237047   3.906   1.145  15.989 -1.0560  0.0921 -0.2382
 8471SOL     OW37048   4.286   4.127   4.097  0.9600 -0.0148  0.1622
 8471SOL    HW137049   4.372   4.102   4.063  1.5686  0.1108  1.6182
 8471SOL    HW237050   4.318   4.180   4.171 -0.6648  1.1723  0.0173
 8472SOL     OW37051   3.746   0.363   2.050 -0.3555 -0.0842  0.1488
 8472SOL    HW137052   3.813   0.379   2.117  0.2113  1.8111 -0.8744
 8472SOL    HW237053   3.753   0.268   2.044 -2.3996 -0.0929 -2.2682
 8473SOL     OW37054   1.653   1.641  17.039  0.3079  0.3784 -0.0515
 8473SOL    HW137055   1.688   1.568  16.987 -0.7197  0.5408 -0.9972
 8473SOL    HW237056   1.562   1.611  17.046 -0.1148  1.1873 -1.9500
 8474SOL     OW37057   0.727   4.641  17.249 -0.2794  0.7162 -0.0697
 8474SOL    HW137058   0.650   4.633  17.305 -0.0263  1.2759  0.3725
 8474SOL    HW237059   0.687   4.632  17.163 -0.4981 -0.2590  0.1358
 8475SOL     OW37060   1.994   2.637   3.437 -0.0145  0.1347  0.4863
 8475SOL    HW137061   2.088   2.653   3.433  0.0525 -1.0184 -2.6078
 8475SOL    HW237062   1.958   2.725   3.444 -0.1127  0.1920 -0.7017
 8476SOL     OW37063   3.861   2.329   1.699  0.1998  0.2851 -0.2983
 8476SOL    HW137064   3.935   2.334   1.638  1.0078 -0.6015  0.6138
 8476SOL    HW237065   3.895   2.384   1.769 -0.5236 -1.2967  1.2751
 8477SOL     OW37066   0.122   3.584   3.570 -0.2696  0.2017 -0.1718
 8477SOL    HW137067   0.193   3.538   3.615  0.9150 -1.1797 -3.4972
 8477SOL    HW237068   0.173   3.638   3.511 -1.1779  1.3444  0.0789
 8478SOL     OW37069   3.914   2.784   2.086  0.1904  0.3980  0.4494
 8478SOL    HW137070   3.927   2.690   2.095  1.0396  0.4464 -0.3149
 8478SOL    HW237071   3.876   2.795   1.998  0.1245  3.5087  0.8546
 8479SOL     OW37072   1.323   0.667   4.175  0.1832 -0.3077  0.2033
 8479SOL    HW137073   1.305   0.588   4.125  0.9303 -1.0352  1.0989
 8479SOL    HW237074   1.240   0.677   4.221 -0.7365  0.7187 -1.6510
 8480SOL     OW37075   0.490   1.686   1.315 -0.1161 -0.3351 -0.0658
 8480SOL    HW137076   0.585   1.701   1.316 -0.2204  0.1106  1.9540
 8480SOL    HW237077   0.480   1.596   1.347 -1.9223  0.2204  0.9155
 8481SOL     OW37078   4.187   2.700   5.436 -0.4579 -0.7515  0.1054
 8481SOL    HW137079   4.249   2.633   5.408  0.2422  0.3369 -0.9295
 8481SOL    HW237080   4.237   2.752   5.499 -0.1335 -1.4776  0.4420
 8482SOL     OW37081   3.844   0.505   2.603 -1.0504 -0.1437 -0.5036
 8482SOL    HW137082   3.838   0.440   2.673 -1.8186 -1.8523 -2.1733
 8482SOL    HW237083   3.939   0.514   2.604 -0.9916 -0.7697 -0.5891
 8483SOL     OW37084   1.367   4.095   5.850  0.3433  0.5333 -0.3833
 8483SOL    HW137085   1.353   4.082   5.944 -0.5513  1.5380 -0.3664
 8483SOL    HW237086   1.401   4.185   5.846 -0.7330  0.9529 -0.1084
 8484SOL     OW37087   1.930   0.436   9.758  0.2549  0.4146  0.1024
 8484SOL    HW137088   2.013   0.390   9.770  1.0366  1.6501 -0.6778
 8484SOL    HW237089   1.888   0.413   9.841 -2.2159  0.5484 -1.1048
 8485SOL     OW37090   1.806   0.752   8.883 -0.1402 -0.2098 -0.1293
 8485SOL    HW137091   1.829   0.738   8.975  0.6606  1.5358 -0.0493
 8485SOL    HW237092   1.847   0.839   8.878  2.4391 -1.3560  0.9180
 8486SOL     OW37093   3.613   4.283   8.691  0.1963 -0.0779  0.0633
 8486SOL    HW137094   3.556   4.337   8.747  2.8950  0.6245  2.1081
 8486SOL    HW237095   3.580   4.326   8.612 -0.8828  2.2363  1.7251
 8487SOL     OW37096   3.716   0.239   5.725 -0.5932 -0.4962  0.3685
 8487SOL    HW137097   3.719   0.184   5.803 -0.1691 -0.0857  0.6398
 8487SOL    HW237098   3.633   0.278   5.751 -1.1479  1.3764 -4.2400
 8488SOL     OW37099   1.308   1.215   8.648  0.6103  0.0063 -0.0775
 8488SOL    HW137100   1.283   1.285   8.589 -0.8132 -1.2532 -0.9839
 8488SOL    HW237101   1.254   1.139   8.624  1.4690 -0.4278 -0.6168
 8489SOL     OW37102   1.371   3.715  11.393  0.1633 -0.3664 -0.1966
 8489SOL    HW137103   1.376   3.622  11.413 -2.0307  0.1174  2.5865
 8489SOL    HW237104   1.303   3.717  11.326 -2.1016 -0.8704  2.0913
 8490SOL     OW37105   1.096   0.300   2.646 -0.0858 -0.3909  0.7046
 8490SOL    HW137106   1.070   0.224   2.594 -0.8973 -0.7602  1.6459
 8490SOL    HW237107   1.171   0.268   2.695  1.3978  0.3790 -1.0730
 8491SOL     OW37108   1.308   2.997  10.088 -0.9844  0.5680  0.1661
 8491SOL    HW137109   1.360   3.003  10.168  0.5565 -3.7526 -0.4709
 8491SOL    HW237110   1.344   2.913  10.059  0.4341  0.7539  1.4095
 8492SOL     OW37111   4.383   0.068   0.087  0.0184 -0.2492  0.6352
 8492SOL    HW137112   4.394   0.053   0.181  0.9792 -0.1579  0.5465
 8492SOL    HW237113   4.391   0.163   0.093  0.1095  0.0207 -3.3424
 8493SOL     OW37114   3.396   3.952  10.496  0.2227 -0.2942  0.2721
 8493SOL    HW137115   3.421   3.871  10.450 -0.2988  0.2601 -1.0048
 8493SOL    HW237116   3.302   3.940  10.508  0.3417 -0.4718  0.9998
 8494SOL     OW37117   4.610   2.813   2.535 -0.9950 -0.5364 -0.5440
 8494SOL    HW137118   4.539   2.756   2.504 -1.0576  0.1362 -1.6375
 8494SOL    HW237119   4.603   2.894   2.485  1.0752  0.2436  0.4483
 8495SOL     OW37120   0.817   2.132  13.494  0.0580  0.6324  0.7352
 8495SOL    HW137121   0.871   2.109  13.418  1.5573 -0.6263  2.1997
 8495SOL    HW237122   0.771   2.049  13.507  1.0339  0.0207  0.2493
 8496SOL     OW37123   3.197   2.532   4.235 -0.3635 -0.9093 -0.3195
 8496SOL    HW137124   3.146   2.613   4.229 -0.1817 -0.7471  0.3516
 8496SOL    HW237125   3.275   2.558   4.284 -1.7104  4.2149 -0.8796
 8497SOL     OW37126   4.731   3.769  11.574 -0.4084 -0.0497 -0.0325
 8497SOL    HW137127   4.715   3.860  11.599 -0.0752  0.1055 -0.3831
 8497SOL    HW237128   0.051   3.739  11.643  2.0442  1.2961 -1.5526
 8498SOL     OW37129   0.556   3.465  17.717  0.4869  0.0892  0.1777
 8498SOL    HW137130   0.604   3.491   0.040  3.6093  0.0953 -1.7668
 8498SOL    HW237131   0.484   3.528  17.726 -2.8957 -3.7139 -0.0094
 8499SOL     OW37132   0.875   3.705   3.314  0.2599 -0.3353  0.3147
 8499SOL    HW137133   0.798   3.760   3.303  0.5340  0.3404  1.8561
 8499SOL    HW237134   0.878   3.691   3.219  0.7536 -1.2985  0.4734
 8500SOL     OW37135   4.166   2.309   9.480 -0.4667 -0.0206  0.3513
 8500SOL    HW137136   4.254   2.275   9.497  0.1859  1.6673  0.3658
 8500SOL    HW237137   4.148   2.383   9.538 -3.0963 -0.6562  0.3376
 8501SOL     OW37138   2.857   3.457   5.688  0.0646  0.0492 -0.8241
 8501SOL    HW137139   2.889   3.509   5.614  0.8175  0.6460 -0.0836
 8501SOL    HW237140   2.882   3.507   5.766  0.7929 -0.3071 -0.8371
 8502SOL     OW37141   0.952   0.466   5.669 -0.5100  0.0714 -0.2403
 8502SOL    HW137142   1.032   0.418   5.647 -0.4488 -0.2775  0.7403
 8502SOL    HW237143   0.904   0.391   5.704  0.1429  0.1427  0.8283
 8503SOL     OW37144   2.862   3.963   0.768  0.3698 -0.3901 -0.0786
 8503SOL    HW137145   2.834   4.047   0.734 -2.2986 -1.7290 -1.1620
 8503SOL    HW237146   2.788   3.933   0.821  0.8046 -0.6475  0.3916
 8504SOL     OW37147   2.406   2.753   3.236  0.3646 -0.3175 -0.0071
 8504SOL    HW137148   2.419   2.827   3.295 -0.1986 -0.6295  0.5077
 8504SOL    HW237149   2.328   2.713   3.274  0.8504 -0.9246  0.3516
 8505SOL     OW37150   4.585   1.732   4.229 -0.4313 -0.1280 -0.3481
 8505SOL    HW137151   4.507   1.731   4.175  0.7720 -0.1160 -2.0972
 8505SOL    HW237152   4.612   1.824   4.234 -1.3719  0.0867  0.6798
 8506SOL     OW37153   3.341   2.722   0.962  0.5079  0.1212 -0.2715
 8506SOL    HW137154   3.264   2.776   0.980  0.3246  0.0581 -0.8441
 8506SOL    HW237155   3.306   2.634   0.977  0.3477  0.7352  2.8995
 8507SOL     OW37156   3.038   4.346   1.226  0.0574 -0.4369  0.2124
 8507SOL    HW137157   3.040   4.440   1.206  0.9994 -0.6123 -0.5276
 8507SOL    HW237158   2.996   4.319   1.144 -2.5399  2.2117  0.6492
 8508SOL     OW37159   2.985   1.016  14.205  0.2809 -0.3635 -0.2728
 8508SOL    HW137160   3.035   1.086  14.162 -1.1137  0.7446 -0.0757
 8508SOL    HW237161   2.976   1.065  14.287 -1.1328  0.8126 -1.1474
 8509SOL     OW37162   1.885   0.618   2.126  0.1191 -0.4892 -0.0093
 8509SOL    HW137163   1.979   0.633   2.122  0.2143 -1.0768  0.0500
 8509SOL    HW237164   1.843   0.699   2.097  2.9634  1.8873  2.5263
 8510SOL     OW37165   0.753   3.827   6.990  0.3088 -0.0239 -0.1500
 8510SOL    HW137166   0.665   3.830   7.029 -0.3873  0.3068 -1.7198
 8510SOL    HW237167   0.735   3.805   6.898  1.0172  0.0148 -0.2976
 8511SOL     OW37168   4.172   0.997   1.352  0.2314 -0.2178 -0.2661
 8511SOL    HW137169   4.145   1.086   1.331 -0.0981 -0.4904 -0.9844
 8511SOL    HW237170   4.260   1.000   1.313  0.9278 -0.5103  1.2591
 8512SOL     OW37171   4.559   2.023   8.102  0.4739  0.2032 -0.2036
 8512SOL    HW137172   4.612   1.989   8.030 -0.3796  0.5148 -0.9808
 8512SOL    HW237173   4.614   2.027   8.180 -0.5078 -0.9763  0.5632
 8513SOL     OW37174   0.971   4.132   4.420 -0.5265 -0.0502 -0.0010
 8513SOL    HW137175   0.893   4.077   4.422  0.5034 -1.4506  1.5686
 8513SOL    HW237176   1.031   4.068   4.381 -1.7288 -0.4766 -1.1126
 8514SOL     OW37177   2.077   1.652   3.396  0.1748 -0.4090 -0.3455
 8514SOL    HW137178   2.059   1.561   3.422  0.4307 -0.3128  0.1661
 8514SOL    HW237179   1.984   1.672   3.406  0.4838  0.8697 -0.1185
 8515SOL     OW37180   4.670   2.113   4.463 -0.3882  0.2894  0.0044
 8515SOL    HW137181   4.731   2.182   4.488 -1.7019  1.2635  0.5676
 8515SOL    HW237182   4.612   2.119   4.539 -1.1112 -0.9707 -0.4408
 8516SOL     OW37183   4.044   2.317   7.955  0.4686  0.1814 -0.0079
 8516SOL    HW137184   4.044   2.271   8.039 -4.2462  0.5645  0.1852
 8516SOL    HW237185   3.994   2.396   7.976  0.2731 -0.0870  0.5341
 8517SOL     OW37186   0.655   1.233  13.792  0.0503 -0.4620 -0.6490
 8517SOL    HW137187   0.709   1.301  13.752 -0.2805 -0.6701 -1.4518
 8517SOL    HW237188   0.691   1.226  13.880 -1.9156  0.4602  0.2317
 8518SOL     OW37189   2.736   0.684   4.586 -0.4796  0.3461 -0.3559
 8518SOL    HW137190   2.655   0.699   4.634 -0.5202 -1.5158  0.1377
 8518SOL    HW237191   2.793   0.711   4.659  0.3805  0.2275 -0.9844
 8519SOL     OW37192   3.905   1.500   0.092 -1.7075 -0.4651 -0.3861
 8519SOL    HW137193   3.950   1.425   0.132 -0.3643  1.1731  1.1663
 8519SOL    HW237194   3.831   1.494   0.153  0.4450 -0.3015  2.2792
 8520SOL     OW37195   4.595   3.820   0.999  0.5306  0.0517 -0.3203
 8520SOL    HW137196   4.676   3.769   0.994 -0.3224 -1.1847 -1.3686
 8520SOL    HW237197   4.576   3.808   1.092 -2.4400 -0.2629 -0.9752
 8521SOL     OW37198   4.614   1.873   5.033  0.4231 -0.2386 -0.7268
 8521SOL    HW137199   4.677   1.945   5.029  3.1799 -2.6306 -0.8907
 8521SOL    HW237200   4.624   1.830   5.118  2.8102 -0.8795 -1.3248
 8522SOL     OW37201   4.142   3.798   7.494 -0.0451  0.3780  0.0818
 8522SOL    HW137202   4.125   3.844   7.576  0.4222 -0.3502  0.5845
 8522SOL    HW237203   4.109   3.863   7.431  0.1932 -0.5378 -0.9896
 8523SOL     OW37204   3.691   3.782   9.073  0.1266  0.1928 -0.2182
 8523SOL    HW137205   3.667   3.706   9.020 -0.3390 -0.2544  0.6498
 8523SOL    HW237206   3.672   3.852   9.011  0.6202  2.3027  2.0279
 8524SOL     OW37207   4.441   1.006   1.279 -0.4339 -0.2205 -0.1182
 8524SOL    HW137208   4.521   0.956   1.259  0.1826  1.0080 -0.6772
 8524SOL    HW237209   4.473   1.037   1.364 -0.1757 -0.8072  0.0022
 8525SOL     OW37210   1.047   0.267   1.881 -0.3311 -0.3678 -0.1204
 8525SOL    HW137211   1.009   0.337   1.933  0.6347  1.3675 -1.7379
 8525SOL    HW237212   1.005   0.291   1.798  0.9147  0.3708 -0.5422
 8526SOL     OW37213   2.271   2.630   7.601  0.5506  0.5451 -0.3291
 8526SOL    HW137214   2.268   2.576   7.680 -1.2742  0.0017 -0.7606
 8526SOL    HW237215   2.362   2.623   7.574 -0.1433 -3.0744 -1.7154
 8527SOL     OW37216   3.916   2.481   4.742  0.5897  0.0527 -0.3337
 8527SOL    HW137217   3.879   2.548   4.799 -1.1915 -0.3404 -1.0354
 8527SOL    HW237218   4.011   2.487   4.749  0.8406 -3.0917 -0.8499
 8528SOL     OW37219   3.854   0.429   0.324  0.4687  0.1069  0.3007
 8528SOL    HW137220   3.791   0.386   0.382  1.0123  0.9248  1.4882
 8528SOL    HW237221   3.904   0.479   0.388  0.5545  0.0059  0.3120
 8529SOL     OW37222   1.172   2.251   2.015 -0.4350  0.2043  0.0107
 8529SOL    HW137223   1.164   2.347   2.012  3.4874  0.4679 -1.8777
 8529SOL    HW237224   1.157   2.229   2.107 -1.3579  2.0618  0.3059
 8530SOL     OW37225   2.632   4.435   3.315 -0.2009  0.3765  0.2572
 8530SOL    HW137226   2.553   4.472   3.355 -0.2386  0.4943  0.0779
 8530SOL    HW237227   2.693   4.437   3.388  2.5172 -1.0383 -1.9879
 8531SOL     OW37228   4.192   4.485   1.416 -0.5462  0.1168 -0.4823
 8531SOL    HW137229   4.138   4.564   1.420  1.2739  1.1708  2.6131
 8531SOL    HW237230   4.147   4.432   1.482 -0.6470 -1.2570 -1.6587
 8532SOL     OW37231   4.158   0.628   7.511 -0.0915 -0.2227 -0.2724
 8532SOL    HW137232   4.146   0.689   7.584 -1.0553  1.2427 -1.6642
 8532SOL    HW237233   4.192   0.553   7.560  0.0057 -0.2623 -0.4018
 8533SOL     OW37234   0.275   4.420   6.385 -0.2448  0.4328 -0.1864
 8533SOL    HW137235   0.193   4.389   6.345  0.0173 -0.1758 -0.2444
 8533SOL    HW237236   0.246   4.444   6.473 -2.0889 -0.2944 -0.5862
 8534SOL     OW37237   2.573   1.659   7.172 -0.1653  0.6277  0.0477
 8534SOL    HW137238   2.488   1.646   7.130  0.0919 -3.7570  0.9426
 8534SOL    HW237239   2.546   1.659   7.263  0.6713 -1.2684  0.2993
 8535SOL     OW37240   1.260   2.601  16.502 -0.2140  0.1478 -0.1944
 8535SOL    HW137241   1.293   2.664  16.566  0.2407 -0.8400  0.5422
 8535SOL    HW237242   1.322   2.618  16.431  0.9768  0.7333  0.9845
 8536SOL     OW37243   2.917   0.202   3.241  0.3666 -0.0159  0.1253
 8536SOL    HW137244   2.953   0.211   3.153  1.6747  0.6324  0.7414
 8536SOL    HW237245   2.835   0.242   3.210 -0.0358 -1.1173 -0.2360
 8537SOL     OW37246   1.525   4.148   7.286  0.1073 -0.6084 -0.2211
 8537SOL    HW137247   1.556   4.067   7.326 -1.7454 -1.5457 -0.7135
 8537SOL    HW237248   1.437   4.159   7.321 -1.0458 -4.1190 -2.0097
 8538SOL     OW37249   0.215   1.196   4.751 -0.2648  0.3060  0.3059
 8538SOL    HW137250   0.172   1.275   4.717  1.1614 -0.0381 -2.3195
 8538SOL    HW237251   0.283   1.162   4.693 -0.0815  0.5327  0.3843
 8539SOL     OW37252   3.715   4.441   6.674  0.5840  0.8923  0.4090
 8539SOL    HW137253   3.664   4.360   6.672  0.0848  1.1752  1.5694
 8539SOL    HW237254   3.658   4.510   6.639 -1.1685 -0.2711  0.9304
 8540SOL     OW37255   0.403   0.612   1.519 -0.3546 -0.2625 -0.4388
 8540SOL    HW137256   0.415   0.650   1.606 -1.5822  1.4768 -1.0418
 8540SOL    HW237257   0.338   0.546   1.545 -0.8127 -0.4993 -2.2050
 8541SOL     OW37258   2.635   2.281   2.777  0.3197 -0.5477  0.0288
 8541SOL    HW137259   2.568   2.216   2.798  0.0134  0.2786  1.6312
 8541SOL    HW237260   2.618   2.349   2.843 -3.3514 -1.2754 -0.1774
 8542SOL     OW37261   0.030   1.324   5.309 -0.8273 -0.3655  0.1649
 8542SOL    HW137262   0.117   1.284   5.313 -0.6614 -0.0180 -0.0506
 8542SOL    HW237263   4.721   1.279   5.378  1.1225 -1.2835  0.9468
 8543SOL     OW37264   1.659   3.810   6.576 -0.3002 -0.0329  0.2968
 8543SOL    HW137265   1.751   3.832   6.565  0.0880  0.2833  3.9906
 8543SOL    HW237266   1.665   3.797   6.671  1.5460 -4.2987 -0.4078
 8544SOL     OW37267   2.073   1.468  12.824 -0.1883 -0.1304  0.0708
 8544SOL    HW137268   2.096   1.540  12.883 -1.2936  1.5852 -1.6166
 8544SOL    HW237269   2.159   1.438  12.795 -0.7495 -4.4426  2.7313
 8545SOL     OW37270   0.860   0.704   8.113 -0.5723  0.1448 -0.3023
 8545SOL    HW137271   0.847   0.786   8.065 -0.3721  1.8287  2.5433
 8545SOL    HW237272   0.794   0.719   8.180 -0.6353  0.3720 -0.4156
 8546SOL     OW37273   4.489   3.209  10.246  0.3069 -0.1060  0.8163
 8546SOL    HW137274   4.568   3.262  10.257  0.8666 -0.9669  0.9383
 8546SOL    HW237275   4.430   3.283  10.261  0.7121  0.0258  1.7525
 8547SOL     OW37276   3.865   0.449   8.850  0.2904  0.4211  0.3135
 8547SOL    HW137277   3.921   0.459   8.927 -0.9644 -0.7495  1.3525
 8547SOL    HW237278   3.812   0.372   8.867  0.5623 -0.2077 -1.6538
 8548SOL     OW37279   0.232   4.520   6.125  0.1881  0.2247  0.5803
 8548SOL    HW137280   0.271   4.512   6.212 -1.9273 -0.2780  1.4997
 8548SOL    HW237281   0.194   4.433   6.106  1.9323 -0.2570 -0.6784
 8549SOL     OW37282   3.560   4.481   0.514  0.3905  0.0351  0.3269
 8549SOL    HW137283   3.534   4.425   0.440  0.4129 -2.2319  2.0192
 8549SOL    HW237284   3.609   4.418   0.566 -0.7434  0.4820  1.9283
 8550SOL     OW37285   3.607   0.581   6.571  0.3648 -0.1577 -0.1865
 8550SOL    HW137286   3.567   0.605   6.654  0.9673  0.8576 -0.1927
 8550SOL    HW237287   3.630   0.667   6.536 -0.8110  0.6969  1.1716
 8551SOL     OW37288   3.192   3.846  13.613 -0.5836  0.8381 -0.1533
 8551SOL    HW137289   3.227   3.838  13.524  0.8934  2.7359  0.2580
 8551SOL    HW237290   3.121   3.782  13.609 -0.8311  1.1613 -0.9409
 8552SOL     OW37291   4.720   1.124  17.055  0.1002 -0.6615 -0.3384
 8552SOL    HW137292   4.718   1.195  17.121 -1.9128 -0.0817 -1.0462
 8552SOL    HW237293   0.035   1.162  16.987 -0.2570 -2.0035 -1.3615
 8553SOL     OW37294   0.899   0.731   1.789  0.0043 -0.0912  0.5448
 8553SOL    HW137295   0.906   0.636   1.783 -0.5166 -0.1097  0.3131
 8553SOL    HW237296   0.827   0.744   1.851 -0.4442  1.0520 -0.2381
 8554SOL     OW37297   2.525   1.618  11.038 -0.0183  0.1043  0.0491
 8554SOL    HW137298   2.506   1.702  11.081  0.7434 -0.7197  1.9824
 8554SOL    HW237299   2.613   1.611  11.076 -0.1066 -0.8073  0.0806
 8555SOL     OW37300   1.163   3.084   7.248  0.4193  0.4890  0.1241
 8555SOL    HW137301   1.213   3.084   7.329  0.4573  1.3845  0.1011
 8555SOL    HW237302   1.147   2.995   7.218 -2.4422  1.0776 -0.2001
 8556SOL     OW37303   0.459   0.044  14.169  0.0570 -0.0716 -0.2256
 8556SOL    HW137304   0.416   0.102  14.106 -0.1353  1.7289  1.5516
 8556SOL    HW237305   0.525   0.105  14.203 -0.8276 -0.3878  2.0305
 8557SOL     OW37306   4.168   4.040  13.414 -0.0790  0.4184  0.4736
 8557SOL    HW137307   4.258   4.032  13.443 -0.8725  0.5660  2.9445
 8557SOL    HW237308   4.143   3.950  13.434 -0.8183  0.5560  0.1968
 8558SOL     OW37309   3.126   2.108  13.667 -0.0375  0.3337  0.5871
 8558SOL    HW137310   3.113   2.056  13.588 -0.6606 -0.1941  1.0437
 8558SOL    HW237311   3.122   2.032  13.725 -0.6801 -0.3200 -0.3124
 8559SOL     OW37312   2.793   0.788  16.667  0.3317  1.0427 -0.0307
 8559SOL    HW137313   2.699   0.769  16.659  0.7833 -1.3098  0.1787
 8559SOL    HW237314   2.795   0.764  16.759 -3.7870  1.2186  0.0900
 8560SOL     OW37315   3.289   3.965   3.411  0.0997  0.4806  0.6311
 8560SOL    HW137316   3.316   3.988   3.500 -0.4454  0.8112  0.7134
 8560SOL    HW237317   3.375   3.969   3.368 -0.2665  0.0701 -0.1467
 8561SOL     OW37318   3.116   2.691   0.503 -0.1453  0.4934 -0.5285
 8561SOL    HW137319   3.136   2.728   0.417  2.0140 -2.5258 -1.3018
 8561SOL    HW237320   3.147   2.605   0.475  0.1303  0.7829 -1.1134
 8562SOL     OW37321   1.168   3.638   7.246 -0.5395 -0.1356 -0.2411
 8562SOL    HW137322   1.123   3.559   7.274  1.3170 -0.5723  1.4697
 8562SOL    HW237323   1.123   3.703   7.301 -0.2014  0.0673 -0.2039
 8563SOL     OW37324   1.881   3.177  15.017  0.2924  0.1887  0.2175
 8563SOL    HW137325   1.788   3.183  14.996  0.2642 -0.0989  0.2533
 8563SOL    HW237326   1.892   3.086  15.047 -1.4716  0.1357  0.6788
 8564SOL     OW37327   1.115   3.814   7.637  0.2327 -0.4896  0.6334
 8564SOL    HW137328   1.105   3.845   7.547  2.9916 -0.0314  0.4599
 8564SOL    HW237329   1.053   3.870   7.684  1.2462  0.7325  0.5305
 8565SOL     OW37330   2.367   2.156   4.106 -0.0437  0.4231  0.4390
 8565SOL    HW137331   2.457   2.155   4.073  0.3634 -1.3810  1.5927
 8565SOL    HW237332   2.370   2.103   4.186 -1.6616 -0.9026 -0.3757
 8566SOL     OW37333   0.546   2.896   0.839  0.4649 -0.0577  0.1784
 8566SOL    HW137334   0.636   2.925   0.822  0.5226  0.1363  0.8180
 8566SOL    HW237335   0.500   2.937   0.766  3.4139 -1.3619 -2.4148
 8567SOL     OW37336   2.493   3.569   0.701 -0.3043  0.2320 -0.4825
 8567SOL    HW137337   2.571   3.538   0.654  0.1059  2.3658 -1.2097
 8567SOL    HW237338   2.532   3.592   0.785 -1.7116  0.4889  0.0855
 8568SOL     OW37339   1.896   0.055   1.713 -0.1540  0.2263 -0.1307
 8568SOL    HW137340   1.921   0.147   1.709 -0.5758  0.3573  0.2276
 8568SOL    HW237341   1.922   0.024   1.626 -1.4378 -0.1510 -0.3898
 8569SOL     OW37342   2.820   2.184   6.970  0.5728  0.4019 -0.8594
 8569SOL    HW137343   2.788   2.166   7.059  2.7557  0.0593 -0.1367
 8569SOL    HW237344   2.751   2.245   6.945 -0.2392 -0.2868 -0.3233
 8570SOL     OW37345   2.666   2.500   0.603  0.3406  0.6236 -0.7119
 8570SOL    HW137346   2.599   2.481   0.537  0.1681 -0.5633 -0.1898
 8570SOL    HW237347   2.645   2.436   0.671  2.5018  0.7581  0.0729
 8571SOL     OW37348   3.823   0.938  13.644  0.5436 -0.0151 -0.0725
 8571SOL    HW137349   3.875   0.907  13.719  3.7621  1.2154 -1.7924
 8571SOL    HW237350   3.773   0.863  13.612  0.1643  0.5249 -0.7209
 8572SOL     OW37351   0.518   0.682  14.767 -0.4657 -0.0212  0.1683
 8572SOL    HW137352   0.471   0.615  14.718  0.3158 -0.7507  0.4212
 8572SOL    HW237353   0.507   0.757  14.709 -0.7234  0.6876  1.1289
 8573SOL     OW37354   2.778   4.075  12.296 -0.0213 -0.0207  0.0679
 8573SOL    HW137355   2.770   4.113  12.383  2.9547  0.4922  0.1337
 8573SOL    HW237356   2.815   3.989  12.317  1.1723  0.2759 -0.7782
 8574SOL     OW37357   3.366   4.205   0.731  0.2494 -0.3715 -0.6160
 8574SOL    HW137358   3.338   4.295   0.718 -0.5514 -0.5735 -0.3049
 8574SOL    HW237359   3.288   4.168   0.773  1.0889 -1.4548 -0.0096
 8575SOL     OW37360   2.652   3.027   5.156  0.4278  0.6614 -0.0896
 8575SOL    HW137361   2.678   3.083   5.082  1.7607  0.0969 -0.0473
 8575SOL    HW237362   2.561   3.044   5.179 -0.0033 -0.6110 -0.8718
 8576SOL     OW37363   2.513   2.357   4.290 -0.4204 -0.5184  0.4279
 8576SOL    HW137364   2.465   2.429   4.249  1.5059 -0.1275 -1.1522
 8576SOL    HW237365   2.454   2.284   4.270 -1.5604  0.2608  0.9104
 8577SOL     OW37366   4.249   3.670   5.079  0.0258 -0.1215  0.2481
 8577SOL    HW137367   4.166   3.699   5.042  0.3537  0.0629 -0.3516
 8577SOL    HW237368   4.307   3.747   5.079  1.9633 -1.5692  1.0552
 8578SOL     OW37369   3.412   2.308   5.582  0.1417 -0.1166 -0.4105
 8578SOL    HW137370   3.469   2.245   5.625  1.8713  1.2231 -0.7751
 8578SOL    HW237371   3.414   2.376   5.650 -1.7107 -1.8034  1.3499
 8579SOL     OW37372   1.154   3.299   9.742 -0.8310 -0.3925  0.3255
 8579SOL    HW137373   1.127   3.262   9.826 -2.8775 -1.7210 -0.9442
 8579SOL    HW237374   1.231   3.245   9.725 -1.2234 -0.5484 -0.9302
 8580SOL     OW37375   2.826   2.852   6.437  0.8395 -0.0987  0.1964
 8580SOL    HW137376   2.912   2.885   6.463  0.0759  1.9738  0.1569
 8580SOL    HW237377   2.794   2.937   6.404  1.1540  0.3091  0.9571
 8581SOL     OW37378   4.099   1.941  10.197 -0.1467  0.0022  0.2339
 8581SOL    HW137379   4.173   1.955  10.256  1.6072  0.9156 -2.2057
 8581SOL    HW237380   4.126   1.860  10.153  1.6041  1.5478 -1.5411
 8582SOL     OW37381   4.469   1.181   8.424 -0.1053  0.2266  0.4329
 8582SOL    HW137382   4.471   1.161   8.330  1.0214  0.0501  0.5017
 8582SOL    HW237383   4.476   1.276   8.420  0.9251  0.0889 -0.9751
 8583SOL     OW37384   0.234   2.152   5.228 -0.6507 -0.0985  0.1181
 8583SOL    HW137385   0.256   2.218   5.294 -0.9070 -2.4450  2.5712
 8583SOL    HW237386   0.321   2.122   5.200 -0.7037 -1.8007  1.7380
 8584SOL     OW37387   1.165   0.616  14.501 -0.8933  0.4144 -0.1953
 8584SOL    HW137388   1.201   0.582  14.419  1.0239  0.8197  0.4757
 8584SOL    HW237389   1.163   0.538  14.558 -0.4138  1.5199  1.3203
 8585SOL     OW37390   1.524   4.429   8.181  0.0995  0.0890  0.1479
 8585SOL    HW137391   1.442   4.378   8.188  1.5182 -2.3821 -1.3894
 8585SOL    HW237392   1.494   4.515   8.153  0.8706  0.7794  1.4342
 8586SOL     OW37393   3.436   2.329  15.655 -0.4307 -0.3155  0.7082
 8586SOL    HW137394   3.524   2.367  15.650 -0.0128 -1.1422  1.7391
 8586SOL    HW237395   3.395   2.381  15.725 -1.4981  0.5287 -0.5446
 8587SOL     OW37396   1.815   2.959  11.299  0.3750  0.2909 -0.0201
 8587SOL    HW137397   1.808   2.946  11.205  1.3140  0.2469 -0.0857
 8587SOL    HW237398   1.822   2.867  11.325 -1.4147  0.2642  0.3531
 8588SOL     OW37399   4.389   2.530   5.385 -0.1040 -0.4774  0.0991
 8588SOL    HW137400   4.417   2.474   5.313 -2.2170  0.2213 -1.2641
 8588SOL    HW237401   4.464   2.519   5.444  1.4283  3.3001 -1.1232
 8589SOL     OW37402   0.868   3.588   6.937  0.2164  0.2188 -0.1299
 8589SOL    HW137403   0.866   3.653   7.007 -0.8535  0.2945 -0.2281
 8589SOL    HW237404   0.836   3.639   6.862  0.0829 -3.5789 -2.6644
 8590SOL     OW37405   4.480   4.460   0.144  0.4408 -0.2438 -0.4033
 8590SOL    HW137406   4.556   4.509   0.174  0.2160 -0.6629  0.8269
 8590SOL    HW237407   4.404   4.473   0.200  0.9052  0.3476  0.0868
 8591SOL     OW37408   2.744   3.955   7.121  0.3946 -0.0031 -0.1636
 8591SOL    HW137409   2.725   3.870   7.083  3.0204 -1.0835  0.9310
 8591SOL    HW237410   2.808   3.932   7.189  1.2099 -1.5815 -1.4751
 8592SOL     OW37411   2.137   2.689  12.586  0.3675  0.3135  0.2927
 8592SOL    HW137412   2.165   2.746  12.657 -0.7909  2.4730 -0.9531
 8592SOL    HW237413   2.152   2.737  12.504  1.2511  0.6939  0.6823
 8593SOL     OW37414   1.960   2.716  14.603 -0.1140 -0.0690  0.1696
 8593SOL    HW137415   1.980   2.684  14.691  2.1332 -0.8952 -0.6351
 8593SOL    HW237416   2.005   2.801  14.593  1.2979 -1.0683 -1.9788
 8594SOL     OW37417   3.719   3.075   1.336  0.0648 -0.2658  0.6823
 8594SOL    HW137418   3.803   3.033   1.320  0.2358  0.5990 -0.6397
 8594SOL    HW237419   3.672   3.065   1.253 -0.0585 -1.2606  0.8643
 8595SOL     OW37420   0.211   3.255   5.901  0.0963  0.1407  0.0747
 8595SOL    HW137421   0.277   3.204   5.852 -2.0749 -0.4010 -2.3064
 8595SOL    HW237422   0.240   3.241   5.991  0.0894 -2.5147 -0.3184
 8596SOL     OW37423   3.510   3.496   4.199 -0.3948  0.1913  0.2229
 8596SOL    HW137424   3.557   3.578   4.182 -0.7150  0.3498  0.1130
 8596SOL    HW237425   3.510   3.496   4.294  2.1478  0.0427  0.2222
 8597SOL     OW37426   4.494   1.018  10.679 -0.1973 -0.1090 -0.5120
 8597SOL    HW137427   4.563   0.954  10.660  0.8096  0.7300  0.3414
 8597SOL    HW237428   4.426   1.000  10.614 -1.0967 -1.2431  0.7399
 8598SOL     OW37429   3.096   0.795   0.348 -0.6322 -0.0156 -0.2966
 8598SOL    HW137430   3.138   0.876   0.379  2.0508 -1.6808  0.4836
 8598SOL    HW237431   3.095   0.748   0.432 -0.3774 -2.5318 -1.7030
 8599SOL     OW37432   0.223   3.499   5.390 -0.0715 -0.2415 -0.7220
 8599SOL    HW137433   0.166   3.537   5.323  0.7711 -0.8140 -1.7729
 8599SOL    HW237434   0.200   3.552   5.466  0.5494  0.4877 -1.0503
 8600SOL     OW37435   0.434   3.376  11.103  0.1474 -0.4168  0.6823
 8600SOL    HW137436   0.459   3.358  11.194  1.1423  0.6752  0.6136
 8600SOL    HW237437   0.518   3.356  11.061  0.3235 -2.0737  1.8145
 8601SOL     OW37438   3.712   4.430   7.360  0.1486  0.2790  0.1305
 8601SOL    HW137439   3.731   4.383   7.442  1.9096  0.6502 -0.0510
 8601SOL    HW237440   3.799   4.443   7.323  0.7478 -2.6465  0.4519
 8602SOL     OW37441   0.365   0.159   2.667  0.5108  0.0261  0.5328
 8602SOL    HW137442   0.413   0.076   2.658  0.8627  0.2482  0.3736
 8602SOL    HW237443   0.388   0.202   2.585 -0.0748 -1.7469 -0.5752
 8603SOL     OW37444   4.327   3.506   6.858 -0.3158 -0.0223  0.1880
 8603SOL    HW137445   4.284   3.432   6.902 -0.5571 -0.5294 -0.9024
 8603SOL    HW237446   4.403   3.511   6.916 -1.8659 -2.0190  2.4072
 8604SOL     OW37447   2.951   2.444   0.598 -0.4434 -0.5191 -0.4304
 8604SOL    HW137448   3.004   2.441   0.518 -0.1275 -2.9361 -0.1056
 8604SOL    HW237449   2.864   2.444   0.558 -0.5051 -0.1991 -0.2984
 8605SOL     OW37450   4.055   2.710  12.983 -0.3810 -0.1536 -0.0913
 8605SOL    HW137451   4.041   2.721  13.078 -1.0845 -3.7519  0.2167
 8605SOL    HW237452   4.072   2.798  12.950 -2.3769  0.2313 -0.1282
 8606SOL     OW37453   1.855   1.777  17.693 -0.4380 -0.0757 -0.7746
 8606SOL    HW137454   1.932   1.798  17.640 -0.4945 -1.6447 -1.4620
 8606SOL    HW237455   1.806   1.860  17.693 -4.1526 -2.2411 -2.4374
 8607SOL     OW37456   0.820   0.347   5.089  0.1152 -0.2325 -0.3014
 8607SOL    HW137457   0.770   0.421   5.123  2.0907  0.9657 -0.0513
 8607SOL    HW237458   0.793   0.276   5.148 -1.8582  1.7881  1.2204
 8608SOL     OW37459   0.672   1.589   5.418 -0.2159 -0.1709  0.3763
 8608SOL    HW137460   0.664   1.596   5.513 -0.0464  2.4831  0.1944
 8608SOL    HW237461   0.615   1.512   5.409 -0.4903  0.1264 -0.4078
 8609SOL     OW37462   0.550   0.459   3.654  0.2395  0.4439  0.4018
 8609SOL    HW137463   0.503   0.407   3.589  1.3630 -0.3175  0.1856
 8609SOL    HW237464   0.507   0.544   3.646 -1.8780 -0.7809 -1.3193
 8610SOL     OW37465   0.803   1.888  16.384 -0.2048  0.2272  0.2356
 8610SOL    HW137466   0.827   1.798  16.362 -0.4694  0.4263 -0.8848
 8610SOL    HW237467   0.729   1.869  16.442 -0.4171 -0.2230 -0.1782
 8611SOL     OW37468   0.506   2.472  16.394  0.0444 -0.1270  0.5997
 8611SOL    HW137469   0.533   2.485  16.303  1.3828  2.4185  1.3564
 8611SOL    HW237470   0.479   2.380  16.393 -1.3749  0.2980  0.8034
 8612SOL     OW37471   1.713   3.632  12.297  0.4625 -0.3410 -0.4408
 8612SOL    HW137472   1.706   3.705  12.236  0.3410 -1.3393 -1.6122
 8612SOL    HW237473   1.788   3.581  12.266  1.5704  1.3312 -0.4780
 8613SOL     OW37474   4.499   3.943   2.785 -0.0428  0.4525  0.1737
 8613SOL    HW137475   4.455   3.996   2.851  1.2926 -0.1496  1.5626
 8613SOL    HW237476   4.462   3.857   2.803  3.3467 -1.0800 -0.1278
 8614SOL     OW37477   0.643   2.762   4.812 -0.6412 -0.3574  0.4629
 8614SOL    HW137478   0.605   2.718   4.736 -2.9322  2.4524 -0.0193
 8614SOL    HW237479   0.685   2.683   4.844 -1.2988 -1.6063 -1.7567
 8615SOL     OW37480   2.432   2.626   9.511  0.6761  0.1744 -0.0273
 8615SOL    HW137481   2.433   2.535   9.482 -2.1372  0.4456 -0.9879
 8615SOL    HW237482   2.507   2.655   9.460 -0.1083  3.3052  0.5544
 8616SOL     OW37483   0.049   2.985   2.824  0.2797  0.4553  0.2434
 8616SOL    HW137484   4.705   2.962   2.864  0.7390 -1.9978 -0.1740
 8616SOL    HW237485   0.049   3.078   2.846  0.2139  0.5033  0.0392
 8617SOL     OW37486   3.097   0.928   4.898 -0.0793  0.1360 -0.0530
 8617SOL    HW137487   3.150   0.862   4.943  0.9322  0.7535 -0.3487
 8617SOL    HW237488   3.073   0.986   4.970  0.0570 -1.6805  1.4498
 8618SOL     OW37489   4.306   1.381   1.441 -0.0505 -0.4364  0.4227
 8618SOL    HW137490   4.298   1.451   1.506  0.6797 -1.8731  2.0680
 8618SOL    HW237491   4.279   1.307   1.495 -2.2943 -1.8573 -2.6205
 8619SOL     OW37492   0.716   2.090   6.120  0.2227  0.0493  0.6738
 8619SOL    HW137493   0.752   2.003   6.102 -3.2015 -0.9828 -1.0912
 8619SOL    HW237494   0.768   2.148   6.064 -1.5984 -0.0305 -1.0903
 8620SOL     OW37495   1.278   2.066   3.077 -0.1924 -0.7103 -0.0957
 8620SOL    HW137496   1.313   2.135   3.020  1.2205  1.1258  2.9826
 8620SOL    HW237497   1.299   1.985   3.030 -0.5632 -1.7816  1.5927
 8621SOL     OW37498   4.257   3.777   3.565 -0.0206  0.4308 -0.0167
 8621SOL    HW137499   4.199   3.792   3.640 -0.5728 -0.3260 -0.2946
 8621SOL    HW237500   4.341   3.755   3.603 -0.4175  1.1536  1.2733
 8622SOL     OW37501   1.267   3.397   2.332  0.2958 -0.0317  0.4377
 8622SOL    HW137502   1.207   3.374   2.403 -1.4791  0.5279 -0.8592
 8622SOL    HW237503   1.261   3.318   2.279 -1.4958  0.5514 -0.2614
 8623SOL     OW37504   3.271   3.416   8.230  0.1921  0.2108  0.0077
 8623SOL    HW137505   3.205   3.357   8.267  0.0153 -0.3659 -1.2392
 8623SOL    HW237506   3.273   3.398   8.136  2.7070 -1.2396  0.3371
 8624SOL     OW37507   0.861   0.022  16.983 -0.2080 -0.4017  0.1537
 8624SOL    HW137508   0.835   0.014  16.891 -0.2788  1.3421  0.0185
 8624SOL    HW237509   0.933   4.699  16.987 -1.0250 -1.1673  2.9995
 8625SOL     OW37510   3.891   4.519   5.809  0.0226 -0.1671 -0.5676
 8625SOL    HW137511   3.848   4.453   5.755  1.3433 -1.4142 -0.0919
 8625SOL    HW237512   3.823   4.525   5.875  1.1225  1.0266  0.4715
 8626SOL     OW37513   1.328   3.233   8.386 -0.7535 -0.1649  0.1527
 8626SOL    HW137514   1.340   3.215   8.479 -0.8232  0.2963  0.2511
 8626SOL    HW237515   1.397   3.188   8.337  0.8152  1.0449  1.2345
 8627SOL     OW37516   0.893   4.617   7.851 -0.0870 -0.1691 -0.0004
 8627SOL    HW137517   0.816   4.576   7.891 -0.4895 -1.2144 -1.8730
 8627SOL    HW237518   0.859   4.624   7.762  2.3500 -0.3682 -0.9441
 8628SOL     OW37519   3.102   1.454   3.372  0.3356 -0.0388  0.2563
 8628SOL    HW137520   3.056   1.538   3.384 -2.1411 -1.4857  0.9869
 8628SOL    HW237521   3.120   1.426   3.462  1.6602  0.6284  0.1964
 8629SOL     OW37522   2.791   0.819   8.744  0.2100 -0.3592  0.1494
 8629SOL    HW137523   2.795   0.861   8.658 -0.3451  0.7461  0.6791
 8629SOL    HW237524   2.885   0.809   8.761 -0.1271 -0.0029  2.1623
 8630SOL     OW37525   1.870   2.322   5.806 -0.3027  0.0905 -0.4532
 8630SOL    HW137526   1.829   2.237   5.819 -1.3125  0.5517 -0.6336
 8630SOL    HW237527   1.825   2.354   5.729 -0.4311 -0.3010 -0.5409
 8631SOL     OW37528   4.250   4.478   8.389  0.1905  0.0586 -0.1087
 8631SOL    HW137529   4.261   4.531   8.468 -0.9016  0.5895 -0.3081
 8631SOL    HW237530   4.233   4.541   8.319  0.1950  0.2528  0.0664
 8632SOL     OW37531   2.121   1.081  12.711 -0.7893 -0.0730 -0.1581
 8632SOL    HW137532   2.069   1.039  12.780 -3.2176 -1.3488 -2.7636
 8632SOL    HW237533   2.130   1.170  12.743  0.6890  0.4730 -2.0921
 8633SOL     OW37534   3.180   2.379   5.869 -0.3950 -0.3747 -0.7708
 8633SOL    HW137535   3.273   2.384   5.849 -0.5858  1.2971 -1.2783
 8633SOL    HW237536   3.172   2.468   5.903  0.1833 -0.4747 -0.3786
 8634SOL     OW37537   2.660   3.687   3.860  0.8229 -0.3453  0.2776
 8634SOL    HW137538   2.652   3.685   3.956 -0.7767  0.9466  0.1760
 8634SOL    HW237539   2.739   3.740   3.867 -0.8055  2.1926 -0.4611
 8635SOL     OW37540   1.079   3.939  16.729  0.1996 -1.0273  0.6343
 8635SOL    HW137541   1.043   3.935  16.640  0.2111 -0.9414  0.6261
 8635SOL    HW237542   1.048   3.853  16.759 -0.9200 -0.3068  1.5389
 8636SOL     OW37543   4.686   3.940   8.247 -0.3843  0.4832 -0.2377
 8636SOL    HW137544   4.603   3.968   8.286 -1.3133 -0.2969 -1.6232
 8636SOL    HW237545   0.010   3.955   8.316 -1.0747 -1.2945  0.7917
 8637SOL     OW37546   3.960   2.759   2.599  0.2366  0.6010  0.5681
 8637SOL    HW137547   4.000   2.731   2.517  2.3756 -0.3126  1.9348
 8637SOL    HW237548   3.870   2.766   2.568  0.4908 -1.9855 -0.7540
 8638SOL     OW37549   1.533   2.466   0.491  0.2703 -0.1234  0.1911
 8638SOL    HW137550   1.618   2.493   0.455 -0.1709  0.1801 -0.6162
 8638SOL    HW237551   1.566   2.443   0.578 -0.8592 -1.5226  0.2556
 8639SOL     OW37552   2.761   1.200   4.971  0.4987  0.6944 -0.1490
 8639SOL    HW137553   2.735   1.266   4.906 -0.2671  0.0564 -0.4901
 8639SOL    HW237554   2.684   1.144   4.965  0.8295  0.2883 -0.5834
 8640SOL     OW37555   0.608   4.679   0.517 -0.2933  0.7024  0.3285
 8640SOL    HW137556   0.551   4.705   0.445  0.5860  1.5045 -0.0869
 8640SOL    HW237557   0.538   4.690   0.581 -1.7714 -1.1228 -0.9585
 8641SOL     OW37558   2.687   2.366   4.050 -0.2865  0.1512 -0.4779
 8641SOL    HW137559   2.655   2.284   4.086  0.4438 -1.2610 -3.0187
 8641SOL    HW237560   2.675   2.430   4.120  1.3209 -0.0388 -0.0130
 8642SOL     OW37561   4.369   0.256  10.954 -0.2638 -0.7578 -0.0202
 8642SOL    HW137562   4.342   0.313  11.026  1.1819 -0.0936  0.0060
 8642SOL    HW237563   4.450   0.304  10.936 -2.7667  3.0857 -0.9694
 8643SOL     OW37564   4.028   2.979   3.310  0.1317 -0.4610 -0.5257
 8643SOL    HW137565   3.970   3.038   3.358 -0.3753 -1.4302  0.0551
 8643SOL    HW237566   4.079   3.042   3.259 -0.0332 -1.3609 -1.8104
 8644SOL     OW37567   2.438   3.009   2.516  0.3489  0.0109 -0.4279
 8644SOL    HW137568   2.488   2.950   2.573 -2.6427 -1.1067  1.0739
 8644SOL    HW237569   2.467   2.972   2.432  3.2550 -1.4652  1.2269
 8645SOL     OW37570   3.490   4.575   9.223 -0.0620 -0.0653  0.4487
 8645SOL    HW137571   3.445   4.539   9.299  1.5294  0.0025  1.4234
 8645SOL    HW237572   3.418   4.617   9.177  0.1256 -0.6586 -0.3908
 8646SOL     OW37573   4.439   4.026   8.337  0.3603 -0.5396 -0.4186
 8646SOL    HW137574   4.468   4.116   8.350  0.3210 -0.6344  0.3336
 8646SOL    HW237575   4.420   3.999   8.427  2.7132 -0.3470  0.1263
 8647SOL     OW37576   1.492   2.847  16.762 -0.2982 -0.5431 -0.9297
 8647SOL    HW137577   1.496   2.754  16.785  3.1860 -0.5036 -1.3732
 8647SOL    HW237578   1.440   2.894  16.828 -1.5280 -1.6358 -1.1101
 8648SOL     OW37579   0.408   0.719   3.624 -0.4955  0.1631 -0.2239
 8648SOL    HW137580   0.313   0.719   3.631 -0.4193 -1.7739  0.9392
 8648SOL    HW237581   0.414   0.791   3.562  1.7670 -1.2015 -1.6053
 8649SOL     OW37582   2.737   0.151   2.199 -0.0143 -0.3960 -0.3918
 8649SOL    HW137583   2.660   0.116   2.242 -0.0543  1.2150  0.8527
 8649SOL    HW237584   2.784   0.183   2.277 -0.8766  1.8045 -0.7936
 8650SOL     OW37585   1.078   4.108   0.416  0.0999  0.0511 -0.1791
 8650SOL    HW137586   1.036   4.022   0.418 -0.0717  0.1468  0.3129
 8650SOL    HW237587   1.047   4.148   0.335  0.3588 -0.6151 -0.6038
 8651SOL     OW37588   3.522   2.991   7.118  0.2900 -0.0193 -0.1070
 8651SOL    HW137589   3.494   2.910   7.161  1.0988 -0.3052 -0.1134
 8651SOL    HW237590   3.436   3.031   7.113 -0.2044 -0.7606  2.3230
 8652SOL     OW37591   1.859   2.666   3.074 -0.2444  0.5818  0.3627
 8652SOL    HW137592   1.823   2.754   3.082  3.5042  2.3636 -2.0855
 8652SOL    HW237593   1.779   2.618   3.094 -0.0892  0.4728  0.7226
 8653SOL     OW37594   3.175   4.068  12.663 -0.1375 -0.2377  0.5711
 8653SOL    HW137595   3.255   4.030  12.627  0.0654 -1.3434  2.2190
 8653SOL    HW237596   3.177   4.050  12.757  0.4920  0.7291  0.7393
 8654SOL     OW37597   2.289   3.751   6.016  0.1986 -0.3580 -0.3224
 8654SOL    HW137598   2.372   3.711   6.043  1.2203 -0.4515 -3.5115
 8654SOL    HW237599   2.321   3.769   5.927 -0.8472 -0.6626 -0.7561
 8655SOL     OW37600   1.736   0.343   9.409  0.2945 -0.0441 -0.1199
 8655SOL    HW137601   1.762   0.342   9.317  0.6893  2.2733 -0.0433
 8655SOL    HW237602   1.666   0.409   9.406 -0.4943 -0.8604  0.4717
 8656SOL     OW37603   3.209   1.902   4.291 -0.1428  0.1572  0.0232
 8656SOL    HW137604   3.281   1.940   4.342 -0.6483  0.3572  0.5826
 8656SOL    HW237605   3.173   1.849   4.363 -3.7808  0.9821 -1.2261
 8657SOL     OW37606   0.032   3.109   4.278 -0.2893  0.0867 -0.0575
 8657SOL    HW137607   0.006   3.054   4.204 -0.5457  0.1357 -0.0033
 8657SOL    HW237608   4.708   3.180   4.270 -3.0913 -2.3795  0.1028
 8658SOL     OW37609   2.219   1.707   2.910  0.0781  0.0286  0.5054
 8658SOL    HW137610   2.227   1.762   2.989  0.6018  1.8270 -0.8076
 8658SOL    HW237611   2.311   1.686   2.900  0.8869  2.2245  3.1865
 8659SOL     OW37612   1.766   0.622   7.588  0.5850 -0.5612  0.0237
 8659SOL    HW137613   1.750   0.630   7.683  0.3702  0.6945 -0.1091
 8659SOL    HW237614   1.679   0.608   7.553  0.3208 -1.3915  0.9988
 8660SOL     OW37615   1.154   3.133   4.831 -0.5894  0.5972  0.2299
 8660SOL    HW137616   1.146   3.039   4.850  1.0855  0.3492 -0.2763
 8660SOL    HW237617   1.240   3.156   4.867 -0.0124  0.4020 -1.0351
 8661SOL     OW37618   0.283   0.458  15.478  0.6918  0.1101 -0.0461
 8661SOL    HW137619   0.237   0.493  15.402 -0.2432 -1.0844 -0.0267
 8661SOL    HW237620   0.211   0.435  15.536  0.3819 -0.8949 -0.8470
 8662SOL     OW37621   1.899   3.073   7.702  0.4926 -0.1929  0.3479
 8662SOL    HW137622   1.875   3.019   7.777  0.5406 -1.4050 -0.5175
 8662SOL    HW237623   1.810   3.093   7.675  0.3016 -0.0906  1.0443
 8663SOL     OW37624   0.273   1.770  16.670 -0.6843  0.1038 -0.1289
 8663SOL    HW137625   0.295   1.734  16.584  3.0529  0.7915  0.5247
 8663SOL    HW237626   0.282   1.865  16.669  0.2450  0.0147 -0.2830
 8664SOL     OW37627   0.774   1.116  12.787 -0.2678  0.0365 -0.0622
 8664SOL    HW137628   0.793   1.023  12.796  0.6339  0.3010  0.8692
 8664SOL    HW237629   0.740   1.124  12.698  0.0925 -0.5367 -0.2530
 8665SOL     OW37630   3.818   4.729   5.509  0.4217 -0.4071  0.3665
 8665SOL    HW137631   3.731   4.736   5.550  0.0322 -1.5873 -0.2533
 8665SOL    HW237632   3.867   4.694   5.584 -0.1294 -0.4013  0.7351
 8666SOL     OW37633   0.243   3.707  10.464 -0.3396  1.2118  0.0106
 8666SOL    HW137634   0.199   3.771  10.409 -0.1614 -0.4802 -2.0977
 8666SOL    HW237635   0.316   3.766  10.482  2.8440 -3.6878  3.1749
 8667SOL     OW37636   2.147   0.193  17.252  0.4123 -0.1550  0.2107
 8667SOL    HW137637   2.225   0.204  17.306  0.7660 -1.1264 -0.1059
 8667SOL    HW237638   2.088   0.155  17.317 -1.0629 -0.1318 -1.1046
 8668SOL     OW37639   2.996   3.393   9.833  0.0768 -0.0840 -0.1879
 8668SOL    HW137640   2.941   3.326   9.792 -0.3751  0.2037 -0.0490
 8668SOL    HW237641   2.983   3.367   9.924  0.7653  0.1065 -0.0355
 8669SOL     OW37642   3.930   4.242   1.901 -0.3141 -0.3158  0.1144
 8669SOL    HW137643   4.008   4.188   1.888 -0.1232  0.6702 -2.7654
 8669SOL    HW237644   3.881   4.166   1.931 -1.9295  0.5224 -0.4160
 8670SOL     OW37645   0.106   3.734   8.705 -0.1120  0.1572 -0.1910
 8670SOL    HW137646   0.069   3.810   8.751  3.4095  2.4021 -1.0952
 8670SOL    HW237647   0.028   3.704   8.658 -1.0485 -0.5726  1.8530
 8671SOL     OW37648   0.767   4.180   5.520 -0.1207  0.4883 -0.5414
 8671SOL    HW137649   0.774   4.090   5.551  1.8756 -0.1882 -2.9800
 8671SOL    HW237650   0.816   4.227   5.586 -0.4291  0.3514 -0.2151
 8672SOL     OW37651   1.903   2.866   4.396  0.1212  1.1332 -0.4872
 8672SOL    HW137652   1.845   2.936   4.426 -1.4302 -0.7982  1.0158
 8672SOL    HW237653   1.857   2.782   4.405 -0.5339  1.3023 -2.4307
 8673SOL     OW37654   1.266   3.965   1.932  0.3633 -0.2210  0.1693
 8673SOL    HW137655   1.359   3.944   1.938  0.5834  0.9580  0.9316
 8673SOL    HW237656   1.241   3.908   1.860 -0.9927 -0.1385  0.5713
 8674SOL     OW37657   2.663   2.844   4.539 -0.2845 -0.4333 -0.1566
 8674SOL    HW137658   2.581   2.838   4.588 -1.1054 -2.3809 -1.7745
 8674SOL    HW237659   2.723   2.889   4.598  0.0195 -2.5790  1.2040
 8675SOL     OW37660   2.335   2.990   4.544  0.4311 -0.6031  0.0538
 8675SOL    HW137661   2.399   2.991   4.472 -0.4853 -1.9646 -0.7804
 8675SOL    HW237662   2.365   2.913   4.591 -0.5769  0.0463  1.7525
 8676SOL     OW37663   2.210   2.492   7.242 -0.1285  0.4105  0.3034
 8676SOL    HW137664   2.142   2.525   7.300  0.2941 -1.8853  2.1123
 8676SOL    HW237665   2.238   2.571   7.196 -1.2068  0.3472 -0.4607
 8677SOL     OW37666   4.047   4.427   6.619  0.5064  0.0803  0.0418
 8677SOL    HW137667   4.027   4.413   6.712  0.9999 -0.2237  0.0977
 8677SOL    HW237668   3.959   4.427   6.580  0.8549  0.4398 -0.7442
 8678SOL     OW37669   1.924   0.897   7.533 -0.2840 -0.2166 -0.3307
 8678SOL    HW137670   1.878   0.893   7.449 -0.0386 -0.8052 -0.4341
 8678SOL    HW237671   1.873   0.831   7.581 -0.2472 -0.0080 -0.0066
 8679SOL     OW37672   0.142   2.164   4.231 -0.1681  0.0010  0.2744
 8679SOL    HW137673   0.188   2.206   4.159 -0.2951  1.1085  0.8481
 8679SOL    HW237674   0.094   2.240   4.264  0.7461  0.5260  0.3645
 8680SOL     OW37675   1.095   1.613   8.780 -0.6792  0.5915 -0.0375
 8680SOL    HW137676   1.055   1.656   8.856  0.9390 -1.8076  2.1994
 8680SOL    HW237677   1.035   1.646   8.714  1.3550 -2.2869 -3.3176
 8681SOL     OW37678   1.366   2.469   5.198 -0.3221 -0.0579  0.2684
 8681SOL    HW137679   1.373   2.392   5.256  0.6424  0.0396  0.2888
 8681SOL    HW237680   1.432   2.444   5.133  1.6432  2.0177  1.4442
 8682SOL     OW37681   1.194   0.866  15.780 -0.8081  0.1666 -0.5841
 8682SOL    HW137682   1.159   0.824  15.859  0.3968 -0.9945 -0.6632
 8682SOL    HW237683   1.126   0.846  15.716 -0.6182  1.7868 -1.2820
 8683SOL     OW37684   1.968   3.146   8.878  0.1684  0.5144  0.7190
 8683SOL    HW137685   2.001   3.057   8.872 -0.5023  0.2139  1.6081
 8683SOL    HW237686   2.020   3.170   8.955  1.0098  0.6469  0.1058
 8684SOL     OW37687   2.077   0.120  14.316  0.0717  1.0304  0.1896
 8684SOL    HW137688   2.080   0.191  14.381  3.3535 -0.7380  1.9668
 8684SOL    HW237689   2.170   0.099  14.324 -0.3056 -0.4468  0.6327
 8685SOL     OW37690   1.918   0.501   4.682 -0.3475  0.5008  0.0189
 8685SOL    HW137691   1.875   0.419   4.708 -1.7052  1.3590  0.4460
 8685SOL    HW237692   1.846   0.548   4.640 -1.6845 -0.2174  1.5187
 8686SOL     OW37693   0.646   3.929   0.595  0.3270 -0.1249  0.3209
 8686SOL    HW137694   0.603   3.985   0.659  0.8704 -0.3286  0.8696
 8686SOL    HW237695   0.575   3.912   0.534  1.0887  2.7188 -1.3605
 8687SOL     OW37696   1.498   1.692  10.828 -0.6036  0.2926 -0.6431
 8687SOL    HW137697   1.587   1.706  10.796 -0.7539  2.9173  0.0956
 8687SOL    HW237698   1.517   1.678  10.921 -2.2091 -0.0693 -0.3823
 8688SOL     OW37699   4.490   3.356   7.197  0.4346 -0.3133  0.3708
 8688SOL    HW137700   4.501   3.339   7.291  1.8481 -2.3159 -0.1623
 8688SOL    HW237701   4.519   3.447   7.188 -0.3850 -0.0527  0.3516
 8689SOL     OW37702   2.121   1.529  16.645  0.4873  0.1498  0.2974
 8689SOL    HW137703   2.108   1.619  16.616  0.0349 -0.6397 -1.9611
 8689SOL    HW237704   2.215   1.517  16.657  0.5013  0.1635  0.1990
 8690SOL     OW37705   3.234   0.579  13.620 -0.2507 -0.0926  0.0446
 8690SOL    HW137706   3.255   0.625  13.701 -3.9509  0.2059  0.8318
 8690SOL    HW237707   3.315   0.528  13.608  0.1267  0.5760 -0.2133
 8691SOL     OW37708   3.108   2.719   6.507  0.3381 -0.4016  0.7439
 8691SOL    HW137709   3.023   2.697   6.544 -0.4132  1.6453  0.2896
 8691SOL    HW237710   3.117   2.813   6.523 -0.0493 -0.5451  1.7979
 8692SOL     OW37711   0.915   3.577   9.238  0.2350  0.1369  0.0751
 8692SOL    HW137712   0.958   3.491   9.234  1.1214  0.7358 -3.0972
 8692SOL    HW237713   0.934   3.603   9.328  0.1329  0.4008  0.0189
 8693SOL     OW37714   2.977   0.612   3.733  0.0152  0.1802 -0.3169
 8693SOL    HW137715   3.052   0.573   3.687 -1.2985  0.0898 -2.3814
 8693SOL    HW237716   2.919   0.536   3.740  1.9203 -1.0503  2.5242
 8694SOL     OW37717   3.280   3.143   7.168 -0.1221 -0.1182 -0.0843
 8694SOL    HW137718   3.203   3.087   7.162  0.3157 -0.8774  1.3928
 8694SOL    HW237719   3.234   3.227   7.173  0.1940  0.0329  0.3060
 8695SOL     OW37720   0.007   1.450   8.198  0.9691 -0.2118 -0.1409
 8695SOL    HW137721   4.720   1.473   8.287 -1.1980 -0.6392 -0.6759
 8695SOL    HW237722   0.070   1.384   8.226  2.1445  0.5913 -0.9241
 8696SOL     OW37723   0.478   4.139   0.041 -0.2416 -0.1111 -0.3094
 8696SOL    HW137724   0.415   4.089  17.745 -0.1918 -1.7765  1.2388
 8696SOL    HW237725   0.445   4.117   0.128  1.4124 -0.2063  0.2914
 8697SOL     OW37726   0.830   0.834   7.754 -0.3203 -0.2950  0.5476
 8697SOL    HW137727   0.839   0.825   7.659  0.4753  0.9216  0.5121
 8697SOL    HW237728   0.753   0.890   7.758 -1.4924 -1.9397  0.9443
 8698SOL     OW37729   0.653   1.356  17.262  0.7466 -0.2761  0.1800
 8698SOL    HW137730   0.725   1.335  17.203 -0.7886 -1.0058 -1.4707
 8698SOL    HW237731   0.589   1.399  17.205  0.5418 -0.0980  0.5474
 8699SOL     OW37732   3.043   3.744  13.017 -0.0496  0.5925 -0.5825
 8699SOL    HW137733   3.014   3.709  12.933 -1.3959 -1.4090  0.7414
 8699SOL    HW237734   3.114   3.686  13.044 -1.4465  0.9995  3.9787
 8700SOL     OW37735   0.581   3.551   2.904  0.2666 -0.4331 -0.5108
 8700SOL    HW137736   0.658   3.499   2.926  1.5627  0.8660 -1.9797
 8700SOL    HW237737   0.506   3.493   2.912 -0.2731  0.3185 -0.0314
 8701SOL     OW37738   1.710   1.877   8.699 -0.4537  0.0881 -0.6616
 8701SOL    HW137739   1.738   1.943   8.636 -0.2127  1.0975  0.4917
 8701SOL    HW237740   1.615   1.885   8.687 -0.1242  1.6719 -2.1881
 8702SOL     OW37741   1.741   2.387  10.458 -0.3710 -0.6699  0.1361
 8702SOL    HW137742   1.655   2.346  10.467 -1.1253  0.6500 -0.9636
 8702SOL    HW237743   1.760   2.405  10.550 -0.2402  1.0663 -0.2312
 8703SOL     OW37744   0.849   3.355   6.207 -0.0314  0.3003 -0.1410
 8703SOL    HW137745   0.754   3.347   6.198  0.2542 -0.3691 -2.6222
 8703SOL    HW237746   0.864   3.437   6.161  2.3227 -0.0133  0.0773
 8704SOL     OW37747   2.899   0.463  15.246  0.0953 -0.2677 -0.0995
 8704SOL    HW137748   2.834   0.471  15.316 -0.1795  0.4825 -0.4447
 8704SOL    HW237749   2.969   0.510  15.291  1.3326 -2.3052  0.1167
 8705SOL     OW37750   2.679   1.372   2.449  0.3858  0.2341  0.3044
 8705SOL    HW137751   2.597   1.357   2.494  0.3412 -0.1852  0.0838
 8705SOL    HW237752   2.755   1.351   2.504  1.1990  2.1882 -0.0347
 8706SOL     OW37753   4.683   1.927   7.613  0.2773 -0.0530  0.6095
 8706SOL    HW137754   4.645   1.984   7.547  1.3129  0.6346  0.5937
 8706SOL    HW237755   4.627   1.850   7.616  0.4290 -0.1895 -0.1864
 8707SOL     OW37756   4.056   3.280   2.281  0.8277  0.0900 -0.0280
 8707SOL    HW137757   4.050   3.229   2.200 -0.2222  1.9920 -1.1437
 8707SOL    HW237758   4.082   3.364   2.242 -0.3040 -0.3110 -1.6946
 8708SOL     OW37759   4.027   4.330   8.083 -0.6033  0.0723  0.2619
 8708SOL    HW137760   3.942   4.332   8.128  0.3633  0.0401  2.1160
 8708SOL    HW237761   4.083   4.326   8.160  0.7835  0.0840 -0.7552
 8709SOL     OW37762   4.156   1.512   7.238  0.1563 -0.5241  0.1973
 8709SOL    HW137763   4.172   1.599   7.276 -2.6938 -0.1121  0.4393
 8709SOL    HW237764   4.234   1.464   7.267 -0.2989 -1.8922 -0.8750
 8710SOL     OW37765   2.319   0.381  14.333  0.3300  0.0815  0.2342
 8710SOL    HW137766   2.371   0.451  14.371  1.9501 -1.5405  0.9893
 8710SOL    HW237767   2.379   0.356  14.263 -0.7181 -1.7410 -0.0100
 8711SOL     OW37768   4.613   1.644   7.357 -0.3183 -0.1784  0.7519
 8711SOL    HW137769   4.708   1.631   7.362 -0.1172  0.3906 -1.4427
 8711SOL    HW237770   4.601   1.716   7.296 -0.6057  0.6616  1.8118
 8712SOL     OW37771   3.604   1.082  16.859  0.0824 -0.1764  0.3775
 8712SOL    HW137772   3.693   1.052  16.842  0.5230  0.7786  0.9496
 8712SOL    HW237773   3.613   1.125  16.945  1.9783  1.8152 -0.8078
 8713SOL     OW37774   4.367   2.751   2.793 -1.0664  0.5802 -0.1724
 8713SOL    HW137775   4.441   2.702   2.757 -0.0687  1.5099  0.6201
 8713SOL    HW237776   4.302   2.684   2.816 -0.4309 -0.6427 -1.9531
 8714SOL     OW37777   1.909   1.236  10.281 -0.0279  0.1545  0.2125
 8714SOL    HW137778   1.916   1.224  10.375 -0.6418 -0.9592  0.1186
 8714SOL    HW237779   1.824   1.277  10.265  1.3102  2.5107 -0.7768
 8715SOL     OW37780   0.333   2.646   4.565 -0.6056  0.1214  0.3095
 8715SOL    HW137781   0.319   2.642   4.659 -0.2325  2.5906  0.4834
 8715SOL    HW237782   0.331   2.741   4.556  1.1730  0.2235  0.9320
 8716SOL     OW37783   0.343   3.681   6.219  0.4288 -0.1533 -0.4507
 8716SOL    HW137784   0.345   3.747   6.288  0.5171 -0.3594 -0.2569
 8716SOL    HW237785   0.404   3.732   6.165  1.5436  0.8571  1.7895
 8717SOL     OW37786   3.169   3.399   5.467 -0.4261  0.1285  0.1768
 8717SOL    HW137787   3.191   3.399   5.374 -1.6580 -2.6891 -0.1173
 8717SOL    HW237788   3.103   3.468   5.464  1.1786  1.7289  1.8184
 8718SOL     OW37789   1.816   4.534   2.101 -0.5588  0.3011 -0.8242
 8718SOL    HW137790   1.765   4.572   2.029 -0.5438  1.1664 -0.3824
 8718SOL    HW237791   1.788   4.590   2.173 -0.0730  0.1478 -0.5209
 8719SOL     OW37792   2.538   1.716   5.455  0.2887  0.3105 -0.2874
 8719SOL    HW137793   2.602   1.769   5.408  0.2491  1.8328  1.3713
 8719SOL    HW237794   2.482   1.679   5.386  0.3221 -1.6403  0.7357
 8720SOL     OW37795   2.212   3.152   2.161 -0.2022  0.3637 -0.2689
 8720SOL    HW137796   2.183   3.241   2.140  1.6630  0.6414 -1.6878
 8720SOL    HW237797   2.229   3.164   2.254  0.0211  0.7247 -0.3566
 8721SOL     OW37798   4.050   2.652   3.129 -0.4469  0.0479  0.1418
 8721SOL    HW137799   4.034   2.741   3.161  0.4163  0.0456  0.5635
 8721SOL    HW237800   3.985   2.607   3.183 -0.2601 -0.2092  0.1481
 8722SOL     OW37801   2.128   3.684   6.956  0.1502  0.4586 -0.2206
 8722SOL    HW137802   2.121   3.771   6.997  0.1862  0.0707  0.6083
 8722SOL    HW237803   2.138   3.623   7.028 -2.6711  0.7254  0.4044
 8723SOL     OW37804   4.083   2.550   5.077 -0.5159 -0.5459 -0.0556
 8723SOL    HW137805   4.146   2.604   5.029 -0.4426 -2.3311 -1.9522
 8723SOL    HW237806   4.052   2.613   5.143 -0.8224 -1.2913  0.5212
 8724SOL     OW37807   0.974   1.916   0.634 -0.6340  0.2316 -0.0626
 8724SOL    HW137808   0.990   1.890   0.724 -0.4571 -1.5842 -0.6306
 8724SOL    HW237809   0.883   1.946   0.635 -0.3756  1.0612 -0.7945
 8725SOL     OW37810   0.882   2.197   5.892 -0.1404  0.6036 -0.3281
 8725SOL    HW137811   0.878   2.283   5.850 -0.5806  0.3784 -0.7550
 8725SOL    HW237812   0.976   2.197   5.911  0.2202 -1.1352 -2.0203
 8726SOL     OW37813   0.522   0.518  14.076 -0.2623 -0.0096 -0.2892
 8726SOL    HW137814   0.598   0.468  14.107 -1.2697 -0.7708  0.9664
 8726SOL    HW237815   0.522   0.494  13.983 -1.6314  0.6662 -0.4698
 8727SOL     OW37816   2.980   3.939   9.010  0.0238 -0.2436  0.3051
 8727SOL    HW137817   3.059   3.976   9.051  1.2219  0.2878 -2.5009
 8727SOL    HW237818   2.932   3.904   9.085 -0.3271  1.2872  0.7985
 8728SOL     OW37819   2.932   0.965   1.679  0.4045 -0.6773  0.7698
 8728SOL    HW137820   3.007   1.024   1.678  0.5836 -0.8937  1.8419
 8728SOL    HW237821   2.870   1.019   1.728  0.8347 -0.8199  1.4648
 8729SOL     OW37822   4.725   3.043   3.717 -0.2751  0.0436 -0.1144
 8729SOL    HW137823   4.636   3.079   3.725  0.0603  0.3146  2.4869
 8729SOL    HW237824   0.028   3.092   3.787  1.2220 -0.6398 -0.5534
 8730SOL     OW37825   2.473   2.362   1.640 -0.3083 -0.3874  0.3889
 8730SOL    HW137826   2.504   2.337   1.727  0.1278  0.7904  0.5821
 8730SOL    HW237827   2.547   2.406   1.598  0.6127 -0.0926  2.2881
 8731SOL     OW37828   3.833   3.551   3.404  0.0873 -0.5920 -0.3507
 8731SOL    HW137829   3.898   3.597   3.351 -1.7951 -1.7410 -3.6100
 8731SOL    HW237830   3.757   3.527   3.351 -1.6240 -0.5895  2.0792
 8732SOL     OW37831   2.855   0.589  14.981 -0.3548 -0.2431 -0.3070
 8732SOL    HW137832   2.862   0.564  15.073 -1.9149  0.7932  0.0881
 8732SOL    HW237833   2.857   0.684  14.995  0.6694 -0.2321 -0.5124
 8733SOL     OW37834   4.715   2.474  10.257 -0.0844  0.3670 -0.5098
 8733SOL    HW137835   0.037   2.412  10.296  0.3145 -0.1029 -1.8802
 8733SOL    HW237836   0.031   2.551  10.245  0.2513  0.1939 -0.0573
 8734SOL     OW37837   1.432   2.238   8.464 -0.2239  0.1144 -0.5478
 8734SOL    HW137838   1.359   2.188   8.502 -0.2510 -0.1828 -0.9959
 8734SOL    HW237839   1.390   2.324   8.461  0.5793  0.5754  1.5632
 8735SOL     OW37840   1.761   3.676  10.815  0.3122 -0.4536  0.2665
 8735SOL    HW137841   1.837   3.617  10.816  0.6860  0.0277  0.2866
 8735SOL    HW237842   1.793   3.761  10.843 -0.9660  0.7145 -1.8143
 8736SOL     OW37843   2.737   2.893  17.710  0.0827 -0.1921 -0.5795
 8736SOL    HW137844   2.794   2.907   0.030  1.2112  0.6168 -1.5981
 8736SOL    HW237845   2.789   2.841  17.650 -1.6332 -0.9461 -1.4137
 8737SOL     OW37846   0.264   1.840  12.888 -0.1845  0.4008 -0.2840
 8737SOL    HW137847   0.338   1.861  12.831 -1.1718  2.1039 -0.9448
 8737SOL    HW237848   0.206   1.790  12.831 -1.7436 -0.3352  1.9331
 8738SOL     OW37849   3.264   3.752   6.791  0.1758 -1.1217 -0.9850
 8738SOL    HW137850   3.243   3.669   6.834 -0.5398  0.3993  1.6164
 8738SOL    HW237851   3.206   3.754   6.715 -1.3374 -3.2327  0.1156
 8739SOL     OW37852   3.706   2.320   3.203  0.5761 -0.2608 -0.7103
 8739SOL    HW137853   3.713   2.257   3.131  1.1781 -0.8606 -0.1319
 8739SOL    HW237854   3.612   2.339   3.195  0.9520  1.4001 -1.0895
 8740SOL     OW37855   3.136   3.966  12.167 -0.0281 -0.0367 -0.3075
 8740SOL    HW137856   3.180   3.886  12.196  1.4829  1.7554  2.3120
 8740SOL    HW237857   3.083   3.940  12.091  1.8946  0.6065 -1.8596
 8741SOL     OW37858   4.491   3.243   4.823  0.4551 -0.1951 -0.2106
 8741SOL    HW137859   4.428   3.237   4.752 -0.3239  0.1919  0.4475
 8741SOL    HW237860   4.445   3.212   4.901 -0.4873 -0.1683 -0.7576
 8742SOL     OW37861   0.898   3.941   8.345  0.1954 -0.3205  0.0870
 8742SOL    HW137862   0.823   3.920   8.400  0.0455  1.3219  0.5159
 8742SOL    HW237863   0.888   3.882   8.270  0.6622 -0.1954 -0.0747
 8743SOL     OW37864   1.170   1.072   0.100  0.6933  0.1209 -0.0037
 8743SOL    HW137865   1.078   1.082   0.077  0.3328 -3.2811 -0.0313
 8743SOL    HW237866   1.207   1.160   0.095 -0.5499  0.4965 -2.3597
 8744SOL     OW37867   4.009   0.830   7.217  0.3649  0.2874 -0.2633
 8744SOL    HW137868   3.992   0.899   7.282 -1.4564  0.3400 -0.8042
 8744SOL    HW237869   4.096   0.808   7.250 -0.2313  0.0775  1.1723
 8745SOL     OW37870   1.699   4.582   0.737  0.0519  0.1292  0.5153
 8745SOL    HW137871   1.742   4.598   0.653  0.0265 -1.1238  0.2735
 8745SOL    HW237872   1.634   4.518   0.709 -2.0878  2.6448 -0.2261
 8746SOL     OW37873   3.274   1.591  14.886 -0.3995 -1.0972 -0.3438
 8746SOL    HW137874   3.305   1.675  14.853 -0.9598 -0.1030  1.6647
 8746SOL    HW237875   3.334   1.582  14.960 -2.9079  0.9690  1.9711
 8747SOL     OW37876   2.083   1.893  16.831 -0.3109 -0.2435 -0.0806
 8747SOL    HW137877   2.071   1.851  16.917  2.0218 -1.6167 -0.4487
 8747SOL    HW237878   2.026   1.833  16.783  0.0279 -0.9581  0.4020
 8748SOL     OW37879   3.188   2.295   7.031  0.1643 -0.3769  0.2207
 8748SOL    HW137880   3.144   2.246   6.963 -0.3882  0.6023 -0.1295
 8748SOL    HW237881   3.178   2.381   6.989 -2.1697 -0.6273  0.2567
 8749SOL     OW37882   4.666   1.778   1.345 -0.4654 -0.3164 -1.0756
 8749SOL    HW137883   4.677   1.709   1.410 -1.2799  0.4176 -0.1536
 8749SOL    HW237884   4.718   1.745   1.271  1.6900  0.4395  0.1021
 8750SOL     OW37885   2.851   2.724   6.671  0.1203 -0.4544 -0.4128
 8750SOL    HW137886   2.771   2.729   6.722 -0.8174  3.9026 -2.2899
 8750SOL    HW237887   2.819   2.777   6.598 -1.1850 -1.2445 -0.4124
 8751SOL     OW37888   3.523   3.828  17.053 -0.9678 -0.0621 -0.7492
 8751SOL    HW137889   3.535   3.785  16.968 -0.1586 -0.8933 -0.2168
 8751SOL    HW237890   3.521   3.920  17.029  2.5587  0.1025 -0.4329
 8752SOL     OW37891   2.584   3.622   0.948  0.2489 -0.5502 -0.5229
 8752SOL    HW137892   2.521   3.569   0.996  0.2868  0.6308  0.8355
 8752SOL    HW237893   2.667   3.589   0.982 -0.0334 -0.7189 -0.0051
 8753SOL     OW37894   1.379   0.366   6.890  0.5908 -0.2889  0.3643
 8753SOL    HW137895   1.344   0.404   6.810 -0.0542  2.6306  2.0331
 8753SOL    HW237896   1.472   0.380   6.871  0.3423  1.4362  0.4002
 8754SOL     OW37897   3.777   3.887   3.705 -0.6599 -0.4038 -0.2799
 8754SOL    HW137898   3.681   3.886   3.704 -0.7287  1.2947  3.7472
 8754SOL    HW237899   3.794   3.943   3.781  0.2339  1.2593 -1.7035
 8755SOL     OW37900   2.939   3.678   4.729  0.4920  0.0304 -0.2891
 8755SOL    HW137901   2.982   3.598   4.698  0.5357  0.1609 -0.5590
 8755SOL    HW237902   2.903   3.709   4.646  0.2792  0.5640  0.0025
 8756SOL     OW37903   4.535   3.463   5.306 -0.2548  0.3338 -0.2005
 8756SOL    HW137904   4.477   3.428   5.239  1.5389  0.3557 -1.7508
 8756SOL    HW237905   4.549   3.383   5.357 -2.4197  1.4891  2.2139
 8757SOL     OW37906   2.214   3.378   2.748 -0.2554  0.2332 -0.1873
 8757SOL    HW137907   2.120   3.373   2.765 -0.2010  1.0821  0.4060
 8757SOL    HW237908   2.234   3.299   2.797 -1.5075 -0.2362 -0.4282
 8758SOL     OW37909   4.404   2.709   4.913 -0.3251  0.0050 -0.0406
 8758SOL    HW137910   4.463   2.742   4.846  0.2403 -0.6519  0.1331
 8758SOL    HW237911   4.457   2.698   4.991 -0.6816 -0.7681  0.0957
 8759SOL     OW37912   3.245   1.967   0.418 -0.1000  0.1693 -0.1653
 8759SOL    HW137913   3.228   1.984   0.511 -3.0200  3.7979 -1.3285
 8759SOL    HW237914   3.243   2.053   0.376 -1.8570  0.2012 -0.0352
 8760SOL     OW37915   2.238   4.047  14.874  0.7758 -0.0582  0.1850
 8760SOL    HW137916   2.162   4.096  14.843  1.3210 -1.0197 -2.6190
 8760SOL    HW237917   2.314   4.098  14.846  2.1291 -1.9758  0.3200
 8761SOL     OW37918   0.558   2.817   8.473 -0.2162 -0.1032  0.2207
 8761SOL    HW137919   0.596   2.828   8.560 -1.2059 -0.7169  0.7343
 8761SOL    HW237920   0.632   2.814   8.412 -1.4096 -1.6779 -1.1529
 8762SOL     OW37921   1.398   0.583   5.594 -0.2625 -0.3939 -0.1450
 8762SOL    HW137922   1.342   0.531   5.651 -0.1043 -0.0351  0.3415
 8762SOL    HW237923   1.384   0.675   5.615  0.9374 -0.1245 -0.4934
 8763SOL     OW37924   2.031   4.611   1.554 -0.2327  0.1692 -0.0081
 8763SOL    HW137925   2.090   4.677   1.517 -0.7016  1.0266  0.7444
 8763SOL    HW237926   2.014   4.553   1.480  0.9443 -1.7257  1.2046
 8764SOL     OW37927   0.207   3.843   3.155  0.1829  0.1775 -0.0396
 8764SOL    HW137928   0.265   3.814   3.084  1.0604  1.5315  0.1242
 8764SOL    HW237929   0.126   3.866   3.110  0.2328  0.2912 -0.0714
 8765SOL     OW37930   3.100   1.472   2.647  0.0939 -0.0538 -0.0105
 8765SOL    HW137931   3.159   1.464   2.722  1.5161  1.4611 -0.9688
 8765SOL    HW237932   3.151   1.526   2.586 -1.2936  1.3346  0.0592
 8766SOL     OW37933   2.940   3.259   0.542 -0.1486 -0.7375 -0.6028
 8766SOL    HW137934   2.907   3.171   0.564  0.3546 -0.8050 -0.1268
 8766SOL    HW237935   2.858   3.305   0.554  0.5287  0.3368 -0.1397
 8767SOL     OW37936   0.400   4.190   4.929 -0.6672  0.0769  0.4522
 8767SOL    HW137937   0.406   4.210   5.023  0.8082  4.5927 -0.6023
 8767SOL    HW237938   0.308   4.162   4.926 -0.3309 -0.4581 -4.1045
 8768SOL     OW37939   4.606   1.051   6.218  0.0448 -0.5449 -0.7110
 8768SOL    HW137940   4.570   1.135   6.246  1.8571  0.4246 -1.3359
 8768SOL    HW237941   4.657   1.027   6.296 -1.9436  0.5162  0.9177
 8769SOL     OW37942   2.967   3.175   5.633 -0.4881  0.0221 -0.1776
 8769SOL    HW137943   3.001   3.259   5.665 -0.9195 -0.7515  2.3350
 8769SOL    HW237944   2.887   3.203   5.587  0.6361  1.6514 -1.1666
 8770SOL     OW37945   4.699   2.329   8.512  0.0513 -0.1388  0.5085
 8770SOL    HW137946   4.620   2.326   8.458  0.0276  0.4784  0.5096
 8770SOL    HW237947   0.024   2.358   8.448 -0.3403 -1.1140 -0.3317
 8771SOL     OW37948   3.772   0.884   3.236 -0.0023 -0.3256  0.6449
 8771SOL    HW137949   3.755   0.875   3.142 -1.0101  1.2117  0.6732
 8771SOL    HW237950   3.788   0.792   3.256  1.9448 -0.3250 -0.9272
 8772SOL     OW37951   4.093   4.014   4.810  0.1203  0.2229  0.1182
 8772SOL    HW137952   4.097   4.078   4.881 -1.6668 -1.3382  1.5926
 8772SOL    HW237953   4.010   3.969   4.820 -0.1557  0.3482 -1.5909
 8773SOL     OW37954   3.272   0.191  15.910  0.9455 -0.4839 -0.4698
 8773SOL    HW137955   3.319   0.204  15.827 -0.8264  3.0676 -0.9380
 8773SOL    HW237956   3.342   0.141  15.952  0.6613 -0.0018  0.5536
 8774SOL     OW37957   1.341   2.918   7.984  0.4390 -0.4303 -0.1015
 8774SOL    HW137958   1.283   2.869   8.042 -1.7504 -0.7956 -2.6486
 8774SOL    HW237959   1.305   3.002   7.954  0.6894  0.5750  2.3453
 8775SOL     OW37960   1.553   2.240   5.594  0.4297  0.3627  0.0609
 8775SOL    HW137961   1.607   2.319   5.588  0.6680  0.0546 -1.9966
 8775SOL    HW237962   1.622   2.173   5.590 -0.9310 -1.2127  3.1279
 8776SOL     OW37963   3.190   1.841   8.824  0.2003  0.9851 -0.4703
 8776SOL    HW137964   3.232   1.824   8.908  2.6140  2.7055 -1.3390
 8776SOL    HW237965   3.149   1.759   8.796  0.4001  0.3289  1.1221
 8777SOL     OW37966   4.011   1.978   3.531  0.3081  0.1145  0.2768
 8777SOL    HW137967   3.996   2.037   3.605  2.2724  0.6031  0.3000
 8777SOL    HW237968   4.030   1.896   3.577  2.8837 -0.7746 -2.3694
 8778SOL     OW37969   1.959   3.715   3.326  0.2976 -0.3642 -0.2473
 8778SOL    HW137970   1.999   3.655   3.389 -0.0179  1.3150  1.5419
 8778SOL    HW237971   2.028   3.778   3.307  0.2679  0.2376  1.7334
 8779SOL     OW37972   4.598   0.072  17.579 -0.3213  0.0369 -0.1986
 8779SOL    HW137973   4.613   0.011  17.652  1.0492  1.5916  0.8454
 8779SOL    HW237974   4.671   0.133  17.592 -1.3840  1.5892 -1.6205
 8780SOL     OW37975   3.096   1.327  15.912  0.0995  0.5748 -0.0424
 8780SOL    HW137976   3.133   1.318  16.000  1.5609 -0.5236 -0.7643
 8780SOL    HW237977   3.022   1.385  15.928 -1.7898 -1.7430 -0.3213
 8781SOL     OW37978   2.615   2.831  16.620  0.4468 -0.2979 -0.4505
 8781SOL    HW137979   2.664   2.828  16.702  0.6441  4.6233 -0.3831
 8781SOL    HW237980   2.643   2.916  16.586 -0.0604  1.0241  2.4936
 8782SOL     OW37981   1.193   0.338   2.925  0.2780  0.2730 -0.0033
 8782SOL    HW137982   1.223   0.301   3.008  0.8549  0.9492  0.0923
 8782SOL    HW237983   1.098   0.328   2.933  0.1218 -0.3760 -2.8258
 8783SOL     OW37984   1.929   1.011   7.077  0.0783  0.0984  0.5447
 8783SOL    HW137985   1.880   1.020   6.995  1.5770  2.5436 -0.0868
 8783SOL    HW237986   2.020   1.015   7.047  0.1739 -0.2681  0.7976
 8784SOL     OW37987   1.226   2.351   9.803 -0.3149 -0.0411 -0.8958
 8784SOL    HW137988   1.292   2.418   9.786  2.1206 -1.7719  1.6488
 8784SOL    HW237989   1.266   2.284   9.747 -0.0664 -0.4411 -0.2380
 8785SOL     OW37990   0.652   0.700  13.676 -0.0603  0.1146 -0.1003
 8785SOL    HW137991   0.677   0.768  13.739  2.2574  0.7521 -1.7028
 8785SOL    HW237992   0.579   0.738  13.628  1.1319 -0.3588 -2.2899
 8786SOL     OW37993   4.077   0.750   2.771 -0.2353 -0.0433 -0.0024
 8786SOL    HW137994   4.055   0.657   2.758 -0.2501  0.3613 -2.9171
 8786SOL    HW237995   3.998   0.788   2.733 -1.0124  0.4095  2.0806
 8787SOL     OW37996   3.318   3.641   8.928 -0.6710  0.9379  0.2927
 8787SOL    HW137997   3.362   3.599   9.003 -1.5683 -2.3607 -1.0115
 8787SOL    HW237998   3.235   3.663   8.970 -0.1660 -0.2074  1.8849
 8788SOL     OW37999   0.085   1.561   5.713  0.0406 -0.4431  0.0373
 8788SOL    HW138000   0.061   1.469   5.702  0.8164 -0.6600  0.1570
 8788SOL    HW238001   0.172   1.546   5.748 -0.3416 -1.5488  0.5143
 8789SOL     OW38002   4.337   0.734   2.115 -0.2214  0.7010  0.3937
 8789SOL    HW138003   4.432   0.727   2.115 -0.2739 -0.0991 -2.5552
 8789SOL    HW238004   4.331   0.807   2.176  1.9292  1.1016  0.0973
 8790SOL     OW38005   2.633   4.618  16.464 -0.1413 -0.5856  0.9132
 8790SOL    HW138006   2.593   4.704  16.453  1.9075  0.2523 -0.0527
 8790SOL    HW238007   2.586   4.565  16.529 -2.3602 -1.3192 -1.2877
 8791SOL     OW38008   3.003   3.066   5.272 -0.5147  0.5024  0.2159
 8791SOL    HW138009   3.040   3.058   5.184 -1.9342 -3.2154 -0.0473
 8791SOL    HW238010   3.084   3.051   5.322 -1.4629  0.6345  1.7813
 8792SOL     OW38011   0.699   1.878   8.731  0.1395  0.2049  0.6410
 8792SOL    HW138012   0.619   1.912   8.692 -0.2436  0.6875  1.8479
 8792SOL    HW238013   0.765   1.944   8.708 -3.6395  2.7009 -3.0414
 8793SOL     OW38014   0.467   4.724   7.458 -0.0009 -0.1254 -0.3358
 8793SOL    HW138015   0.471   4.634   7.489  0.1953  0.0995  0.2877
 8793SOL    HW238016   0.428   0.029   7.533 -1.1192  0.9245 -1.5264
 8794SOL     OW38017   3.450   4.469  13.673 -0.1448  0.1494  0.4084
 8794SOL    HW138018   3.364   4.508  13.658  0.2941  0.3880 -1.4856
 8794SOL    HW238019   3.507   4.546  13.666 -0.5186  0.5848  2.3050
 8795SOL     OW38020   4.148   3.481   6.487  0.0846  0.1416 -0.0255
 8795SOL    HW138021   4.113   3.461   6.401  1.4253 -2.8444  0.0949
 8795SOL    HW238022   4.194   3.397   6.498  0.7719  0.5714  0.4379
 8796SOL     OW38023   2.314   4.739   4.365  0.3404  0.2046  0.2488
 8796SOL    HW138024   2.342   0.029   4.278 -0.9756  1.0428  0.1185
 8796SOL    HW238025   2.220   0.003   4.351  0.0881 -3.2749  1.0702
 8797SOL     OW38026   0.703   3.000  13.819  0.0633  0.2881  0.1333
 8797SOL    HW138027   0.619   3.039  13.842 -0.4640  0.2094 -1.6962
 8797SOL    HW238028   0.728   3.064  13.752  0.1972  0.0472 -0.0433
 8798SOL     OW38029   4.420   4.583  10.461 -0.2452 -0.4423 -0.4347
 8798SOL    HW138030   4.395   4.663  10.416 -0.0130  0.0403  0.2898
 8798SOL    HW238031   4.516   4.581  10.454 -0.0969  1.7086  1.0476
 8799SOL     OW38032   1.743   3.872   3.291 -0.0339  0.0807  0.3830
 8799SOL    HW138033   1.818   3.813   3.295  0.5405  0.8470  0.6850
 8799SOL    HW238034   1.754   3.941   3.356  2.1313 -1.6025  1.7716
 8800SOL     OW38035   3.629   4.079   9.704 -0.0410 -0.7283  0.8420
 8800SOL    HW138036   3.675   4.088   9.621 -1.8892  1.6913  0.0930
 8800SOL    HW238037   3.599   3.988   9.696 -0.5975 -0.2061 -2.5509
 8801SOL     OW38038   1.108   4.648   2.346  0.1832  0.9216 -0.6759
 8801SOL    HW138039   1.165   4.664   2.421  0.4720 -0.9707 -0.4843
 8801SOL    HW238040   1.169   4.603   2.287 -0.8269 -1.9261  0.4403
 8802SOL     OW38041   4.334   4.263   3.589  0.2861  0.1985  0.0330
 8802SOL    HW138042   4.317   4.276   3.683  1.0972  1.1069  0.0560
 8802SOL    HW238043   4.261   4.304   3.543 -0.1031 -0.8769 -0.3038
 8803SOL     OW38044   4.703   3.948   9.365  0.1752  0.3881 -0.0191
 8803SOL    HW138045   4.650   3.869   9.380  0.6611 -0.2212 -1.4666
 8803SOL    HW238046   4.627   4.003   9.348  0.8665  1.2392 -0.2968
 8804SOL     OW38047   0.479   2.653  11.860 -0.2718 -0.3572 -0.1522
 8804SOL    HW138048   0.391   2.677  11.830  0.3286  0.8221 -0.9797
 8804SOL    HW238049   0.525   2.646  11.777  0.7947  0.3656  0.3792
 8805SOL     OW38050   3.765   4.705   4.442 -0.2226 -0.1168 -0.0648
 8805SOL    HW138051   3.825   4.655   4.498  1.1719  0.1013 -1.3567
 8805SOL    HW238052   3.725   0.022   4.507 -1.1278 -0.3443 -0.4262
 8806SOL     OW38053   3.787   2.779  10.783  0.2957 -0.1709 -0.0892
 8806SOL    HW138054   3.813   2.825  10.863 -0.2286  1.0776 -0.6482
 8806SOL    HW238055   3.830   2.829  10.714  0.6539  1.5985  1.4319
 8807SOL     OW38056   1.563   1.177   3.597  0.2100 -0.6846 -0.0167
 8807SOL    HW138057   1.509   1.103   3.628 -0.1407 -0.2256  0.4722
 8807SOL    HW238058   1.572   1.239   3.669 -4.8550 -0.9697  0.8972
 8808SOL     OW38059   0.289   2.682   8.842 -0.5518 -0.0740  0.3397
 8808SOL    HW138060   0.237   2.619   8.794 -0.0938 -0.9086  0.9325
 8808SOL    HW238061   0.225   2.748   8.869  1.2883  1.1337  1.7966
 8809SOL     OW38062   3.887   2.169   4.491  0.0490 -0.0157 -0.0937
 8809SOL    HW138063   3.955   2.210   4.437  2.7661 -1.5488  2.1907
 8809SOL    HW238064   3.930   2.094   4.531 -0.9171  0.5041  1.9240
 8810SOL     OW38065   0.513   2.045   8.557  0.4024 -0.1974 -0.9457
 8810SOL    HW138066   0.473   2.101   8.491 -0.1090 -0.8232 -1.1705
 8810SOL    HW238067   0.489   1.957   8.529  2.7369 -0.7626 -1.1744
 8811SOL     OW38068   1.003   1.218   1.405 -0.3684 -0.2094  0.0130
 8811SOL    HW138069   0.991   1.170   1.487  0.6131  2.1275  1.5170
 8811SOL    HW238070   0.967   1.153   1.344 -2.9541  0.3268  0.9789
 8812SOL     OW38071   3.977   3.895  10.964  0.0441  0.3936 -0.3473
 8812SOL    HW138072   4.007   3.935  11.046 -0.7347  2.6761 -1.1771
 8812SOL    HW238073   4.020   3.955  10.902  1.0764  0.6004  0.5503
 8813SOL     OW38074   3.764   3.930   3.419 -0.4470  0.0948  0.2589
 8813SOL    HW138075   3.810   3.931   3.503 -1.5551 -1.1358  0.8890
 8813SOL    HW238076   3.835   3.971   3.369 -0.9533 -0.9806 -1.3449
 8814SOL     OW38077   1.868   1.763   3.032  0.0095  0.0418 -0.0002
 8814SOL    HW138078   1.867   1.858   3.036  0.0691  0.1420 -2.1757
 8814SOL    HW238079   1.776   1.741   3.018  0.3196 -0.5687 -1.1518
 8815SOL     OW38080   2.387   1.051   5.156  0.4753  0.0313 -0.2560
 8815SOL    HW138081   2.457   1.075   5.217 -0.5355  0.1048  0.8747
 8815SOL    HW238082   2.313   1.044   5.217 -0.5277  3.0311 -1.1383
 8816SOL     OW38083   2.899   4.145  12.046 -0.2113  0.0793 -0.0348
 8816SOL    HW138084   2.848   4.163  12.125  0.4501  1.6346  0.0293
 8816SOL    HW238085   2.830   4.110  11.990  0.3998  1.4690 -1.6476
 8817SOL     OW38086   3.715   0.982   6.629 -0.0470  0.1847 -0.0618
 8817SOL    HW138087   3.694   1.067   6.590 -0.5007 -0.8955 -2.1402
 8817SOL    HW238088   3.753   0.932   6.557  1.3952  0.2536  0.6598
 8818SOL     OW38089   0.291   0.899   4.992  0.0873 -0.6353 -0.3861
 8818SOL    HW138090   0.385   0.915   4.980  0.5065 -0.7150  2.8909
 8818SOL    HW238091   0.293   0.905   5.087  1.6002  1.0627 -0.5176
 8819SOL     OW38092   4.732   0.882  10.847  0.1739 -0.0417 -0.1377
 8819SOL    HW138093   4.670   0.942  10.889 -0.9351 -0.5204 -1.0816
 8819SOL    HW238094   0.006   0.821  10.920 -0.1461 -0.5472 -0.5012
 8820SOL     OW38095   0.227   1.066  11.049 -0.3978 -0.4289  0.2501
 8820SOL    HW138096   0.315   1.102  11.061 -0.7655  0.2295  0.9688
 8820SOL    HW238097   0.249   0.975  11.028  1.4725  0.0688  0.0360
 8821SOL     OW38098   0.813   1.010   3.734 -0.3958 -0.2897  0.6983
 8821SOL    HW138099   0.908   1.018   3.721 -0.7370 -0.8789 -2.0663
 8821SOL    HW238100   0.782   0.934   3.684  0.0889 -1.4642  2.1800
 8822SOL     OW38101   0.972   1.606   5.426 -0.2705  0.6175 -0.7752
 8822SOL    HW138102   0.933   1.520   5.443  1.4246  0.2389  1.2054
 8822SOL    HW238103   0.914   1.671   5.466  0.7347 -0.7783  2.9522
 8823SOL     OW38104   0.590   4.440   8.740 -0.2849  0.0993  0.5911
 8823SOL    HW138105   0.601   4.415   8.649  3.3888 -1.0117  1.3222
 8823SOL    HW238106   0.596   4.360   8.792 -0.5332 -0.5550 -0.4038
 8824SOL     OW38107   3.772   3.292  13.209  0.4115 -0.0782 -0.2692
 8824SOL    HW138108   3.711   3.287  13.136  0.0583 -0.6927  0.0658
 8824SOL    HW238109   3.853   3.322  13.169  0.6059 -0.5443 -0.2178
 8825SOL     OW38110   3.556   4.543  17.493 -0.3347  0.5920 -0.2038
 8825SOL    HW138111   3.568   4.620  17.548 -1.3977 -0.3515  1.3279
 8825SOL    HW238112   3.646   4.531  17.463 -0.5486  1.8815 -1.4089
 8826SOL     OW38113   1.779   1.288   9.090 -0.1597 -0.0695 -0.0788
 8826SOL    HW138114   1.820   1.364   9.048  0.0974  0.4375  1.0840
 8826SOL    HW238115   1.806   1.309   9.179  1.8288 -0.6064 -0.5388
 8827SOL     OW38116   1.159   0.929   2.444 -0.0319 -0.3878 -0.0668
 8827SOL    HW138117   1.211   0.902   2.519 -1.3478 -1.5976  0.4136
 8827SOL    HW238118   1.197   0.886   2.367  0.6699 -1.8126  1.0604
 8828SOL     OW38119   1.116   1.956   3.469  0.3988  0.3721 -0.2528
 8828SOL    HW138120   1.103   1.960   3.375  0.5368  1.0517 -0.2427
 8828SOL    HW238121   1.211   1.945   3.473  0.4873  1.2470  0.0230
 8829SOL     OW38122   1.639   0.404   5.647  0.4145  0.0124 -0.7547
 8829SOL    HW138123   1.561   0.444   5.608 -0.5735 -0.2737  0.9388
 8829SOL    HW238124   1.664   0.346   5.575  0.3374 -0.4002 -0.4466
 8830SOL     OW38125   4.563   3.594   3.381  0.2843  0.3311 -0.1675
 8830SOL    HW138126   4.566   3.682   3.418  2.0871  0.4406 -0.5395
 8830SOL    HW238127   4.557   3.548   3.464 -4.8502  0.5241 -0.4567
 8831SOL     OW38128   3.220   2.752   5.915  0.1048  0.0407 -0.1457
 8831SOL    HW138129   3.315   2.754   5.920  0.1114 -1.6731  0.3350
 8831SOL    HW238130   3.209   2.801   5.834 -0.0589  0.0477 -0.1203
 8832SOL     OW38131   2.386   2.191   7.015 -0.6288  0.7156  0.3917
 8832SOL    HW138132   2.381   2.280   7.048  0.0562  0.4835  1.1243
 8832SOL    HW238133   2.303   2.183   6.968  0.2266  2.1052 -1.3654
 8833SOL     OW38134   4.036   2.407  16.616  0.1817 -0.3085 -0.1412
 8833SOL    HW138135   3.984   2.487  16.607 -0.0329 -0.9365 -4.1140
 8833SOL    HW238136   4.090   2.426  16.693  0.4160  1.3103 -0.7044
 8834SOL     OW38137   0.375   4.054   3.339 -0.0138 -0.0663  0.5614
 8834SOL    HW138138   0.389   3.962   3.359  0.1322  0.2271  1.7965
 8834SOL    HW238139   0.355   4.053   3.245  0.6512  2.2013  0.3909
 8835SOL     OW38140   3.426   1.585  15.120 -0.5256  0.0172  0.5251
 8835SOL    HW138141   3.412   1.621  15.208  0.1267  1.8692 -0.1314
 8835SOL    HW238142   3.511   1.542  15.132 -1.0330 -0.5306  2.2890
 8836SOL     OW38143   2.153   0.753   7.057  0.2050 -0.2483  0.2931
 8836SOL    HW138144   2.117   0.709   7.134 -2.0903 -1.2191 -1.3232
 8836SOL    HW238145   2.079   0.812   7.044 -0.9941 -1.9723 -0.7190
 8837SOL     OW38146   4.707   4.082   0.970  0.5461  0.1634 -0.1024
 8837SOL    HW138147   4.686   3.989   0.978 -2.9407  1.0158  0.8208
 8837SOL    HW238148   4.687   4.102   0.878  3.0681  1.4152 -0.3785
 8838SOL     OW38149   0.691   0.861  13.378  0.1743 -0.1469 -0.4767
 8838SOL    HW138150   0.683   0.777  13.333 -1.7939 -0.6456  0.7873
 8838SOL    HW238151   0.651   0.915  13.310  0.9243 -1.9103 -2.3077
 8839SOL     OW38152   4.232   2.071   6.561  0.0746  0.5690 -0.1059
 8839SOL    HW138153   4.242   2.157   6.601 -1.4479  0.7738 -0.1723
 8839SOL    HW238154   4.244   2.009   6.633  4.0318 -0.0731 -1.2797
 8840SOL     OW38155   0.574   4.151   3.592 -0.1921 -0.2260  0.3330
 8840SOL    HW138156   0.638   4.085   3.567  1.1565  2.1839 -2.6947
 8840SOL    HW238157   0.519   4.083   3.632  0.1138 -0.3151  0.5983
 8841SOL     OW38158   0.050   1.325   2.532  0.4337  0.1934  0.0081
 8841SOL    HW138159   4.738   1.327   2.451  1.0106  0.5953 -0.3524
 8841SOL    HW238160   0.106   1.248   2.522  0.0054  0.2608 -3.0380
 8842SOL     OW38161   2.308   0.200   5.870 -0.4771 -0.3889  0.4090
 8842SOL    HW138162   2.386   0.157   5.836 -2.0088 -0.7516 -2.5751
 8842SOL    HW238163   2.347   0.266   5.928 -2.6701  0.6310  0.7393
 8843SOL     OW38164   1.956   1.606   8.460  0.5490 -0.2925 -0.2022
 8843SOL    HW138165   2.045   1.576   8.441  1.0291  0.8265  0.2584
 8843SOL    HW238166   1.911   1.532   8.499  1.6245 -0.9574 -0.2135
 8844SOL     OW38167   2.359   0.982  11.747  0.3196 -0.1670  0.1288
 8844SOL    HW138168   2.420   1.045  11.709 -1.5904  1.5116 -0.2000
 8844SOL    HW238169   2.411   0.902  11.747  2.0492  0.9545  2.3370
 8845SOL     OW38170   0.784   4.154  17.189 -0.1345 -0.1470  1.0052
 8845SOL    HW138171   0.707   4.099  17.176 -1.7142  2.6389 -1.6825
 8845SOL    HW238172   0.825   4.126  17.107 -1.5507  0.7732 -0.0217
 8846SOL     OW38173   3.573   0.278   3.560  0.0059 -0.0942  0.1585
 8846SOL    HW138174   3.493   0.248   3.602 -1.1516  1.5883 -0.8241
 8846SOL    HW238175   3.551   0.317   3.475  1.0347 -1.3306 -0.6723
 8847SOL     OW38176   0.775   2.933   2.387 -0.2736  0.1209 -0.0217
 8847SOL    HW138177   0.820   2.950   2.469 -0.1994 -1.0605  0.1777
 8847SOL    HW238178   0.817   2.996   2.328  1.3049  0.0303  1.0399
 8848SOL     OW38179   3.203   0.304   7.011 -0.1875 -0.2853 -0.0979
 8848SOL    HW138180   3.210   0.227   6.953  0.9361  0.4768 -0.9738
 8848SOL    HW238181   3.191   0.259   7.094 -3.0688 -0.7461 -0.7475
 8849SOL     OW38182   1.267   3.718   4.080  0.0757  0.0545 -0.1488
 8849SOL    HW138183   1.285   3.723   3.986 -0.2840  0.4331 -0.1953
 8849SOL    HW238184   1.261   3.812   4.100  0.9301  0.0364  0.1989
 8850SOL     OW38185   3.413   3.185   6.149 -0.4941  0.0159 -0.2798
 8850SOL    HW138186   3.426   3.160   6.057 -0.3018  1.8152 -0.7445
 8850SOL    HW238187   3.504   3.181   6.178 -1.0196 -0.7492  1.2365
 8851SOL     OW38188   3.417   3.747  13.440 -0.1008  0.0050  0.1848
 8851SOL    HW138189   3.404   3.682  13.371 -0.6469  1.1533 -0.7932
 8851SOL    HW238190   3.415   3.701  13.523  0.2369 -0.3667 -0.0138
 8852SOL     OW38191   1.793   2.878   3.417 -0.0347  0.1447  0.0895
 8852SOL    HW138192   1.858   2.930   3.465  0.5169 -0.1630 -0.3205
 8852SOL    HW238193   1.714   2.906   3.462  0.8435  2.6099  0.1041
 8853SOL     OW38194   4.330   1.856   8.548  0.3903  0.0008 -0.0466
 8853SOL    HW138195   4.316   1.902   8.630  1.7223 -1.2262  0.8655
 8853SOL    HW238196   4.303   1.921   8.483  0.0966 -0.8735 -0.8009
 8854SOL     OW38197   3.365   2.450  15.890 -0.6400  0.3282 -0.2601
 8854SOL    HW138198   3.330   2.531  15.927  0.4594  0.2361  0.9674
 8854SOL    HW238199   3.286   2.397  15.882 -0.0825 -0.4264 -0.7079
 8855SOL     OW38200   2.852   0.878   4.809  0.8590 -0.3852 -0.0346
 8855SOL    HW138201   2.793   0.880   4.884 -0.7825  2.8551 -1.4222
 8855SOL    HW238202   2.942   0.891   4.840  1.3119 -0.8519 -1.1588
 8856SOL     OW38203   3.438   4.436   8.864 -0.5772  0.2343 -0.6162
 8856SOL    HW138204   3.469   4.525   8.848  1.1348 -0.5744 -1.8005
 8856SOL    HW238205   3.347   4.445   8.892 -1.1425 -0.9200 -2.1132
 8857SOL     OW38206   4.396   2.894  13.027  0.8563  0.5630 -0.4106
 8857SOL    HW138207   4.491   2.902  13.025  0.8853  0.3218  0.0338
 8857SOL    HW238208   4.362   2.972  12.983 -0.0609  0.8127  0.7580
 8858SOL     OW38209   0.114   3.708   0.997  0.5322  0.6323 -0.6187
 8858SOL    HW138210   0.196   3.721   0.949  0.7910  0.1334 -0.3083
 8858SOL    HW238211   0.126   3.613   1.001  0.1848  0.5193 -2.3415
 8859SOL     OW38212   1.053   3.678   4.697  0.1841  0.1602  0.4026
 8859SOL    HW138213   1.077   3.650   4.608  1.5776 -0.5115  0.9841
 8859SOL    HW238214   0.984   3.614   4.711  1.0399 -0.6464  0.9771
 8860SOL     OW38215   1.840   3.217  15.332  0.1999 -0.1768 -0.3399
 8860SOL    HW138216   1.811   3.294  15.283 -2.4941 -0.6728  0.4464
 8860SOL    HW238217   1.879   3.155  15.270 -0.5018 -1.8690  0.9182
 8861SOL     OW38218   1.399   4.220   7.878  0.3239  0.2045 -0.1206
 8861SOL    HW138219   1.403   4.128   7.903 -1.4262  0.2460  0.3398
 8861SOL    HW238220   1.327   4.258   7.928  3.1037  0.6553  3.4714
 8862SOL     OW38221   0.852   1.419   4.163 -0.4427 -0.4098 -0.4392
 8862SOL    HW138222   0.774   1.409   4.217  0.5078 -0.9017  0.8466
 8862SOL    HW238223   0.908   1.352   4.202 -0.4276  0.1757  0.5221
 8863SOL     OW38224   0.799   1.251   3.479  0.1798 -0.0157  0.3670
 8863SOL    HW138225   0.769   1.322   3.423 -0.1394  1.6211  2.6177
 8863SOL    HW238226   0.830   1.307   3.550  0.7794 -0.3075  0.3304
 8864SOL     OW38227   3.892   0.895   5.130  0.1579  0.5823  0.4298
 8864SOL    HW138228   3.900   0.964   5.064 -0.0964 -0.5854 -0.8244
 8864SOL    HW238229   3.983   0.867   5.126  0.6229  2.0064  1.0539
 8865SOL     OW38230   4.021   3.345   3.312  0.1002 -0.3540  0.2343
 8865SOL    HW138231   4.043   3.362   3.404 -2.0034 -0.9556  0.8618
 8865SOL    HW238232   3.939   3.394   3.308  0.3982  0.1007 -0.2164
 8866SOL     OW38233   2.600   3.972   3.162 -0.1872  0.4032  0.4285
 8866SOL    HW138234   2.683   3.940   3.197 -0.9178  0.0408  1.7890
 8866SOL    HW238235   2.619   4.036   3.093 -0.4875 -2.1960 -2.0975
 8867SOL     OW38236   0.629   2.869  12.015 -0.3237  0.0295 -0.1442
 8867SOL    HW138237   0.662   2.828  12.096  0.6013  0.6960 -0.1830
 8867SOL    HW238238   0.566   2.811  11.972  1.1221 -2.2682  0.8058
 8868SOL     OW38239   2.313   0.213  10.374 -0.3419  0.0836  0.7015
 8868SOL    HW138240   2.392   0.164  10.352 -1.0054  0.1137 -1.7365
 8868SOL    HW238241   2.352   0.264  10.445 -1.3755 -0.2531  1.5193
 8869SOL     OW38242   0.296   4.155  10.472 -0.6781  0.3760  0.5565
 8869SOL    HW138243   0.368   4.125  10.416 -0.4452  1.7004  0.1332
 8869SOL    HW238244   0.258   4.075  10.508 -0.0865  0.0429  0.4451
 8870SOL     OW38245   0.291   1.979   9.307 -0.0259  0.3410 -0.2008
 8870SOL    HW138246   0.234   1.924   9.253  1.3259 -1.0153 -0.2454
 8870SOL    HW238247   0.285   2.058   9.254  1.1677  1.9457  2.0754
 8871SOL     OW38248   1.048   0.636   5.867  0.2772  0.2335  0.3315
 8871SOL    HW138249   1.033   0.576   5.793  3.6753  0.7164 -0.7565
 8871SOL    HW238250   1.118   0.591   5.913  0.7969  1.8159  1.0732
 8872SOL     OW38251   1.129   0.940   8.197 -0.2106 -0.7306 -0.7464
 8872SOL    HW138252   1.144   0.863   8.252  0.0290  0.8505  1.3662
 8872SOL    HW238253   1.070   0.905   8.130 -0.4125 -1.9339  0.0614
 8873SOL     OW38254   3.453   1.390  12.240 -0.3516 -0.4235 -0.1275
 8873SOL    HW138255   3.485   1.381  12.150 -1.2568 -0.2584 -0.4607
 8873SOL    HW238256   3.471   1.307  12.284  1.9764 -1.4789 -3.1027
 8874SOL     OW38257   1.991   1.811   4.990 -0.1670 -0.3233 -0.6355
 8874SOL    HW138258   1.920   1.848   5.042  0.8847  0.2326  0.4218
 8874SOL    HW238259   1.973   1.717   4.990  0.7106 -0.4952  0.7435
 8875SOL     OW38260   1.461   0.975   5.986 -0.2938 -0.1887  0.2318
 8875SOL    HW138261   1.422   0.931   5.909  1.6951 -2.0188  0.2729
 8875SOL    HW238262   1.534   1.011   5.935 -1.8598  0.1619 -1.7656
 8876SOL     OW38263   4.355   4.051   2.180  0.1947  0.0292 -0.2216
 8876SOL    HW138264   4.310   4.135   2.185  0.7626  0.2311  1.5843
 8876SOL    HW238265   4.434   4.075   2.230 -0.8363 -0.0750  1.4728
 8877SOL     OW38266   1.875   3.982   1.202 -0.2304  0.0845 -0.3490
 8877SOL    HW138267   1.928   4.061   1.209  0.3936 -0.2654 -1.0517
 8877SOL    HW238268   1.873   3.960   1.295 -0.8585 -2.0131 -0.8690
 8878SOL     OW38269   4.661   4.227   1.940  0.1243  0.5517 -0.2715
 8878SOL    HW138270   4.577   4.244   1.983  0.0650  2.1009 -0.9754
 8878SOL    HW238271   4.724   4.221   2.011 -0.1889 -1.6432 -0.1681
 8879SOL     OW38272   0.684   0.775   2.263 -0.3070  0.8257 -0.3944
 8879SOL    HW138273   0.761   0.805   2.312  0.0534  1.2626 -1.2391
 8879SOL    HW238274   0.654   0.707   2.325  1.6646 -0.0809 -0.4578
 8880SOL     OW38275   3.568   1.607   4.672  0.5673  1.0892  0.0787
 8880SOL    HW138276   3.575   1.620   4.766  0.1142 -0.7799  0.3735
 8880SOL    HW238277   3.546   1.687   4.623  0.6659  0.4964 -0.9455
 8881SOL     OW38278   3.445   2.229   1.887 -0.0723  0.0417  1.1540
 8881SOL    HW138279   3.483   2.173   1.955  0.6863 -0.8418  0.0110
 8881SOL    HW238280   3.358   2.190   1.875  0.0230  0.2390 -0.1469
 8882SOL     OW38281   4.704   3.199   3.485  0.6761 -0.5454  0.1651
 8882SOL    HW138282   0.020   3.184   3.408 -1.5103 -0.9195 -1.3393
 8882SOL    HW238283   0.007   3.157   3.559  0.8770  0.8628  0.8368
 8883SOL     OW38284   0.190   3.816   0.669  0.2054  0.2612  0.0880
 8883SOL    HW138285   0.267   3.787   0.718 -1.0993 -1.4637  1.1437
 8883SOL    HW238286   0.124   3.746   0.680  0.2378  0.0583 -1.0677
 8884SOL     OW38287   3.276   2.953   6.635 -0.0783  0.4291 -0.5646
 8884SOL    HW138288   3.323   2.986   6.559  0.2975  1.4957  0.1336
 8884SOL    HW238289   3.271   3.031   6.690  0.1171  1.1614 -1.5739
 8885SOL     OW38290   1.871   2.450   1.824 -0.3916 -0.2016 -0.5856
 8885SOL    HW138291   1.880   2.530   1.773  0.8120 -0.0627 -0.1652
 8885SOL    HW238292   1.964   2.426   1.827  0.2660  2.3031 -1.2384
 8886SOL     OW38293   1.676   2.688   2.055 -0.0690  0.2046  0.2860
 8886SOL    HW138294   1.763   2.700   2.017  0.2424  0.5383  1.1110
 8886SOL    HW238295   1.654   2.595   2.046  0.9043 -0.3340  3.4595
 8887SOL     OW38296   0.170   1.222  16.901  0.1618  0.3423 -0.6710
 8887SOL    HW138297   0.244   1.229  16.961 -1.7764  0.7878  1.6721
 8887SOL    HW238298   0.154   1.316  16.896 -0.7415  0.1607 -1.3044
 8888SOL     OW38299   2.867   2.663   5.504  0.3268 -0.0084 -0.9664
 8888SOL    HW138300   2.841   2.754   5.516 -1.0517 -0.5013 -0.2166
 8888SOL    HW238301   2.797   2.627   5.449 -0.0281  0.3714 -0.7612
 8889SOL     OW38302   2.421   0.542   3.943 -0.0136  0.5967 -0.0507
 8889SOL    HW138303   2.416   0.637   3.946  1.2939  0.7375 -2.2081
 8889SOL    HW238304   2.343   0.519   3.993  0.6003 -0.4938  0.4145
 8890SOL     OW38305   2.930   2.694   0.732  0.0052  0.2805 -0.0668
 8890SOL    HW138306   2.947   2.601   0.716  1.3838  0.2094  1.8100
 8890SOL    HW238307   2.985   2.727   0.661  0.0403 -0.5290 -0.4199
 8891SOL     OW38308   2.194   1.626   1.721  0.4535  0.5941 -0.4285
 8891SOL    HW138309   2.171   1.711   1.759 -2.2857  0.9532 -2.8586
 8891SOL    HW238310   2.168   1.572   1.795  1.8006  1.5522  0.7449
 8892SOL     OW38311   0.093   1.847   2.198  0.2511 -0.3232  0.2084
 8892SOL    HW138312   0.078   1.753   2.189  1.0005 -0.4354  0.1334
 8892SOL    HW238313   0.013   1.882   2.237  0.6727 -1.3735  2.0393
 8893SOL     OW38314   2.009   1.122   5.880  0.4783  0.0537  0.3225
 8893SOL    HW138315   1.980   1.071   5.804 -2.1863  2.4263 -0.2571
 8893SOL    HW238316   1.998   1.213   5.852 -0.0570 -0.2616 -0.5087
 8894SOL     OW38317   1.794   3.855  10.212 -0.2062  0.2855  0.8158
 8894SOL    HW138318   1.826   3.846  10.301  1.6890 -0.3879  0.0837
 8894SOL    HW238319   1.851   3.926  10.182 -0.6000 -0.3764 -1.5438
 8895SOL     OW38320   3.267   3.367  10.999  0.2482 -0.3506 -0.2323
 8895SOL    HW138321   3.188   3.402  11.039  0.3195  0.3310 -0.6901
 8895SOL    HW238322   3.290   3.298  11.062  3.1743 -0.6292 -1.6199
 8896SOL     OW38323   2.552   1.527   8.490 -0.1040  0.0748  0.2562
 8896SOL    HW138324   2.578   1.480   8.569  0.2560  1.3420  0.8819
 8896SOL    HW238325   2.564   1.459   8.423  0.4769  0.5145 -0.0882
 8897SOL     OW38326   3.379   0.474   1.790  0.5433  0.2637 -0.1423
 8897SOL    HW138327   3.326   0.404   1.750 -0.7110  0.9139  0.3569
 8897SOL    HW238328   3.340   0.479   1.877 -0.5129 -2.0360 -0.4674
 8898SOL     OW38329   4.210   2.131  16.975  0.5710  0.3658  0.6957
 8898SOL    HW138330   4.281   2.147  16.913 -0.3295 -2.2750 -1.0404
 8898SOL    HW238331   4.150   2.073  16.928  1.4209 -0.5288  0.7321
 8899SOL     OW38332   3.529   2.044   8.753 -0.2864 -0.4353  0.2137
 8899SOL    HW138333   3.571   1.987   8.689 -0.4155 -2.4370  1.9138
 8899SOL    HW238334   3.441   2.051   8.715 -1.1703 -0.3696  2.2880
 8900SOL     OW38335   2.367   0.728   1.609  0.3246 -0.3138 -0.0009
 8900SOL    HW138336   2.373   0.748   1.702 -0.5224  1.7350 -0.4039
 8900SOL    HW238337   2.313   0.649   1.613 -2.4954  1.6111  0.0940
 8901SOL     OW38338   3.223   4.451   2.515  0.1112 -0.0589  0.4501
 8901SOL    HW138339   3.188   4.385   2.455 -0.3468 -0.5026  1.1942
 8901SOL    HW238340   3.186   4.527   2.471  0.5897  0.7049  1.3657
 8902SOL     OW38341   1.034   2.455   7.979  0.2726 -0.8831 -0.0947
 8902SOL    HW138342   1.114   2.441   7.927  2.5014  3.6775  2.0335
 8902SOL    HW238343   0.984   2.387   7.934  0.4558 -0.3135 -1.1734
 8903SOL     OW38344   3.480   3.203   2.175  0.4307 -0.2317 -0.4833
 8903SOL    HW138345   3.562   3.179   2.218 -0.1440 -2.0468 -0.3939
 8903SOL    HW238346   3.431   3.149   2.236 -1.2999  1.3386 -0.4937
 8904SOL     OW38347   0.389   3.190   1.431  0.2318 -0.5220 -0.2260
 8904SOL    HW138348   0.406   3.223   1.343 -0.5043  0.6134  0.0513
 8904SOL    HW238349   0.294   3.181   1.420 -0.4185  3.1787  2.2835
 8905SOL     OW38350   3.830   2.991   6.387  0.4561  0.3662  0.0599
 8905SOL    HW138351   3.830   2.912   6.441  1.8723  2.5580  3.2277
 8905SOL    HW238352   3.917   3.026   6.406  0.0559  1.5680 -0.3318
 8906SOL     OW38353   0.114   2.292   6.728 -0.0699 -0.6298  0.0900
 8906SOL    HW138354   0.115   2.369   6.783 -0.9139 -0.5097 -0.0659
 8906SOL    HW238355   0.094   2.224   6.792  0.8492 -0.7024  0.3017
 8907SOL     OW38356   1.111   2.071   9.575 -0.4473 -0.8969  0.4371
 8907SOL    HW138357   1.187   2.054   9.630  0.7582 -1.4298 -1.4074
 8907SOL    HW238358   1.156   2.073   9.491  1.8203  1.8605  1.7467
 8908SOL     OW38359   1.717   0.308   8.251  0.7357  0.5612  0.3486
 8908SOL    HW138360   1.725   0.368   8.176  1.3810  0.0575  0.0183
 8908SOL    HW238361   1.784   0.246   8.223 -1.0218 -1.4789  0.6046
 8909SOL     OW38362   0.682   2.371   5.032 -0.0350  0.0255  0.4119
 8909SOL    HW138363   0.686   2.337   4.942 -1.9945 -0.2550  0.4263
 8909SOL    HW238364   0.745   2.313   5.075  0.8175  0.4179 -0.3040
 8910SOL     OW38365   0.852   0.375   2.263  0.3606 -0.6614 -0.1333
 8910SOL    HW138366   0.787   0.347   2.327 -0.0604  1.5151  0.3888
 8910SOL    HW238367   0.916   0.305   2.278 -0.7289 -1.6491 -0.1323
 8911SOL     OW38368   1.964   2.748  13.620 -0.1238 -0.1794  0.2539
 8911SOL    HW138369   1.905   2.731  13.546  1.7388 -3.0562 -0.5882
 8911SOL    HW238370   2.003   2.660  13.625  0.3283 -0.0355 -0.7092
 8912SOL     OW38371   1.425   3.609   4.863 -0.4211  0.0984 -0.6325
 8912SOL    HW138372   1.378   3.527   4.846 -1.5531 -0.2025  3.9686
 8912SOL    HW238373   1.520   3.597   4.863 -0.5996 -1.4431  0.8636
 8913SOL     OW38374   0.583   2.659   6.209  0.1698  0.3225 -0.0758
 8913SOL    HW138375   0.556   2.632   6.296  1.2516 -0.6787 -0.0577
 8913SOL    HW238376   0.644   2.728   6.234 -1.0071  2.1065 -2.0412
 8914SOL     OW38377   0.218   1.499   4.663  0.1546  0.0352  0.3067
 8914SOL    HW138378   0.239   1.575   4.609  2.2841  0.3225  1.5022
 8914SOL    HW238379   0.123   1.507   4.662  0.2780  1.5425  0.2331
 8915SOL     OW38380   2.777   2.341  13.742  0.4663  0.0556 -0.4409
 8915SOL    HW138381   2.858   2.367  13.786  0.6236 -1.3630  0.1140
 8915SOL    HW238382   2.782   2.246  13.743  0.4588  0.0719  0.7024
 8916SOL     OW38383   2.674   2.952  14.997 -0.1455 -0.2725 -0.3380
 8916SOL    HW138384   2.720   2.874  14.964  0.7414  0.5719 -1.0791
 8916SOL    HW238385   2.624   2.906  15.065 -1.1115  1.4053  0.0901
 8917SOL     OW38386   4.724   2.305   8.911  0.5002  0.0255 -0.0589
 8917SOL    HW138387   4.653   2.288   8.850  1.5383 -0.9268 -1.0108
 8917SOL    HW238388   0.025   2.219   8.923 -1.1697 -0.9874 -1.6526
 8918SOL     OW38389   1.934   1.045   1.437 -0.4818 -0.1263  0.0092
 8918SOL    HW138390   1.894   0.960   1.424  1.9409 -1.0797 -1.1858
 8918SOL    HW238391   1.874   1.118   1.421 -0.6631 -0.5425 -1.2520
 8919SOL     OW38392   4.729   2.160   6.356 -0.0879 -0.2113 -0.6052
 8919SOL    HW138393   0.016   2.084   6.407 -1.5587 -0.0891  0.3288
 8919SOL    HW238394   0.071   2.180   6.310  0.0300  0.9256  0.1105
 8920SOL     OW38395   0.722   1.882  10.741 -0.2487 -0.8253  0.6276
 8920SOL    HW138396   0.730   1.868  10.836  1.8289  0.4861  0.6364
 8920SOL    HW238397   0.627   1.887  10.744 -0.2554 -0.6973  0.1756
 8921SOL     OW38398   2.045   2.706   4.201  0.6038  0.4920 -0.0265
 8921SOL    HW138399   2.094   2.774   4.247  0.2620  2.4545 -2.5366
 8921SOL    HW238400   1.965   2.733   4.246  0.2276 -1.2957  0.3509
 8922SOL     OW38401   1.070   2.584   2.538  0.5509 -0.3674 -0.0533
 8922SOL    HW138402   1.128   2.569   2.464 -0.1483  1.1882 -0.8993
 8922SOL    HW238403   1.121   2.640   2.597  2.7729 -0.1428 -2.1947
 8923SOL     OW38404   4.129   0.350   8.125 -0.0830 -0.0910  0.3346
 8923SOL    HW138405   4.048   0.312   8.159  1.3025 -0.4864  3.2137
 8923SOL    HW238406   4.168   0.372   8.210 -0.6235 -2.2745  1.1311
 8924SOL     OW38407   2.999   0.738   4.449  0.4847 -0.3604  0.3310
 8924SOL    HW138408   2.907   0.749   4.473  0.6111 -1.0917  1.1430
 8924SOL    HW238409   3.011   0.823   4.406 -0.4194  0.5635  1.9047
 8925SOL     OW38410   2.581   0.349   3.848 -0.2379 -0.4378 -0.2168
 8925SOL    HW138411   2.540   0.421   3.895 -0.5304  0.0545 -1.2174
 8925SOL    HW238412   2.671   0.380   3.844 -1.3091  2.5690 -0.7286
 8926SOL     OW38413   0.063   1.899   4.571 -0.2271 -0.6647  0.2250
 8926SOL    HW138414   0.018   1.973   4.532 -2.1030 -1.1990  1.3614
 8926SOL    HW238415   0.115   1.865   4.498 -0.0433  1.9806 -0.8787
 8927SOL     OW38416   0.744   2.933   3.602 -0.1662  0.1473  0.2879
 8927SOL    HW138417   0.829   2.974   3.614  1.2327 -3.0497  1.1114
 8927SOL    HW238418   0.695   3.015   3.593 -1.6307 -0.7028  0.4157
 8928SOL     OW38419   1.319   4.343  12.718  0.6563  0.3165 -0.2855
 8928SOL    HW138420   1.339   4.430  12.754 -1.5987 -0.2875  2.3519
 8928SOL    HW238421   1.369   4.348  12.636  1.8466 -2.8357  0.2269
 8929SOL     OW38422   3.476   1.166   4.929 -0.0885  0.0005  0.9843
 8929SOL    HW138423   3.495   1.075   4.953 -3.9738 -0.9138  0.5935
 8929SOL    HW238424   3.509   1.218   5.002  1.0726 -0.2189  0.6157
 8930SOL     OW38425   4.672   3.182  14.470  0.4333  0.2299 -0.3233
 8930SOL    HW138426   4.714   3.224  14.396 -0.9598 -0.3296 -1.4399
 8930SOL    HW238427   4.634   3.260  14.509 -3.0793 -1.4659 -0.3463
 8931SOL     OW38428   2.855   3.428  16.784  0.0912 -0.0582  0.2073
 8931SOL    HW138429   2.870   3.522  16.768  2.0492 -0.5308 -0.7578
 8931SOL    HW238430   2.833   3.444  16.876 -1.1678  0.7908 -0.2444
 8932SOL     OW38431   1.887   0.287  17.003  0.4163  0.2830 -0.4119
 8932SOL    HW138432   1.834   0.308  16.926 -2.1052 -0.5727  1.0888
 8932SOL    HW238433   1.816   0.287  17.067 -0.2826 -1.2231 -1.1790
 8933SOL     OW38434   4.457   0.078   0.704  0.2212 -0.3438  0.0978
 8933SOL    HW138435   4.438   0.080   0.798  0.5472 -0.8425  0.1786
 8933SOL    HW238436   4.372   0.096   0.666  0.2578  1.4449  0.8437
 8934SOL     OW38437   2.220   4.479   7.184  0.1877 -0.5670  0.4291
 8934SOL    HW138438   2.189   4.565   7.154 -0.7180 -1.1614 -0.3336
 8934SOL    HW238439   2.171   4.419   7.127 -0.8862  0.9545 -0.2634
 8935SOL     OW38440   1.114   2.255   4.690 -0.1996  0.4138  0.1548
 8935SOL    HW138441   1.208   2.272   4.684  0.0367 -2.1189 -3.0399
 8935SOL    HW238442   1.090   2.343   4.719  2.1521  1.4366 -0.9940
 8936SOL     OW38443   4.051   0.453   3.635 -0.3532 -0.1789  0.0560
 8936SOL    HW138444   4.122   0.515   3.647 -0.6290  0.1709 -0.1149
 8936SOL    HW238445   3.971   0.503   3.614  0.3973  2.0159  2.3690
 8937SOL     OW38446   4.104   4.730  12.793  0.1265 -0.3151 -0.4179
 8937SOL    HW138447   4.129   0.036  12.713  2.0208  0.4392  0.5842
 8937SOL    HW238448   4.175   4.675  12.825  0.1154  0.2874  0.6667
 8938SOL     OW38449   1.000   4.411   8.192  0.4000 -0.0837  0.0550
 8938SOL    HW138450   1.048   4.390   8.112 -0.7309  0.8937 -0.8819
 8938SOL    HW238451   1.014   4.505   8.200 -1.9599 -0.0100  3.4322
 8939SOL     OW38452   0.209   4.096   1.500  0.3732  0.1509  0.1469
 8939SOL    HW138453   0.230   4.166   1.561  1.7000 -0.1086 -0.0099
 8939SOL    HW238454   0.285   4.040   1.515 -0.6391 -1.6649 -1.3974
 8940SOL     OW38455   3.921   4.025  10.006  0.8114 -0.2024  0.2389
 8940SOL    HW138456   3.909   4.079  10.084 -3.2609  0.6332 -0.9503
 8940SOL    HW238457   3.859   3.953  10.019  1.9746 -1.3895 -0.7998
 8941SOL     OW38458   3.102   3.480   2.936 -0.3289  0.0863  0.0180
 8941SOL    HW138459   3.029   3.539   2.920  0.4717  0.4456 -2.3883
 8941SOL    HW238460   3.100   3.435   2.851 -0.7238 -1.3988  0.8162
 8942SOL     OW38461   4.322   1.610   1.641 -0.0136 -0.3523  0.5798
 8942SOL    HW138462   4.365   1.535   1.681  2.8293  1.3253  0.6650
 8942SOL    HW238463   4.296   1.649   1.725  0.8749  0.4668  0.4782
 8943SOL     OW38464   2.755   1.968   9.971  0.1174 -0.1658  0.3729
 8943SOL    HW138465   2.770   1.948  10.064 -1.4687 -0.6860  0.5172
 8943SOL    HW238466   2.690   1.904   9.943 -0.8723 -0.3105  2.9165
 8944SOL     OW38467   0.019   2.603   7.719 -0.0149 -0.3295  0.7202
 8944SOL    HW138468   4.666   2.593   7.737 -0.6849  0.2733 -2.3647
 8944SOL    HW238469   0.037   2.523   7.669  0.3685  0.6882 -0.7830
 8945SOL     OW38470   3.225   3.237   1.694  0.3852 -0.4651  0.2770
 8945SOL    HW138471   3.268   3.314   1.730  0.1823  0.3081 -1.1666
 8945SOL    HW238472   3.143   3.276   1.663  0.2553 -1.2655 -0.3845
 8946SOL     OW38473   0.247   1.565   1.905  0.1786  0.4813 -0.0510
 8946SOL    HW138474   0.252   1.575   1.810 -0.0033  1.0775  0.0011
 8946SOL    HW238475   0.215   1.651   1.933  1.9351  1.1643 -0.1712
 8947SOL     OW38476   3.916   2.025   5.297  0.3349 -0.1379  0.0158
 8947SOL    HW138477   3.997   1.987   5.263  1.9303  2.1555  1.2402
 8947SOL    HW238478   3.961   2.106   5.321  1.4989 -0.5681 -0.7146
 8948SOL     OW38479   3.010   4.704   8.741  0.2358  0.2880 -0.4458
 8948SOL    HW138480   2.986   0.003   8.826 -0.2377 -0.8883 -0.0524
 8948SOL    HW238481   3.011   0.049   8.696  2.5133  1.3110  1.5097
 8949SOL     OW38482   2.997   0.164   7.513 -0.2289  0.2402 -0.2135
 8949SOL    HW138483   3.039   0.200   7.435 -1.0204  0.3103 -0.6153
 8949SOL    HW238484   3.057   0.100   7.550 -1.0188 -0.8424 -0.8190
 8950SOL     OW38485   1.424   3.862  17.040  0.3598  0.2272  0.2169
 8950SOL    HW138486   1.385   3.908  16.966  1.6764 -2.3162 -2.0412
 8950SOL    HW238487   1.357   3.810  17.085 -0.9425  1.6342 -0.0779
 8951SOL     OW38488   1.608   0.318   8.960 -0.1208  0.3950 -0.2745
 8951SOL    HW138489   1.572   0.231   8.941  1.2482 -0.5130  1.3403
 8951SOL    HW238490   1.575   0.375   8.890  0.8767  2.0927  0.6371
 8952SOL     OW38491   0.104   1.164   6.865 -0.1735 -0.3005  0.3808
 8952SOL    HW138492   0.044   1.103   6.907  2.2773 -2.0279  1.3785
 8952SOL    HW238493   0.117   1.131   6.776 -0.9528 -0.4412  0.3175
 8953SOL     OW38494   3.740   3.443   7.839 -0.2334 -0.0387  0.5728
 8953SOL    HW138495   3.789   3.512   7.885  0.6693 -1.8980  2.3872
 8953SOL    HW238496   3.763   3.367   7.892  1.5658 -1.5875 -2.5118
 8954SOL     OW38497   4.677   4.598   3.316 -0.2079  0.2172 -0.0044
 8954SOL    HW138498   4.666   4.693   3.321 -0.0231  0.2476 -0.1558
 8954SOL    HW238499   4.667   4.587   3.221  2.0181 -0.8770 -0.1367
 8955SOL     OW38500   3.073   2.902  13.421  0.2995 -0.2081 -0.0331
 8955SOL    HW138501   2.992   2.854  13.440 -0.0178 -0.1036 -1.1366
 8955SOL    HW238502   3.099   2.858  13.340  0.7850  1.7177 -0.9175
 8956SOL     OW38503   4.656   2.335   4.216 -0.0621 -0.3182 -0.5701
 8956SOL    HW138504   4.599   2.401   4.176 -1.5567 -0.5113  1.2858
 8956SOL    HW238505   4.660   2.354   4.309  0.1536 -1.4850 -0.3392
 8957SOL     OW38506   2.995   1.677   1.229  0.4637  0.4803  0.3520
 8957SOL    HW138507   3.062   1.689   1.162 -0.9981 -1.9534 -1.5443
 8957SOL    HW238508   2.969   1.586   1.220  1.1224  0.2470  0.7375
 8958SOL     OW38509   3.169   4.154   7.583 -0.6936 -0.0892 -0.4114
 8958SOL    HW138510   3.107   4.218   7.618 -0.0631 -0.9248  2.3116
 8958SOL    HW238511   3.137   4.078   7.632 -0.1280 -0.1434 -0.1181
 8959SOL     OW38512   1.394   0.818   6.299 -0.3088  0.0980  0.1213
 8959SOL    HW138513   1.463   0.877   6.268 -0.8976 -0.1300 -1.5853
 8959SOL    HW238514   1.422   0.741   6.250 -0.0202  1.0979 -1.2536
 8960SOL     OW38515   3.590   3.050   1.120 -0.4599  0.2527 -0.0679
 8960SOL    HW138516   3.547   3.046   1.035 -1.6333 -2.7354  0.6697
 8960SOL    HW238517   3.574   2.962   1.153  1.5879 -0.4571 -1.0037
 8961SOL     OW38518   3.128   2.930  12.224 -0.1074 -0.0929  0.4287
 8961SOL    HW138519   3.071   2.934  12.147 -0.8787 -2.3115  0.8962
 8961SOL    HW238520   3.114   2.839  12.249 -0.6303  0.3957  1.8573
 8962SOL     OW38521   1.254   2.871   8.365  0.3326 -0.3628  0.2392
 8962SOL    HW138522   1.273   2.950   8.314 -0.9306 -0.7730 -0.8723
 8962SOL    HW238523   1.297   2.797   8.322  1.8590  0.4087  0.4292
 8963SOL     OW38524   3.040   3.941   2.149  0.7349  0.0054  0.6017
 8963SOL    HW138525   3.029   4.034   2.168 -1.7179 -0.2371  0.3882
 8963SOL    HW238526   3.078   3.947   2.062 -0.5421  0.7859  0.0965
 8964SOL     OW38527   0.336   2.429   4.414  0.6766  0.5607  0.5482
 8964SOL    HW138528   0.335   2.519   4.445  0.7289  0.2355  1.4871
 8964SOL    HW238529   0.425   2.401   4.435  0.5868 -0.0359  0.1398
 8965SOL     OW38530   1.906   0.361  17.285  0.1006  0.0423 -0.5274
 8965SOL    HW138531   1.902   0.316  17.370  2.1444  0.4648 -0.2152
 8965SOL    HW238532   1.985   0.317  17.253 -0.1442  0.6488 -1.9510
 8966SOL     OW38533   0.753   4.242   4.071  0.1663 -0.1352  0.3503
 8966SOL    HW138534   0.786   4.329   4.045  2.0376 -0.7424  0.6835
 8966SOL    HW238535   0.667   4.244   4.031 -0.2055  1.1203  1.1932
 8967SOL     OW38536   3.513   2.804   1.194 -0.3055 -0.0650 -0.1343
 8967SOL    HW138537   3.463   2.783   1.272 -0.3270  0.6732  0.0589
 8967SOL    HW238538   3.457   2.775   1.122 -0.7488 -0.0359  0.2013
 8968SOL     OW38539   4.035   0.913   8.499  0.4631 -0.4701 -0.3921
 8968SOL    HW138540   4.061   1.002   8.476  2.3158 -0.1155  3.0961
 8968SOL    HW238541   3.983   0.940   8.574 -0.1854  0.9625 -1.3596
 8969SOL     OW38542   0.450   0.169   1.799 -0.3104  0.0886  0.2270
 8969SOL    HW138543   0.475   0.110   1.728  0.8871 -0.8883  1.4785
 8969SOL    HW238544   0.530   0.168   1.851 -0.8094  1.3924  1.0267
 8970SOL     OW38545   0.940   0.009   5.283  0.0232  0.6790 -0.0749
 8970SOL    HW138546   0.930   4.697   5.362  0.9816  1.4126  0.5315
 8970SOL    HW238547   0.865   0.069   5.283  0.4961  1.2794 -0.3410
 8971SOL     OW38548   3.733   2.709  16.818 -0.4928  0.4065  0.1123
 8971SOL    HW138549   3.652   2.681  16.860 -1.3627 -0.3853 -2.0892
 8971SOL    HW238550   3.711   2.802  16.822 -1.6489  0.1228  0.3511
 8972SOL     OW38551   3.395   2.473   6.507 -0.2895 -0.0754 -0.1961
 8972SOL    HW138552   3.425   2.388   6.473  2.8807  0.2183  1.8511
 8972SOL    HW238553   3.315   2.446   6.551 -0.0403  0.6330  0.6768
 8973SOL     OW38554   3.943   2.644   5.323  0.1743 -0.2603 -0.0811
 8973SOL    HW138555   3.922   2.585   5.395  0.0592  0.8995  0.8403
 8973SOL    HW238556   4.021   2.684   5.362 -0.3720  2.0908 -1.3949
 8974SOL     OW38557   1.780   0.537   1.780  0.2898  0.1377 -0.0604
 8974SOL    HW138558   1.726   0.601   1.734  0.4029  2.0645  2.4683
 8974SOL    HW238559   1.862   0.584   1.790  0.2953 -0.1127  1.0868
 8975SOL     OW38560   3.753   2.869  10.014 -0.6427 -0.0455 -0.2370
 8975SOL    HW138561   3.776   2.800   9.952  0.1183  0.1965 -0.2223
 8975SOL    HW238562   3.678   2.826  10.055 -1.1693  0.9370 -0.1572
 8976SOL     OW38563   3.021   3.079   0.153 -0.2101  0.1567 -0.2586
 8976SOL    HW138564   3.065   3.132   0.220  0.0498 -0.9443  0.4409
 8976SOL    HW238565   2.975   3.137   0.093  1.5431  1.8750  0.0515
 8977SOL     OW38566   2.958   1.212   3.040  0.0331  0.6381  0.0034
 8977SOL    HW138567   2.912   1.208   3.124  1.7203 -1.2917  0.8249
 8977SOL    HW238568   2.972   1.119   3.024  0.8358  0.6677  0.5384
 8978SOL     OW38569   2.174   1.296  10.003  0.1212  0.5489  0.3064
 8978SOL    HW138570   2.265   1.280   9.975 -1.0173  0.3498 -3.2519
 8978SOL    HW238571   2.186   1.279  10.097  1.5138 -0.0078  0.0350
 8979SOL     OW38572   0.180   2.237  13.551  0.8199  0.1840  0.3239
 8979SOL    HW138573   0.254   2.190  13.512  1.7307  0.3911  1.7749
 8979SOL    HW238574   0.142   2.170  13.608 -0.6710 -1.0387 -2.1157
 8980SOL     OW38575   4.285   4.381  14.719  0.0863  0.0291  0.2281
 8980SOL    HW138576   4.238   4.441  14.776  0.5908 -0.0530  0.7232
 8980SOL    HW238577   4.276   4.431  14.637 -0.8784 -1.3018 -0.4815
 8981SOL     OW38578   2.143   3.592   3.510  0.0577  0.2661 -0.1303
 8981SOL    HW138579   2.054   3.560   3.525 -0.6554  0.9712 -2.8658
 8981SOL    HW238580   2.190   3.566   3.590 -0.1812 -0.7922 -0.3278
 8982SOL     OW38581   4.422   3.005   7.225  0.3385 -0.2978 -0.0008
 8982SOL    HW138582   4.417   3.090   7.267 -2.3112 -1.0993  1.2848
 8982SOL    HW238583   4.403   2.947   7.299 -3.4090 -1.3511 -1.7775
 8983SOL     OW38584   2.806   4.349   3.898  0.7063  0.6436 -0.0388
 8983SOL    HW138585   2.738   4.393   3.846 -0.7881 -2.3144 -0.5908
 8983SOL    HW238586   2.854   4.311   3.825 -1.9478 -0.3542 -1.2869
 8984SOL     OW38587   3.290   0.653   6.406 -0.2488 -0.0643  0.0027
 8984SOL    HW138588   3.240   0.695   6.336  0.8440  0.3303 -0.5413
 8984SOL    HW238589   3.370   0.706   6.406 -0.9301  0.9602  0.3627
 8985SOL     OW38590   4.440   1.055   9.755  0.2405 -0.0151 -0.4935
 8985SOL    HW138591   4.504   1.126   9.745 -0.4429  0.8854  1.5854
 8985SOL    HW238592   4.505   0.989   9.733  0.0136 -0.2279 -0.5140
 8986SOL     OW38593   1.432   0.732   6.709 -0.6564 -0.1266 -0.6502
 8986SOL    HW138594   1.353   0.737   6.654 -0.0966  0.1253 -1.4387
 8986SOL    HW238595   1.394   0.769   6.789  1.9712  1.3772 -0.0800
 8987SOL     OW38596   0.393   4.575   3.903 -0.0468  0.2842 -0.2709
 8987SOL    HW138597   0.309   4.564   3.858 -0.0790 -0.0908 -0.1186
 8987SOL    HW238598   0.443   4.499   3.872 -1.8103 -0.9555 -0.0788
 8988SOL     OW38599   0.443   0.984  15.290  0.1661  0.0950 -0.0596
 8988SOL    HW138600   0.458   0.946  15.203 -0.4482  0.1275 -0.1802
 8988SOL    HW238601   0.376   0.926  15.326 -0.8833  0.6893 -1.0600
 8989SOL     OW38602   1.541   1.032  11.989  0.0340  0.5235 -0.3056
 8989SOL    HW138603   1.611   0.969  11.967  0.5916  1.1693 -0.3995
 8989SOL    HW238604   1.579   1.061  12.072  0.4366  1.1872 -0.7161
 8990SOL     OW38605   4.083   4.298   1.629  0.2168  0.6105 -0.1178
 8990SOL    HW138606   4.023   4.233   1.667  0.4515  0.4383 -0.0378
 8990SOL    HW238607   4.162   4.252   1.602 -1.0798 -1.0783 -1.0888
 8991SOL     OW38608   4.460   2.827   6.085  0.0386  0.4643  0.0207
 8991SOL    HW138609   4.373   2.790   6.069  0.4581 -0.7985  0.6650
 8991SOL    HW238610   4.478   2.794   6.173 -1.7353 -2.0720 -0.5747
 8992SOL     OW38611   3.765   1.201   3.638  0.0801 -0.7312 -0.3652
 8992SOL    HW138612   3.816   1.216   3.559  0.5503  0.7539  0.2084
 8992SOL    HW238613   3.718   1.284   3.646 -0.2590 -0.9501 -0.0825
 8993SOL     OW38614   4.350   0.178   4.844  0.1646  0.4162  0.3250
 8993SOL    HW138615   4.361   0.152   4.935 -0.6424 -0.4780  0.1693
 8993SOL    HW238616   4.329   0.092   4.807 -0.2240  0.2485  0.9421
 8994SOL     OW38617   0.751   2.183  16.406  0.2973  0.2158  0.6302
 8994SOL    HW138618   0.702   2.189  16.324  0.7106  1.3465  0.4822
 8994SOL    HW238619   0.783   2.093  16.404  0.2305  0.2508 -1.5227
 8995SOL     OW38620   4.618   4.597   3.047  0.3425 -0.1878  0.5361
 8995SOL    HW138621   4.707   4.587   3.012  0.0469 -1.0240  0.0183
 8995SOL    HW238622   4.568   4.605   2.966  2.3513 -0.2230 -0.7083
 8996SOL     OW38623   1.069   3.393   6.930 -0.1245 -0.0992  0.1108
 8996SOL    HW138624   1.037   3.483   6.932  1.0299  0.3535 -1.4995
 8996SOL    HW238625   1.083   3.384   7.024  1.9809  0.2420 -0.1598
 8997SOL     OW38626   3.695   3.278  12.240 -0.2930 -0.0281 -0.6918
 8997SOL    HW138627   3.739   3.222  12.176  1.8401  0.4412  0.3755
 8997SOL    HW238628   3.730   3.362  12.210 -0.1964  0.2652  0.2601
 8998SOL     OW38629   2.580   1.660  16.587  0.3018  0.3712  0.1263
 8998SOL    HW138630   2.521   1.590  16.615 -2.2112  2.1024 -0.8156
 8998SOL    HW238631   2.512   1.727  16.586 -1.0259 -0.9657  0.4152
 8999SOL     OW38632   2.015   1.744  12.947 -0.0772 -0.3132  0.7574
 8999SOL    HW138633   2.052   1.712  13.029 -0.6253 -0.0568  1.0989
 8999SOL    HW238634   2.087   1.764  12.887  0.4971 -0.6570  1.3343
 9000SOL     OW38635   2.855   4.569   4.052 -0.0471  0.4263  0.2568
 9000SOL    HW138636   2.796   4.588   4.124  0.0151  4.2312 -0.7236
 9000SOL    HW238637   2.824   4.481   4.031  0.8491 -0.1623  1.3667
 9001SOL     OW38638   2.489   3.824   8.591 -0.2306  0.4204 -0.3173
 9001SOL    HW138639   2.438   3.747   8.615 -0.5839  0.8464  0.2802
 9001SOL    HW238640   2.434   3.835   8.514  0.5160  1.4213 -0.7110
 9002SOL     OW38641   1.666   1.237   6.364  0.0727  0.1200  0.3473
 9002SOL    HW138642   1.761   1.229   6.366  0.1531  1.0816  0.5278
 9002SOL    HW238643   1.641   1.152   6.328  1.0375  0.2429 -0.6221
 9003SOL     OW38644   2.611   0.826  16.936 -0.4207  0.2450  0.1356
 9003SOL    HW138645   2.701   0.813  16.908 -0.4501 -0.4111  0.3368
 9003SOL    HW238646   2.606   0.917  16.963 -3.1991  0.5763 -1.4631
 9004SOL     OW38647   4.358   0.032  16.629 -0.3181  0.4543 -0.5925
 9004SOL    HW138648   4.269   0.048  16.659 -0.2085 -1.0648  0.5370
 9004SOL    HW238649   4.353   0.071  16.541  1.1052  0.8102 -0.5203
 9005SOL     OW38650   3.975   0.506   2.982 -0.1375 -0.4129  0.1990
 9005SOL    HW138651   4.007   0.576   3.040  1.2607 -0.6499 -0.2912
 9005SOL    HW238652   4.050   0.451   2.960  0.7812  0.1663  1.8343
 9006SOL     OW38653   2.179   2.338   5.838 -0.0090  0.1798 -0.1480
 9006SOL    HW138654   2.106   2.277   5.844 -0.5235  0.9222  1.1012
 9006SOL    HW238655   2.150   2.402   5.774 -1.4013 -0.9782 -0.6634
 9007SOL     OW38656   2.034   0.195   7.302 -0.7684 -0.4548  0.1367
 9007SOL    HW138657   2.105   0.227   7.246 -0.2373  0.7009  1.4457
 9007SOL    HW238658   1.989   0.142   7.236 -1.2675  0.8744 -0.5975
 9008SOL     OW38659   1.092   3.774  10.909  0.2487 -0.6478 -1.2382
 9008SOL    HW138660   1.163   3.715  10.885  1.9172  0.8998 -0.0662
 9008SOL    HW238661   1.043   3.800  10.831 -4.4734 -0.7356  1.6912
 9009SOL     OW38662   3.136   0.045   3.363 -0.1959  0.2410 -0.0038
 9009SOL    HW138663   3.097   0.124   3.326 -0.3932  0.9763  1.7574
 9009SOL    HW238664   3.084   4.718   3.318 -0.5680 -0.9174  2.1235
 9010SOL     OW38665   1.701   1.883   0.207 -0.1763  0.1252 -0.4050
 9010SOL    HW138666   1.782   1.932   0.193  1.1225 -1.2468  2.2364
 9010SOL    HW238667   1.703   1.813   0.143 -1.1251 -0.4745  0.2137
 9011SOL     OW38668   1.515   0.700   7.406 -0.4073  0.3997  0.5552
 9011SOL    HW138669   1.472   0.647   7.472  1.6359 -1.4868  0.3745
 9011SOL    HW238670   1.509   0.786   7.448 -1.4548  1.5504 -1.9758
 9012SOL     OW38671   4.560   4.150   5.678  0.4156  0.1384  0.4044
 9012SOL    HW138672   4.618   4.211   5.724  1.0718 -2.9767  3.7637
 9012SOL    HW238673   4.624   4.133   5.610  0.8388  4.4381 -0.2710
 9013SOL     OW38674   1.003   3.956   4.731  0.8553 -0.0607  0.5371
 9013SOL    HW138675   1.037   3.866   4.733  0.3759 -0.2542  0.0510
 9013SOL    HW238676   1.082   4.004   4.710  1.7779 -1.5723  0.5362
 9014SOL     OW38677   3.137   1.768  11.960  0.1079 -0.5490  0.3051
 9014SOL    HW138678   3.221   1.816  11.955  0.4073 -1.0702  0.3863
 9014SOL    HW238679   3.095   1.809  11.885 -2.0321 -3.0423  0.1624
 9015SOL     OW38680   0.440   3.872   8.045 -1.3064  0.6121 -0.2580
 9015SOL    HW138681   0.488   3.953   8.064  0.0611 -0.7431  2.0695
 9015SOL    HW238682   0.442   3.818   8.124  2.2120  0.8371 -0.1568
 9016SOL     OW38683   1.386   0.294   0.932 -0.1347 -0.3409  0.3478
 9016SOL    HW138684   1.395   0.200   0.920 -0.8516 -0.4880  0.9915
 9016SOL    HW238685   1.323   0.314   0.863 -0.2450 -0.4921  0.4065
 9017SOL     OW38686   1.304   3.783   6.067 -0.2940  0.1737  0.0644
 9017SOL    HW138687   1.373   3.724   6.036  0.3048  0.5225  0.7411
 9017SOL    HW238688   1.347   3.849   6.121 -0.6790 -0.5632  1.2675
 9018SOL     OW38689   3.521   1.989   9.360  0.2811  0.1201  0.2646
 9018SOL    HW138690   3.472   1.912   9.332  0.6651  0.1006 -0.3389
 9018SOL    HW238691   3.504   2.053   9.291 -1.5413  0.0471  0.6564
 9019SOL     OW38692   3.689   1.544   1.213 -0.5608 -0.1230 -0.1954
 9019SOL    HW138693   3.759   1.496   1.256  0.1493  0.6443 -0.5021
 9019SOL    HW238694   3.689   1.632   1.251 -1.5772 -0.0987 -0.2396
 9020SOL     OW38695   3.533   3.814   9.596  0.3104 -0.0186  0.0071
 9020SOL    HW138696   3.548   3.832   9.503  3.9600 -0.6413  0.4864
 9020SOL    HW238697   3.612   3.776   9.634  0.5237 -0.3209 -0.7307
 9021SOL     OW38698   1.386   4.634  16.650  0.2846  0.0965  0.4451
 9021SOL    HW138699   1.353   4.691  16.720  1.2686 -0.2548  1.2051
 9021SOL    HW238700   1.372   4.690  16.574  0.5741 -0.0983  0.2474
 9022SOL     OW38701   0.961   1.759   8.061 -0.6581  0.3826 -0.4328
 9022SOL    HW138702   0.967   1.672   8.021 -0.8965  0.6617 -1.0855
 9022SOL    HW238703   0.873   1.783   8.032 -0.1875 -1.2070 -3.2278
 9023SOL     OW38704   4.384   0.741  14.255 -0.1081  0.1687  0.1477
 9023SOL    HW138705   4.333   0.821  14.242  0.1385  0.4902  1.1917
 9023SOL    HW238706   4.339   0.674  14.307  2.4400 -0.8429  1.0503
 9024SOL     OW38707   4.423   4.510   1.754 -0.4112  0.1479  0.1623
 9024SOL    HW138708   4.426   4.477   1.664  1.3232 -0.5092  0.4635
 9024SOL    HW238709   4.491   4.461   1.801 -0.6768  0.3300  0.7308
 9025SOL     OW38710   3.661   2.143  15.853 -0.0058 -0.6491  0.4582
 9025SOL    HW138711   3.689   2.218  15.800  0.2107 -2.3907 -1.9095
 9025SOL    HW238712   3.724   2.075  15.830 -1.0250 -1.6526  0.6224
 9026SOL     OW38713   4.514   1.594   2.812  0.1052 -0.5629  0.5289
 9026SOL    HW138714   4.429   1.634   2.832  0.6126  1.5656 -1.5523
 9026SOL    HW238715   4.557   1.657   2.754 -1.3876 -0.1507 -0.1513
 9027SOL     OW38716   1.725   0.823  17.401  0.0995 -0.2531  0.0690
 9027SOL    HW138717   1.680   0.858  17.324 -0.3460 -0.2200  0.3384
 9027SOL    HW238718   1.675   0.742  17.414  0.7915 -0.8559 -1.0264
 9028SOL     OW38719   2.093   3.765  14.874 -0.1913  0.6250  0.3254
 9028SOL    HW138720   2.162   3.831  14.869  0.8925 -0.6492 -1.1485
 9028SOL    HW238721   2.132   3.706  14.938 -0.2446  0.9815  0.6913
 9029SOL     OW38722   3.373   3.234  17.454 -0.3825 -0.3109 -0.0266
 9029SOL    HW138723   3.310   3.195  17.515  0.1969  0.4829  1.0744
 9029SOL    HW238724   3.400   3.303  17.514 -1.2664  1.0751 -1.2370
 9030SOL     OW38725   3.038   2.989   8.284 -0.3978  0.4045 -0.2046
 9030SOL    HW138726   3.041   2.965   8.376 -2.4542  0.8389 -0.0177
 9030SOL    HW238727   3.039   3.085   8.288 -1.5896  0.4789 -1.5090
 9031SOL     OW38728   2.991   4.730  14.414  0.1244 -0.2655 -0.1021
 9031SOL    HW138729   2.955   4.662  14.357  0.7907  1.8181 -3.0198
 9031SOL    HW238730   2.966   0.064  14.359 -0.2124  0.7315  1.3719
 9032SOL     OW38731   3.312   1.975   6.480 -0.1329 -0.2610 -0.0296
 9032SOL    HW138732   3.281   1.947   6.394 -0.1715  0.6220 -0.3017
 9032SOL    HW238733   3.328   1.889   6.519  2.0687 -0.6549 -1.8081
 9033SOL     OW38734   4.072   4.360   3.504 -0.0690 -0.2073  0.3036
 9033SOL    HW138735   3.994   4.313   3.532  0.9799 -0.4118  2.8692
 9033SOL    HW238736   4.052   4.445   3.543 -1.5119 -0.0728 -0.7629
 9034SOL     OW38737   3.021   2.635   3.949  0.1444 -0.2453 -0.1117
 9034SOL    HW138738   2.979   2.645   4.034  1.8611 -1.2403  0.8490
 9034SOL    HW238739   3.111   2.644   3.979  1.1069 -1.6286 -2.5992
 9035SOL     OW38740   3.979   3.344   5.808 -0.0168 -0.2762  0.1670
 9035SOL    HW138741   3.894   3.323   5.846 -0.3572 -1.0896 -1.0478
 9035SOL    HW238742   3.956   3.413   5.745 -0.3483  0.0558  0.6546
 9036SOL     OW38743   0.992   3.700   0.540 -0.4036  0.4035 -0.5767
 9036SOL    HW138744   0.945   3.772   0.498 -0.3460  0.3702 -0.6973
 9036SOL    HW238745   0.982   3.621   0.487 -1.2201 -1.2851  2.0837
 9037SOL     OW38746   1.121   2.931  15.232 -0.4239  0.6748  0.1218
 9037SOL    HW138747   1.078   2.874  15.296 -1.3306  2.1365  0.8163
 9037SOL    HW238748   1.041   2.974  15.201 -1.6836 -1.2405  0.7208
 9038SOL     OW38749   2.143   2.747   5.486 -0.0541 -0.1175 -0.4246
 9038SOL    HW138750   2.076   2.712   5.427  0.0155 -1.4374  0.2920
 9038SOL    HW238751   2.185   2.809   5.426  1.3753  1.4205  2.1465
 9039SOL     OW38752   1.915   2.736  11.629  0.3932 -0.4235 -0.1954
 9039SOL    HW138753   1.954   2.804  11.573 -1.7322 -1.0069 -2.3916
 9039SOL    HW238754   1.948   2.653  11.593  0.9988 -0.2824  0.0328
 9040SOL     OW38755   3.083   3.653   9.102  0.1161  0.0993 -0.0543
 9040SOL    HW138756   3.012   3.707   9.138  1.6330  1.2780  1.2373
 9040SOL    HW238757   3.061   3.636   9.011  1.4491  1.4158 -0.6337
 9041SOL     OW38758   0.307   0.485   6.135  0.1534  0.4793  0.1300
 9041SOL    HW138759   0.252   0.563   6.140 -1.4443 -0.5858 -0.7802
 9041SOL    HW238760   0.361   0.507   6.059  0.3727  2.3174  0.8209
 9042SOL     OW38761   1.592   2.817   7.986 -0.0847 -0.0679  0.0337
 9042SOL    HW138762   1.564   2.726   7.982  1.9756 -0.6397 -1.2801
 9042SOL    HW238763   1.508   2.862   7.987  0.6795  1.4070 -1.4250
 9043SOL     OW38764   1.478   0.823  14.740  0.0728 -0.0185  0.5022
 9043SOL    HW138765   1.438   0.896  14.692 -0.3470 -1.5536 -1.4607
 9043SOL    HW238766   1.499   0.763  14.669  0.3482 -1.2605  1.6285
 9044SOL     OW38767   2.673   3.176   4.908  0.0271  0.4120 -0.1950
 9044SOL    HW138768   2.682   3.265   4.872  2.2862 -0.3090 -1.3852
 9044SOL    HW238769   2.580   3.161   4.893  1.1783 -3.8961 -3.0395
 9045SOL     OW38770   3.565   4.027   6.510 -0.2977 -0.4129 -0.4330
 9045SOL    HW138771   3.544   3.953   6.567  2.1844  0.0175  1.0378
 9045SOL    HW238772   3.657   4.019   6.484 -0.5588 -0.7230 -1.2799
 9046SOL     OW38773   4.600   3.388   8.424 -0.3762  0.1727 -0.2371
 9046SOL    HW138774   4.538   3.456   8.396 -1.2228 -0.1172  0.9453
 9046SOL    HW238775   4.595   3.324   8.353  1.4537 -0.1135 -0.1043
 9047SOL     OW38776   4.033   3.412   3.013  0.1817  0.3899 -0.0945
 9047SOL    HW138777   4.017   3.347   3.082 -0.7710  2.6397  1.7725
 9047SOL    HW238778   3.970   3.398   2.942  1.4711 -0.3775 -1.0980
 9048SOL     OW38779   2.117   3.546   5.983 -0.1464  0.1357 -0.1255
 9048SOL    HW138780   2.062   3.569   5.907  0.6531 -1.4621 -1.1830
 9048SOL    HW238781   2.182   3.616   5.982 -0.9341  0.8555 -1.4362
 9049SOL     OW38782   4.597   2.485  12.996  0.2439 -0.5079 -0.3525
 9049SOL    HW138783   4.506   2.510  13.015  0.3329 -0.5201  0.0760
 9049SOL    HW238784   4.625   2.543  12.925  3.2894 -0.1480  1.1744
 9050SOL     OW38785   0.486   0.742  14.204  0.4969 -0.2836  0.3831
 9050SOL    HW138786   0.393   0.761  14.201  0.7900  1.0967  0.3000
 9050SOL    HW238787   0.492   0.672  14.139  2.1973  0.2291 -0.0029
 9051SOL     OW38788   0.722   4.288  16.653  0.2131 -0.2248  0.5561
 9051SOL    HW138789   0.680   4.331  16.579 -0.0408 -0.9127  0.3028
 9051SOL    HW238790   0.646   4.300  16.710  0.7267 -2.0929  1.6516
 9052SOL     OW38791   0.041   0.291  13.256  0.4283  0.3142 -0.3207
 9052SOL    HW138792   4.706   0.232  13.246  1.5408 -0.8178 -1.9520
 9052SOL    HW238793   0.082   0.235  13.321 -1.8332 -0.9591  0.0058
 9053SOL     OW38794   4.495   3.118   9.069  0.1302 -0.7236  0.2515
 9053SOL    HW138795   4.541   3.125   9.153 -0.3243  1.4511  0.3016
 9053SOL    HW238796   4.476   3.211   9.056 -2.2709 -1.0175  1.4725
 9054SOL     OW38797   0.680   3.777  10.842  0.2216 -0.6063  0.0141
 9054SOL    HW138798   0.769   3.800  10.813  0.5793 -2.3881 -0.3011
 9054SOL    HW238799   0.634   3.849  10.799  3.2258  0.5188 -1.3593
 9055SOL     OW38800   1.320   3.924   5.458  0.2317  0.6909  0.1704
 9055SOL    HW138801   1.394   3.985   5.452  1.2440 -0.3156  2.2115
 9055SOL    HW238802   1.275   3.946   5.377  0.5729  0.2304 -0.1485
 9056SOL     OW38803   2.521   1.085   9.229  0.3313  0.6939 -0.7470
 9056SOL    HW138804   2.477   1.000   9.231 -2.3005  2.0512 -0.9930
 9056SOL    HW238805   2.515   1.104   9.323  0.5643  0.2278 -0.6421
 9057SOL     OW38806   1.646   3.486   6.314  0.5083 -0.1041 -0.5672
 9057SOL    HW138807   1.607   3.420   6.371  0.0637 -0.9938 -1.8815
 9057SOL    HW238808   1.625   3.443   6.231  1.0684 -1.8026  0.1752
 9058SOL     OW38809   0.807   4.597  15.845 -0.3286 -0.2534  0.1201
 9058SOL    HW138810   0.770   4.568  15.762  2.1774  1.2308 -1.5406
 9058SOL    HW238811   0.729   4.630  15.889  0.1762 -1.6137  2.0196
 9059SOL     OW38812   1.946   3.394   6.619  0.4563  0.8508  0.1568
 9059SOL    HW138813   1.965   3.304   6.592  0.5007  0.2281  2.2247
 9059SOL    HW238814   2.022   3.410   6.676  0.0375  0.5237  0.8078
 9060SOL     OW38815   3.590   2.114   0.285 -0.1864 -0.5590 -0.4015
 9060SOL    HW138816   3.529   2.186   0.268 -0.5529 -0.1730  2.5965
 9060SOL    HW238817   3.628   2.079   0.205 -1.5515 -1.0475 -0.8450
 9061SOL     OW38818   3.395   2.442   7.794  0.0934 -0.3103 -0.0572
 9061SOL    HW138819   3.391   2.435   7.889  0.7767 -1.5880 -0.1226
 9061SOL    HW238820   3.458   2.377   7.764  0.6153 -0.7246  1.9665
 9062SOL     OW38821   2.315   4.444   8.824 -0.0970  0.3885 -0.0964
 9062SOL    HW138822   2.260   4.499   8.769  0.2813 -0.6668 -1.5462
 9062SOL    HW238823   2.306   4.476   8.913 -3.4208 -1.6759  0.2755
 9063SOL     OW38824   3.515   3.896   5.501 -0.7098 -0.0226 -0.0666
 9063SOL    HW138825   3.446   3.864   5.443  0.1333  0.6352 -1.4295
 9063SOL    HW238826   3.479   3.974   5.543 -0.5673 -0.7255  1.3918
 9064SOL     OW38827   4.285   2.133   2.592 -0.1565 -0.0907  0.0074
 9064SOL    HW138828   4.260   2.157   2.503  3.9113  1.4673 -0.7504
 9064SOL    HW238829   4.264   2.216   2.633 -0.0095 -0.1586  0.2204
 9065SOL     OW38830   3.553   3.636   7.421 -0.0395  0.6605 -0.2911
 9065SOL    HW138831   3.545   3.712   7.363 -1.4898  0.1326 -0.7849
 9065SOL    HW238832   3.605   3.681   7.487 -1.8086  0.8786  0.9360
 9066SOL     OW38833   3.714   3.222   8.680 -0.3581 -0.1652 -0.2420
 9066SOL    HW138834   3.801   3.186   8.698  0.4058  1.7362 -0.1247
 9066SOL    HW238835   3.691   3.244   8.770 -0.2597 -2.6602  0.3823
 9067SOL     OW38836   4.355   1.426   3.895 -0.4249 -0.7146 -0.2544
 9067SOL    HW138837   4.438   1.406   3.940 -1.7181  2.5547  3.5532
 9067SOL    HW238838   4.308   1.455   3.974  1.7699 -0.3464  0.9280
 9068SOL     OW38839   1.331   3.772   3.830  0.6960 -0.2703  0.1668
 9068SOL    HW138840   1.331   3.730   3.744  1.6756 -0.7465  0.3963
 9068SOL    HW238841   1.367   3.858   3.807 -1.8648  0.8333  0.2851
 9069SOL     OW38842   2.001   4.524   4.342 -0.2826 -0.2975  0.2403
 9069SOL    HW138843   1.996   4.612   4.379 -1.0934  0.6704 -2.1701
 9069SOL    HW238844   2.038   4.525   4.254  2.5751 -1.7916  1.4284
 9070SOL     OW38845   1.793   2.898  10.371 -0.2127  0.0912  0.0581
 9070SOL    HW138846   1.881   2.864  10.385 -1.2341 -2.8378 -0.6374
 9070SOL    HW238847   1.798   2.970  10.434  1.6430  0.5609 -0.6205
 9071SOL     OW38848   2.675   1.941   5.004 -0.4992 -0.3672 -0.1807
 9071SOL    HW138849   2.599   1.883   5.009  0.6117 -1.6482  1.6392
 9071SOL    HW238850   2.722   1.913   5.082 -1.1046  1.3386  0.7997
 9072SOL     OW38851   3.732   3.643   9.517  0.3583  0.0788 -0.3740
 9072SOL    HW138852   3.773   3.560   9.541  0.6793  0.1721 -0.6119
 9072SOL    HW238853   3.763   3.659   9.428 -0.1130 -1.0157 -0.7285
 9073SOL     OW38854   3.293   1.006   2.650  0.2524  0.0711  0.2739
 9073SOL    HW138855   3.297   1.002   2.554 -0.8194 -0.8318  0.2717
 9073SOL    HW238856   3.204   1.028   2.675  0.2012  0.5010 -0.2789
 9074SOL     OW38857   0.299   1.483   8.937 -0.2989  0.1852  0.4834
 9074SOL    HW138858   0.227   1.479   8.874 -0.3994  0.8120  0.5599
 9074SOL    HW238859   0.313   1.578   8.935  0.9717 -0.0324 -1.4070
 9075SOL     OW38860   4.605   1.191   3.605 -0.4710  0.1017 -0.2093
 9075SOL    HW138861   4.530   1.166   3.659 -1.2566  0.6897 -1.0336
 9075SOL    HW238862   4.586   1.282   3.582 -0.4084  0.1202 -0.1886
 9076SOL     OW38863   0.339   3.604   6.541 -0.6892 -0.1909  0.4929
 9076SOL    HW138864   0.352   3.699   6.536  1.3936 -0.4408  1.2377
 9076SOL    HW238865   0.431   3.582   6.554 -0.6089  0.9327  1.7914
 9077SOL     OW38866   0.204   3.417  16.394 -0.2978  0.3595 -0.4246
 9077SOL    HW138867   0.292   3.380  16.394  1.1443  3.7592  1.8909
 9077SOL    HW238868   0.203   3.450  16.484 -2.1113  1.5715 -0.8893
 9078SOL     OW38869   2.664   1.864   4.522 -0.0941 -0.1685 -0.1811
 9078SOL    HW138870   2.652   1.931   4.589  2.4166  1.2729 -1.1718
 9078SOL    HW238871   2.749   1.825   4.544 -0.2964 -0.1218  0.6756
 9079SOL     OW38872   1.746   0.961   4.615  0.8794  0.0041 -0.0332
 9079SOL    HW138873   1.822   1.006   4.651  2.6285 -1.5396 -1.8346
 9079SOL    HW238874   1.701   1.034   4.574 -2.5469 -3.0492 -1.6831
 9080SOL     OW38875   2.863   0.701   8.452 -0.2273 -0.0386 -0.1664
 9080SOL    HW138876   2.780   0.705   8.404 -1.0667 -0.8335  1.2140
 9080SOL    HW238877   2.887   0.793   8.456  1.8344 -0.5148 -0.9355
 9081SOL     OW38878   2.576   2.967  17.508  0.7613  0.4466  0.2766
 9081SOL    HW138879   2.623   2.949  17.589 -0.8974 -0.8790  0.9322
 9081SOL    HW238880   2.639   2.961  17.436  0.2072 -0.1476 -0.1608
 9082SOL     OW38881   2.869   4.484  13.883  0.3564  0.5306  0.0533
 9082SOL    HW138882   2.934   4.535  13.930 -0.2540  0.8942  0.4995
 9082SOL    HW238883   2.820   4.453  13.959  0.7923  0.4290  0.2912
 9083SOL     OW38884   1.394   0.985  17.071 -0.2725 -0.0997  0.0165
 9083SOL    HW138885   1.382   1.077  17.045  1.1795  0.7370  2.2291
 9083SOL    HW238886   1.371   0.996  17.163  1.1055  0.6939  0.2789
 9084SOL     OW38887   0.641   3.813   1.534  0.0488 -0.5820  0.0233
 9084SOL    HW138888   0.685   3.798   1.450  0.8958 -1.1444  0.5663
 9084SOL    HW238889   0.720   3.816   1.589  1.0072  0.8265 -1.4203
 9085SOL     OW38890   0.978   0.039   2.009 -0.4458  0.1049 -0.7714
 9085SOL    HW138891   1.000   0.069   2.097 -3.2473 -1.7641  0.5539
 9085SOL    HW238892   1.025   0.106   1.960 -1.6808 -0.4345 -2.6993
 9086SOL     OW38893   0.603   2.030   4.377  0.4849  0.7652  0.3842
 9086SOL    HW138894   0.606   2.042   4.282  0.7120  0.2696  0.3342
 9086SOL    HW238895   0.688   1.999   4.407  0.7134  1.0011 -0.0127
 9087SOL     OW38896   4.625   4.573   3.959 -0.2757  0.0549 -0.3000
 9087SOL    HW138897   4.556   4.635   3.938  0.4601  1.4902  1.5189
 9087SOL    HW238898   4.562   4.508   3.991 -2.5868  1.7168 -1.5238
 9088SOL     OW38899   3.965   2.826  12.330 -0.2370 -0.2783 -0.5527
 9088SOL    HW138900   3.922   2.740  12.337 -0.8225  0.1148  0.6347
 9088SOL    HW238901   4.049   2.801  12.291 -0.7284 -1.1042 -1.1014
 9089SOL     OW38902   0.010   2.234   9.249 -0.0894  0.6186 -0.1171
 9089SOL    HW138903   0.092   2.239   9.298 -1.8198  0.7014  2.7614
 9089SOL    HW238904   0.027   2.152   9.202 -0.7064  0.3990  0.0401
 9090SOL     OW38905   4.704   1.406   4.661 -0.4978 -0.5406  0.6094
 9090SOL    HW138906   4.652   1.453   4.727 -1.3062 -0.5776 -0.0099
 9090SOL    HW238907   4.645   1.332   4.649 -2.0196  0.8347 -0.3503
 9091SOL     OW38908   3.550   3.702   4.554 -0.1297  0.3102  0.0599
 9091SOL    HW138909   3.470   3.722   4.504  0.9400  1.5615 -1.1570
 9091SOL    HW238910   3.562   3.607   4.559 -0.5041  0.1263 -2.4739
 9092SOL     OW38911   1.088   1.854   5.393  0.6625  0.3789  0.3347
 9092SOL    HW138912   0.993   1.861   5.386  0.5824 -0.7395  0.2924
 9092SOL    HW238913   1.095   1.759   5.399 -3.8139  0.0777  0.9638
 9093SOL     OW38914   0.648   3.227   5.779  0.3975  0.0170  0.2228
 9093SOL    HW138915   0.659   3.265   5.692 -4.3692  1.4027  0.2115
 9093SOL    HW238916   0.557   3.241   5.806  1.0343  3.2541  0.6477
 9094SOL     OW38917   2.361   1.704   3.658 -0.0546  0.4983  0.0607
 9094SOL    HW138918   2.328   1.787   3.692 -0.7164  1.7652 -3.6007
 9094SOL    HW238919   2.419   1.681   3.730  2.3870 -1.1510 -2.4164
 9095SOL     OW38920   3.846   0.809   6.444 -0.3129 -0.1059  0.2650
 9095SOL    HW138921   3.899   0.790   6.367  2.4058  1.1804  1.8076
 9095SOL    HW238922   3.905   0.776   6.511  1.1453  0.3782 -0.7825
 9096SOL     OW38923   1.645   0.169   5.916  0.1816 -0.1600  0.0995
 9096SOL    HW138924   1.618   0.115   5.990  0.8789  0.2511  0.6419
 9096SOL    HW238925   1.567   0.177   5.860  0.6528  2.0523 -0.2439
 9097SOL     OW38926   0.740   1.112   0.935  0.2514  0.4941 -0.0458
 9097SOL    HW138927   0.646   1.127   0.925  0.2798  0.3080 -0.6187
 9097SOL    HW238928   0.771   1.199   0.910  2.4683 -0.8145 -1.8502
 9098SOL     OW38929   0.563   4.208   7.111  0.1391  0.0073 -0.0257
 9098SOL    HW138930   0.545   4.261   7.189 -2.9835 -0.0003 -0.7694
 9098SOL    HW238931   0.643   4.252   7.080 -1.3908  0.8266 -2.7874
 9099SOL     OW38932   2.540   1.624  17.670 -0.5541 -0.3936  0.2336
 9099SOL    HW138933   2.572   1.635   0.004  1.2748  0.9695 -0.5869
 9099SOL    HW238934   2.454   1.664  17.684  0.4201  2.5349 -2.0722
 9100SOL     OW38935   2.488   4.435   2.605  0.3829 -0.2621  0.1572
 9100SOL    HW138936   2.455   4.473   2.687 -0.0371 -0.0874 -0.0891
 9100SOL    HW238937   2.481   4.512   2.548  2.6380 -1.1519 -1.3075
 9101SOL     OW38938   1.223   4.734  15.548  0.0020  0.2808 -0.1797
 9101SOL    HW138939   1.284   4.693  15.610 -0.3245 -0.1921 -0.1717
 9101SOL    HW238940   1.144   4.694  15.586  1.2634 -0.3640  1.8058
 9102SOL     OW38941   3.593   3.772   1.101  0.0538  0.2385  0.5601
 9102SOL    HW138942   3.651   3.815   1.039 -0.6419  0.5872  0.1520
 9102SOL    HW238943   3.528   3.837   1.127  1.0603  1.0238  1.1223
 9103SOL     OW38944   2.217   4.628   6.138 -0.1343  0.1557 -0.4588
 9103SOL    HW138945   2.212   4.662   6.049 -0.5315  0.1833 -0.4239
 9103SOL    HW238946   2.160   4.551   6.137 -1.2564  0.9882  0.1893
 9104SOL     OW38947   3.467   2.711   9.047  0.3861  0.0498  0.7436
 9104SOL    HW138948   3.540   2.696   9.107  0.5265 -0.5313  0.4339
 9104SOL    HW238949   3.506   2.741   8.965 -0.9150  1.1052  0.5110
 9105SOL     OW38950   1.134   3.557   4.416  0.8246 -0.2000  0.2980
 9105SOL    HW138951   1.143   3.477   4.466 -0.9573 -1.1351 -0.8877
 9105SOL    HW238952   1.217   3.567   4.369  1.1722  1.3300  1.2473
 9106SOL     OW38953   3.707   2.081   6.567 -0.3235 -0.2274 -0.2883
 9106SOL    HW138954   3.801   2.071   6.549 -0.7613 -0.3948 -2.4780
 9106SOL    HW238955   3.687   2.017   6.636  1.6475 -1.4379 -0.8203
 9107SOL     OW38956   3.178   2.626   9.020 -0.6696  0.1874 -0.2352
 9107SOL    HW138957   3.216   2.571   8.951  1.2464 -0.2070  1.1341
 9107SOL    HW238958   3.242   2.697   9.019 -1.1533  0.6183 -0.2974
 9108SOL     OW38959   2.001   4.693   9.647 -0.1780 -0.0038  0.1025
 9108SOL    HW138960   1.978   0.041   9.616  1.6639  0.3600 -0.2497
 9108SOL    HW238961   2.058   4.706   9.723  0.9603  2.4427 -1.1980
 9109SOL     OW38962   4.332   4.332   7.617 -0.1997  0.0535 -0.3987
 9109SOL    HW138963   4.408   4.358   7.565  2.9933 -3.6510  2.3767
 9109SOL    HW238964   4.309   4.408   7.671 -1.9497 -1.7224  1.3912
 9110SOL     OW38965   4.006   1.291   9.673  0.6274 -0.1976 -0.8313
 9110SOL    HW138966   4.035   1.200   9.684 -0.6914 -0.4252  0.8131
 9110SOL    HW238967   4.084   1.337   9.643  1.2727 -1.4428 -1.0706
 9111SOL     OW38968   0.634   3.071   4.790 -0.3599  0.5321  0.0821
 9111SOL    HW138969   0.638   3.095   4.698  0.9910 -3.1285 -0.8303
 9111SOL    HW238970   0.633   2.975   4.785 -0.1717  0.5933 -1.2290
 9112SOL     OW38971   1.180   0.729  12.381 -0.1574  0.3160 -0.7477
 9112SOL    HW138972   1.242   0.662  12.409 -2.5363 -0.5740  2.4386
 9112SOL    HW238973   1.248   0.788  12.349 -0.0453 -0.5212 -2.0579
 9113SOL     OW38974   1.899   2.165   6.314  0.2376  0.0149 -0.1156
 9113SOL    HW138975   1.978   2.115   6.292 -0.1742 -0.3770 -0.7211
 9113SOL    HW238976   1.907   2.232   6.246  2.6287 -1.0413 -0.8879
 9114SOL     OW38977   3.181   3.215   6.497  0.2058 -0.2502 -1.0646
 9114SOL    HW138978   3.266   3.257   6.511  0.2144  0.1768 -2.3670
 9114SOL    HW238979   3.203   3.143   6.437  1.2913 -0.4227 -0.4615
 9115SOL     OW38980   4.241   0.161  17.601 -0.0730 -0.3124 -0.3940
 9115SOL    HW138981   4.309   0.130  17.661  2.1166  1.9137 -1.7055
 9115SOL    HW238982   4.294   0.213  17.541 -0.5590  2.5088  1.6220
 9116SOL     OW38983   0.166   4.004   3.743 -0.5297 -0.2719  0.2152
 9116SOL    HW138984   0.161   4.013   3.648  1.4309  1.2752  0.2733
 9116SOL    HW238985   0.075   4.018   3.770  0.4472  2.3764  2.0970
 9117SOL     OW38986   3.702   2.489   2.181 -0.3250  0.1272  0.0976
 9117SOL    HW138987   3.734   2.473   2.092 -2.4265  0.1225 -0.6527
 9117SOL    HW238988   3.623   2.436   2.174 -0.5355  0.5111 -0.4685
 9118SOL     OW38989   4.346   4.404  16.813 -0.2140 -0.9376  0.4302
 9118SOL    HW138990   4.269   4.433  16.862 -0.3532  0.0005 -0.3495
 9118SOL    HW238991   4.315   4.334  16.756  2.0127 -1.1918 -0.4694
 9119SOL     OW38992   2.149   1.413   7.753 -0.2750  0.4940  0.6066
 9119SOL    HW138993   2.194   1.380   7.675  2.2796  2.8870  1.0800
 9119SOL    HW238994   2.224   1.434   7.809  1.6239  1.9690 -2.4486
 9120SOL     OW38995   3.637   3.416   9.369 -0.1471  0.0013  0.1567
 9120SOL    HW138996   3.544   3.431   9.386 -0.1061 -0.5448  0.8982
 9120SOL    HW238997   3.667   3.488   9.425 -0.2846  0.4785 -0.3933
 9121SOL     OW38998   0.425   2.018  14.272 -0.0813  0.2320 -0.0571
 9121SOL    HW138999   0.335   2.044  14.293  0.3137  0.1200  1.7980
 9121SOL    HW239000   0.425   1.999  14.178  1.1721  0.8775 -0.1840
 9122SOL     OW39001   2.966   0.935  10.536 -0.0795 -0.2521 -0.3251
 9122SOL    HW139002   3.052   0.896  10.555 -0.1110  0.2307  0.7735
 9122SOL    HW239003   2.924   0.928  10.622  1.4562  2.1580  0.6145
 9123SOL     OW39004   2.048   1.084   6.568  0.4690 -0.3357 -0.0624
 9123SOL    HW139005   2.109   1.062   6.498 -0.9877  1.0454 -1.7902
 9123SOL    HW239006   1.998   1.003   6.576 -0.6911  0.6061  2.0988
 9124SOL     OW39007   4.006   4.644   6.028  0.2176 -0.0885  0.1458
 9124SOL    HW139008   3.972   4.594   5.953  1.6313  0.5496 -0.9132
 9124SOL    HW239009   3.968   4.590   6.098 -0.3041 -0.5988 -0.5240
 9125SOL     OW39010   4.627   2.146   5.831 -0.2674  0.5148 -0.8775
 9125SOL    HW139011   4.646   2.237   5.852 -0.5908  0.6921 -1.3596
 9125SOL    HW239012   4.688   2.117   5.898 -1.0979 -0.3934 -0.5104
 9126SOL     OW39013   4.674   4.706   7.472 -0.1440 -0.4115  0.2846
 9126SOL    HW139014   4.685   4.699   7.377  2.0105  0.6465  0.4670
 9126SOL    HW239015   4.608   4.638   7.488  0.6496 -0.9016  1.4362
 9127SOL     OW39016   1.158   3.350   8.216 -0.0749  0.4611 -0.4471
 9127SOL    HW139017   1.079   3.321   8.262 -0.6123  1.7780 -0.5227
 9127SOL    HW239018   1.226   3.312   8.271 -0.3159 -0.4261 -0.7628
 9128SOL     OW39019   2.920   2.212   2.755  0.2684  0.1073  0.6141
 9128SOL    HW139020   2.838   2.257   2.776  0.9831  1.0958  1.2792
 9128SOL    HW239021   2.978   2.241   2.826  0.1548 -0.1685  0.8223
 9129SOL     OW39022   3.541   4.623   8.210  0.1722  0.0181 -0.1651
 9129SOL    HW139023   3.479   4.598   8.141 -0.1330  2.9720 -0.9675
 9129SOL    HW239024   3.516   4.566   8.282  2.9534 -0.2661  0.5993
 9130SOL     OW39025   4.213   3.695   6.685 -0.3758 -0.0382 -0.4446
 9130SOL    HW139026   4.155   3.640   6.633 -1.4763  2.0333 -1.3853
 9130SOL    HW239027   4.261   3.628   6.734  3.2769  2.4709 -0.6244
 9131SOL     OW39028   4.590   3.125  12.191  0.4964  0.1055  0.0036
 9131SOL    HW139029   4.613   3.063  12.261  1.0088 -1.6200 -1.7034
 9131SOL    HW239030   4.668   3.132  12.136 -0.9902  0.3612 -2.0572
 9132SOL     OW39031   2.356   0.396   4.986  0.2418 -0.3268 -0.2110
 9132SOL    HW139032   2.415   0.369   4.916  0.9020 -0.1117  0.2589
 9132SOL    HW239033   2.331   0.311   5.021  1.7240 -0.1283  1.3116
 9133SOL     OW39034   0.586   3.330   6.174  0.1901 -0.3492 -0.1318
 9133SOL    HW139035   0.518   3.375   6.224 -1.9971 -2.8490 -0.8921
 9133SOL    HW239036   0.568   3.378   6.093  1.4333 -1.3160 -0.9700
 9134SOL     OW39037   1.959   4.204  10.737  0.2550 -0.6536 -0.8478
 9134SOL    HW139038   2.046   4.191  10.698  0.9687 -0.2243  0.5773
 9134SOL    HW239039   1.948   4.298  10.741 -1.8736 -0.8460 -2.5591
 9135SOL     OW39040   0.695   2.512   6.845 -1.0528  0.0508 -0.0453
 9135SOL    HW139041   0.771   2.498   6.901 -0.9657 -0.0107 -0.1798
 9135SOL    HW239042   0.631   2.463   6.897 -2.0261  0.8194 -0.5325
 9136SOL     OW39043   2.309   1.382   2.254  0.3214 -0.2526  0.4606
 9136SOL    HW139044   2.261   1.303   2.281  0.4597 -0.6621 -0.4653
 9136SOL    HW239045   2.396   1.343   2.256  1.6047  2.6276 -0.3290
 9137SOL     OW39046   1.227   4.343  14.207  0.1508  0.1298 -0.4548
 9137SOL    HW139047   1.283   4.397  14.151 -2.3951  4.2528  1.0362
 9137SOL    HW239048   1.149   4.395  14.226  0.1256 -0.1351  0.1642
 9138SOL     OW39049   1.364   0.005   3.662  0.3453 -0.2139 -0.2918
 9138SOL    HW139050   1.289   0.062   3.643  0.2583 -1.3495 -3.3910
 9138SOL    HW239051   1.430   0.063   3.700 -0.4444 -0.2306  1.1131
 9139SOL     OW39052   4.679   4.266   5.040 -0.2789  0.1955  0.3871
 9139SOL    HW139053   4.626   4.191   5.015  0.4917 -0.5571  1.0116
 9139SOL    HW239054   0.008   4.220   5.089  1.1108  1.5033 -0.3155
 9140SOL     OW39055   2.698   0.159   2.715 -0.3223 -0.1456 -0.1085
 9140SOL    HW139056   2.744   0.211   2.781  0.6480  0.1143 -1.0001
 9140SOL    HW239057   2.620   0.136   2.767 -0.6032  0.6325 -0.1732
 9141SOL     OW39058   2.668   1.754   3.611 -0.0477 -0.4743  0.1599
 9141SOL    HW139059   2.752   1.763   3.656 -0.3270 -0.9436  0.7791
 9141SOL    HW239060   2.643   1.662   3.618 -1.6309 -0.1991 -1.8754
 9142SOL     OW39061   2.779   4.726   4.974 -0.1334  0.0095  0.1739
 9142SOL    HW139062   2.790   0.036   5.055  0.4435 -0.3486  0.3093
 9142SOL    HW239063   2.824   4.642   4.982  0.9109  0.5775  0.2993
 9143SOL     OW39064   4.441   1.156  16.764 -0.0319  0.1678  0.4067
 9143SOL    HW139065   4.457   1.241  16.805 -1.0360  0.2862  0.5317
 9143SOL    HW239066   4.492   1.091  16.812  1.9304  0.3137 -1.4516
 9144SOL     OW39067   0.690   4.297  17.733  0.0612 -0.2471  0.1203
 9144SOL    HW139068   0.728   4.229  17.678  1.8363  0.0014  1.0681
 9144SOL    HW239069   0.620   4.249   0.022 -0.0905 -0.6138 -0.5154
 9145SOL     OW39070   3.229   4.642   5.939 -0.1634  0.5085  0.1455
 9145SOL    HW139071   3.206   4.583   5.867  2.0324  1.1463 -1.1127
 9145SOL    HW239072   3.239   4.585   6.015  0.4944  2.2358  1.3684
 9146SOL     OW39073   3.861   3.932   0.715  0.6073 -0.8077  0.4959
 9146SOL    HW139074   3.860   3.841   0.743  2.0737 -1.3116 -1.0761
 9146SOL    HW239075   3.889   3.926   0.624 -2.2866 -2.3675 -0.2963
 9147SOL     OW39076   2.755   0.370  16.401  0.0117  0.3319 -0.1816
 9147SOL    HW139077   2.851   0.372  16.399  0.0174  2.0613  2.0447
 9147SOL    HW239078   2.735   0.280  16.426  0.8748 -0.4248 -2.2291
 9148SOL     OW39079   4.440   0.098   7.236  0.5147  0.2871 -0.4519
 9148SOL    HW139080   4.382   0.126   7.306 -2.3198  0.0320 -2.6894
 9148SOL    HW239081   4.454   0.184   7.196  0.5820  0.1136 -0.8042
 9149SOL     OW39082   3.669   4.063   5.159  0.0242 -0.3750  0.4980
 9149SOL    HW139083   3.717   3.998   5.210 -2.0538 -2.2261  0.0620
 9149SOL    HW239084   3.667   4.025   5.072  1.7083 -0.5779  0.5508
 9150SOL     OW39085   3.600   0.016   3.809  0.0714  0.2091  0.2961
 9150SOL    HW139086   3.536   4.725   3.873  2.0247  0.0521  2.1650
 9150SOL    HW239087   3.679   0.029   3.860  0.1553 -0.4352  0.3303
 9151SOL     OW39088   0.364   2.090  12.989  0.4752  0.2814  0.9370
 9151SOL    HW139089   0.450   2.073  13.028  0.7264 -0.6562 -0.0304
 9151SOL    HW239090   0.337   2.000  12.968  0.6024  0.5914 -0.4964
 9152SOL     OW39091   1.494   0.290   2.594 -0.0604 -0.2984  0.2550
 9152SOL    HW139092   1.585   0.271   2.571 -0.7679 -2.5915 -0.7092
 9152SOL    HW239093   1.457   0.309   2.507 -1.2875  0.2428  0.8900
 9153SOL     OW39094   2.108   4.582   3.829  0.0507  0.1354 -0.0303
 9153SOL    HW139095   2.193   4.602   3.789 -0.4627 -1.0467 -1.7303
 9153SOL    HW239096   2.046   4.639   3.784 -1.3776  0.4299  2.3392
 9154SOL     OW39097   4.141   1.523   0.384 -0.4938  0.3701  0.3543
 9154SOL    HW139098   4.205   1.586   0.418 -0.5633 -1.8575  4.5882
 9154SOL    HW239099   4.190   1.449   0.349  0.0164  1.7124 -1.7898
 9155SOL     OW39100   0.687   1.274   1.919  0.2767  0.4708  0.7824
 9155SOL    HW139101   0.617   1.213   1.943 -0.1744  0.5930 -0.2021
 9155SOL    HW239102   0.638   1.353   1.893 -0.9449 -0.1516  1.1813
 9156SOL     OW39103   1.118   3.744   5.023 -0.3929 -0.1520 -0.2147
 9156SOL    HW139104   1.181   3.771   4.956  1.0086 -0.6899  0.8793
 9156SOL    HW239105   1.082   3.659   4.999  1.0847 -1.0975  0.9457
 9157SOL     OW39106   1.636   3.846   4.987  0.1455  0.3480  0.1949
 9157SOL    HW139107   1.570   3.914   5.002 -0.7503 -0.6835  0.9909
 9157SOL    HW239108   1.620   3.773   5.048  2.1000 -0.5615 -0.4022
 9158SOL     OW39109   0.782   4.094   0.222  0.2770  0.2422 -0.2687
 9158SOL    HW139110   0.717   4.063   0.159  1.3834 -1.1842 -0.7144
 9158SOL    HW239111   0.820   4.168   0.174 -1.2388  0.7779 -0.6189
 9159SOL     OW39112   1.206   0.029   7.287  0.3121 -0.3526 -0.1419
 9159SOL    HW139113   1.271   4.715   7.332 -0.7317 -0.7882  0.8317
 9159SOL    HW239114   1.238   0.039   7.197  0.1712  0.9776 -0.0465
 9160SOL     OW39115   4.211   4.681   4.722  0.2761  0.8074  0.0220
 9160SOL    HW139116   4.296   4.644   4.701 -1.2501 -1.0902 -2.8370
 9160SOL    HW239117   4.173   4.681   4.634 -0.8260  0.1865  0.5035
 9161SOL     OW39118   4.476   3.150   3.731 -0.0805  0.5851  0.2748
 9161SOL    HW139119   4.454   3.213   3.663 -1.2849 -0.7047 -0.5374
 9161SOL    HW239120   4.385   3.136   3.759 -0.0982 -1.5505 -0.8067
 9162SOL     OW39121   1.374   1.035   4.440 -0.6847 -0.1674 -0.0231
 9162SOL    HW139122   1.345   1.084   4.518  1.2654  1.6547 -0.4246
 9162SOL    HW239123   1.297   1.025   4.385 -1.6258  2.7809  0.7306
 9163SOL     OW39124   4.378   1.008   1.661  0.0616  0.0820 -0.0570
 9163SOL    HW139125   4.299   0.955   1.648 -0.0509 -0.0724  1.1960
 9163SOL    HW239126   4.325   1.087   1.654 -2.9933 -2.1044 -1.6289
 9164SOL     OW39127   4.613   3.823   4.309 -0.2808 -0.1571 -0.4182
 9164SOL    HW139128   4.542   3.760   4.297 -0.0544 -0.4798 -0.0470
 9164SOL    HW239129   4.641   3.804   4.399 -2.2668  2.0631  0.6721
 9165SOL     OW39130   2.300   2.588  13.828 -0.4512 -0.6963  0.6452
 9165SOL    HW139131   2.278   2.573  13.736 -0.1702  1.8731  0.1510
 9165SOL    HW239132   2.223   2.633  13.863 -0.7153 -0.5065 -0.1857
 9166SOL     OW39133   3.356   2.529   2.109  0.2933 -0.3771  0.2620
 9166SOL    HW139134   3.398   2.548   2.025 -0.0648 -0.5329  0.0504
 9166SOL    HW239135   3.302   2.603   2.133  3.6979  2.3146 -0.3079
 9167SOL     OW39136   0.087   2.061  10.200 -0.4648  0.7564  0.0221
 9167SOL    HW139137   0.125   2.138  10.159 -1.2404  1.7215  1.0862
 9167SOL    HW239138   4.732   2.075  10.188 -0.4508 -0.8915 -2.0127
 9168SOL     OW39139   0.388   3.925   4.433 -0.3567  0.1362 -0.0276
 9168SOL    HW139140   0.460   3.968   4.386  0.3389  1.5303  2.2518
 9168SOL    HW239141   0.411   3.934   4.526 -1.0639  1.2467  0.0401
 9169SOL     OW39142   4.498   3.682   2.175 -0.2574 -0.3200 -0.2931
 9169SOL    HW139143   4.571   3.718   2.125 -0.2082 -1.1730 -0.8333
 9169SOL    HW239144   4.524   3.592   2.196  1.9003  1.4759  4.8384
 9170SOL     OW39145   3.573   3.420   6.705 -0.1590  0.2814  0.1736
 9170SOL    HW139146   3.512   3.378   6.644  0.7202 -0.4905 -0.1804
 9170SOL    HW239147   3.633   3.346   6.716  0.5459  1.0938  1.7044
 9171SOL     OW39148   2.486   1.587   0.337  0.1149 -0.0153 -0.5121
 9171SOL    HW139149   2.480   1.602   0.431  0.4141 -2.6661 -0.0573
 9171SOL    HW239150   2.399   1.558   0.310 -0.4810 -0.2469  1.6566
 9172SOL     OW39151   1.101   2.980   1.685  0.3919  0.2832  0.1265
 9172SOL    HW139152   1.087   2.962   1.777 -2.1487  0.3839 -0.2611
 9172SOL    HW239153   1.027   3.034   1.658  0.7688  0.6856 -0.1203
 9173SOL     OW39154   2.354   1.995   0.386 -0.4249 -0.1091  0.0548
 9173SOL    HW139155   2.291   1.924   0.395 -1.2295  0.5198 -0.7331
 9173SOL    HW239156   2.427   1.948   0.344 -0.7438  1.5411 -2.3034
 9174SOL     OW39157   0.740   3.718  16.750 -0.3362 -0.1773  0.2456
 9174SOL    HW139158   0.681   3.643  16.742  0.4815 -0.7567 -0.4921
 9174SOL    HW239159   0.826   3.675  16.753  0.2207  0.9244 -0.1822
 9175SOL     OW39160   2.857   2.707   4.757 -0.1985  0.1172  0.2306
 9175SOL    HW139161   2.855   2.794   4.797 -1.4559  0.8859 -1.5120
 9175SOL    HW239162   2.924   2.671   4.815  0.4003  0.4943 -0.2206
 9176SOL     OW39163   2.237   4.396   4.666 -0.3722 -0.0576  0.3915
 9176SOL    HW139164   2.185   4.316   4.669 -2.4881  1.2151 -2.8594
 9176SOL    HW239165   2.250   4.399   4.571 -0.7549  0.6317  0.3613
 9177SOL     OW39166   1.314   3.935   2.650 -0.7731  0.8458 -0.0305
 9177SOL    HW139167   1.248   3.999   2.623 -2.4838 -0.5141  0.9733
 9177SOL    HW239168   1.304   3.930   2.745  0.2943  2.5638  0.1829
 9178SOL     OW39169   1.164   3.806   2.250  0.4429 -0.4372  0.2163
 9178SOL    HW139170   1.219   3.742   2.205 -0.0336  0.9034 -2.2761
 9178SOL    HW239171   1.226   3.877   2.265 -1.6691  1.2032  1.0964
 9179SOL     OW39172   4.084   0.690  10.148 -0.1197 -0.1459 -0.2152
 9179SOL    HW139173   4.058   0.694  10.056 -2.4475  0.9365  0.4915
 9179SOL    HW239174   4.170   0.731  10.159  0.3289 -0.9341 -0.6911
 9180SOL     OW39175   4.693   0.191   0.121  0.0054 -0.4232  0.2489
 9180SOL    HW139176   4.618   0.208   0.065 -0.0534 -0.8678  0.1945
 9180SOL    HW239177   4.697   0.274   0.169  0.5862 -0.3935  0.1510
 9181SOL     OW39178   2.623   3.115  16.098 -0.2140  0.0242 -0.1330
 9181SOL    HW139179   2.598   3.023  16.097 -0.3163  0.0464  0.2838
 9181SOL    HW239180   2.673   3.120  16.017 -1.6682  1.7623 -0.9208
 9182SOL     OW39181   4.553   1.574  12.033 -0.4902  0.2254  0.4366
 9182SOL    HW139182   4.612   1.550  11.962 -1.2586 -0.6872  0.1150
 9182SOL    HW239183   4.476   1.526  12.003 -0.7806  1.1916 -0.3874
 9183SOL     OW39184   2.446   0.193   5.297 -0.0885 -0.1163  0.2694
 9183SOL    HW139185   2.468   0.144   5.376  1.3717  3.1300  1.8760
 9183SOL    HW239186   2.358   0.231   5.301 -0.6310 -1.6331  2.4030
 9184SOL     OW39187   2.355   0.543   7.322 -0.0634 -0.3031  0.3243
 9184SOL    HW139188   2.403   0.605   7.376 -0.9264 -0.8177  1.6786
 9184SOL    HW239189   2.402   0.558   7.240 -0.4078 -1.5291 -0.1056
 9185SOL     OW39190   1.840   3.905   3.042 -0.1244  0.1665  0.5611
 9185SOL    HW139191   1.921   3.854   3.042 -1.4510 -1.9625 -1.0595
 9185SOL    HW239192   1.800   3.889   3.127 -1.0282  0.2796  0.1544
 9186SOL     OW39193   1.821   3.708   0.797 -0.2813 -0.4301  0.5460
 9186SOL    HW139194   1.896   3.705   0.738 -0.3856  1.2756  0.3448
 9186SOL    HW239195   1.768   3.781   0.765  0.8486 -0.2833 -1.0221
 9187SOL     OW39196   4.530   1.254  10.789  0.2922 -0.3154 -0.4753
 9187SOL    HW139197   4.517   1.249  10.883 -1.7246 -1.8704 -0.8436
 9187SOL    HW239198   4.512   1.165  10.758  0.4590 -0.7954  0.8013
 9188SOL     OW39199   3.009   2.524   6.321  0.0393  0.2467 -0.2484
 9188SOL    HW139200   2.996   2.460   6.391  0.1459 -0.2331 -0.6641
 9188SOL    HW239201   3.049   2.598   6.366  1.8117 -0.6415 -0.3475
 9189SOL     OW39202   1.434   4.101   6.549  0.5199  0.9881  0.0573
 9189SOL    HW139203   1.432   4.027   6.489  1.3756  1.2684 -0.3181
 9189SOL    HW239204   1.345   4.099   6.584  1.0133  2.0639  1.3546
 9190SOL     OW39205   2.329   1.656  10.298  0.4055 -0.1273  0.0490
 9190SOL    HW139206   2.290   1.570  10.316 -0.7931  0.2883 -0.5986
 9190SOL    HW239207   2.409   1.647  10.349  0.5474 -0.4668 -0.2356
 9191SOL     OW39208   1.155   3.115   6.038  0.0814 -0.1284  0.1973
 9191SOL    HW139209   1.186   3.177   6.104  0.7786  0.7697 -0.9630
 9191SOL    HW239210   1.065   3.107   6.067  0.2292  0.7993  0.9339
 9192SOL     OW39211   1.862   4.654   0.991 -0.0969  0.1257 -0.0342
 9192SOL    HW139212   1.795   4.623   0.929  0.4538  0.6989 -0.9048
 9192SOL    HW239213   1.939   4.624   0.943 -1.3416 -1.5527 -0.9811
 9193SOL     OW39214   2.887   0.437   4.489  0.0188  0.1265  0.0058
 9193SOL    HW139215   2.942   0.435   4.410  1.8192 -0.0301  1.2658
 9193SOL    HW239216   2.888   0.532   4.500  4.5451 -0.4657  4.5282
 9194SOL     OW39217   1.775   2.828   3.901 -0.0949  0.1566 -0.5564
 9194SOL    HW139218   1.679   2.830   3.898 -0.1246  0.8620  0.9768
 9194SOL    HW239219   1.801   2.897   3.961 -0.4823 -0.1424 -0.0408
 9195SOL     OW39220   0.602   0.862   7.133  0.0013  0.3494  0.1800
 9195SOL    HW139221   0.573   0.790   7.189  1.4617 -1.2865 -1.1266
 9195SOL    HW239222   0.532   0.857   7.068  0.9563 -2.5508 -0.6668
 9196SOL     OW39223   3.014   2.584   5.228  0.1793 -0.3701  0.0916
 9196SOL    HW139224   3.007   2.489   5.225  0.6903 -0.4020 -0.1921
 9196SOL    HW239225   2.956   2.605   5.302  1.5261 -1.2527  1.4021
 9197SOL     OW39226   0.516   3.826   9.990  0.4247  0.6935  0.1866
 9197SOL    HW139227   0.452   3.754   9.988  1.4224 -0.1924  0.0466
 9197SOL    HW239228   0.534   3.839   9.897  1.6245  0.9108  0.4518
 9198SOL     OW39229   2.653   4.697   6.453 -0.3514 -0.3045 -0.2009
 9198SOL    HW139230   2.636   0.035   6.506 -2.3352 -1.1942  0.4588
 9198SOL    HW239231   2.642   4.627   6.518 -0.1725 -0.7648 -0.6665
 9199SOL     OW39232   2.677   4.156   1.632 -0.4218  0.3050 -0.0773
 9199SOL    HW139233   2.768   4.131   1.615  0.4061  3.5101 -0.4173
 9199SOL    HW239234   2.632   4.073   1.621 -0.7824  0.9522 -3.4712
 9200SOL     OW39235   0.366   3.984   7.551  0.0541  0.4153 -0.1423
 9200SOL    HW139236   0.350   3.892   7.532  0.6453  0.2183  0.3191
 9200SOL    HW239237   0.280   4.023   7.533 -1.3316 -2.9004 -0.7071
 9201SOL     OW39238   0.892   1.450   9.258 -0.3128  0.0292 -0.4830
 9201SOL    HW139239   0.887   1.445   9.163 -2.1586  0.9112 -0.4252
 9201SOL    HW239240   0.985   1.475   9.264 -0.3055  0.6037 -2.8338
 9202SOL     OW39241   4.715   4.571   6.649 -0.1386  0.0927  0.6661
 9202SOL    HW139242   4.708   4.476   6.661  0.5621  0.3237  2.8927
 9202SOL    HW239243   0.067   4.580   6.675 -0.0433  2.9396 -0.7208
 9203SOL     OW39244   2.690   2.765   0.649  0.4796  0.4934 -0.2287
 9203SOL    HW139245   2.685   2.678   0.609  2.4873  0.6300 -0.7529
 9203SOL    HW239246   2.758   2.733   0.708  0.0759  0.1130  0.0325
 9204SOL     OW39247   4.126   0.356   2.504 -0.4142  0.3250 -0.5369
 9204SOL    HW139248   4.151   0.409   2.428  1.2021 -1.3761 -1.2146
 9204SOL    HW239249   4.082   0.281   2.463  1.7323 -0.5290 -1.3086
 9205SOL     OW39250   0.146   4.514  17.438  0.0812 -0.2091  0.1001
 9205SOL    HW139251   0.209   4.499  17.367  0.3907 -3.2441  1.0168
 9205SOL    HW239252   0.110   4.596  17.404 -0.7220 -0.9173 -0.7632
 9206SOL     OW39253   0.403   1.499   2.109 -0.0057 -0.3793  0.3700
 9206SOL    HW139254   0.374   1.409   2.094 -2.3216  0.5246 -0.5010
 9206SOL    HW239255   0.391   1.530   2.019  1.2794 -2.2256 -0.4291
 9207SOL     OW39256   2.797   2.220  16.859 -0.0448 -0.0976  0.2192
 9207SOL    HW139257   2.783   2.152  16.793  2.0254 -0.4504  0.1618
 9207SOL    HW239258   2.782   2.294  16.800 -1.4437 -0.6381 -0.1186
 9208SOL     OW39259   2.696   2.517  14.630  0.5187 -0.8734 -0.6710
 9208SOL    HW139260   2.782   2.551  14.606  1.3460 -2.5374 -0.0862
 9208SOL    HW239261   2.651   2.573  14.567  3.2937  0.9407 -1.0516
 9209SOL     OW39262   0.493   4.069  10.966 -0.0669 -0.6699 -0.1373
 9209SOL    HW139263   0.463   3.988  11.008 -0.6770 -0.6440 -0.5134
 9209SOL    HW239264   0.580   4.076  11.006 -0.3552  0.2902  0.3351
 9210SOL     OW39265   2.088   2.566   3.974 -0.4703  0.3229 -0.3749
 9210SOL    HW139266   2.090   2.611   4.059  3.8296  0.1556 -0.3833
 9210SOL    HW239267   2.178   2.534   3.971  0.1709  1.8428  2.2235
 9211SOL     OW39268   0.024   0.500   4.243 -0.7751 -0.5788  0.7244
 9211SOL    HW139269   0.070   0.416   4.233  0.7238  0.4574 -0.9995
 9211SOL    HW239270   0.074   0.564   4.192  0.5521 -0.7871  1.7439
 9212SOL     OW39271   3.592   0.628   2.050 -0.1749 -0.2314 -0.0486
 9212SOL    HW139272   3.618   0.536   2.039 -2.6139 -1.0005  0.5253
 9212SOL    HW239273   3.669   0.658   2.097  0.6441 -2.6605  0.1814
 9213SOL     OW39274   0.766   4.474   5.211  0.8325  0.0117  0.3966
 9213SOL    HW139275   0.742   4.549   5.265 -3.5681 -1.5483  0.5362
 9213SOL    HW239276   0.808   4.514   5.135 -0.5629 -0.4986 -0.6424
 9214SOL     OW39277   2.265   0.887   8.244  0.0978 -0.4346  0.1361
 9214SOL    HW139278   2.286   0.803   8.204 -0.1567 -0.7788  0.7203
 9214SOL    HW239279   2.197   0.857   8.305  0.1344 -0.9161 -0.0600
 9215SOL     OW39280   1.848   1.304   9.664  0.2874  0.3514 -0.3602
 9215SOL    HW139281   1.917   1.250   9.623  0.7122 -0.8248  1.8905
 9215SOL    HW239282   1.899   1.383   9.678  2.0135 -0.6864 -0.7387
 9216SOL     OW39283   3.600   2.704   6.308 -0.2634  0.0536  0.3409
 9216SOL    HW139284   3.511   2.679   6.284  0.0964  0.1110 -1.0759
 9216SOL    HW239285   3.581   2.755   6.386  2.3519  1.8340 -0.1980
 9217SOL     OW39286   4.553   1.429  13.541  0.2628  0.1241  0.5114
 9217SOL    HW139287   4.591   1.360  13.594 -1.5118 -0.1417  1.4621
 9217SOL    HW239288   4.596   1.509  13.571 -2.9145  2.9977 -2.5579
 9218SOL     OW39289   1.370   0.659   9.072 -0.1570 -0.0267 -0.0917
 9218SOL    HW139290   1.337   0.576   9.038 -2.4684  1.4950 -1.4928
 9218SOL    HW239291   1.290   0.704   9.048  0.3250  0.5846 -0.5415
 9219SOL     OW39292   4.589   0.981   8.531  0.0131 -0.5775  0.1285
 9219SOL    HW139293   4.678   1.008   8.509  0.5042 -0.2012  2.6287
 9219SOL    HW239294   4.541   1.059   8.504 -0.3731 -1.4886 -1.7927
 9220SOL     OW39295   0.934   3.072   4.550 -0.9142 -0.0579  0.2125
 9220SOL    HW139296   0.925   3.013   4.625 -0.1175  1.5910  1.6096
 9220SOL    HW239297   0.843   3.099   4.538 -0.7826  0.5799  0.6923
 9221SOL     OW39298   2.884   0.774   2.573 -0.3517 -0.1784  0.4137
 9221SOL    HW139299   2.924   0.699   2.616 -1.4556 -0.7918  0.3800
 9221SOL    HW239300   2.921   0.846   2.623 -1.0494  0.2350  0.3379
 9222SOL     OW39301   4.486   2.258   2.912  0.0185 -0.5956  0.0711
 9222SOL    HW139302   4.521   2.227   2.996 -1.6208  2.2983  1.8251
 9222SOL    HW239303   4.515   2.349   2.908 -1.4470 -0.1951 -1.6025
 9223SOL     OW39304   2.127   1.520   3.868 -0.5704  0.1818 -0.3289
 9223SOL    HW139305   2.094   1.444   3.821 -2.5341  1.0950 -0.4378
 9223SOL    HW239306   2.080   1.594   3.830  1.5239  2.0317  0.5987
 9224SOL     OW39307   3.117   4.385   6.405 -0.0320 -0.4307  0.2156
 9224SOL    HW139308   3.128   4.463   6.460  2.1801 -1.3865  1.1210
 9224SOL    HW239309   3.205   4.347   6.404  0.8321  1.5437  1.9761
 9225SOL     OW39310   4.355   3.886  13.946 -0.0667 -0.0864  0.3147
 9225SOL    HW139311   4.352   3.951  14.016  0.3639  0.5111 -0.2290
 9225SOL    HW239312   4.440   3.877  13.904  0.3877  2.5514  0.6759
 9226SOL     OW39313   1.905   3.044   6.221 -0.1572 -0.4934  0.0649
 9226SOL    HW139314   1.990   3.044   6.264  1.3480 -0.4937 -2.9009
 9226SOL    HW239315   1.880   3.137   6.223 -1.9735 -0.9949  0.5432
 9227SOL     OW39316   1.998   2.099  10.570  0.6909  0.4053 -0.4574
 9227SOL    HW139317   1.961   2.038  10.634 -2.9067  1.9359 -1.0714
 9227SOL    HW239318   1.958   2.181  10.600 -1.0857 -0.4502 -0.5145
 9228SOL     OW39319   2.634   0.297   3.250 -0.6748  0.3932 -0.0926
 9228SOL    HW139320   2.613   0.241   3.175 -2.3126 -0.4856  1.0406
 9228SOL    HW239321   2.588   0.380   3.243 -1.1762  0.2019  1.0544
 9229SOL     OW39322   2.979   0.412   6.408 -0.0455  0.3930  0.0694
 9229SOL    HW139323   2.917   0.397   6.336  0.7208 -0.3729 -0.4344
 9229SOL    HW239324   3.062   0.423   6.361  0.0116  1.5372  0.4517
 9230SOL     OW39325   4.252   2.192   2.333  0.1336  0.2583 -0.1562
 9230SOL    HW139326   4.167   2.163   2.298  0.4903 -0.7076 -0.2129
 9230SOL    HW239327   4.262   2.283   2.304  1.2819 -0.1879 -1.1532
 9231SOL     OW39328   1.584   4.426   7.811  0.9131 -0.4116 -0.4333
 9231SOL    HW139329   1.508   4.471   7.848  0.6749 -0.3494 -0.9930
 9231SOL    HW239330   1.543   4.340   7.795 -2.3062  1.0553 -0.1270
 9232SOL     OW39331   2.321   2.887  14.050  0.2349  0.0170  0.1049
 9232SOL    HW139332   2.377   2.938  14.109  0.9235 -2.4884  1.6244
 9232SOL    HW239333   2.240   2.937  14.062 -1.2209 -1.9126 -1.7728
 9233SOL     OW39334   0.135   0.730   5.839 -0.3828 -0.3076 -0.0172
 9233SOL    HW139335   0.041   0.731   5.855 -0.5053 -0.7665 -0.7541
 9233SOL    HW239336   0.143   0.782   5.759 -1.1373  1.7075  1.2193
 9234SOL     OW39337   2.609   1.682   7.756 -0.0296 -0.1366  0.5254
 9234SOL    HW139338   2.679   1.651   7.699 -0.2895 -1.6438  1.0237
 9234SOL    HW239339   2.601   1.601   7.807 -1.3645 -0.3265  0.0141
 9235SOL     OW39340   3.345   0.756  12.747  0.4584 -0.2771 -0.0598
 9235SOL    HW139341   3.336   0.793  12.834 -0.4141 -0.7927  0.0738
 9235SOL    HW239342   3.422   0.705  12.775 -0.0052 -0.7039  0.4467
 9236SOL     OW39343   1.754   3.409  15.585  0.0225 -0.5230 -0.2817
 9236SOL    HW139344   1.710   3.427  15.502 -2.0457 -1.3567  0.6118
 9236SOL    HW239345   1.697   3.340  15.621 -1.8336  1.1845  0.0603
 9237SOL     OW39346   0.907   4.333   0.187  0.9222 -0.2696 -0.2087
 9237SOL    HW139347   0.846   4.399   0.156  0.8366 -1.5266 -2.7543
 9237SOL    HW239348   0.935   4.362   0.274 -1.7707  4.5952 -0.9857
 9238SOL     OW39349   2.965   0.858  11.581  0.4526 -0.4916 -0.6521
 9238SOL    HW139350   2.979   0.886  11.671  0.8355  1.7793 -1.3960
 9238SOL    HW239351   3.019   0.779  11.572 -1.3095 -1.5596 -1.8334
 9239SOL     OW39352   1.172   1.161   1.007  0.0865  0.7147 -0.3365
 9239SOL    HW139353   1.204   1.147   0.918  2.7389 -1.5481  0.9721
 9239SOL    HW239354   1.088   1.115   1.011 -0.0015  1.0630  2.0799
 9240SOL     OW39355   3.075   0.964   3.661 -0.0787 -0.0040  0.2939
 9240SOL    HW139356   3.167   0.989   3.667  0.2908 -1.2040 -0.3863
 9240SOL    HW239357   3.056   0.933   3.749  0.8404  1.0853  0.8805
 9241SOL     OW39358   2.865   2.079   3.238  0.2616 -0.1671  0.3311
 9241SOL    HW139359   2.853   1.985   3.251  2.4419 -0.0566  3.3156
 9241SOL    HW239360   2.908   2.110   3.318  1.9967  0.2525 -0.7497
 9242SOL     OW39361   2.272   0.814   4.198  0.1812  0.5211 -0.0781
 9242SOL    HW139362   2.261   0.763   4.117  1.4248  1.4246 -0.8141
 9242SOL    HW239363   2.312   0.894   4.164 -0.1653  0.1705 -1.3050
 9243SOL     OW39364   4.673   0.382   3.975 -0.3179 -0.0624 -0.3145
 9243SOL    HW139365   4.637   0.423   3.897 -1.1200  1.5232  0.8715
 9243SOL    HW239366   4.598   0.334   4.010  0.2413 -0.1561  0.7861
 9244SOL     OW39367   1.989   2.157   4.248  0.1074 -0.1363 -0.1150
 9244SOL    HW139368   2.012   2.143   4.157  2.4500  0.7211  0.3557
 9244SOL    HW239369   1.966   2.249   4.235 -2.3666 -0.6127  0.8521
 9245SOL     OW39370   2.310   1.367  10.388  0.2839 -0.4100  0.0347
 9245SOL    HW139371   2.273   1.302  10.447  0.8803  1.3963  2.3808
 9245SOL    HW239372   2.376   1.399  10.449  0.6963 -1.6530  0.2385
 9246SOL     OW39373   3.638   2.343   4.731 -0.1939  0.2524  0.5422
 9246SOL    HW139374   3.601   2.432   4.727 -0.1936  0.2244 -0.1201
 9246SOL    HW239375   3.728   2.376   4.723  0.4585 -1.6718 -0.0186
 9247SOL     OW39376   1.883   2.662  15.346  0.0192 -0.6915  0.1070
 9247SOL    HW139377   1.881   2.696  15.435  0.7685 -1.1400  0.2956
 9247SOL    HW239378   1.855   2.571  15.357 -0.0252 -0.7756 -0.6820
 9248SOL     OW39379   0.107   0.489   5.418 -0.4190 -0.1816 -0.4575
 9248SOL    HW139380   0.060   0.451   5.343 -1.3842 -1.0880  0.6084
 9248SOL    HW239381   0.031   0.506   5.474  0.8839  0.7400  1.0361
 9249SOL     OW39382   4.504   2.486   2.669 -0.3816  0.1421 -0.0999
 9249SOL    HW139383   4.489   2.392   2.680  2.2773 -0.1095  1.3344
 9249SOL    HW239384   4.483   2.500   2.577  1.8419 -0.8490 -0.7450
 9250SOL     OW39385   2.805   3.890   4.243 -0.5859 -0.0189 -0.8410
 9250SOL    HW139386   2.780   3.980   4.223  1.5355  1.2887  2.4048
 9250SOL    HW239387   2.888   3.888   4.196  1.2556 -3.0877  2.5319
 9251SOL     OW39388   0.578   0.198  11.674  0.4230  0.4562  0.2330
 9251SOL    HW139389   0.564   0.291  11.689  2.5559  0.3646  2.9172
 9251SOL    HW239390   0.526   0.190  11.594  2.1455 -0.7043 -0.7727
 9252SOL     OW39391   3.047   3.194  13.434  0.6284 -0.4646  0.3758
 9252SOL    HW139392   3.085   3.115  13.398  1.7133  0.4195 -0.4134
 9252SOL    HW239393   3.090   3.257  13.377  1.0847 -1.5218 -0.4356
 9253SOL     OW39394   4.371   3.882   4.747 -0.2957 -0.4067 -0.2634
 9253SOL    HW139395   4.415   3.939   4.684 -0.5895 -1.2152 -1.1972
 9253SOL    HW239396   4.289   3.926   4.768 -0.1965 -0.7594  0.8693
 9254SOL     OW39397   2.448   0.786   2.179  0.2870  0.5382  0.0154
 9254SOL    HW139398   2.540   0.791   2.154  0.5218  0.3576  0.8507
 9254SOL    HW239399   2.422   0.878   2.187 -1.3786 -0.1545  2.4224
 9255SOL     OW39400   1.478   3.850  11.901  0.9274  0.4200  0.3264
 9255SOL    HW139401   1.431   3.848  11.984  0.9558  1.6356  0.3643
 9255SOL    HW239402   1.566   3.880  11.921  0.7074  1.1143  0.2302
 9256SOL     OW39403   1.074   0.603   4.291 -0.3667  0.0484 -0.0772
 9256SOL    HW139404   0.981   0.622   4.280 -0.5064  1.4570  3.2636
 9256SOL    HW239405   1.074   0.526   4.347  1.4537  0.8736  1.0710
 9257SOL     OW39406   0.685   1.456   8.670 -0.2717  0.0763  0.0552
 9257SOL    HW139407   0.635   1.520   8.619 -0.8147 -1.3065 -1.1327
 9257SOL    HW239408   0.692   1.390   8.601 -1.1205  1.5540 -1.4592
 9258SOL     OW39409   4.059   1.457   6.262 -0.3773 -0.6179 -0.1849
 9258SOL    HW139410   4.067   1.513   6.185  1.0822  0.5253  0.7886
 9258SOL    HW239411   3.975   1.480   6.302 -0.3747  0.3268 -0.7210
 9259SOL     OW39412   4.247   0.979  14.261  0.0438 -0.1856 -0.3472
 9259SOL    HW139413   4.274   1.067  14.234 -2.7330  0.4738 -0.9563
 9259SOL    HW239414   4.159   0.979  14.223  0.0402 -2.1881 -0.3320
 9260SOL     OW39415   0.222   4.607   3.353  0.1960  0.2113 -0.0508
 9260SOL    HW139416   0.270   4.556   3.418  0.9214  0.8531 -0.0886
 9260SOL    HW239417   0.129   4.588   3.367  0.2831  0.6203  1.0773
 9261SOL     OW39418   1.537   3.066   5.248  0.4045  0.4731  0.4405
 9261SOL    HW139419   1.622   3.042   5.285  1.0191  2.5171  0.3683
 9261SOL    HW239420   1.507   3.141   5.300 -3.3716 -1.3326  0.8367
 9262SOL     OW39421   3.181   3.774   8.571  1.1010  0.4780 -0.2185
 9262SOL    HW139422   3.243   3.708   8.539  0.3595 -0.5052  0.3838
 9262SOL    HW239423   3.108   3.765   8.511 -0.1317 -0.6513  1.4550
 9263SOL     OW39424   0.018   0.397   5.184 -0.1483  0.0186  0.1467
 9263SOL    HW139425   0.034   0.472   5.127 -0.0095  1.2365  1.7946
 9263SOL    HW239426   4.724   0.333   5.121 -2.6095  0.6838  0.7920
 9264SOL     OW39427   1.231   0.360   8.445 -0.1645 -0.1936  0.2694
 9264SOL    HW139428   1.277   0.418   8.384  0.1106  0.3051  0.9506
 9264SOL    HW239429   1.281   0.358   8.526  2.1947 -3.1790 -1.2181
 9265SOL     OW39430   4.082   2.485  12.032  0.0891 -0.0115 -0.3580
 9265SOL    HW139431   4.149   2.417  12.044  0.4631  0.4703  0.3067
 9265SOL    HW239432   4.105   2.556  12.092  1.0425  0.7813 -1.6593
 9266SOL     OW39433   3.411   1.755   6.878  0.6329 -0.3016 -0.2407
 9266SOL    HW139434   3.434   1.680   6.822 -0.2621 -0.4397 -0.4296
 9266SOL    HW239435   3.349   1.716   6.939  1.8303 -0.1815  1.0365
 9267SOL     OW39436   2.159   2.197  16.133 -0.2447 -0.7670 -0.2584
 9267SOL    HW139437   2.092   2.208  16.066 -0.1085  2.1748  0.0835
 9267SOL    HW239438   2.225   2.256  16.097 -0.5677 -1.2029 -1.5571
 9268SOL     OW39439   3.208   3.448   3.634  0.4212 -0.4934  0.2810
 9268SOL    HW139440   3.151   3.511   3.590  0.1877 -0.1088  1.1245
 9268SOL    HW239441   3.262   3.418   3.561  0.2982 -2.3456  0.9561
 9269SOL     OW39442   3.288   4.276   4.893 -0.7964  0.0986  0.0627
 9269SOL    HW139443   3.282   4.357   4.843 -0.5941 -0.7830 -1.4031
 9269SOL    HW239444   3.382   4.255   4.893 -0.6577  0.7010 -2.0830
 9270SOL     OW39445   3.961   0.097   9.977 -0.0481  0.2856  0.0309
 9270SOL    HW139446   3.983   0.091   9.884  1.5152 -0.0370  0.4219
 9270SOL    HW239447   3.958   0.193   9.978 -1.3866  0.2411 -0.5693
 9271SOL     OW39448   4.183   1.586   9.259 -0.0734 -0.0998  0.0464
 9271SOL    HW139449   4.191   1.492   9.270  0.8370  0.0795  0.9671
 9271SOL    HW239450   4.098   1.606   9.298 -0.2677  0.7293 -0.7812
 9272SOL     OW39451   4.065   4.722   7.631 -0.4999 -0.7822  0.1856
 9272SOL    HW139452   4.120   4.673   7.691  1.2547  0.6936 -0.2162
 9272SOL    HW239453   4.029   0.060   7.674 -0.7616  0.1236 -1.6400
 9273SOL     OW39454   1.014   0.268   5.422  0.1148 -0.0419 -0.4153
 9273SOL    HW139455   0.931   0.236   5.388 -0.4321  2.7276 -1.6929
 9273SOL    HW239456   1.030   0.213   5.499  0.4081  2.6415  1.4191
 9274SOL     OW39457   4.103   2.673   9.941 -0.3065 -0.0791  0.0467
 9274SOL    HW139458   4.146   2.622  10.010  0.3382 -0.5679 -0.7119
 9274SOL    HW239459   4.021   2.625   9.934  0.0479 -0.2763 -3.0281
 9275SOL     OW39460   1.279   3.819   4.799 -0.4530 -0.6536  0.2859
 9275SOL    HW139461   1.350   3.759   4.824 -0.8469 -0.3246  2.2285
 9275SOL    HW239462   1.218   3.755   4.764 -0.1111  1.1026 -3.5160
 9276SOL     OW39463   4.049   3.608   3.909  0.0280  1.1754 -0.7529
 9276SOL    HW139464   3.965   3.649   3.930  0.5723  1.6267  0.5307
 9276SOL    HW239465   4.026   3.546   3.841  2.0908 -1.9812  1.4400
 9277SOL     OW39466   3.751   1.393   4.035 -0.2966 -0.0561  0.3297
 9277SOL    HW139467   3.727   1.446   4.111  1.1240  1.0475  0.0039
 9277SOL    HW239468   3.766   1.311   4.081 -0.3792  0.4210  1.2188
 9278SOL     OW39469   4.400   0.966   7.924 -0.2719 -0.3857 -0.1720
 9278SOL    HW139470   4.346   0.898   7.963 -1.8376  2.0609  1.9211
 9278SOL    HW239471   4.338   1.004   7.862 -0.6275 -0.0677  0.3754
 9279SOL     OW39472   2.626   0.723  17.307 -0.1900  0.8982  0.3801
 9279SOL    HW139473   2.694   0.778  17.269 -0.0436 -0.6872 -1.6520
 9279SOL    HW239474   2.617   0.762  17.394 -0.7885  2.6999 -0.4846
 9280SOL     OW39475   3.356   2.547  10.146 -0.2814  0.5167 -0.3308
 9280SOL    HW139476   3.384   2.562  10.236  1.0429 -2.5745 -0.2141
 9280SOL    HW239477   3.297   2.476  10.170 -2.3355  2.4678  0.3814
 9281SOL     OW39478   2.881   4.175  13.415  0.0897 -0.0518 -0.0212
 9281SOL    HW139479   2.866   4.090  13.374 -0.3080 -0.1661  0.3580
 9281SOL    HW239480   2.919   4.222  13.340 -2.9002  3.4730  0.6714
 9282SOL     OW39481   2.901   2.673  14.524  0.0623  0.0737 -0.5070
 9282SOL    HW139482   2.934   2.670  14.435  0.0788  2.7632 -0.5856
 9282SOL    HW239483   2.873   2.764  14.532 -2.9691 -0.8805 -0.3726
 9283SOL     OW39484   0.157   3.438   4.324 -0.2052  0.2170  0.0799
 9283SOL    HW139485   0.167   3.507   4.257  0.9009 -0.5235 -0.5287
 9283SOL    HW239486   0.073   3.401   4.297  1.4522 -2.5755 -1.2109
 9284SOL     OW39487   0.993   4.574   5.645 -0.4707 -0.2162  0.8863
 9284SOL    HW139488   0.952   4.487   5.641 -0.9146  0.0146  0.3625
 9284SOL    HW239489   1.076   4.547   5.606 -0.7675  1.8245 -1.1932
 9285SOL     OW39490   3.199   3.110   3.073 -0.1432 -0.1612 -0.4673
 9285SOL    HW139491   3.253   3.077   3.001  2.3567  2.1542  0.3550
 9285SOL    HW239492   3.267   3.114   3.139  1.7640 -0.6351 -2.4040
 9286SOL     OW39493   4.342   2.943   5.562  0.3610 -0.2398 -0.0329
 9286SOL    HW139494   4.288   2.968   5.637  0.9046  0.9439 -0.0429
 9286SOL    HW239495   4.429   2.935   5.602 -0.1628  1.2706  1.4199
 9287SOL     OW39496   1.241   1.119  14.319  0.4661  0.5450  0.8775
 9287SOL    HW139497   1.249   1.025  14.328  0.8894  0.6139  1.2179
 9287SOL    HW239498   1.271   1.140  14.230 -4.5843  1.0041 -0.6935
 9288SOL     OW39499   1.560   2.410   3.018  0.2402 -0.2704  0.4793
 9288SOL    HW139500   1.513   2.422   3.101  1.0547  0.2200  0.8707
 9288SOL    HW239501   1.628   2.356   3.058 -0.5646 -1.0822  0.7372
 9289SOL     OW39502   2.122   1.846   1.907  0.1770 -0.0969 -0.2207
 9289SOL    HW139503   2.041   1.896   1.909 -0.1936 -0.7468  0.5681
 9289SOL    HW239504   2.136   1.841   2.001  0.3771 -0.7517 -0.2828
 9290SOL     OW39505   3.713   1.636   2.459 -0.2543 -0.3399 -0.7993
 9290SOL    HW139506   3.640   1.668   2.512 -1.3329 -0.8799 -1.9719
 9290SOL    HW239507   3.683   1.675   2.378  1.3149 -0.6141 -1.5155
 9291SOL     OW39508   4.572   1.197  11.041  0.8896 -0.4376 -0.0764
 9291SOL    HW139509   4.496   1.245  11.075  1.5718  1.3329 -1.0532
 9291SOL    HW239510   4.558   1.119  11.095  1.1667 -1.0573 -0.8940
 9292SOL     OW39511   2.249   0.238   7.843 -0.5933 -0.2175 -0.9298
 9292SOL    HW139512   2.309   0.303   7.808  1.4019 -1.8136 -0.5105
 9292SOL    HW239513   2.304   0.209   7.917  0.6598 -0.9073 -2.1423
 9293SOL     OW39514   2.995   3.667   3.629  0.1015 -0.5921  0.3038
 9293SOL    HW139515   2.939   3.696   3.701  0.6255  1.9146 -0.2886
 9293SOL    HW239516   2.998   3.742   3.570 -0.3501 -0.6534  0.2063
 9294SOL     OW39517   4.670   4.450   8.975  0.1026  0.4259 -0.0549
 9294SOL    HW139518   0.001   4.509   9.002  2.2142 -2.2536  0.3280
 9294SOL    HW239519   4.603   4.513   8.947 -0.6502 -1.0196 -1.5225
 9295SOL     OW39520   1.045   3.178   3.158  0.1656 -0.0012  0.2166
 9295SOL    HW139521   0.982   3.142   3.221  0.5409  0.3597  0.7998
 9295SOL    HW239522   1.014   3.128   3.083 -0.1301 -2.6539  2.0815
 9296SOL     OW39523   1.496   3.975   7.925 -0.0934  0.2897 -0.0403
 9296SOL    HW139524   1.470   3.964   7.833 -0.6832  0.5838  0.0890
 9296SOL    HW239525   1.579   4.022   7.924  0.4347 -0.6129  1.5234
 9297SOL     OW39526   3.265   2.558   5.256 -0.1568  0.1689  0.1070
 9297SOL    HW139527   3.270   2.528   5.347  0.4574 -1.4167 -0.4316
 9297SOL    HW239528   3.178   2.595   5.248 -0.7055 -1.7947 -3.0950
 9298SOL     OW39529   4.579   3.945   6.345 -0.7376 -0.5952  0.1332
 9298SOL    HW139530   4.510   4.008   6.326 -0.5202 -0.4825 -0.2867
 9298SOL    HW239531   4.659   3.997   6.334 -0.8035 -0.4328  0.4354
 9299SOL     OW39532   4.142   0.493   6.030  0.2103  0.3396  0.5554
 9299SOL    HW139533   4.066   0.457   6.077 -0.9167 -0.2385 -1.7316
 9299SOL    HW239534   4.192   0.415   6.007 -1.7404 -0.6567 -0.3006
 9300SOL     OW39535   0.532   2.164   8.786 -0.1443 -0.2089 -0.1022
 9300SOL    HW139536   0.544   2.143   8.693  2.1226  1.9578 -0.2894
 9300SOL    HW239537   0.621   2.184   8.814 -1.0710  0.2496  2.4546
 9301SOL     OW39538   3.629   2.146   4.542  0.3162  0.1299 -0.0436
 9301SOL    HW139539   3.717   2.116   4.517  0.9235  0.2229  1.9929
 9301SOL    HW239540   3.651   2.214   4.606 -1.5417  0.9864 -0.3035
 9302SOL     OW39541   3.144   3.469  15.206 -0.3325  0.1786  0.1668
 9302SOL    HW139542   3.225   3.463  15.257 -0.7225  0.1345  0.7880
 9302SOL    HW239543   3.085   3.502  15.273 -0.5389  3.3907 -1.6160
 9303SOL     OW39544   2.671   4.387   7.350  0.4500 -0.3098  0.0507
 9303SOL    HW139545   2.737   4.320   7.332 -1.2339 -2.2049  0.8825
 9303SOL    HW239546   2.669   4.434   7.267  1.1213  0.5099  0.4966
 9304SOL     OW39547   0.660   0.073   8.655 -0.2407 -0.1226 -0.0766
 9304SOL    HW139548   0.638   4.738   8.711  1.6055 -1.2658 -0.8454
 9304SOL    HW239549   0.712   0.031   8.586  2.1814  1.1524  0.9568
 9305SOL     OW39550   4.054   1.123   4.619 -0.1648  0.0857  0.9675
 9305SOL    HW139551   4.049   1.182   4.694 -2.0053  0.4350  0.5763
 9305SOL    HW239552   3.978   1.153   4.570  0.7411  0.7935  0.0179
 9306SOL     OW39553   3.275   3.477   4.040 -0.1613 -0.3789  0.0921
 9306SOL    HW139554   3.330   3.447   4.113 -0.0076 -1.1951 -0.3539
 9306SOL    HW239555   3.328   3.550   4.008 -0.6307  0.1859  0.6019
 9307SOL     OW39556   2.335   0.748   9.015  0.3879 -0.7764  0.0460
 9307SOL    HW139557   2.302   0.810   9.081  2.8220  0.0260  0.5147
 9307SOL    HW239558   2.416   0.789   8.984 -0.9053  2.1032  0.4578
 9308SOL     OW39559   0.514   4.682   7.021 -0.6717  0.1459 -0.3740
 9308SOL    HW139560   0.490   0.005   7.090 -0.3564 -0.2787  0.1216
 9308SOL    HW239561   0.475   4.733   6.950  1.8170  1.7093 -0.6190
 9309SOL     OW39562   2.565   2.349   6.175 -0.0224  0.0732  0.4211
 9309SOL    HW139563   2.547   2.256   6.166 -1.5743  0.2516  1.7213
 9309SOL    HW239564   2.661   2.355   6.166  0.0957 -0.4529  1.2936
 9310SOL     OW39565   2.927   1.013  15.214  0.7693 -0.0391  0.1460
 9310SOL    HW139566   2.934   1.056  15.300 -1.0220  1.4933 -0.4683
 9310SOL    HW239567   2.894   0.928  15.244 -0.0210  0.1777 -0.1084
 9311SOL     OW39568   3.971   4.095   3.363 -0.3134 -0.5272 -0.3694
 9311SOL    HW139569   3.980   4.187   3.340 -1.4040 -0.5650 -0.9571
 9311SOL    HW239570   4.065   4.079   3.371  0.0718  0.9091 -2.1415
 9312SOL     OW39571   2.927   2.587   8.821 -0.1283  0.3568 -0.3458
 9312SOL    HW139572   2.914   2.659   8.883  0.8275  0.8701 -0.7380
 9312SOL    HW239573   3.008   2.550   8.857 -0.9230  0.8714  1.9742
 9313SOL     OW39574   4.402   0.065   0.988 -0.2295 -0.2346  0.4392
 9313SOL    HW139575   4.452   4.728   1.017  0.3481 -0.0860 -0.1378
 9313SOL    HW239576   4.309   0.058   1.006 -0.6181  0.1665 -1.3451
 9314SOL     OW39577   2.784   3.696   6.132 -0.2056  0.0902 -0.0427
 9314SOL    HW139578   2.847   3.626   6.147 -0.3224  0.0184  0.1157
 9314SOL    HW239579   2.833   3.766   6.090  0.8900 -0.4920  0.2805
 9315SOL     OW39580   3.327   0.569   5.696  0.5626 -0.2462 -0.1689
 9315SOL    HW139581   3.369   0.653   5.675  2.2513 -1.4586 -1.6430
 9315SOL    HW239582   3.287   0.580   5.782 -1.4069  1.4284 -1.3083
 9316SOL     OW39583   1.607   2.242  13.020  0.0073  0.1086  0.2498
 9316SOL    HW139584   1.670   2.307  13.053 -0.2562 -0.3937  1.7625
 9316SOL    HW239585   1.551   2.239  13.098 -1.5298  1.4244 -0.8233
 9317SOL     OW39586   2.476   4.375   8.177 -0.1019  0.1480 -0.2889
 9317SOL    HW139587   2.558   4.396   8.133  0.9010 -2.2994  0.3719
 9317SOL    HW239588   2.437   4.314   8.115 -0.1764 -0.4404  0.3289
 9318SOL     OW39589   0.273   3.495   3.776 -0.0717  0.2859 -0.3242
 9318SOL    HW139590   0.200   3.483   3.837 -0.4091  1.1077 -0.5752
 9318SOL    HW239591   0.316   3.410   3.784  0.3635  0.4777 -0.6420
 9319SOL     OW39592   4.659   0.199   7.649 -0.8429 -0.3825  0.1030
 9319SOL    HW139593   4.587   0.178   7.708 -1.2795 -1.6976 -0.9135
 9319SOL    HW239594   4.636   0.133   7.585 -1.2492  0.8604 -1.0292
 9320SOL     OW39595   1.525   0.703   2.027 -0.3394 -0.0279  0.7737
 9320SOL    HW139596   1.554   0.753   2.103 -0.1019 -0.1835  0.7841
 9320SOL    HW239597   1.480   0.763   1.967  0.5472 -0.9596 -0.8472
 9321SOL     OW39598   2.017   0.472   8.105 -0.0824 -0.2002 -0.0266
 9321SOL    HW139599   1.948   0.513   8.053  0.5634  0.6811 -0.1928
 9321SOL    HW239600   2.049   0.543   8.160 -0.5988  0.3837 -0.4883
 9322SOL     OW39601   2.148   2.882   4.778  0.1661  0.0967 -0.0624
 9322SOL    HW139602   2.211   2.880   4.706  0.5239 -0.3088  0.2591
 9322SOL    HW239603   2.076   2.929   4.736  2.4611  1.9461 -1.9251
 9323SOL     OW39604   0.030   4.108   0.216  0.0800 -0.3473  0.0807
 9323SOL    HW139605   0.111   4.148   0.186 -1.0414  2.5110  0.9194
 9323SOL    HW239606   4.737   4.196   0.233  2.0064  0.7277 -1.8174
 9324SOL     OW39607   1.901   3.543   6.362 -0.2717  0.0361 -0.1356
 9324SOL    HW139608   1.813   3.506   6.357  0.1156 -0.9367  0.2749
 9324SOL    HW239609   1.934   3.509   6.445  0.5630  2.3914  0.4998
 9325SOL     OW39610   0.968   0.269   7.654 -0.5025 -0.3815  0.1113
 9325SOL    HW139611   1.030   0.252   7.583 -1.4087  0.2390 -0.8216
 9325SOL    HW239612   1.016   0.241   7.732  0.8160 -0.6797 -0.8104
 9326SOL     OW39613   2.182   1.874   6.325 -0.1169  0.1484 -0.1419
 9326SOL    HW139614   2.118   1.816   6.366  0.4121 -0.1009  0.3276
 9326SOL    HW239615   2.234   1.887   6.404  2.2408 -0.1990 -1.6447
 9327SOL     OW39616   0.984   1.867   3.209 -0.4408  0.0216 -0.6278
 9327SOL    HW139617   0.890   1.852   3.218 -0.9303  2.8197 -1.0920
 9327SOL    HW239618   1.008   1.796   3.150 -2.0807 -0.0252 -1.2586
 9328SOL     OW39619   3.872   4.516   0.235 -0.2029  0.7527  0.5784
 9328SOL    HW139620   3.796   4.574   0.238 -1.5834 -1.1067  1.1864
 9328SOL    HW239621   3.905   4.522   0.145  0.3246 -0.0692  0.7168
 9329SOL     OW39622   0.919   2.783   3.114  0.3239 -0.0543  0.2438
 9329SOL    HW139623   0.923   2.718   3.184 -0.6691 -0.6661 -0.2686
 9329SOL    HW239624   0.889   2.737   3.036 -1.2617  1.4785 -0.0449
 9330SOL     OW39625   3.367   4.322   4.420  0.0807  0.2760 -0.0651
 9330SOL    HW139626   3.439   4.385   4.422 -1.4568  2.0983 -2.6218
 9330SOL    HW239627   3.315   4.361   4.490 -0.8015  0.3495 -0.7597
 9331SOL     OW39628   3.885   0.374   9.993 -0.1915 -0.2436  0.7246
 9331SOL    HW139629   3.952   0.427   9.949 -0.0852 -2.1214 -1.3506
 9331SOL    HW239630   3.901   0.411  10.079 -0.3197 -2.7332  1.7937
 9332SOL     OW39631   1.200   2.003   1.273  0.5115 -0.1329 -0.1796
 9332SOL    HW139632   1.143   2.043   1.339  2.3220  0.5335  0.9933
 9332SOL    HW239633   1.222   1.922   1.318  0.3207  0.0638  0.2716
 9333SOL     OW39634   0.949   1.625   7.202 -0.1742  0.1793  0.4519
 9333SOL    HW139635   1.012   1.554   7.195 -2.7140 -1.9912 -0.2771
 9333SOL    HW239636   0.951   1.657   7.111  0.4983  1.6770  0.9833
 9334SOL     OW39637   0.052   1.925   9.182  0.1393  0.2136 -0.6513
 9334SOL    HW139638   4.696   1.920   9.185  0.0606  1.0477 -1.9513
 9334SOL    HW239639   0.077   1.835   9.160  1.5115  0.5512 -0.4589
 9335SOL     OW39640   0.613   2.536   2.582 -0.6880 -0.6488  0.3932
 9335SOL    HW139641   0.560   2.468   2.541 -0.3871 -0.7200  0.1209
 9335SOL    HW239642   0.663   2.484   2.645 -1.3520 -0.4921  1.0419
 9336SOL     OW39643   2.926   1.901  11.813 -0.0436 -0.1976  0.3370
 9336SOL    HW139644   2.980   1.920  11.736 -0.6998 -1.9508 -0.5595
 9336SOL    HW239645   2.836   1.918  11.787  0.6453  0.8748 -1.3407
 9337SOL     OW39646   2.156   3.923   3.309  0.0182  0.0340  0.4507
 9337SOL    HW139647   2.226   3.865   3.341 -0.8193 -1.0000  0.4363
 9337SOL    HW239648   2.205   3.962   3.237 -0.6587 -0.9581 -0.5544
 9338SOL     OW39649   1.270   0.668   5.033 -0.5900  0.2194  0.0633
 9338SOL    HW139650   1.185   0.712   5.032 -1.5014 -1.4921  1.9983
 9338SOL    HW239651   1.308   0.675   4.945  2.2105  2.4565  1.4822
 9339SOL     OW39652   3.571   0.029   6.895  0.3650 -0.1226 -0.0937
 9339SOL    HW139653   3.615   4.684   6.904  0.7826  0.0471 -0.5677
 9339SOL    HW239654   3.490   0.022   6.843  0.6537 -0.1121 -0.5395
 9340SOL     OW39655   1.814   1.741   2.723  0.2915 -0.6304 -0.2678
 9340SOL    HW139656   1.751   1.672   2.701  0.3532 -1.2968  1.6973
 9340SOL    HW239657   1.847   1.722   2.810 -0.6401 -0.5679  0.0974
 9341SOL     OW39658   3.990   2.907  16.626 -0.2067 -0.2578  0.2134
 9341SOL    HW139659   4.017   2.948  16.544 -0.3074 -0.3345  0.1414
 9341SOL    HW239660   3.927   2.970  16.660  0.0248 -0.2347  0.6031
 9342SOL     OW39661   0.792   4.606   1.946  0.0879  0.7465  0.2060
 9342SOL    HW139662   0.863   4.655   1.988  1.3794 -0.6675 -0.3107
 9342SOL    HW239663   0.813   4.612   1.853 -3.2326  1.2692 -0.5145
 9343SOL     OW39664   1.590   1.251   9.632  0.7105 -0.1121 -0.1326
 9343SOL    HW139665   1.679   1.268   9.664  0.9174 -1.2226 -0.1152
 9343SOL    HW239666   1.536   1.294   9.698  2.5145  0.8206  0.7384
 9344SOL     OW39667   2.469   1.885   1.408 -0.3465  0.7866 -0.2866
 9344SOL    HW139668   2.440   1.844   1.490 -1.0703  0.2861 -0.7878
 9344SOL    HW239669   2.562   1.876   1.426 -0.7323 -0.8192  0.9744
 9345SOL     OW39670   2.700   3.115   8.592 -0.1841 -0.8070  0.0256
 9345SOL    HW139671   2.764   3.154   8.651 -0.0623  0.9559 -1.2974
 9345SOL    HW239672   2.687   3.028   8.629 -0.0446 -0.9231 -0.2019
 9346SOL     OW39673   3.155   0.818   8.464  0.4679  0.1876  0.1720
 9346SOL    HW139674   3.070   0.831   8.506  0.2397  0.5505 -0.3921
 9346SOL    HW239675   3.138   0.847   8.374 -1.2667 -0.5434  0.2677
 9347SOL     OW39676   2.789   2.951   5.418 -0.1445 -0.6025 -0.1672
 9347SOL    HW139677   2.861   3.002   5.381 -0.2850 -1.0162 -1.0028
 9347SOL    HW239678   2.722   2.958   5.349 -2.0901  0.4981  1.8163
 9348SOL     OW39679   4.080   2.057   9.326  0.2545 -0.0228 -0.4492
 9348SOL    HW139680   4.102   2.122   9.392  0.0480 -1.9111  1.4684
 9348SOL    HW239681   3.990   2.068   9.297 -0.1915 -1.6971  0.3306
 9349SOL     OW39682   1.620   3.625   7.162 -0.9125  0.6007 -0.5683
 9349SOL    HW139683   1.537   3.582   7.183 -0.5853  0.2506  0.0196
 9349SOL    HW239684   1.665   3.614   7.245  0.4947  3.1027 -1.0134
 9350SOL     OW39685   1.290   0.975   7.734  0.3000 -0.0711  0.4367
 9350SOL    HW139686   1.330   0.922   7.803  0.5066  0.4219  0.6963
 9350SOL    HW239687   1.353   0.938   7.672 -0.9385 -1.6459  0.1286
 9351SOL     OW39688   2.605   2.460   5.843 -0.1619 -0.0242 -0.0675
 9351SOL    HW139689   2.597   2.394   5.912  1.3996 -0.1934 -0.0423
 9351SOL    HW239690   2.700   2.468   5.843 -0.2893  1.7874 -2.4102
 9352SOL     OW39691   2.322   4.586   5.211 -0.2611 -0.0971 -0.7176
 9352SOL    HW139692   2.360   4.656   5.157  0.6491  0.6962  0.9438
 9352SOL    HW239693   2.305   4.624   5.297  2.5596 -1.0321  0.2621
 9353SOL     OW39694   2.935   2.040   1.752  0.4628 -0.0041  0.5854
 9353SOL    HW139695   2.843   2.040   1.726  0.8262 -1.7109 -0.6766
 9353SOL    HW239696   2.921   2.043   1.847  1.3355 -0.2292  0.7138
 9354SOL     OW39697   0.738   0.575  13.035 -0.3507 -0.0182  0.2457
 9354SOL    HW139698   0.809   0.577  12.971 -0.4847 -3.0023 -0.0063
 9354SOL    HW239699   0.662   0.588  12.979 -2.1535 -0.8629  2.5143
 9355SOL     OW39700   4.682   4.356   0.302  0.1510  0.2049 -0.5601
 9355SOL    HW139701   4.700   4.367   0.395  0.2296  0.2728 -0.5826
 9355SOL    HW239702   4.598   4.400   0.294 -1.2709 -2.4680 -0.1330
 9356SOL     OW39703   1.892   0.324   3.244  0.9688 -0.3549  0.2824
 9356SOL    HW139704   1.830   0.366   3.185  0.0975  0.2444  1.6237
 9356SOL    HW239705   1.973   0.369   3.217  1.0416 -0.9389 -0.4766
 9357SOL     OW39706   4.230   0.792   8.034  0.0515  0.6710  0.4894
 9357SOL    HW139707   4.148   0.747   8.015 -0.6709  1.8040  0.9725
 9357SOL    HW239708   4.221   0.808   8.128 -0.6286  1.8268  0.2270
 9358SOL     OW39709   4.158   3.631   8.390 -0.5781  0.3429  0.0652
 9358SOL    HW139710   4.115   3.593   8.467 -0.9371 -1.0042 -0.8027
 9358SOL    HW239711   4.135   3.722   8.410  0.1802  0.3698  0.8257
 9359SOL     OW39712   0.432   4.658   8.821  0.4285 -0.3224  0.1258
 9359SOL    HW139713   0.350   4.624   8.858 -0.2484 -0.0794 -1.1457
 9359SOL    HW239714   0.487   4.580   8.811  0.0528 -0.5290 -0.3202
 9360SOL     OW39715   3.297   4.014   9.527 -0.1179 -0.0326  0.0384
 9360SOL    HW139716   3.347   3.951   9.580 -0.1516 -2.1066 -2.3781
 9360SOL    HW239717   3.325   4.093   9.572  0.1650 -0.1510  0.0686
 9361SOL     OW39718   4.597   4.717   6.397 -0.0105 -0.0728  0.2218
 9361SOL    HW139719   4.649   4.668   6.460  0.0783 -1.1109 -0.6631
 9361SOL    HW239720   4.609   0.061   6.442  0.6556  0.9004 -1.7298
 9362SOL     OW39721   3.409   0.166  10.477  0.0796  0.3292  0.3340
 9362SOL    HW139722   3.341   0.160  10.410 -1.4726  1.1176  1.8603
 9362SOL    HW239723   3.462   0.233  10.433  0.8525 -0.3196  0.2567
 9363SOL     OW39724   3.895   3.598  15.176 -0.1699 -0.4619  0.0705
 9363SOL    HW139725   3.963   3.531  15.182  0.1029 -0.0841  1.2888
 9363SOL    HW239726   3.944   3.677  15.150 -1.4622  1.1780  2.5520
 9364SOL     OW39727   4.364   1.425   5.268  0.1102 -0.1974  0.1491
 9364SOL    HW139728   4.448   1.389   5.298  1.0499  0.7327 -1.3860
 9364SOL    HW239729   4.328   1.453   5.352 -2.0348  0.3332 -0.9572
 9365SOL     OW39730   0.970   0.496   3.849 -0.4220 -0.3613 -0.1646
 9365SOL    HW139731   1.012   0.418   3.885  0.5365  1.3676  2.4946
 9365SOL    HW239732   0.906   0.452   3.795  1.2464  0.8732 -3.1580
 9366SOL     OW39733   1.245   2.929   7.683 -0.1015 -0.2697  0.2728
 9366SOL    HW139734   1.162   2.903   7.645  0.1881  1.4581 -1.5334
 9366SOL    HW239735   1.226   2.929   7.777  0.6264  1.6840  0.4192
 9367SOL     OW39736   3.962   4.494   8.901  0.1193  0.1957 -0.6871
 9367SOL    HW139737   3.915   4.414   8.880 -0.9232  0.6735 -0.1341
 9367SOL    HW239738   4.048   4.455   8.919 -0.1250 -0.5108 -1.0421
 9368SOL     OW39739   1.553   1.850   7.836 -0.2069  0.1852 -0.1167
 9368SOL    HW139740   1.622   1.853   7.901 -1.1160 -2.4080  0.9742
 9368SOL    HW239741   1.484   1.903   7.877 -0.3520  1.8659 -2.5008
 9369SOL     OW39742   1.728   3.056   4.491  0.2921 -0.4769  0.0309
 9369SOL    HW139743   1.799   3.115   4.465 -0.2617 -0.9698 -2.6092
 9369SOL    HW239744   1.750   3.046   4.584 -1.4634 -2.1316  0.2617
 9370SOL     OW39745   1.565   0.324  12.002  0.4372 -0.0947 -0.7026
 9370SOL    HW139746   1.492   0.290  12.053 -0.9634 -0.7613 -3.1570
 9370SOL    HW239747   1.541   0.315  11.910 -1.0044 -0.4080 -0.2940
 9371SOL     OW39748   2.243   4.523   7.449  0.6101 -0.1520  0.2254
 9371SOL    HW139749   2.299   4.600   7.457 -0.4703  0.4530  2.1188
 9371SOL    HW239750   2.271   4.474   7.372 -1.4063 -0.5387 -0.2744
 9372SOL     OW39751   3.590   4.282   6.344  0.7745 -0.3656 -0.4774
 9372SOL    HW139752   3.500   4.267   6.371  0.4467 -1.8126 -2.3452
 9372SOL    HW239753   3.629   4.195   6.338  0.3519 -0.5587 -0.3436
 9373SOL     OW39754   3.845   4.021   6.460 -0.2558 -0.3607 -0.1777
 9373SOL    HW139755   3.866   4.002   6.552 -1.4501  0.3992  0.2551
 9373SOL    HW239756   3.899   3.956   6.417  1.7726  1.5866 -0.5787
 9374SOL     OW39757   2.135   3.439   6.259 -0.0030  0.7295  0.0284
 9374SOL    HW139758   2.060   3.493   6.281 -0.3778  0.4487 -0.5676
 9374SOL    HW239759   2.140   3.458   6.165 -1.1062  0.9887  0.0255
 9375SOL     OW39760   0.675   4.108  10.077  0.5424  0.2219 -0.2850
 9375SOL    HW139761   0.650   4.025  10.117  0.4458  0.3962  0.0191
 9375SOL    HW239762   0.591   4.131  10.036  0.1598 -3.2864 -1.4658
 9376SOL     OW39763   3.923   0.209   8.256 -0.6049  0.4453 -0.2447
 9376SOL    HW139764   3.893   0.215   8.347  0.3947 -2.0862  0.2434
 9376SOL    HW239765   3.921   0.114   8.240  0.2012  0.1320  1.4828
 9377SOL     OW39766   4.398   1.558   2.388  0.0719 -0.0430 -0.0304
 9377SOL    HW139767   4.481   1.603   2.370 -0.4647  1.5289  1.4502
 9377SOL    HW239768   4.330   1.623   2.376 -0.7764 -1.2319 -1.8007
 9378SOL     OW39769   3.523   1.043  17.224 -0.1503  0.3910  0.3315
 9378SOL    HW139770   3.439   1.074  17.258 -0.2901 -1.5592  1.7188
 9378SOL    HW239771   3.546   0.978  17.290  0.9457 -0.1343 -0.5584
 9379SOL     OW39772   4.418   0.204   3.012  0.5449  0.5917  0.2892
 9379SOL    HW139773   4.449   0.291   3.037 -0.7897  0.4540  2.4563
 9379SOL    HW239774   4.438   0.200   2.918 -0.6579  2.0504 -0.0339
 9380SOL     OW39775   4.581   3.587   6.913  0.5866 -0.4276 -0.2958
 9380SOL    HW139776   4.604   3.675   6.882  0.2329 -0.8301 -1.7124
 9380SOL    HW239777   4.660   3.535   6.901  0.7346  0.0870 -1.6280
 9381SOL     OW39778   3.556   1.404   3.803  0.1276  1.0410 -0.5214
 9381SOL    HW139779   3.517   1.491   3.814  0.9739  1.4147 -0.5452
 9381SOL    HW239780   3.619   1.398   3.874  2.1355  0.2885 -2.3740
 9382SOL     OW39781   4.437   1.929  17.080 -0.6723  0.0777  0.2120
 9382SOL    HW139782   4.522   1.905  17.042 -0.3272  1.7021 -0.0274
 9382SOL    HW239783   4.454   2.022  17.098  1.0575 -0.1259 -0.2955
 9383SOL     OW39784   1.035   3.360   6.402 -0.3088  0.0904  0.0184
 9383SOL    HW139785   0.977   3.355   6.327 -0.8587  2.0125  0.3151
 9383SOL    HW239786   0.983   3.422   6.453  0.0032 -0.8700  1.5234
 9384SOL     OW39787   0.882   1.877  11.796  0.3031  0.2342  0.7145
 9384SOL    HW139788   0.912   1.923  11.718  3.1163  0.4562  1.9340
 9384SOL    HW239789   0.877   1.941  11.867 -0.0674  1.3617 -0.3410
 9385SOL     OW39790   2.526   2.062   6.216  0.2843 -0.4694 -0.5291
 9385SOL    HW139791   2.476   2.003   6.160  0.0096 -0.5312 -0.2176
 9385SOL    HW239792   2.607   2.014   6.234 -0.9463 -2.7595 -1.0778
 9386SOL     OW39793   0.193   3.782   2.374  0.2125 -0.3244  0.0165
 9386SOL    HW139794   0.137   3.707   2.358  1.6369 -1.2239 -0.7667
 9386SOL    HW239795   0.278   3.739   2.363  0.7557  0.5513  0.7740
 9387SOL     OW39796   1.073   3.781   5.924 -0.2678 -0.2233 -0.1648
 9387SOL    HW139797   1.080   3.868   5.884 -1.3142  1.6156  3.7269
 9387SOL    HW239798   1.143   3.784   5.989 -1.3996  0.5950  1.0119
 9388SOL     OW39799   1.078   4.448   6.827 -0.2333  0.0954  0.2769
 9388SOL    HW139800   1.042   4.522   6.779 -1.9853 -0.2013  1.1393
 9388SOL    HW239801   1.149   4.415   6.772  0.8546  2.0520  0.4850
 9389SOL     OW39802   3.696   1.874   8.598  0.0095 -0.2110  0.1226
 9389SOL    HW139803   3.639   1.798   8.583 -0.0345 -0.6391  2.3335
 9389SOL    HW239804   3.777   1.833   8.569  0.2008  2.0932 -2.5547
 9390SOL     OW39805   2.530   1.323   8.233  0.2427  0.7176 -0.0139
 9390SOL    HW139806   2.482   1.321   8.150  0.2315 -0.5912  0.0254
 9390SOL    HW239807   2.469   1.267   8.281  1.1579 -0.8854 -0.7090
 9391SOL     OW39808   0.944   0.440   4.667  0.1177  0.6009  0.7902
 9391SOL    HW139809   0.923   0.360   4.716 -0.3125  0.4256  0.3273
 9391SOL    HW239810   0.985   0.398   4.592  2.2509  2.3085  1.0054
 9392SOL     OW39811   2.956   1.792   2.452  0.1174  0.7730 -0.5617
 9392SOL    HW139812   2.934   1.758   2.539 -1.6898 -1.3812 -1.8738
 9392SOL    HW239813   2.885   1.756   2.399 -0.9211  0.5629  0.9920
 9393SOL     OW39814   4.470   2.463   6.900 -0.2931  0.3495 -0.1653
 9393SOL    HW139815   4.443   2.550   6.871 -0.0582  0.9536  1.4331
 9393SOL    HW239816   4.552   2.479   6.946 -0.9408  2.1454  0.3784
 9394SOL     OW39817   1.093   0.729  16.003 -0.1251  0.1082 -0.0223
 9394SOL    HW139818   1.033   0.660  15.979 -0.1840  0.1704 -0.0540
 9394SOL    HW239819   1.065   0.746  16.093 -0.3659 -0.4438  0.0019
 9395SOL     OW39820   3.631   3.468   3.207  0.4527  0.5554  0.0612
 9395SOL    HW139821   3.546   3.443   3.244  0.2210  1.0993 -0.0960
 9395SOL    HW239822   3.648   3.407   3.135  0.0396 -0.4598  0.8353
 9396SOL     OW39823   0.775   2.828   1.960 -0.5371 -0.2946 -0.2088
 9396SOL    HW139824   0.752   2.788   1.875 -1.2339 -1.2377  0.4191
 9396SOL    HW239825   0.762   2.763   2.029 -0.1650 -1.5889 -1.3498
 9397SOL     OW39826   4.305   2.578   7.401  0.0536 -0.1909  0.3168
 9397SOL    HW139827   4.341   2.491   7.416 -0.2195 -0.0031  2.0386
 9397SOL    HW239828   4.221   2.573   7.445 -0.7363 -0.1609 -1.1865
 9398SOL     OW39829   3.784   4.727   6.585 -0.4944 -0.8015 -0.1693
 9398SOL    HW139830   3.696   4.697   6.561 -0.3825  0.2616 -1.9460
 9398SOL    HW239831   3.824   0.008   6.500 -1.7525 -1.6368 -0.9611
 9399SOL     OW39832   1.955   2.999  11.527 -0.2975  0.0987  0.2833
 9399SOL    HW139833   1.942   3.012  11.433 -1.1799  0.2730  0.4270
 9399SOL    HW239834   1.894   3.068  11.553 -0.2989  0.9787 -2.0292
 9400SOL     OW39835   3.815   4.703  12.803 -0.6587  0.4369  0.1545
 9400SOL    HW139836   3.809   4.688  12.708  3.0844 -1.5121  0.2034
 9400SOL    HW239837   3.910   4.695  12.801 -0.5734  1.3660  0.9765
 9401SOL     OW39838   3.342   4.103  12.079  0.0856  0.1498  0.0583
 9401SOL    HW139839   3.276   4.054  12.128 -0.4994  1.7223  0.8360
 9401SOL    HW239840   3.321   4.069  11.991 -0.4558 -0.9679  0.6143
 9402SOL     OW39841   4.425   1.456   4.773 -0.4249 -0.0742  0.4752
 9402SOL    HW139842   4.402   1.516   4.844 -2.2324  0.4306 -0.5419
 9402SOL    HW239843   4.428   1.379   4.830 -0.7579  1.2719  2.2998
 9403SOL     OW39844   4.280   1.529   3.650  0.6742  0.2722 -0.3134
 9403SOL    HW139845   4.350   1.593   3.643 -0.2544  1.0765 -2.3487
 9403SOL    HW239846   4.301   1.493   3.736  0.5418 -0.2780 -0.5119
 9404SOL     OW39847   1.666   1.970   4.346 -0.2936  0.1181 -0.0808
 9404SOL    HW139848   1.748   2.018   4.357  0.1746 -0.6120 -0.4503
 9404SOL    HW239849   1.699   1.920   4.272  2.7635  1.0288  0.6748
 9405SOL     OW39850   0.593   1.065   3.436 -0.5422 -0.7391  0.0728
 9405SOL    HW139851   0.657   1.122   3.478 -2.4200  1.3105  0.1246
 9405SOL    HW239852   0.552   1.121   3.370 -2.1430 -0.3873  1.3607
 9406SOL     OW39853   4.184   0.948   6.378  0.0271 -0.4584 -0.2094
 9406SOL    HW139854   4.114   0.893   6.343 -0.9516  0.7621 -0.1632
 9406SOL    HW239855   4.147   1.036   6.376 -0.6254 -0.7215  0.2783
 9407SOL     OW39856   0.036   3.439   9.083  0.5369  0.1491  0.6390
 9407SOL    HW139857   0.086   3.518   9.102 -1.6529  1.7765 -0.3333
 9407SOL    HW239858   0.090   3.379   9.135  0.2484 -0.9506 -0.3130
 9408SOL     OW39859   2.303   0.781  13.436 -0.0214  0.0717  0.0661
 9408SOL    HW139860   2.366   0.767  13.506  0.8711  2.5022 -0.2583
 9408SOL    HW239861   2.282   0.690  13.415  2.7944 -0.7465  0.8650
 9409SOL     OW39862   3.396   4.362   9.439  0.2537 -0.6260 -0.1094
 9409SOL    HW139863   3.393   4.289   9.501 -1.3056  0.3186  0.9331
 9409SOL    HW239864   3.320   4.414   9.463  0.3062  0.3248 -1.9622
 9410SOL     OW39865   0.785   0.321  12.361 -0.0384  0.0674  0.7875
 9410SOL    HW139866   0.722   0.282  12.301  2.7670 -2.3633 -0.5721
 9410SOL    HW239867   0.774   0.264  12.438 -0.3172  0.3483  0.9543
 9411SOL     OW39868   2.784   1.037   2.756  0.7006 -0.1061  0.2836
 9411SOL    HW139869   2.748   1.121   2.784 -1.3586 -0.7728 -0.3592
 9411SOL    HW239870   2.726   0.986   2.812  0.5062 -1.3566 -1.0757
 9412SOL     OW39871   2.442   2.420  12.853  0.1660 -0.0080 -0.1125
 9412SOL    HW139872   2.490   2.502  12.842  0.5472 -0.2946 -0.5533
 9412SOL    HW239873   2.371   2.438  12.790  0.3508 -1.0603 -0.6234
 9413SOL     OW39874   1.146   2.615   3.307  0.4772  0.2045 -0.5411
 9413SOL    HW139875   1.213   2.667   3.350  1.3233  0.9392 -2.7562
 9413SOL    HW239876   1.071   2.648   3.355  0.9668 -0.2730  0.5484
 9414SOL     OW39877   3.298   1.136  15.128  0.0561 -0.1616 -0.4235
 9414SOL    HW139878   3.340   1.105  15.048 -0.1043  1.7155 -1.2309
 9414SOL    HW239879   3.328   1.068  15.188  1.2287  0.5820 -0.1556
 9415SOL     OW39880   3.514   1.096   6.885  0.6315  0.0691 -0.6049
 9415SOL    HW139881   3.540   1.050   6.805 -1.1269 -1.6643 -0.1889
 9415SOL    HW239882   3.571   1.045   6.942 -0.1133 -1.3111 -1.0931
 9416SOL     OW39883   2.756   1.901   6.257 -0.4375 -0.1387  0.2065
 9416SOL    HW139884   2.733   1.813   6.288  3.3107 -0.8551  0.8877
 9416SOL    HW239885   2.811   1.875   6.183 -1.3309  2.0622 -1.2320
 9417SOL     OW39886   3.033   2.847  16.656  0.6720  0.1018 -0.1635
 9417SOL    HW139887   3.085   2.815  16.583  0.4385  0.1367 -0.3468
 9417SOL    HW239888   3.017   2.937  16.627 -2.8403  0.0490  1.6053
 9418SOL     OW39889   2.932   1.398   6.155 -0.3941 -0.0220 -0.8097
 9418SOL    HW139890   2.856   1.455   6.156  0.6391  1.3100  1.6439
 9418SOL    HW239891   2.970   1.437   6.076  2.6571  1.4357  1.3656
 9419SOL     OW39892   3.685   1.888  13.058 -0.0637 -0.0611  0.2856
 9419SOL    HW139893   3.780   1.883  13.054 -0.1632 -1.1084 -1.0687
 9419SOL    HW239894   3.656   1.871  12.968  1.5505 -1.2685  0.0012
 9420SOL     OW39895   1.521   3.501   2.323  0.2166 -0.1593 -0.3131
 9420SOL    HW139896   1.456   3.436   2.348 -2.0353  2.0815 -0.2809
 9420SOL    HW239897   1.475   3.558   2.261  0.9931 -1.2851 -1.9105
 9421SOL     OW39898   2.407   2.465   6.814  0.1254 -0.0708 -0.1208
 9421SOL    HW139899   2.391   2.511   6.896 -0.1399  0.2457 -0.3507
 9421SOL    HW239900   2.333   2.494   6.761  1.0969 -0.5522 -1.7401
 9422SOL     OW39901   0.230   2.446   2.343 -0.2159 -0.8538  0.1664
 9422SOL    HW139902   0.136   2.427   2.334 -0.5549  0.8246  0.1039
 9422SOL    HW239903   0.227   2.505   2.419 -1.2946  0.9658 -1.2802
 9423SOL     OW39904   1.379   1.840  17.054  0.3065 -0.3787 -0.1105
 9423SOL    HW139905   1.391   1.747  17.071 -0.7067 -0.3464  0.7633
 9423SOL    HW239906   1.392   1.880  17.140  1.1907 -0.5346 -0.1627
 9424SOL     OW39907   0.634   0.113   7.994 -0.8377 -0.0919 -0.1335
 9424SOL    HW139908   0.620   0.057   7.917  0.3163 -0.2779 -0.2071
 9424SOL    HW239909   0.704   0.076   8.046 -0.5622  0.7046  0.0662
 9425SOL     OW39910   2.209   1.622   5.209 -0.1756  0.2645  0.0629
 9425SOL    HW139911   2.237   1.682   5.278 -0.8707  0.8610 -0.1776
 9425SOL    HW239912   2.252   1.539   5.229 -0.5435 -0.2336 -1.2206
 9426SOL     OW39913   3.575   3.044  12.596  0.6864 -0.0346  0.2860
 9426SOL    HW139914   3.649   3.054  12.536  2.0048 -0.6178  1.8002
 9426SOL    HW239915   3.506   3.027  12.532  2.6218 -1.3613 -1.4322
 9427SOL     OW39916   4.401   3.685   2.854 -0.1668  0.1382 -0.5162
 9427SOL    HW139917   4.424   3.680   2.947  2.7103  2.5148 -1.1119
 9427SOL    HW239918   4.374   3.596   2.831  0.2779 -0.3112  0.7025
 9428SOL     OW39919   0.108   2.843   8.993  0.1802 -0.2994 -0.2170
 9428SOL    HW139920   0.060   2.892   9.060 -1.2907  0.2636 -1.6892
 9428SOL    HW239921   0.128   2.762   9.039 -1.8420 -0.8975 -0.4276
 9429SOL     OW39922   1.608   0.560   4.694 -0.4712 -0.2023 -0.2252
 9429SOL    HW139923   1.544   0.571   4.624 -0.4940  0.2474 -0.1361
 9429SOL    HW239924   1.618   0.465   4.702  2.6624  0.0748 -0.9713
 9430SOL     OW39925   3.202   0.397   2.599 -0.0601 -0.0602  0.5295
 9430SOL    HW139926   3.256   0.329   2.559 -1.3952 -0.3818 -0.7353
 9430SOL    HW239927   3.238   0.482   2.573 -0.2273  0.1939  1.1248
 9431SOL     OW39928   1.025   1.623   6.710  0.0007 -0.1238 -0.6285
 9431SOL    HW139929   1.012   1.687   6.639  0.6777 -0.0859 -0.7157
 9431SOL    HW239930   0.968   1.550   6.688 -1.1443  0.0965  1.6235
 9432SOL     OW39931   4.379   3.363   6.154 -0.6127 -0.1315 -0.1443
 9432SOL    HW139932   4.310   3.336   6.093  1.5674 -3.4490 -1.1105
 9432SOL    HW239933   4.348   3.451   6.177 -1.0408 -0.0361 -1.0546
 9433SOL     OW39934   1.447   3.306   5.438 -0.1798  0.2845 -0.1142
 9433SOL    HW139935   1.374   3.246   5.454 -0.4387  1.1676  1.9896
 9433SOL    HW239936   1.400   3.388   5.423  1.0472  1.1074  0.6495
 9434SOL     OW39937   2.319   0.161   1.963 -0.5431 -0.3691 -0.4084
 9434SOL    HW139938   2.247   0.104   1.937  0.4560 -1.8536  0.1126
 9434SOL    HW239939   2.362   0.097   2.020  0.3386  1.2326  0.7257
 9435SOL     OW39940   0.376   0.909   3.407  0.1171 -0.2608 -0.0801
 9435SOL    HW139941   0.329   0.992   3.415  0.2738 -0.1710 -0.0904
 9435SOL    HW239942   0.456   0.957   3.383 -0.4657  0.3975 -0.6797
 9436SOL     OW39943   1.075   0.859  11.550  0.5418 -0.3958 -0.0325
 9436SOL    HW139944   1.152   0.802  11.548  0.4258 -0.5958  0.8409
 9436SOL    HW239945   1.120   0.941  11.528 -0.1020  0.0422  0.2762
 9437SOL     OW39946   0.940   0.321  10.813 -0.2402 -0.2914  0.1269
 9437SOL    HW139947   0.990   0.251  10.855 -1.7895 -0.9917  0.7732
 9437SOL    HW239948   0.961   0.402  10.859 -2.7617  0.5105 -0.1346
 9438SOL     OW39949   2.308   1.276   5.645 -0.0946 -0.4967  0.4626
 9438SOL    HW139950   2.356   1.358   5.662 -2.1348  0.6084  0.9305
 9438SOL    HW239951   2.230   1.286   5.699 -0.4341 -2.9141  0.4051
 9439SOL     OW39952   2.448   3.853   3.866 -0.0348  0.2113  0.2101
 9439SOL    HW139953   2.513   3.783   3.865 -1.0091 -0.6620 -1.5462
 9439SOL    HW239954   2.495   3.929   3.830 -1.6566  1.5915  1.0247
 9440SOL     OW39955   4.459   2.328  14.159 -0.2996  0.4250 -0.1926
 9440SOL    HW139956   4.517   2.365  14.093  0.9837 -0.9489  0.1746
 9440SOL    HW239957   4.391   2.396  14.159 -2.8898 -2.1856 -0.9393
 9441SOL     OW39958   3.787   2.604   4.172  0.2352 -0.1452 -0.5228
 9441SOL    HW139959   3.765   2.521   4.214  3.5219  0.2258  1.9928
 9441SOL    HW239960   3.703   2.642   4.148  0.4076  0.6497  0.1343
 9442SOL     OW39961   2.403   4.542   2.823  0.3681 -0.0806 -0.0101
 9442SOL    HW139962   2.342   4.616   2.824 -1.6120 -1.7490  3.3793
 9442SOL    HW239963   2.446   4.545   2.909  0.9584  2.2359 -0.3937
 9443SOL     OW39964   4.394   0.718   6.125 -0.4999  0.1651  0.2709
 9443SOL    HW139965   4.343   0.740   6.047  1.7118  1.4705 -0.8272
 9443SOL    HW239966   4.413   0.628   6.098 -2.2137 -0.5974  1.6232
 9444SOL     OW39967   1.637   0.121   1.739  0.0038  0.3016 -0.3444
 9444SOL    HW139968   1.722   0.079   1.723 -0.2634 -0.7138  0.9112
 9444SOL    HW239969   1.656   0.160   1.825 -1.8169 -0.4423  0.3968
 9445SOL     OW39970   2.678   0.198  11.357  0.7268 -0.0528  0.4513
 9445SOL    HW139971   2.666   0.118  11.305 -1.4202  0.6174 -0.0808
 9445SOL    HW239972   2.640   0.260  11.294 -1.0542 -0.2952  1.2835
 9446SOL     OW39973   2.691   0.918   8.124  0.0757  0.2229  0.0461
 9446SOL    HW139974   2.622   0.913   8.058  2.4975  1.4201 -2.5889
 9446SOL    HW239975   2.759   0.868   8.078 -0.5202 -0.4781 -0.0752
 9447SOL     OW39976   2.016   2.758  15.146 -0.1794 -0.1717  0.0396
 9447SOL    HW139977   1.937   2.807  15.120  1.3829  0.8440 -2.7738
 9447SOL    HW239978   1.980   2.704  15.217  1.1688  1.5971  2.0706
 9448SOL     OW39979   1.832   1.353  11.438  0.2191  0.1709  0.6160
 9448SOL    HW139980   1.778   1.303  11.499 -0.5247 -0.5396 -0.6206
 9448SOL    HW239981   1.858   1.423  11.498 -0.5992  1.0280 -0.0071
 9449SOL     OW39982   0.279   1.318   7.496  0.0856  0.1053  0.7466
 9449SOL    HW139983   0.316   1.390   7.548 -1.7158  1.0869  0.6526
 9449SOL    HW239984   0.254   1.246   7.553  1.7383 -1.7245 -0.8414
 9450SOL     OW39985   0.533   0.469   3.932 -0.9811 -0.0471 -0.1844
 9450SOL    HW139986   0.539   0.468   3.836 -2.8769  0.0320 -0.3102
 9450SOL    HW239987   0.482   0.389   3.942 -1.0204  0.1487  1.1997
 9451SOL     OW39988   2.258   1.819   5.389 -0.1401  0.1572 -0.3466
 9451SOL    HW139989   2.188   1.876   5.358  0.4112  1.0398  0.0227
 9451SOL    HW239990   2.225   1.807   5.479  0.7248 -2.9434 -0.4230
 9452SOL     OW39991   2.090   2.138  11.113  0.1238 -0.5490  0.0102
 9452SOL    HW139992   2.136   2.137  11.197 -1.6982  0.7492  1.0232
 9452SOL    HW239993   2.011   2.182  11.145  0.8732 -0.7143  2.0470
 9453SOL     OW39994   3.536   0.437   5.792  1.0799 -0.5353 -0.3033
 9453SOL    HW139995   3.463   0.469   5.739  1.7079  0.3481 -0.6262
 9453SOL    HW239996   3.550   0.502   5.861  1.9668 -0.9637 -0.0717
 9454SOL     OW39997   0.842   1.039   3.292 -0.1743  0.1649 -0.1903
 9454SOL    HW139998   0.750   1.055   3.275 -0.3471 -1.3317 -0.6443
 9454SOL    HW239999   0.860   1.113   3.350 -0.1401  0.3942 -0.4961
 9455SOL     OW40000   3.275   4.191  16.192  0.2389  0.2476  0.5155
 9455SOL    HW140001   3.310   4.231  16.113 -0.3091  1.4109  0.8522
 9455SOL    HW240002   3.204   4.140  16.152  1.3261  0.0571 -1.1453
 9456SOL     OW40003   1.911   3.445   3.555 -0.0462 -0.5225  0.0811
 9456SOL    HW140004   1.874   3.389   3.486 -0.4147  0.8622 -0.8482
 9456SOL    HW240005   1.896   3.389   3.631  0.4563 -1.4379 -0.5007
 9457SOL     OW40006   0.110   0.957   1.496 -0.4728 -0.0804  0.9592
 9457SOL    HW140007   0.174   1.026   1.483 -2.2172  1.5912  1.2199
 9457SOL    HW240008   0.052   0.984   1.426 -0.2723 -0.8021  0.5123
 9458SOL     OW40009   2.614   4.178   5.108  0.2655 -0.0684 -0.3189
 9458SOL    HW140010   2.603   4.083   5.100  1.4436 -0.3041  0.8112
 9458SOL    HW240011   2.647   4.206   5.023  1.3425 -1.2354 -0.2911
 9459SOL     OW40012   2.817   2.471   8.127  0.2302 -0.3279 -0.0519
 9459SOL    HW140013   2.800   2.518   8.046 -0.7459 -1.7360 -0.6736
 9459SOL    HW240014   2.790   2.383   8.099 -1.0596 -0.1051  0.4766
 9460SOL     OW40015   2.156   1.789   2.518  0.2072  0.4984 -0.1500
 9460SOL    HW140016   2.131   1.700   2.541  2.5731 -0.0855  0.2411
 9460SOL    HW240017   2.246   1.774   2.488 -0.2531 -1.3339 -0.5786
 9461SOL     OW40018   1.844   4.352   3.582  0.4165 -0.3868  0.2666
 9461SOL    HW140019   1.835   4.266   3.622  1.1366 -0.6282 -0.0869
 9461SOL    HW240020   1.929   4.340   3.540  1.3268  3.0175  1.0801
 9462SOL     OW40021   3.277   1.598   7.052  0.2208 -0.2828 -0.1804
 9462SOL    HW140022   3.293   1.508   7.079 -1.9120 -0.9128 -1.0361
 9462SOL    HW240023   3.187   1.587   7.022  0.9465  0.6178 -2.7193
 9463SOL     OW40024   1.284   3.042   0.600 -0.3729  0.2740 -0.6991
 9463SOL    HW140025   1.235   2.961   0.587 -1.0569  0.4794  0.6169
 9463SOL    HW240026   1.249   3.091   0.526  1.2912 -0.4961 -1.9983
 9464SOL     OW40027   4.209   1.969   8.870  0.1835 -0.1067 -0.5951
 9464SOL    HW140028   4.233   1.877   8.880 -0.4170 -0.0157  1.7509
 9464SOL    HW240029   4.136   1.987   8.930 -1.7048 -0.7858 -2.6756
 9465SOL     OW40030   3.964   0.157   3.065 -0.0193 -0.4256  0.8210
 9465SOL    HW140031   3.883   0.204   3.047 -0.2193 -1.1496 -0.1986
 9465SOL    HW240032   4.008   0.205   3.135  1.8629 -1.2926  0.2428
 9466SOL     OW40033   4.260   2.556   3.814 -0.5107 -0.5465 -0.5480
 9466SOL    HW140034   4.165   2.570   3.811 -0.3767 -0.1360 -2.9681
 9466SOL    HW240035   4.277   2.503   3.736  0.1377  0.1106 -0.8565
 9467SOL     OW40036   2.743   1.370   6.605  0.3077 -0.7927  0.1657
 9467SOL    HW140037   2.689   1.314   6.549  0.3569  0.0892 -0.7617
 9467SOL    HW240038   2.821   1.366   6.550 -0.1255  2.5891 -0.6758
 9468SOL     OW40039   1.004   3.106   8.615 -0.4399  0.0628  0.7038
 9468SOL    HW140040   0.975   3.087   8.704 -2.2666 -0.9695 -0.1073
 9468SOL    HW240041   0.969   3.036   8.560  4.0070 -0.1187 -1.8919
 9469SOL     OW40042   2.077   0.213  12.422 -0.6814  0.1868  0.0045
 9469SOL    HW140043   2.019   0.198  12.348 -1.4148 -2.0582  1.0508
 9469SOL    HW240044   2.026   0.279  12.469  0.1648  1.0263 -0.2483
 9470SOL     OW40045   0.567   4.336   0.284 -0.2145  0.0947 -0.6558
 9470SOL    HW140046   0.645   4.296   0.322  0.7636  1.4275 -1.2484
 9470SOL    HW240047   0.502   4.267   0.297  0.9916 -0.5758  1.9427
 9471SOL     OW40048   2.969   0.468   8.385  0.5688  0.4967 -0.0105
 9471SOL    HW140049   3.056   0.506   8.394  0.6015  0.4085  0.0481
 9471SOL    HW240050   2.913   0.546   8.390 -0.6503 -0.4264  0.8246
 9472SOL     OW40051   4.173   0.107   4.187 -0.0764 -0.3181 -0.2528
 9472SOL    HW140052   4.080   0.089   4.174 -0.2129  0.1546  0.0727
 9472SOL    HW240053   4.166   0.189   4.237  0.3976  0.7385 -1.9106
 9473SOL     OW40054   2.585   2.071   3.299  0.0599 -0.0759 -0.4096
 9473SOL    HW140055   2.667   2.085   3.347  0.6900 -0.1365 -1.4781
 9473SOL    HW240056   2.527   2.031   3.364 -0.3877  1.7225  0.3208
 9474SOL     OW40057   0.740   0.218   5.325 -0.2339 -0.1611 -0.4451
 9474SOL    HW140058   0.704   0.305   5.341  1.6656  0.0113  3.0057
 9474SOL    HW240059   0.665   0.170   5.359  1.5735 -2.3999  0.3562
 9475SOL     OW40060   4.203   3.183  17.045 -0.3885  0.0742  0.1960
 9475SOL    HW140061   4.158   3.187  17.129 -3.4596 -2.8986 -1.3501
 9475SOL    HW240062   4.128   3.186  16.986  0.2869 -4.1806 -0.8843
 9476SOL     OW40063   2.502   2.677   3.610 -0.2650  0.5980 -0.1167
 9476SOL    HW140064   2.507   2.684   3.705  1.9098 -3.3308  0.1017
 9476SOL    HW240065   2.588   2.715   3.593 -0.0611  0.8077  1.3586
 9477SOL     OW40066   2.092   4.299   0.866 -0.6797 -0.1295  0.3521
 9477SOL    HW140067   2.180   4.268   0.845 -2.0308 -3.5611 -0.1840
 9477SOL    HW240068   2.037   4.248   0.806  1.2614 -0.9147 -0.7756
 9478SOL     OW40069   3.660   3.919   8.773 -0.0128 -0.3871  0.3055
 9478SOL    HW140070   3.570   3.885   8.776 -0.8911  1.8261 -1.3835
 9478SOL    HW240071   3.655   3.984   8.843  1.1754  1.0043 -0.9110
 9479SOL     OW40072   0.165   1.690   9.168  0.2613 -0.2626  0.0681
 9479SOL    HW140073   0.223   1.700   9.244 -0.7712  3.2784  0.3987
 9479SOL    HW240074   0.221   1.626   9.125 -0.8070 -1.7337  0.8763
 9480SOL     OW40075   0.551   3.829   6.092  0.0808  0.1348 -0.0251
 9480SOL    HW140076   0.608   3.801   6.020 -1.8380  1.1148 -1.9314
 9480SOL    HW240077   0.616   3.861   6.155  0.0180 -0.2668  0.2480
 9481SOL     OW40078   4.642   3.301   6.051 -0.2960  0.3208 -0.9205
 9481SOL    HW140079   4.564   3.333   6.097  1.1932  2.2758  0.2483
 9481SOL    HW240080   4.614   3.215   6.020 -1.2030  0.3614 -0.2325
 9482SOL     OW40081   4.687   4.644  10.374 -0.1761 -0.3562  0.7991
 9482SOL    HW140082   4.612   4.683  10.328  0.6192  0.5838  0.2867
 9482SOL    HW240083   0.018   4.708  10.364 -0.9337  0.3415 -0.1039
 9483SOL     OW40084   2.647   1.430   5.475  0.1569 -0.1654 -0.2534
 9483SOL    HW140085   2.665   1.507   5.529 -0.7327  0.6443 -1.1206
 9483SOL    HW240086   2.653   1.471   5.389  1.5659  0.6821  0.2447
 9484SOL     OW40087   2.833   0.574  10.982  0.2160 -0.0525  0.0077
 9484SOL    HW140088   2.738   0.580  10.975  0.0994 -1.3895  0.5509
 9484SOL    HW240089   2.846   0.483  11.009 -1.9400  0.0176  1.2893
 9485SOL     OW40090   3.607   1.613   0.530 -0.5838 -0.5811 -0.7206
 9485SOL    HW140091   3.660   1.650   0.600 -0.5480 -2.1102  0.0387
 9485SOL    HW240092   3.591   1.692   0.477 -0.5488  0.2990  0.5894
 9486SOL     OW40093   3.654   4.066   6.970 -0.4093  0.3678 -0.2561
 9486SOL    HW140094   3.646   4.082   7.064  2.1052 -1.8470  0.3066
 9486SOL    HW240095   3.639   3.972   6.967 -1.6934  0.6350 -2.2477
 9487SOL     OW40096   0.448   3.206   9.194 -0.1463 -0.2908  0.7605
 9487SOL    HW140097   0.497   3.132   9.231  0.4922 -0.8094 -1.1282
 9487SOL    HW240098   0.504   3.278   9.226 -2.0960  2.1410 -1.2639
 9488SOL     OW40099   0.561   0.015   3.562 -0.2508  0.2034  0.2098
 9488SOL    HW140100   0.596   4.694   3.627  1.3771  1.5026  0.5501
 9488SOL    HW240101   0.483   4.705   3.539  0.3727 -0.2688 -0.9040
 9489SOL     OW40102   1.307   2.495   8.705  0.8725 -0.2744  0.0676
 9489SOL    HW140103   1.278   2.451   8.785  0.8862 -0.0644  0.1867
 9489SOL    HW240104   1.252   2.468   8.632  0.3809 -0.6354  0.5674
 9490SOL     OW40105   3.713   0.600   8.673 -0.1194  0.2959 -0.4171
 9490SOL    HW140106   3.780   0.566   8.732  0.7245 -0.7102 -1.9386
 9490SOL    HW240107   3.655   0.525   8.670  0.2287 -0.0301  0.8374
 9491SOL     OW40108   3.219   0.447   2.049  0.1998  0.4161 -0.3770
 9491SOL    HW140109   3.141   0.481   2.004 -0.3280 -1.4231 -0.8482
 9491SOL    HW240110   3.239   0.519   2.108  1.3538  0.7495 -1.1754
 9492SOL     OW40111   0.168   4.371   7.348  0.0984 -0.4833  0.4636
 9492SOL    HW140112   0.235   4.428   7.310 -0.4441  0.0313  0.2880
 9492SOL    HW240113   0.162   4.387   7.442  2.4910 -0.4643  0.6202
 9493SOL     OW40114   3.029   1.150   8.361  0.1072 -0.1063 -0.0061
 9493SOL    HW140115   3.063   1.078   8.308 -2.1622 -1.5523  0.5156
 9493SOL    HW240116   2.956   1.184   8.309 -0.7229  0.1833  1.3576
 9494SOL     OW40117   4.493   2.130   7.174  0.1167 -0.3102  0.3974
 9494SOL    HW140118   4.505   2.088   7.089  0.1355  1.8979 -0.6771
 9494SOL    HW240119   4.397   2.122   7.173  0.2711 -2.1851 -0.7018
 9495SOL     OW40120   3.326   1.397   4.106 -0.3716  0.4743 -0.2251
 9495SOL    HW140121   3.332   1.460   4.177 -1.7555  0.4921 -0.1312
 9495SOL    HW240122   3.410   1.353   4.124 -0.2512  0.1628 -1.5542
 9496SOL     OW40123   0.429   2.082  13.498 -0.1036 -0.1589  0.1186
 9496SOL    HW140124   0.475   2.164  13.481  0.0629  0.1379  2.0249
 9496SOL    HW240125   0.436   2.035  13.414 -1.8613 -2.5229  1.2895
 9497SOL     OW40126   4.488   4.699   1.919 -0.4286 -0.3757  0.2062
 9497SOL    HW140127   4.414   0.017   1.900 -0.8138 -0.2455  2.1174
 9497SOL    HW240128   4.483   4.644   1.841 -1.4021 -0.0459  0.0261
 9498SOL     OW40129   1.208   1.191  14.579 -0.1796 -0.1704 -0.2646
 9498SOL    HW140130   1.222   1.113  14.633  0.6121 -0.1008 -0.3750
 9498SOL    HW240131   1.231   1.165  14.490 -1.8631 -1.4762 -0.3234
 9499SOL     OW40132   2.158   4.160   3.634  0.2453  0.0660  0.1789
 9499SOL    HW140133   2.076   4.161   3.684 -0.7470  1.7597 -1.4526
 9499SOL    HW240134   2.198   4.079   3.665  1.6006  0.1011 -1.4773
 9500SOL     OW40135   0.333   0.951   2.541  0.2910 -0.0609 -0.0921
 9500SOL    HW140136   0.240   0.959   2.563  0.3170  1.3367 -0.5114
 9500SOL    HW240137   0.327   0.935   2.447  0.7636  2.3810 -0.5160
 9501SOL     OW40138   0.569   4.604   3.013 -0.2962  0.0969 -0.4992
 9501SOL    HW140139   0.609   4.549   3.080  0.1756  0.3097 -0.6065
 9501SOL    HW240140   0.543   4.535   2.952  2.4013 -0.5336 -0.9253
 9502SOL     OW40141   0.668   3.892   9.076 -0.6132  0.4031 -0.4283
 9502SOL    HW140142   0.670   3.806   9.116 -0.4056  1.3013  1.4629
 9502SOL    HW240143   0.583   3.887   9.033 -1.3759  0.2566  1.1075
 9503SOL     OW40144   4.535   2.253  16.945 -0.1642  0.0486 -0.2319
 9503SOL    HW140145   4.541   2.334  16.894 -0.9261 -0.2073 -0.7335
 9503SOL    HW240146   4.609   2.200  16.914 -1.5227 -0.3645 -2.7781
 9504SOL     OW40147   3.384   4.703   3.245  0.5709  0.1834  0.4006
 9504SOL    HW140148   3.320   0.034   3.258  0.6551  0.4874 -0.8435
 9504SOL    HW240149   3.397   4.668   3.333 -2.5722 -0.2449  0.7061
 9505SOL     OW40150   1.532   3.202  13.569 -0.2553 -0.1682  0.5891
 9505SOL    HW140151   1.493   3.124  13.528  2.8583 -0.6480 -1.4768
 9505SOL    HW240152   1.479   3.269  13.527  1.3639 -0.1668 -1.4583
 9506SOL     OW40153   2.074   3.138   4.182  0.3200 -0.1210  0.2590
 9506SOL    HW140154   2.076   3.141   4.086 -0.6966  4.0122  0.3753
 9506SOL    HW240155   2.152   3.085   4.199  0.7532 -0.3145 -2.2521
 9507SOL     OW40156   0.870   2.132   2.418  0.7657 -0.1630 -0.1680
 9507SOL    HW140157   0.826   2.181   2.349 -2.3882 -2.4173  0.2532
 9507SOL    HW240158   0.936   2.192   2.455  0.0570 -0.6198  1.8419
 9508SOL     OW40159   1.010   2.236  17.291  0.2438  0.2389 -0.0331
 9508SOL    HW140160   1.031   2.252  17.199  2.3666 -0.4876  0.3076
 9508SOL    HW240161   0.941   2.173  17.269  0.9818 -1.0286  1.2800
 9509SOL     OW40162   0.784   3.825   8.574  0.1756 -0.2011  0.2128
 9509SOL    HW140163   0.739   3.902   8.608 -0.8084 -0.6916  0.0450
 9509SOL    HW240164   0.707   3.768   8.571  0.7752 -1.0649  1.2353
 9510SOL     OW40165   3.158   4.680   6.536  0.0838 -0.2529  0.5763
 9510SOL    HW140166   3.202   4.670   6.620  1.0345 -1.1447 -0.0209
 9510SOL    HW240167   3.116   0.025   6.553  0.2784 -0.3480  1.5064
 9511SOL     OW40168   2.764   1.459   0.353 -0.4377  0.4302 -0.4039
 9511SOL    HW140169   2.723   1.400   0.417 -1.0166  2.3657  1.0090
 9511SOL    HW240170   2.690   1.511   0.325 -0.3048 -0.9217 -3.2709
 9512SOL     OW40171   2.815   2.760  13.465 -0.2401 -0.2400  0.7001
 9512SOL    HW140172   2.790   2.672  13.492  1.7632 -0.9236  0.3063
 9512SOL    HW240173   2.735   2.806  13.492 -0.9532 -0.7386 -0.5238
 9513SOL     OW40174   1.777   2.389   5.550 -0.2076 -0.2380 -0.7236
 9513SOL    HW140175   1.762   2.460   5.486 -0.7632 -0.9996 -1.4384
 9513SOL    HW240176   1.868   2.374   5.527 -0.6677 -2.9067 -0.8249
 9514SOL     OW40177   0.472   2.440   7.799 -0.4517  0.2443  0.7762
 9514SOL    HW140178   0.533   2.469   7.731  0.5764 -0.3172  1.4586
 9514SOL    HW240179   0.532   2.402   7.863 -0.2319 -1.1522 -0.2729
 9515SOL     OW40180   3.130   0.116  16.529 -0.2005  0.0809  0.4543
 9515SOL    HW140181   3.076   0.195  16.525 -1.4213 -0.7635  0.3657
 9515SOL    HW240182   3.202   0.149  16.474 -0.2871 -1.3147 -0.4901
 9516SOL     OW40183   2.307   3.508   4.476  0.0265 -0.2581  0.1624
 9516SOL    HW140184   2.213   3.490   4.470 -0.0136 -0.9886  3.2782
 9516SOL    HW240185   2.324   3.571   4.405  0.9851  1.3070  1.7874
 9517SOL     OW40186   1.715   3.258  14.614  0.0108  0.1635  0.8979
 9517SOL    HW140187   1.636   3.225  14.656 -0.1442  0.9382  1.2146
 9517SOL    HW240188   1.750   3.175  14.582  1.3558  1.5644 -1.2671
 9518SOL     OW40189   4.052   0.553   7.945 -0.4332 -0.2233  0.0708
 9518SOL    HW140190   4.074   0.480   8.002 -1.7352  0.2875  1.2150
 9518SOL    HW240191   3.973   0.518   7.903  0.2180 -0.7138 -0.7632
 9519SOL     OW40192   4.457   0.189   8.843  0.0312  0.2336  0.3927
 9519SOL    HW140193   4.511   0.268   8.841  1.5134 -0.8195 -0.8111
 9519SOL    HW240194   4.520   0.123   8.814  1.6634  0.0840  4.1769
 9520SOL     OW40195   3.592   2.673   6.600 -0.1920 -0.1183  0.7443
 9520SOL    HW140196   3.523   2.694   6.663 -0.2791  0.5658  0.4232
 9520SOL    HW240197   3.548   2.599   6.558  0.8691  1.1107 -2.5321
 9521SOL     OW40198   1.960   1.272  10.985 -0.0020 -0.0467 -0.3130
 9521SOL    HW140199   1.924   1.221  11.058 -1.1096 -1.7017 -2.0067
 9521SOL    HW240200   2.033   1.215  10.961  1.2066  1.3319  0.1250
 9522SOL     OW40201   2.045   1.339   5.709 -0.5450  0.0918 -0.1174
 9522SOL    HW140202   2.022   1.431   5.725 -1.1941  0.1825 -1.5602
 9522SOL    HW240203   1.975   1.304   5.653 -0.3163 -2.5617  1.2431
 9523SOL     OW40204   2.285   2.539  16.955  0.2575 -0.4314 -0.1039
 9523SOL    HW140205   2.289   2.523  16.861 -0.5332  2.2240 -0.5841
 9523SOL    HW240206   2.361   2.491  16.990 -0.6019  1.4369  4.3262
 9524SOL     OW40207   3.077   2.617  14.706  0.6394 -0.0955  0.3621
 9524SOL    HW140208   3.021   2.629  14.629 -0.0797 -0.0679  0.8839
 9524SOL    HW240209   3.050   2.533  14.743 -0.1718 -0.7501 -1.7245
 9525SOL     OW40210   0.725   2.042  15.810 -0.0470 -0.1429 -0.0223
 9525SOL    HW140211   0.733   2.112  15.875  1.3017  1.0072 -1.4434
 9525SOL    HW240212   0.630   2.040  15.805  0.1025 -3.1292 -1.3345
 9526SOL     OW40213   2.136   4.525   4.084 -0.3786 -0.1598  0.2205
 9526SOL    HW140214   2.149   4.432   4.105 -1.2140  0.5797  4.0424
 9526SOL    HW240215   2.128   4.527   3.989  1.5788  1.5552  0.0808
 9527SOL     OW40216   2.714   2.885   8.062 -0.2917  0.2937 -0.4058
 9527SOL    HW140217   2.706   2.811   8.002 -0.6393  1.1485 -1.4251
 9527SOL    HW240218   2.764   2.851   8.136 -2.1965 -2.8197 -0.5585
 9528SOL     OW40219   0.419   4.487   5.272  0.0093  0.7668  0.1224
 9528SOL    HW140220   0.370   4.513   5.349 -2.1269 -2.2651 -0.2144
 9528SOL    HW240221   0.500   4.447   5.303  0.7855  1.6575 -0.7513
 9529SOL     OW40222   4.076   0.989  10.820 -0.4124  0.3617 -0.0115
 9529SOL    HW140223   4.109   1.046  10.750 -0.0388 -1.1370 -1.0511
 9529SOL    HW240224   4.001   0.946  10.778  0.9834 -0.5412 -1.5809
 9530SOL     OW40225   3.125   3.099   3.510  0.0305 -0.4157 -0.2508
 9530SOL    HW140226   3.138   3.006   3.529  3.6346 -0.0948 -1.1231
 9530SOL    HW240227   3.037   3.104   3.473 -0.1733 -0.2320  0.2666
 9531SOL     OW40228   1.023   2.138   3.218 -0.2368 -0.0599  0.3245
 9531SOL    HW140229   1.113   2.155   3.191 -0.1115 -0.6601  0.3494
 9531SOL    HW240230   1.026   2.045   3.193  0.4740  0.0404  0.0222
 9532SOL     OW40231   0.986   4.116   5.345  0.0915 -0.3712 -0.4710
 9532SOL    HW140232   0.924   4.152   5.281  1.4861 -0.0256 -1.6403
 9532SOL    HW240233   0.972   4.177   5.417 -0.6024 -1.0060 -0.0623
 9533SOL     OW40234   3.789   3.168  14.697  0.1061 -0.1947  0.2470
 9533SOL    HW140235   3.751   3.127  14.775 -1.8319  1.1392 -0.0049
 9533SOL    HW240236   3.756   3.250  14.732  2.3194  1.3000 -1.1682
 9534SOL     OW40237   1.433   3.106   4.972  0.0543 -0.0930 -0.0906
 9534SOL    HW140238   1.436   3.021   5.015 -0.2934  0.0883  0.2963
 9534SOL    HW240239   1.435   3.163   5.049  2.4366  0.4506 -0.5661
 9535SOL     OW40240   1.231   2.016   4.955  0.1319 -0.0092  0.2264
 9535SOL    HW140241   1.289   1.960   4.903 -0.5663  1.3841 -2.0950
 9535SOL    HW240242   1.246   2.101   4.912  0.3889  0.5797  1.4794
 9536SOL     OW40243   4.557   0.071   6.916 -0.0995  0.0493  0.6205
 9536SOL    HW140244   4.482   0.070   6.975  0.2637 -3.0733  1.0022
 9536SOL    HW240245   4.520   0.043   6.833 -0.3193  0.1079  0.7008
 9537SOL     OW40246   1.933   2.427   4.213 -0.5154  0.1935 -0.8780
 9537SOL    HW140247   1.961   2.519   4.221  0.0344  0.0097 -0.6780
 9537SOL    HW240248   1.838   2.434   4.219 -0.4419 -1.1778  1.7462
 9538SOL     OW40249   1.926   4.715   3.311  0.1933  0.0457 -0.0720
 9538SOL    HW140250   1.953   0.044   3.249  2.8753 -1.3804 -0.4422
 9538SOL    HW240251   1.878   0.033   3.371  0.7847 -1.4294  1.7966
 9539SOL     OW40252   3.237   2.719   4.613 -0.0214 -0.5371  0.5977
 9539SOL    HW140253   3.170   2.751   4.552  1.4097 -1.2968 -1.3603
 9539SOL    HW240254   3.319   2.750   4.575 -1.1939 -1.7342 -2.9272
 9540SOL     OW40255   4.312   0.004   3.151 -0.3435  0.0396 -0.2725
 9540SOL    HW140256   4.364   0.076   3.115  0.1740  0.1375  0.6849
 9540SOL    HW240257   4.312   0.031   3.243 -0.3603 -0.0715 -0.2403
 9541SOL     OW40258   0.401   1.097   8.759  0.3880  0.2450 -0.6356
 9541SOL    HW140259   0.423   1.189   8.749  0.9288  0.1513 -0.3054
 9541SOL    HW240260   0.364   1.085   8.846  3.2816  0.0634  0.5717
 9542SOL     OW40261   0.349   2.020  15.549 -0.8142  0.3649  0.0966
 9542SOL    HW140262   0.272   2.050  15.597 -0.9617 -0.5700  0.4449
 9542SOL    HW240263   0.312   1.987  15.467 -0.2101  0.0749 -0.0618
 9543SOL     OW40264   3.295   3.495  17.353  0.4364  0.1322  0.1662
 9543SOL    HW140265   3.264   3.535  17.435 -1.0869 -0.0389 -0.3332
 9543SOL    HW240266   3.329   3.413  17.387 -1.0256 -0.0130  1.3093
 9544SOL     OW40267   2.930   3.333   2.126 -0.1485 -0.7774  0.2248
 9544SOL    HW140268   2.851   3.326   2.180 -1.8398  3.7492 -1.6186
 9544SOL    HW240269   2.997   3.326   2.193 -1.4010 -1.3157  1.4191
 9545SOL     OW40270   1.275   2.583   4.696 -0.0531 -0.0693 -0.3021
 9545SOL    HW140271   1.231   2.506   4.661  1.8828  0.3802 -3.7253
 9545SOL    HW240272   1.209   2.650   4.682  0.4309 -0.2388 -3.2776
 9546SOL     OW40273   3.637   1.911   6.758  0.0780  0.2241 -0.0379
 9546SOL    HW140274   3.572   1.851   6.794 -0.0824  1.4106  1.6333
 9546SOL    HW240275   3.656   1.956   6.841 -0.4059 -1.0603  0.7762
 9547SOL     OW40276   4.305   2.953  15.284  0.4952 -0.6731 -0.2810
 9547SOL    HW140277   4.364   2.879  15.272  1.2132  0.2157 -2.2216
 9547SOL    HW240278   4.215   2.920  15.281  0.6090 -1.0480  0.3523
 9548SOL     OW40279   4.316   1.875   2.608  0.6163  0.1976 -0.0875
 9548SOL    HW140280   4.298   1.969   2.611 -1.4180 -0.1645 -1.3171
 9548SOL    HW240281   4.260   1.842   2.678 -2.2952  1.9101 -1.6523
 9549SOL     OW40282   4.128   1.029   2.571 -1.0058 -0.3003  0.1212
 9549SOL    HW140283   4.179   1.109   2.556 -1.2354 -0.2372 -0.2967
 9549SOL    HW240284   4.092   1.054   2.656 -2.1984 -0.8654 -0.2274
 9550SOL     OW40285   0.143   3.636   5.803 -0.5479 -0.5803 -0.2891
 9550SOL    HW140286   0.050   3.616   5.813 -0.6225 -0.3365 -0.5036
 9550SOL    HW240287   0.184   3.554   5.833  0.4692  0.4816  1.2220
 9551SOL     OW40288   2.787   1.039  10.319  0.0704  0.1395 -0.8913
 9551SOL    HW140289   2.693   1.030  10.333  0.1861 -0.3064 -0.4046
 9551SOL    HW240290   2.830   0.972  10.372 -0.2626  0.5546 -0.0844
 9552SOL     OW40291   3.565   3.905   3.199  1.1924 -0.2542  0.0650
 9552SOL    HW140292   3.652   3.916   3.238  0.8974 -0.9241  0.9335
 9552SOL    HW240293   3.593   3.837   3.138 -2.0609 -1.5763  0.0524
 9553SOL     OW40294   0.962   3.180  17.674 -0.2130  0.3373  0.3217
 9553SOL    HW140295   0.973   3.186   0.014 -2.1324  0.4225  0.5364
 9553SOL    HW240296   1.018   3.246  17.633  0.1049 -0.1200  0.0215
 9554SOL     OW40297   4.231   4.464   9.049  0.2214  0.8623  0.1412
 9554SOL    HW140298   4.203   4.461   9.140  0.0779  0.0356  0.0682
 9554SOL    HW240299   4.282   4.545   9.041  0.0967  1.1048  1.8902
 9555SOL     OW40300   2.628   1.181   1.478 -0.9553 -0.6064 -0.4217
 9555SOL    HW140301   2.539   1.197   1.446 -0.3828 -0.0785 -1.7375
 9555SOL    HW240302   2.600   1.116   1.542  0.2544  0.6907  1.4354
 9556SOL     OW40303   0.331   2.637   1.598 -0.0185  0.3733  0.2636
 9556SOL    HW140304   0.357   2.712   1.652 -0.8135  1.6121 -1.0477
 9556SOL    HW240305   0.278   2.584   1.657  1.5768 -0.2084  1.1571
 9557SOL     OW40306   3.683   1.989   0.058 -0.4807 -0.3389  0.1411
 9557SOL    HW140307   3.713   1.902   0.084 -0.3904 -0.2784  0.2382
 9557SOL    HW240308   3.613   1.965  17.753 -0.4755  1.9054 -0.7337
 9558SOL     OW40309   4.586   3.410   2.221  0.6362 -0.4379  0.1011
 9558SOL    HW140310   4.682   3.412   2.220  0.6454 -0.7601  0.8566
 9558SOL    HW240311   4.564   3.371   2.136  2.4730  2.8610 -1.8783
 9559SOL     OW40312   2.803   3.533   7.417 -0.2898 -0.1461 -0.0095
 9559SOL    HW140313   2.803   3.612   7.471 -0.5992  0.0754 -0.3332
 9559SOL    HW240314   2.888   3.499   7.443 -0.4885  0.3588  1.3017
 9560SOL     OW40315   2.857   1.532   4.982  0.4258 -0.2073  0.0559
 9560SOL    HW140316   2.843   1.520   5.076  2.7505 -2.1493  0.1615
 9560SOL    HW240317   2.820   1.453   4.943  0.6195  1.9451 -4.4508
 9561SOL     OW40318   3.791   4.711   7.772 -0.3629 -0.4427  0.2510
 9561SOL    HW140319   3.712   4.679   7.816 -2.0041 -1.2125 -3.2665
 9561SOL    HW240320   3.746   0.012   7.698  0.7352 -0.7656 -0.5860
 9562SOL     OW40321   4.271   4.727   6.799 -0.4905  0.2685 -0.1490
 9562SOL    HW140322   4.199   0.021   6.852  0.8396  0.5160  1.4944
 9562SOL    HW240323   4.258   0.024   6.712 -0.7625  0.7101  0.0781
 9563SOL     OW40324   0.393   1.259   5.891 -0.0625  0.0080  0.3174
 9563SOL    HW140325   0.393   1.164   5.886  1.1863 -0.0008  0.5216
 9563SOL    HW240326   0.478   1.287   5.856 -0.1315 -1.1318 -0.7797
 9564SOL     OW40327   1.539   2.335   5.046  0.1892  0.1745  0.3626
 9564SOL    HW140328   1.554   2.384   4.965  0.4400  0.1186  0.3757
 9564SOL    HW240329   1.555   2.242   5.028 -0.8518 -0.2966  1.9320
 9565SOL     OW40330   3.815   4.173  13.234  0.2439  0.2612 -0.1278
 9565SOL    HW140331   3.813   4.144  13.325 -1.8538 -0.1294 -0.2983
 9565SOL    HW240332   3.809   4.268  13.246 -2.4906 -0.1443  1.6165
 9566SOL     OW40333   3.466   1.486   5.387 -0.2826 -0.0280 -0.2313
 9566SOL    HW140334   3.398   1.512   5.325 -0.4598  0.5499  0.2019
 9566SOL    HW240335   3.440   1.400   5.419  2.4817 -1.0170 -0.5662
 9567SOL     OW40336   3.326   2.413   9.901 -0.1531  0.1987 -0.7731
 9567SOL    HW140337   3.365   2.478   9.959 -0.3081 -0.7028  0.3522
 9567SOL    HW240338   3.291   2.474   9.836 -1.4694 -0.6129 -0.8279
 9568SOL     OW40339   0.995   4.253   8.686  0.8679  0.1672 -0.1318
 9568SOL    HW140340   1.066   4.242   8.750  0.7018 -2.0480 -0.3216
 9568SOL    HW240341   1.031   4.189   8.625 -2.0060 -1.6673  0.1166
 9569SOL     OW40342   4.044   1.750   5.396 -0.2408 -0.3332 -0.0014
 9569SOL    HW140343   4.072   1.765   5.306 -0.2598  1.9487  0.3888
 9569SOL    HW240344   3.952   1.776   5.389  0.4465  1.8196 -0.9026
   4.73944   4.73944  17.75550
